 Entering Gaussian System, Link 0=g16
 Initial command:
 /storage/apps/GAUSSIAN/G16_RevA03/g16/l1.exe "/scratch/tmp/1019177/Gau-226776.inp" -scrdir="/scratch/tmp/1019177/"
 Entering Link 1 = /storage/apps/GAUSSIAN/G16_RevA03/g16/l1.exe PID=    226777.
  
 Copyright (c) 1988,1990,1992,1993,1995,1998,2003,2009,2016,
            Gaussian, Inc.  All Rights Reserved.
  
 This is part of the Gaussian(R) 16 program.  It is based on
 the Gaussian(R) 09 system (copyright 2009, Gaussian, Inc.),
 the Gaussian(R) 03 system (copyright 2003, Gaussian, Inc.),
 the Gaussian(R) 98 system (copyright 1998, Gaussian, Inc.),
 the Gaussian(R) 94 system (copyright 1995, Gaussian, Inc.),
 the Gaussian 92(TM) system (copyright 1992, Gaussian, Inc.),
 the Gaussian 90(TM) system (copyright 1990, Gaussian, Inc.),
 the Gaussian 88(TM) system (copyright 1988, Gaussian, Inc.),
 the Gaussian 86(TM) system (copyright 1986, Carnegie Mellon
 University), and the Gaussian 82(TM) system (copyright 1983,
 Carnegie Mellon University). Gaussian is a federally registered
 trademark of Gaussian, Inc.
  
 This software contains proprietary and confidential information,
 including trade secrets, belonging to Gaussian, Inc.
  
 This software is provided under written license and may be
 used, copied, transmitted, or stored only in accord with that
 written license.
  
 The following legend is applicable only to US Government
 contracts under FAR:
  
                    RESTRICTED RIGHTS LEGEND
  
 Use, reproduction and disclosure by the US Government is
 subject to restrictions as set forth in subparagraphs (a)
 and (c) of the Commercial Computer Software - Restricted
 Rights clause in FAR 52.227-19.
  
 Gaussian, Inc.
 340 Quinnipiac St., Bldg. 40, Wallingford CT 06492
  
  
 ---------------------------------------------------------------
 Warning -- This program may not be used in any manner that
 competes with the business of Gaussian, Inc. or will provide
 assistance to any competitor of Gaussian, Inc.  The licensee
 of this program is prohibited from giving any competitor of
 Gaussian, Inc. access to this program.  By using this program,
 the user acknowledges that Gaussian, Inc. is engaged in the
 business of creating and licensing software in the field of
 computational chemistry and represents and warrants to the
 licensee that it is not a competitor of Gaussian, Inc. and that
 it will not use this program in any manner prohibited above.
 ---------------------------------------------------------------
  

 Cite this work as:
 Gaussian 16, Revision A.03,
 M. J. Frisch, G. W. Trucks, H. B. Schlegel, G. E. Scuseria, 
 M. A. Robb, J. R. Cheeseman, G. Scalmani, V. Barone, 
 G. A. Petersson, H. Nakatsuji, X. Li, M. Caricato, A. V. Marenich, 
 J. Bloino, B. G. Janesko, R. Gomperts, B. Mennucci, H. P. Hratchian, 
 J. V. Ortiz, A. F. Izmaylov, J. L. Sonnenberg, D. Williams-Young, 
 F. Ding, F. Lipparini, F. Egidi, J. Goings, B. Peng, A. Petrone, 
 T. Henderson, D. Ranasinghe, V. G. Zakrzewski, J. Gao, N. Rega, 
 G. Zheng, W. Liang, M. Hada, M. Ehara, K. Toyota, R. Fukuda, 
 J. Hasegawa, M. Ishida, T. Nakajima, Y. Honda, O. Kitao, H. Nakai, 
 T. Vreven, K. Throssell, J. A. Montgomery, Jr., J. E. Peralta, 
 F. Ogliaro, M. J. Bearpark, J. J. Heyd, E. N. Brothers, K. N. Kudin, 
 V. N. Staroverov, T. A. Keith, R. Kobayashi, J. Normand, 
 K. Raghavachari, A. P. Rendell, J. C. Burant, S. S. Iyengar, 
 J. Tomasi, M. Cossi, J. M. Millam, M. Klene, C. Adamo, R. Cammi, 
 J. W. Ochterski, R. L. Martin, K. Morokuma, O. Farkas, 
 J. B. Foresman, and D. J. Fox, Gaussian, Inc., Wallingford CT, 2016.
 
 ******************************************
 Gaussian 16:  ES64L-G16RevA.03 25-Dec-2016
                13-Aug-2022 
 ******************************************
 %NProcShared=16
 Will use up to   16 processors via shared memory.
 %mem=20GB
 ----------------------------------------------------------------------
 #P M062X/Def2TZVP scf=(direct,conver=8) EmpiricalDispersion=GD3 Force 
 Charge Prop=(Field,Read)
 ----------------------------------------------------------------------
 1/10=7,18=10,28=-2,30=1,38=1,125=101/1,3;
 2/12=2,17=6,18=5,29=2,40=1/2;
 3/5=44,7=101,11=2,25=1,30=1,71=1,74=-55,124=31/1,2,3;
 4//1;
 5/5=2,6=8,38=5/2;
 6/7=2,8=2,9=2,10=2,14=2,15=1,28=1/1,2;
 7/7=1,16=-2,29=1/1,2,3,16;
 1/10=7,18=10,28=-2,30=1/3;
 99/12=1/99;
 Leave Link    1 at Sat Aug 13 20:09:18 2022, MaxMem=  2684354560 cpu:               0.6 elap:               0.0
 (Enter /storage/apps/GAUSSIAN/G16_RevA03/g16/l101.exe)
 ------------
 Gaussian run
 ------------
 Symbolic Z-matrix:
 Charge =  0 Multiplicity = 1
 C                     3.60168  -3.61667  -0.44356 
 H                     3.75016  -3.71249  -1.5184 
 H                     4.33349  -4.24247   0.06851 
 C                     1.88171  -1.44889   1.23285 
 H                     1.22913  -2.31913   1.095 
 O                     1.49288  -0.68742   2.3369 
 H                     0.5656   -0.41411   2.20713 
 C                     3.32913  -1.88939   1.40621 
 H                     3.42281  -2.77532   2.04205 
 O                     4.08837  -0.81817   1.91605 
 H                     3.54489  -0.38693   2.58843 
 C                     1.96264  -0.66293  -0.08676 
 H                     2.26708   0.36662   0.12827 
 C                     3.76146  -2.16725  -0.02898 
 H                     4.79488  -1.84105  -0.15777 
 O                     2.9302   -1.33912  -0.85511 
 N                     0.73481  -0.59799  -0.83621 
 C                     0.18829  -1.77459  -1.34397 
 H                     0.78747  -2.65919  -1.18351 
 C                    -0.94721  -1.79762  -2.03328 
 H                    -1.29034  -2.74149  -2.43433 
 C                    -1.75985  -0.5653   -2.28706 
 H                    -2.02598  -0.50006  -3.3495 
 H                    -2.71971  -0.64521  -1.76728 
 C                    -1.00375   0.66413  -1.86117 
 C                     0.15527   0.58375  -1.18345 
 H                     0.66902   1.49003  -0.8841 
 C                    -1.50287   2.01775  -2.17522 
 O                    -0.84591   3.03219  -2.03405 
 N                    -2.78412   2.0673   -2.66573 
 H                    -3.18334   2.98359  -2.78359 
 H                    -3.40596   1.28334  -2.57481 
 H                     2.60357  -3.98769  -0.19923 
 C                     0.19944   2.2001    2.83263 
 C                    -1.62203   0.91035   1.25595 
 C                    -2.86833   0.85948   0.47871 
 C                    -4.79695  -0.42386  -0.4336 
 C                    -3.42641  -0.30154   0.14768 
 O                    -0.97317  -0.07383   1.55598 
 S                    -1.22533   2.53673   1.78966 
 H                     0.44009   3.13486   3.33355 
 H                     1.04819   1.87227   2.2376 
 H                    -5.505    -0.63731   0.37181 
 H                    -5.1153    0.50417  -0.91019 
 H                    -4.87498  -1.24243  -1.14948 
 H                    -2.88969  -1.21333   0.39631 
 H                    -3.35145   1.80519   0.25811 
 H                    -0.04897   1.44021   3.57054 
 
 ITRead=  0  0  0  0  0  0  0  0  0  0  0  0  0  0  0  0  0  0  0  0
 ITRead=  0  0  0  0  0  0  0  0  0  0  0  0  0  0  0  0  0  0  0  0
 ITRead=  0  0  0  0  0  0  0  0
 MicOpt= -1 -1 -1 -1 -1 -1 -1 -1 -1 -1 -1 -1 -1 -1 -1 -1 -1 -1 -1 -1
 MicOpt= -1 -1 -1 -1 -1 -1 -1 -1 -1 -1 -1 -1 -1 -1 -1 -1 -1 -1 -1 -1
 MicOpt= -1 -1 -1 -1 -1 -1 -1 -1
 NAtoms=     48 NQM=       48 NQMF=       0 NMMI=      0 NMMIF=      0
                NMic=       0 NMicF=      0.
                    Isotopes and Nuclear Properties:
 (Nuclear quadrupole moments (NQMom) in fm**2, nuclear magnetic moments (NMagM)
  in nuclear magnetons)

  Atom         1           2           3           4           5           6           7           8           9          10
 IAtWgt=          12           1           1          12           1          16           1          12           1          16
 AtmWgt=  12.0000000   1.0078250   1.0078250  12.0000000   1.0078250  15.9949146   1.0078250  12.0000000   1.0078250  15.9949146
 NucSpn=           0           1           1           0           1           0           1           0           1           0
 AtZEff=  -0.0000000  -0.0000000  -0.0000000  -0.0000000  -0.0000000  -0.0000000  -0.0000000  -0.0000000  -0.0000000  -0.0000000
 NQMom=    0.0000000   0.0000000   0.0000000   0.0000000   0.0000000   0.0000000   0.0000000   0.0000000   0.0000000   0.0000000
 NMagM=    0.0000000   2.7928460   2.7928460   0.0000000   2.7928460   0.0000000   2.7928460   0.0000000   2.7928460   0.0000000
 AtZNuc=   6.0000000   1.0000000   1.0000000   6.0000000   1.0000000   8.0000000   1.0000000   6.0000000   1.0000000   8.0000000

  Atom        11          12          13          14          15          16          17          18          19          20
 IAtWgt=           1          12           1          12           1          16          14          12           1          12
 AtmWgt=   1.0078250  12.0000000   1.0078250  12.0000000   1.0078250  15.9949146  14.0030740  12.0000000   1.0078250  12.0000000
 NucSpn=           1           0           1           0           1           0           2           0           1           0
 AtZEff=  -0.0000000  -0.0000000  -0.0000000  -0.0000000  -0.0000000  -0.0000000  -0.0000000  -0.0000000  -0.0000000  -0.0000000
 NQMom=    0.0000000   0.0000000   0.0000000   0.0000000   0.0000000   0.0000000   2.0440000   0.0000000   0.0000000   0.0000000
 NMagM=    2.7928460   0.0000000   2.7928460   0.0000000   2.7928460   0.0000000   0.4037610   0.0000000   2.7928460   0.0000000
 AtZNuc=   1.0000000   6.0000000   1.0000000   6.0000000   1.0000000   8.0000000   7.0000000   6.0000000   1.0000000   6.0000000

  Atom        21          22          23          24          25          26          27          28          29          30
 IAtWgt=           1          12           1           1          12          12           1          12          16          14
 AtmWgt=   1.0078250  12.0000000   1.0078250   1.0078250  12.0000000  12.0000000   1.0078250  12.0000000  15.9949146  14.0030740
 NucSpn=           1           0           1           1           0           0           1           0           0           2
 AtZEff=  -0.0000000  -0.0000000  -0.0000000  -0.0000000  -0.0000000  -0.0000000  -0.0000000  -0.0000000  -0.0000000  -0.0000000
 NQMom=    0.0000000   0.0000000   0.0000000   0.0000000   0.0000000   0.0000000   0.0000000   0.0000000   0.0000000   2.0440000
 NMagM=    2.7928460   0.0000000   2.7928460   2.7928460   0.0000000   0.0000000   2.7928460   0.0000000   0.0000000   0.4037610
 AtZNuc=   1.0000000   6.0000000   1.0000000   1.0000000   6.0000000   6.0000000   1.0000000   6.0000000   8.0000000   7.0000000

  Atom        31          32          33          34          35          36          37          38          39          40
 IAtWgt=           1           1           1          12          12          12          12          12          16          32
 AtmWgt=   1.0078250   1.0078250   1.0078250  12.0000000  12.0000000  12.0000000  12.0000000  12.0000000  15.9949146  31.9720718
 NucSpn=           1           1           1           0           0           0           0           0           0           0
 AtZEff=  -0.0000000  -0.0000000  -0.0000000  -0.0000000  -0.0000000  -0.0000000  -0.0000000  -0.0000000  -0.0000000  -0.0000000
 NQMom=    0.0000000   0.0000000   0.0000000   0.0000000   0.0000000   0.0000000   0.0000000   0.0000000   0.0000000   0.0000000
 NMagM=    2.7928460   2.7928460   2.7928460   0.0000000   0.0000000   0.0000000   0.0000000   0.0000000   0.0000000   0.0000000
 AtZNuc=   1.0000000   1.0000000   1.0000000   6.0000000   6.0000000   6.0000000   6.0000000   6.0000000   8.0000000  16.0000000

  Atom        41          42          43          44          45          46          47          48
 IAtWgt=           1           1           1           1           1           1           1           1
 AtmWgt=   1.0078250   1.0078250   1.0078250   1.0078250   1.0078250   1.0078250   1.0078250   1.0078250
 NucSpn=           1           1           1           1           1           1           1           1
 AtZEff=  -0.0000000  -0.0000000  -0.0000000  -0.0000000  -0.0000000  -0.0000000  -0.0000000  -0.0000000
 NQMom=    0.0000000   0.0000000   0.0000000   0.0000000   0.0000000   0.0000000   0.0000000   0.0000000
 NMagM=    2.7928460   2.7928460   2.7928460   2.7928460   2.7928460   2.7928460   2.7928460   2.7928460
 AtZNuc=   1.0000000   1.0000000   1.0000000   1.0000000   1.0000000   1.0000000   1.0000000   1.0000000
 Background charge distribution read from input stream:
 Leave Link  101 at Sat Aug 13 20:09:18 2022, MaxMem=  2684354560 cpu:               1.7 elap:               0.1
 (Enter /storage/apps/GAUSSIAN/G16_RevA03/g16/l103.exe)

 GradGradGradGradGradGradGradGradGradGradGradGradGradGradGradGradGradGrad
 Berny optimization.
 Initialization pass.
 Trust Radius=3.00D-01 FncErr=1.00D-07 GrdErr=1.00D-07 EigMax=2.50D+02 EigMin=1.00D-04
 Number of steps in this run=      2 maximum allowed number of steps=      2.
 GradGradGradGradGradGradGradGradGradGradGradGradGradGradGradGradGradGrad

 Leave Link  103 at Sat Aug 13 20:09:18 2022, MaxMem=  2684354560 cpu:               0.3 elap:               0.0
 (Enter /storage/apps/GAUSSIAN/G16_RevA03/g16/l202.exe)
 ---------------------------------------------------------------------------------------------------
                            Z-MATRIX (ANGSTROMS AND DEGREES)
   CD    Cent   Atom    N1       Length/X        N2       Alpha/Y        N3        Beta/Z          J
 ---------------------------------------------------------------------------------------------------
      1      1  C        0   3.601681         -3.616673         -0.443560
      2      2  H        0   3.750156         -3.712491         -1.518398
      3      3  H        0   4.333494         -4.242471          0.068506
      4      4  C        0   1.881706         -1.448887          1.232850
      5      5  H        0   1.229130         -2.319125          1.094997
      6      6  O        0   1.492884         -0.687419          2.336899
      7      7  H        0   0.565595         -0.414108          2.207129
      8      8  C        0   3.329135         -1.889388          1.406205
      9      9  H        0   3.422805         -2.775321          2.042050
     10     10  O        0   4.088372         -0.818168          1.916052
     11     11  H        0   3.544894         -0.386928          2.588430
     12     12  C        0   1.962637         -0.662931         -0.086762
     13     13  H        0   2.267080          0.366622          0.128265
     14     14  C        0   3.761455         -2.167247         -0.028981
     15     15  H        0   4.794876         -1.841046         -0.157765
     16     16  O        0   2.930197         -1.339122         -0.855108
     17     17  N        0   0.734810         -0.597989         -0.836213
     18     18  C        0   0.188288         -1.774589         -1.343970
     19     19  H        0   0.787468         -2.659186         -1.183507
     20     20  C        0  -0.947208         -1.797620         -2.033277
     21     21  H        0  -1.290336         -2.741486         -2.434328
     22     22  C        0  -1.759847         -0.565295         -2.287063
     23     23  H        0  -2.025977         -0.500061         -3.349503
     24     24  H        0  -2.719713         -0.645213         -1.767280
     25     25  C        0  -1.003745          0.664130         -1.861169
     26     26  C        0   0.155265          0.583754         -1.183452
     27     27  H        0   0.669022          1.490033         -0.884096
     28     28  C        0  -1.502869          2.017753         -2.175219
     29     29  O        0  -0.845912          3.032187         -2.034052
     30     30  N        0  -2.784116          2.067298         -2.665732
     31     31  H        0  -3.183337          2.983589         -2.783585
     32     32  H        0  -3.405961          1.283338         -2.574807
     33     33  H        0   2.603565         -3.987685         -0.199234
     34     34  C        0   0.199443          2.200104          2.832631
     35     35  C        0  -1.622033          0.910353          1.255953
     36     36  C        0  -2.868329          0.859482          0.478709
     37     37  C        0  -4.796949         -0.423855         -0.433603
     38     38  C        0  -3.426409         -0.301539          0.147675
     39     39  O        0  -0.973167         -0.073825          1.555978
     40     40  S        0  -1.225334          2.536734          1.789663
     41     41  H        0   0.440085          3.134858          3.333547
     42     42  H        0   1.048195          1.872273          2.237604
     43     43  H        0  -5.504995         -0.637308          0.371807
     44     44  H        0  -5.115301          0.504171         -0.910186
     45     45  H        0  -4.874984         -1.242432         -1.149475
     46     46  H        0  -2.889685         -1.213334          0.396306
     47     47  H        0  -3.351446          1.805188          0.258105
     48     48  H        0  -0.048967          1.440207          3.570540
 ---------------------------------------------------------------------------------------------------
                         Z-Matrix orientation:                         
 ---------------------------------------------------------------------
 Center     Atomic      Atomic             Coordinates (Angstroms)
 Number     Number       Type             X           Y           Z
 ---------------------------------------------------------------------
      1          6           0        3.601681   -3.616673   -0.443560
      2          1           0        3.750156   -3.712491   -1.518398
      3          1           0        4.333494   -4.242471    0.068506
      4          6           0        1.881706   -1.448887    1.232850
      5          1           0        1.229130   -2.319125    1.094997
      6          8           0        1.492884   -0.687419    2.336899
      7          1           0        0.565595   -0.414108    2.207129
      8          6           0        3.329135   -1.889388    1.406205
      9          1           0        3.422805   -2.775321    2.042050
     10          8           0        4.088372   -0.818168    1.916052
     11          1           0        3.544894   -0.386928    2.588430
     12          6           0        1.962637   -0.662931   -0.086762
     13          1           0        2.267080    0.366622    0.128265
     14          6           0        3.761455   -2.167247   -0.028981
     15          1           0        4.794876   -1.841046   -0.157765
     16          8           0        2.930197   -1.339122   -0.855108
     17          7           0        0.734810   -0.597989   -0.836213
     18          6           0        0.188288   -1.774589   -1.343970
     19          1           0        0.787468   -2.659186   -1.183507
     20          6           0       -0.947208   -1.797620   -2.033277
     21          1           0       -1.290336   -2.741486   -2.434328
     22          6           0       -1.759847   -0.565295   -2.287063
     23          1           0       -2.025977   -0.500061   -3.349503
     24          1           0       -2.719713   -0.645213   -1.767280
     25          6           0       -1.003745    0.664130   -1.861169
     26          6           0        0.155265    0.583754   -1.183452
     27          1           0        0.669022    1.490033   -0.884096
     28          6           0       -1.502869    2.017753   -2.175219
     29          8           0       -0.845912    3.032187   -2.034052
     30          7           0       -2.784116    2.067298   -2.665732
     31          1           0       -3.183337    2.983589   -2.783585
     32          1           0       -3.405961    1.283338   -2.574807
     33          1           0        2.603565   -3.987685   -0.199234
     34          6           0        0.199443    2.200104    2.832631
     35          6           0       -1.622033    0.910353    1.255953
     36          6           0       -2.868329    0.859482    0.478709
     37          6           0       -4.796949   -0.423855   -0.433603
     38          6           0       -3.426409   -0.301539    0.147675
     39          8           0       -0.973167   -0.073825    1.555978
     40         16           0       -1.225334    2.536734    1.789663
     41          1           0        0.440085    3.134858    3.333547
     42          1           0        1.048195    1.872273    2.237604
     43          1           0       -5.504995   -0.637308    0.371807
     44          1           0       -5.115301    0.504171   -0.910186
     45          1           0       -4.874984   -1.242432   -1.149475
     46          1           0       -2.889685   -1.213334    0.396306
     47          1           0       -3.351446    1.805188    0.258105
     48          1           0       -0.048967    1.440207    3.570540
 ---------------------------------------------------------------------
                    Distance matrix (angstroms):
                    1          2          3          4          5
     1  C    0.000000
     2  H    1.089267   0.000000
     3  H    1.090589   1.771843   0.000000
     4  C    3.235423   4.022981   3.895006   0.000000
     5  H    3.111236   3.889328   3.793418   1.096437   0.000000
     6  O    4.556150   5.395336   5.084591   1.396403   2.067450
     7  H    5.147853   5.907648   5.781620   1.937043   2.303520
     8  C    2.545472   3.471925   2.887070   1.522874   2.165998
     9  H    2.630233   3.696246   2.622358   2.188428   2.432537
    10  O    3.692732   4.504103   3.898636   2.394566   3.332007
    11  H    4.430287   5.288434   4.673020   2.394065   3.365485
    12  C    3.396816   3.813741   4.296298   1.538068   2.162768
    13  H    4.239668   4.642217   5.051473   2.159790   3.037293
    14  C    1.515994   2.146222   2.154829   2.375229   2.774719
    15  H    2.158297   2.538714   2.455792   3.251793   3.809530
    16  O    2.409876   2.597146   3.354361   2.339006   2.767118
    17  N    4.181576   4.388372   5.201086   2.514044   2.633673
    18  C    3.981867   4.058669   5.026755   3.100604   2.707108
    19  H    3.063347   3.162139   4.080273   2.915641   2.345695
    20  C    5.150587   5.098731   6.187132   4.334969   3.846364
    21  H    5.353591   5.214244   6.335976   5.018053   4.356860
    22  C    6.438586   6.391856   7.496608   5.141151   4.842338
    23  H    7.058917   6.858306   8.132115   6.096574   5.801577
    24  H    7.109278   7.164450   8.127614   5.551552   5.156353
    25  C    6.445529   6.470848   7.502300   4.729019   4.756517
    26  C    5.483503   5.611876   6.505186   3.598714   3.843335
    27  H    5.905337   6.079637   6.870037   3.819596   4.328997
    28  C    7.797553   7.801371   8.848042   5.923502   6.080020
    29  O    8.155862   8.178045   9.174293   6.180014   6.537070
    30  N    8.833118   8.798809   9.896950   7.023702   7.034908
    31  H    9.750674   9.721703  10.809862   7.837937   7.914041
    32  H    8.812455   8.791150   9.870199   7.065602   6.923097
    33  H    1.092511   1.769349   1.768970   3.002905   2.519563
    34  C    7.492900   8.154618   8.138645   4.324863   4.950056
    35  C    7.118251   7.611053   7.964291   4.224066   4.310982
    36  C    7.921337   8.288288   8.835409   5.334804   5.222310
    37  C    8.985053   9.221980   9.909537   6.959324   6.499407
    38  C    7.793184   8.118712   8.703638   5.538059   5.161600
    39  O    6.122022   6.708313   6.910198   3.185201   3.178677
    40  S    8.133374   8.645900   8.934236   5.084183   5.485100
    41  H    8.357356   9.021315   8.957908   5.244227   5.948078
    42  H    6.620986   7.252429   7.272432   3.568526   4.348115
    43  H    9.616288   9.934155  10.482607   7.480869   6.978535
    44  H    9.653231   9.835979  10.619236   7.573978   7.227971
    45  H    8.831149   8.979440   9.761136   7.167353   6.592202
    46  H    6.972750   7.348426   7.839479   4.849893   4.321525
    47  H    8.845049   9.166979   9.781024   6.238991   6.220291
    48  H    7.417025   8.178076   7.985176   4.187978   4.679148
                    6          7          8          9         10
     6  O    0.000000
     7  H    0.975399   0.000000
     8  C    2.383850   3.233432   0.000000
     9  H    2.858473   3.710287   1.094509   0.000000
    10  O    2.632635   3.557801   1.408509   2.071063   0.000000
    11  H    2.089093   3.003723   1.923953   2.453132   0.966141
    12  C    2.468886   2.697327   2.366530   3.335584   2.924741
    13  H    2.566797   2.797546   2.801905   3.856174   2.813719
    14  C    3.596344   4.276354   1.524423   2.184859   2.389569
    15  H    4.296202   5.051306   2.144000   2.755836   2.417880
    16  O    3.560828   3.977975   2.361246   3.270910   3.048293
    17  N    3.263635   3.053584   3.664242   4.500054   4.343941
    18  C    4.053727   3.821462   4.176310   4.788392   5.172344
    19  H    4.096185   4.072593   3.709349   4.166858   4.888004
    20  C    5.126893   4.709960   5.488676   6.054850   6.474071
    21  H    5.893226   5.514009   6.067559   6.500216   7.180213
    22  C    5.654750   5.062440   6.425822   7.105302   7.206371
    23  H    6.689742   6.131867   7.295493   7.995929   8.075427
    24  H    5.881500   5.161646   6.943165   7.535176   7.742536
    25  C    5.067901   4.491823   5.997502   6.830760   6.511088
    26  C    3.974667   3.558109   4.784998   5.688942   5.200158
    27  H    3.974274   3.632096   4.872593   5.859940   4.986038
    28  C    6.054065   5.421943   7.172211   8.063571   7.486182
    29  O    6.197632   5.644193   7.313569   8.280320   7.401062
    30  N    7.134950   6.412699   8.343133   9.172788   8.749271
    31  H    7.846190   7.106762   9.149456  10.004644   9.456093
    32  H    7.211617   6.443717   8.442521   9.188043   8.986054
    33  H    4.307823   4.765958   2.739842   2.676627   4.089612
    34  C    3.202582   2.712826   5.343558   5.980797   5.007380
    35  C    3.663881   2.728488   5.689920   6.297026   6.002686
    36  C    4.986577   4.049852   6.842886   7.431971   7.299052
    37  C    6.878019   5.977494   8.459664   8.900708   9.199201
    38  C    5.398245   4.493342   7.052839   7.524625   7.737312
    39  O    2.658523   1.705162   4.672098   5.182559   5.128633
    40  S    4.252451   3.476949   6.362451   7.063061   6.285445
    41  H    4.087969   3.725551   6.107725   6.744983   5.562886
    42  H    2.599929   2.336957   4.477053   5.222753   4.072413
    43  H    7.268728   6.345887   8.982179   9.330939   9.718544
    44  H    7.458656   6.544728   9.077626   9.610932   9.718220
    45  H    7.280974   6.446147   8.617286   9.021579   9.482574
    46  H    4.821763   3.982060   6.336455   6.707891   7.152556
    47  H    5.831124   4.905831   7.719986   8.369827   8.061121
    48  H    2.902752   2.382238   5.213648   5.670993   4.995514
                   11         12         13         14         15
    11  H    0.000000
    12  C    3.120315   0.000000
    13  H    2.872814   1.094944   0.000000
    14  C    3.172897   2.345645   2.945908   0.000000
    15  H    3.349403   3.068318   3.368288   1.091307   0.000000
    16  O    3.625256   1.408461   2.077573   1.435015   2.053106
    17  N    4.435008   1.439949   2.051474   3.503537   4.299956
    18  C    5.353146   2.442267   3.327707   3.827649   4.757326
    19  H    5.195581   2.562988   3.614625   3.227930   4.216731
    20  C    6.597667   3.680168   4.437100   5.130822   6.040775
    21  H    7.358770   4.518107   5.374237   5.624592   6.559218
    22  C    7.207116   4.325245   4.787319   6.176565   7.008983
    23  H    8.142877   5.155681   5.592526   6.877481   7.649148
    24  H    7.634410   4.974822   5.430010   6.880684   7.777506
    25  C    6.449323   3.702571   3.839877   5.837871   6.542285
    26  C    5.163226   2.454291   2.495498   4.680322   5.334574
    27  H    4.883857   2.635230   2.200163   4.865189   5.352225
    28  C    7.345390   4.853602   4.716438   7.059297   7.656503
    29  O    7.234422   5.033268   4.633743   7.230647   7.686829
    30  N    8.584044   6.052842   6.017749   8.229722   8.888542
    31  H    9.245973   6.859374   6.710770   9.074640   9.686275
    32  H    8.818344   6.228979   6.350619   8.352222   9.102615
    33  H    4.650013   3.387835   4.379551   2.164183   3.067837
    34  C    4.236084   4.452940   3.866571   6.320641   6.811121
    35  C    5.491409   4.138595   4.085648   6.332821   7.123589
    36  C    6.865413   5.096639   5.170894   7.305674   8.150010
    37  C    8.872451   6.772700   7.130291   8.743536   9.699878
    38  C    7.386721   5.406235   5.732594   7.428153   8.369761
    39  O    4.645091   3.415346   3.568131   5.413978   6.271388
    40  S    5.651628   4.891011   4.434702   7.092459   7.694177
    41  H    4.753737   5.332905   4.612469   7.102845   7.477505
    42  H    3.385347   3.558952   2.863909   5.368138   5.793457
    43  H    9.320762   7.481742   7.840430   9.400449  10.383486
    44  H    9.382609   7.220621   7.456329   9.311809  10.211650
    45  H    9.251928   6.943936   7.431740   8.757789   9.738995
    46  H    6.847785   4.907273   5.400031   6.732643   7.730038
    47  H    7.602322   5.869414   5.801221   8.152056   8.934793
    48  H    4.149554   4.673927   4.285547   6.363143   6.937557
                   16         17         18         19         20
    16  O    0.000000
    17  N    2.317188   0.000000
    18  C    2.818986   1.393159   0.000000
    19  H    2.538051   2.090913   1.080406   0.000000
    20  C    4.078305   2.387731   1.328543   2.115066   0.000000
    21  H    4.719477   3.354067   2.076078   2.426643   1.081417
    22  C    4.964455   2.886061   2.479324   3.477216   1.497803
    23  H    5.611568   3.734724   3.248008   4.155578   2.140059
    24  H    5.764985   3.578106   3.148198   4.086220   2.130861
    25  C    4.527811   2.380347   2.763293   3.835635   2.468407
    26  C    3.391977   1.361236   2.364030   3.303989   2.758368
    27  H    3.621860   2.089607   3.331718   4.161694   3.839463
    28  C    5.715188   3.693542   4.234719   5.301216   3.858235
    29  O    5.895528   4.136626   4.964965   5.981896   4.830869
    30  N    6.894594   4.778466   5.034117   6.106788   4.325716
    31  H    7.731763   5.654364   6.006713   7.082969   5.331341
    32  H    7.069764   4.869095   4.876936   5.921491   3.978822
    33  H    2.748044   3.922758   3.470126   2.455995   4.557202
    34  C    5.795046   4.645036   5.765614   6.331496   6.401068
    35  C    5.499047   3.493846   4.152803   4.949573   4.313646
    36  C    6.343172   4.103152   4.427572   5.339367   4.130493
    37  C    7.792571   5.549124   5.244601   6.061747   4.389384
    38  C    6.518327   4.286218   4.178626   5.008723   3.625086
    39  O    4.759261   2.985718   3.556863   4.157969   3.981821
    40  S    6.267816   4.534741   5.514117   6.315750   5.786091
    41  H    6.615284   5.604276   6.785664   7.354957   7.420022
    42  H    4.839407   3.955851   5.183311   5.683846   5.974125
    43  H    8.552796   6.355787   6.053988   6.789851   5.282440
    44  H    8.254138   5.953489   5.788693   6.702553   4.892093
    45  H    7.811328   5.655372   5.094874   5.837098   4.064082
    46  H    5.954233   3.877463   3.580152   4.255320   3.165040
    47  H    7.112311   4.865211   5.283102   6.256156   4.900104
    48  H    6.015517   4.918132   5.877381   6.332899   6.533998
                   21         22         23         24         25
    21  H    0.000000
    22  C    2.231129   0.000000
    23  H    2.530356   1.097205   0.000000
    24  H    2.623439   1.094488   1.733715   0.000000
    25  C    3.465381   1.504846   2.148357   2.160495   0.000000
    26  C    3.835580   2.491169   3.259486   3.180678   1.345015
    27  H    4.914067   3.477369   4.159534   4.101562   2.105929
    28  C    4.771023   2.598208   2.827008   2.956097   1.476498
    29  O    5.804570   3.720372   3.949651   4.135888   2.379599
    30  N    5.040767   2.850099   2.762906   2.858160   2.405395
    31  H    6.040026   3.855831   3.714238   3.796844   3.313814
    32  H    4.549155   2.491973   2.384328   2.200533   2.581345
    33  H    4.659520   5.925466   6.596997   6.478285   6.116706
    34  C    7.374253   6.139830   7.103673   6.146258   5.083172
    35  C    5.202319   3.840507   4.833494   3.572761   3.187374
    36  C    4.893140   3.302759   4.148870   2.707519   2.998310
    37  C    4.655174   3.560802   4.023253   2.478428   4.196433
    38  C    4.145225   2.962253   3.772383   2.069924   3.292001
    39  O    4.810359   3.953400   5.035259   3.797493   3.496056
    40  S    6.760616   5.150532   6.022805   5.000980   4.109054
    41  H    8.413926   7.079696   7.997328   7.091664   5.930785
    42  H    6.970111   5.856573   6.803989   6.047641   4.740254
    43  H    5.483184   4.593573   5.096131   3.511916   5.190489
    44  H    5.242867   3.781352   4.062348   2.791870   4.223133
    45  H    4.092397   3.384775   3.675334   2.320247   4.373554
    46  H    3.592444   2.982777   3.909710   2.243381   3.489675
    47  H    5.671826   3.824952   4.481727   3.241255   3.362296
    48  H    7.421994   6.423446   7.453872   6.322514   5.569323
                   26         27         28         29         30
    26  C    0.000000
    27  H    1.083929   0.000000
    28  C    2.406110   2.581201   0.000000
    29  O    2.778615   2.448604   1.216798   0.000000
    30  N    3.610819   3.928311   1.372826   2.255364   0.000000
    31  H    4.412017   4.547465   2.031482   2.455141   1.006407
    32  H    3.886852   4.416640   2.078652   3.147180   1.004765
    33  H    5.278344   5.849520   7.538740   8.033931   8.471926
    34  C    4.329372   3.812973   5.292417   5.046755   6.257097
    35  C    3.035812   3.188224   3.607420   3.991075   4.250714
    36  C    3.461347   3.842874   3.201469   3.889060   3.369484
    37  C    5.109009   5.808851   4.454844   5.487837   3.903811
    38  C    3.922248   4.587683   3.804597   4.746854   3.733522
    39  O    3.034839   3.331126   4.310118   4.748876   5.068213
    40  S    3.815704   3.439935   4.008323   3.874304   4.743492
    41  H    5.195434   4.532811   5.947226   5.520457   6.893947
    42  H    3.763141   3.167790   5.099225   4.814570   6.226343
    43  H    5.995696   6.649914   5.436332   6.400032   4.893334
    44  H    5.278245   5.867793   4.115933   5.087398   3.310548
    45  H    5.351590   6.186501   4.801262   5.940393   4.198223
    46  H    3.872581   4.648873   4.356136   5.301707   4.488849
    47  H    3.983342   4.191433   3.063248   3.610708   2.989881
    48  H    4.834838   4.512402   5.954925   5.880559   6.838521
                   31         32         33         34         35
    31  H    0.000000
    32  H    1.727427   0.000000
    33  H    9.421559   8.339151   0.000000
    34  C    6.602949   6.563519   7.297996   0.000000
    35  C    4.801442   4.242197   6.630537   2.732608   0.000000
    36  C    3.905589   3.129323   7.341407   4.092608   1.469677
    37  C    4.442616   3.071500   8.217264   6.520535   3.835988
    38  C    4.409471   3.150264   7.075917   5.158877   2.439823
    39  O    5.750169   4.982345   5.584987   2.859302   1.216408
    40  S    4.994803   5.037334   7.822034   1.797524   1.757080
    41  H    7.111355   7.288954   8.239648   1.087470   3.676568
    42  H    6.659822   6.583741   6.534253   1.087157   3.003173
    43  H    5.334556   4.096017   8.792034   6.829874   4.272512
    44  H    3.659183   2.509962   8.958968   6.717989   4.130383
    45  H    4.836449   3.251017   8.022971   7.311500   4.582822
    46  H    5.273718   3.915025   6.182838   5.208642   2.618393
    47  H    3.266308   2.881092   8.320378   4.403743   2.187990
    48  H    7.251290   7.004235   7.121035   1.087962   2.848262
                   36         37         38         39         40
    36  C    0.000000
    37  C    2.489747   0.000000
    38  C    1.330040   1.493729   0.000000
    39  O    2.371331   4.324611   2.837881   0.000000
    40  S    2.689090   5.144359   3.949259   2.633100   0.000000
    41  H    4.926768   7.367658   6.075227   3.930990   2.348393
    42  H    4.411192   6.824460   5.395863   2.887528   2.410621
    43  H    3.033779   1.093424   2.117427   4.717758   5.513652
    44  H    2.665363   1.090739   2.149557   4.855236   5.152896
    45  H    3.331019   1.090243   2.160150   4.889713   6.020014
    46  H    2.074563   2.224788   1.086858   2.513237   4.332957
    47  H    1.084633   2.745282   2.110951   3.297177   2.720511
    48  H    4.224389   6.484691   5.114372   2.684194   2.399528
                   41         42         43         44         45
    41  H    0.000000
    42  H    1.779047   0.000000
    43  H    7.638397   7.261095   0.000000
    44  H    7.469411   7.054712   1.760211   0.000000
    45  H    8.216332   7.500516   1.754249   1.779223   0.000000
    46  H    6.214622   5.330877   2.678106   3.100018   2.516286
    47  H    5.059849   4.824910   3.258295   2.483694   3.686521
    48  H    1.779657   1.779653   6.657042   6.827943   7.263989
                   46         47         48
    46  H    0.000000
    47  H    3.056763   0.000000
    48  H    5.018637   4.691674   0.000000
 Stoichiometry    C16H24N2O5S
 Framework group  C1[X(C16H24N2O5S)]
 Deg. of freedom   138
 Full point group                 C1      NOp   1
 Largest Abelian subgroup         C1      NOp   1
 Largest concise Abelian subgroup C1      NOp   1
                         Standard orientation:                         
 ---------------------------------------------------------------------
 Center     Atomic      Atomic             Coordinates (Angstroms)
 Number     Number       Type             X           Y           Z
 ---------------------------------------------------------------------
      1          6           0       -4.676609   -1.978242   -0.535612
      2          1           0       -4.629105   -2.922071    0.006083
      3          1           0       -5.701168   -1.819495   -0.873937
      4          6           0       -2.538089    0.445253   -0.681780
      5          1           0       -2.344504   -0.188873   -1.555039
      6          8           0       -2.078516    1.748329   -0.883586
      7          1           0       -1.124702    1.707427   -1.083514
      8          6           0       -4.027312    0.477106   -0.365008
      9          1           0       -4.644559    0.548328   -1.266054
     10          8           0       -4.297082    1.540467    0.518385
     11          1           0       -3.766866    2.291190    0.220534
     12          6           0       -1.977828   -0.240508    0.575794
     13          1           0       -1.813073    0.514493    1.351506
     14          6           0       -4.235049   -0.843529    0.367544
     15          1           0       -4.952902   -0.692090    1.175446
     16          8           0       -2.967486   -1.167235    0.957260
     17          7           0       -0.732882   -0.939315    0.388089
     18          6           0       -0.695820   -2.039345   -0.465990
     19          1           0       -1.652411   -2.325631   -0.878605
     20          6           0        0.416638   -2.726685   -0.700568
     21          1           0        0.362675   -3.595908   -1.341660
     22          6           0        1.736353   -2.351495   -0.099736
     23          1           0        2.213730   -3.233609    0.345062
     24          1           0        2.423535   -2.036314   -0.891157
     25          6           0        1.559000   -1.274799    0.936523
     26          6           0        0.381166   -0.650357    1.114976
     27          1           0        0.291129    0.127414    1.864554
     28          6           0        2.675512   -0.859612    1.808916
     29          8           0        2.543571   -0.145500    2.785252
     30          7           0        3.906637   -1.353015    1.454604
     31          1           0        4.696110   -0.997303    1.967494
     32          1           0        4.066408   -1.745952    0.543766
     33          1           0       -4.033468   -2.053316   -1.415563
     34          6           0        0.262595    3.596568    0.282493
     35          6           0        1.569051    1.429883   -0.749879
     36          6           0        2.782556    0.644426   -1.015233
     37          6           0        4.048730   -0.968291   -2.427604
     38          6           0        2.800611   -0.299444   -1.952137
     39          8           0        0.495288    1.212206   -1.278366
     40         16           0        1.862471    2.778939    0.336989
     41          1           0        0.380590    4.536498    0.816534
     42          1           0       -0.500045    2.991512    0.766432
     43          1           0        4.398481   -0.462751   -3.331860
     44          1           0        4.847017   -0.901683   -1.687325
     45          1           0        3.887336   -2.013793   -2.691247
     46          1           0        1.867531   -0.531176   -2.459013
     47          1           0        3.679089    0.922294   -0.471683
     48          1           0       -0.021896    3.792399   -0.749193
 ---------------------------------------------------------------------
 Rotational constants (GHZ):           0.3319666           0.1640440           0.1397855
 Leave Link  202 at Sat Aug 13 20:09:18 2022, MaxMem=  2684354560 cpu:               0.8 elap:               0.1
 (Enter /storage/apps/GAUSSIAN/G16_RevA03/g16/l301.exe)
 Standard basis: def2TZVP (5D, 7F)
 Ernie: Thresh=  0.10000D-02 Tol=  0.10000D-05 Strict=F.
 There are  1014 symmetry adapted cartesian basis functions of A   symmetry.
 There are   894 symmetry adapted basis functions of A   symmetry.
   894 basis functions,  1434 primitive gaussians,  1014 cartesian basis functions
    95 alpha electrons       95 beta electrons
       nuclear repulsion energy      2493.7176784633 Hartrees.
 IExCor= 4336 DFT=T Ex+Corr=M062X ExCW=0 ScaHFX=  0.540000
 ScaDFX=  1.000000  1.000000  1.000000  1.000000 ScalE2=  1.000000  1.000000
 IRadAn=      5 IRanWt=     -1 IRanGd=            0 ICorTp=0 IEmpDi=131
 NAtoms=   48 NActive=   48 NUniq=   48 SFac= 1.00D+00 NAtFMM=   60 NAOKFM=F Big=F
 Integral buffers will be    131072 words long.
 Raffenetti 2 integral format.
 Two-electron integral symmetry is turned on.
 R6Disp:  Grimme-D3 Dispersion energy=       -0.0042862958 Hartrees.
 Nuclear repulsion after empirical dispersion term =     2493.7133921674 Hartrees.
 Leave Link  301 at Sat Aug 13 20:09:19 2022, MaxMem=  2684354560 cpu:               1.7 elap:               0.2
 (Enter /storage/apps/GAUSSIAN/G16_RevA03/g16/l302.exe)
 NPDir=0 NMtPBC=     1 NCelOv=     1 NCel=       1 NClECP=     1 NCelD=      1
         NCelK=      1 NCelE2=     1 NClLst=     1 CellRange=     0.0.
 One-electron integrals computed using PRISM.
 One-electron integral symmetry used in STVInt
   1 Symmetry operations used in ECPInt.
 ECPInt:  NShTT=   65703 NPrTT=  200010 LenC2=   56928 LenP2D=  121360.
 LDataN:  DoStor=T MaxTD1= 6 Len=  172
 NBasis=   894 RedAO= T EigKep=  2.67D-05  NBF=   894
 NBsUse=   894 1.00D-06 EigRej= -1.00D+00 NBFU=   894
 Precomputing XC quadrature grid using
 IXCGrd= 4 IRadAn=           5 IRanWt=          -1 IRanGd=           0 AccXCQ= 0.00D+00.
 Generated NRdTot=       0 NPtTot=           0 NUsed=           0 NTot=          32
 NSgBfM=   998   998   998   998   998 MxSgAt=    48 MxSgA2=    48.
 Leave Link  302 at Sat Aug 13 20:09:20 2022, MaxMem=  2684354560 cpu:              18.8 elap:               1.2
 (Enter /storage/apps/GAUSSIAN/G16_RevA03/g16/l303.exe)
 DipDrv:  MaxL=1.
 Leave Link  303 at Sat Aug 13 20:09:20 2022, MaxMem=  2684354560 cpu:               2.4 elap:               0.2
 (Enter /storage/apps/GAUSSIAN/G16_RevA03/g16/l401.exe)
 ExpMin= 9.52D-02 ExpMax= 6.07D+04 ExpMxC= 2.07D+03 IAcc=3 IRadAn=         5 AccDes= 0.00D+00
 Harris functional with IExCor= 1009 and IRadAn=       5 diagonalized for initial guess.
 HarFok:  IExCor= 1009 AccDes= 0.00D+00 IRadAn=         5 IDoV= 1 UseB2=F ITyADJ=14
 ICtDFT=  3500011 ScaDFX=  1.000000  1.000000  1.000000  1.000000
 FoFCou: FMM=F IPFlag=           0 FMFlag=      100000 FMFlg1=           0
         NFxFlg=           0 DoJE=T BraDBF=F KetDBF=T FulRan=T
         wScrn=  0.000000 ICntrl=       500 IOpCl=  0 I1Cent=   200000004 NGrid=           0
         NMat0=    1 NMatS0=      1 NMatT0=    0 NMatD0=    1 NMtDS0=    0 NMtDT0=    0
 Petite list used in FoFCou.
 Harris En= -1507.24746114715    
 JPrj=0 DoOrth=F DoCkMO=F.
 Leave Link  401 at Sat Aug 13 20:09:24 2022, MaxMem=  2684354560 cpu:              60.7 elap:               3.9
 (Enter /storage/apps/GAUSSIAN/G16_RevA03/g16/l502.exe)
 Integral symmetry usage will be decided dynamically.
 Closed shell SCF:
 Using DIIS extrapolation, IDIIS=  1040.
 NGot=  2684354560 LenX=  2682272944 LenY=  2681243734
 Requested convergence on RMS density matrix=1.00D-08 within 128 cycles.
 Requested convergence on MAX density matrix=1.00D-06.
 Requested convergence on             energy=1.00D-06.
 No special actions if energy rises.
 Fock matrices will be formed incrementally for  20 cycles.
 Integral accuracy reduced to 1.0D-05 until final iterations.

 Cycle   1  Pass 0  IDiag  1:
 FoFJK:  IHMeth= 1 ICntrl=       0 DoSepK=F KAlg= 0 I1Cent=           0 FoldK=F
 IRaf= 790000000 NMat=       1 IRICut=       1 DoRegI=T DoRafI=F ISym2E= 0 IDoP0=0 IntGTp=1.
 FoFCou: FMM=F IPFlag=           0 FMFlag=      100000 FMFlg1=           0
         NFxFlg=           0 DoJE=F BraDBF=F KetDBF=F FulRan=T
         wScrn=  0.000000 ICntrl=         0 IOpCl=  0 I1Cent=           0 NGrid=           0
         NMat0=    1 NMatS0=      1 NMatT0=    0 NMatD0=    1 NMtDS0=    0 NMtDT0=    0
 Symmetry not used in FoFCou.
 E= -1507.18332162314    
 DIIS: error= 1.52D-02 at cycle   1 NSaved=   1.
 NSaved= 1 IEnMin= 1 EnMin= -1507.18332162314     IErMin= 1 ErrMin= 1.52D-02
 ErrMax= 1.52D-02  0.00D+00 EMaxC= 1.00D-01 BMatC= 9.99D-01 BMatP= 9.99D-01
 IDIUse=3 WtCom= 8.48D-01 WtEn= 1.52D-01
 Coeff-Com:  0.100D+01
 Coeff-En:   0.100D+01
 Coeff:      0.100D+01
 Gap=     0.315 Goal=   None    Shift=    0.000
 GapD=    0.315 DampG=1.000 DampE=0.500 DampFc=0.5000 IDamp=-1.
 Damping current iteration by 5.00D-01
 RMSDP=4.56D-03 MaxDP=1.84D+00              OVMax= 2.10D-01

 Cycle   2  Pass 0  IDiag  1:
 RMSU=  2.28D-03    CP:  1.02D+00
 E= -1507.52704258153     Delta-E=       -0.343720958385 Rises=F Damp=T
 DIIS: error= 3.57D-03 at cycle   2 NSaved=   2.
 NSaved= 2 IEnMin= 2 EnMin= -1507.52704258153     IErMin= 2 ErrMin= 3.57D-03
 ErrMax= 3.57D-03  0.00D+00 EMaxC= 1.00D-01 BMatC= 8.64D-02 BMatP= 9.99D-01
 IDIUse=3 WtCom= 9.64D-01 WtEn= 3.57D-02
 Coeff-Com: -0.181D-01 0.102D+01
 Coeff-En:   0.143D-01 0.986D+00
 Coeff:     -0.170D-01 0.102D+01
 Gap=     0.323 Goal=   None    Shift=    0.000
 RMSDP=1.42D-03 MaxDP=5.56D-01 DE=-3.44D-01 OVMax= 1.69D-01

 Cycle   3  Pass 0  IDiag  1:
 RMSU=  1.11D-03    CP:  1.00D+00  6.11D-01
 E= -1507.88461621745     Delta-E=       -0.357573635925 Rises=F Damp=F
 DIIS: error= 3.82D-03 at cycle   3 NSaved=   3.
 NSaved= 3 IEnMin= 3 EnMin= -1507.88461621745     IErMin= 2 ErrMin= 3.57D-03
 ErrMax= 3.82D-03  0.00D+00 EMaxC= 1.00D-01 BMatC= 5.07D-02 BMatP= 8.64D-02
 IDIUse=3 WtCom= 9.62D-01 WtEn= 3.82D-02
 Coeff-Com: -0.843D-01 0.456D+00 0.628D+00
 Coeff-En:   0.000D+00 0.000D+00 0.100D+01
 Coeff:     -0.811D-01 0.439D+00 0.642D+00
 Gap=     0.210 Goal=   None    Shift=    0.000
 RMSDP=3.79D-04 MaxDP=7.46D-02 DE=-3.58D-01 OVMax= 6.64D-02

 Cycle   4  Pass 0  IDiag  1:
 RMSU=  3.20D-04    CP:  1.00D+00  6.92D-01  9.21D-01
 E= -1507.91738342869     Delta-E=       -0.032767211241 Rises=F Damp=F
 DIIS: error= 1.82D-03 at cycle   4 NSaved=   4.
 NSaved= 4 IEnMin= 4 EnMin= -1507.91738342869     IErMin= 4 ErrMin= 1.82D-03
 ErrMax= 1.82D-03  0.00D+00 EMaxC= 1.00D-01 BMatC= 1.00D-02 BMatP= 5.07D-02
 IDIUse=3 WtCom= 9.82D-01 WtEn= 1.82D-02
 Coeff-Com: -0.374D-01 0.100D+00 0.347D+00 0.591D+00
 Coeff-En:   0.000D+00 0.000D+00 0.133D+00 0.867D+00
 Coeff:     -0.367D-01 0.985D-01 0.343D+00 0.596D+00
 Gap=     0.209 Goal=   None    Shift=    0.000
 RMSDP=1.29D-04 MaxDP=1.93D-02 DE=-3.28D-02 OVMax= 1.64D-02

 Cycle   5  Pass 0  IDiag  1:
 RMSU=  8.14D-05    CP:  1.00D+00  6.76D-01  9.47D-01  7.22D-01
 E= -1507.92480106711     Delta-E=       -0.007417638421 Rises=F Damp=F
 DIIS: error= 2.92D-04 at cycle   5 NSaved=   5.
 NSaved= 5 IEnMin= 5 EnMin= -1507.92480106711     IErMin= 5 ErrMin= 2.92D-04
 ErrMax= 2.92D-04  0.00D+00 EMaxC= 1.00D-01 BMatC= 4.08D-04 BMatP= 1.00D-02
 IDIUse=3 WtCom= 9.97D-01 WtEn= 2.92D-03
 Coeff-Com: -0.108D-01 0.189D-01 0.121D+00 0.266D+00 0.605D+00
 Coeff-En:   0.000D+00 0.000D+00 0.000D+00 0.000D+00 0.100D+01
 Coeff:     -0.108D-01 0.188D-01 0.120D+00 0.265D+00 0.606D+00
 Gap=     0.209 Goal=   None    Shift=    0.000
 RMSDP=4.82D-05 MaxDP=1.59D-02 DE=-7.42D-03 OVMax= 4.23D-03

 Cycle   6  Pass 0  IDiag  1:
 RMSU=  3.24D-05    CP:  1.00D+00  6.62D-01  9.59D-01  7.36D-01  9.08D-01
 E= -1507.92512710064     Delta-E=       -0.000326033524 Rises=F Damp=F
 DIIS: error= 1.30D-04 at cycle   6 NSaved=   6.
 NSaved= 6 IEnMin= 6 EnMin= -1507.92512710064     IErMin= 6 ErrMin= 1.30D-04
 ErrMax= 1.30D-04  0.00D+00 EMaxC= 1.00D-01 BMatC= 5.29D-05 BMatP= 4.08D-04
 IDIUse=3 WtCom= 9.99D-01 WtEn= 1.30D-03
 Coeff-Com:  0.975D-04-0.405D-02 0.130D-01 0.438D-01 0.274D+00 0.674D+00
 Coeff-En:   0.000D+00 0.000D+00 0.000D+00 0.000D+00 0.000D+00 0.100D+01
 Coeff:      0.974D-04-0.405D-02 0.130D-01 0.437D-01 0.273D+00 0.674D+00
 Gap=     0.210 Goal=   None    Shift=    0.000
 RMSDP=2.14D-05 MaxDP=4.38D-03 DE=-3.26D-04 OVMax= 3.37D-03

 Cycle   7  Pass 0  IDiag  1:
 RMSU=  1.76D-05    CP:  1.00D+00  6.59D-01  9.64D-01  7.41D-01  9.85D-01
                    CP:  1.00D+00
 E= -1507.92518936092     Delta-E=       -0.000062260282 Rises=F Damp=F
 DIIS: error= 6.40D-05 at cycle   7 NSaved=   7.
 NSaved= 7 IEnMin= 7 EnMin= -1507.92518936092     IErMin= 7 ErrMin= 6.40D-05
 ErrMax= 6.40D-05  0.00D+00 EMaxC= 1.00D-01 BMatC= 9.17D-06 BMatP= 5.29D-05
 IDIUse=1 WtCom= 1.00D+00 WtEn= 0.00D+00
 Coeff-Com:  0.184D-02-0.501D-02-0.120D-01-0.245D-01 0.136D-01 0.292D+00
 Coeff-Com:  0.734D+00
 Coeff:      0.184D-02-0.501D-02-0.120D-01-0.245D-01 0.136D-01 0.292D+00
 Coeff:      0.734D+00
 Gap=     0.210 Goal=   None    Shift=    0.000
 RMSDP=1.84D-05 MaxDP=5.57D-03 DE=-6.23D-05 OVMax= 1.83D-03

 Cycle   8  Pass 0  IDiag  1:
 RMSU=  1.16D-05    CP:  1.00D+00  6.54D-01  9.65D-01  7.47D-01  1.06D+00
                    CP:  1.21D+00  1.26D+00
 E= -1507.92519588219     Delta-E=       -0.000006521273 Rises=F Damp=F
 DIIS: error= 2.74D-05 at cycle   8 NSaved=   8.
 NSaved= 8 IEnMin= 8 EnMin= -1507.92519588219     IErMin= 8 ErrMin= 2.74D-05
 ErrMax= 2.74D-05  0.00D+00 EMaxC= 1.00D-01 BMatC= 2.12D-06 BMatP= 9.17D-06
 IDIUse=1 WtCom= 1.00D+00 WtEn= 0.00D+00
 Coeff-Com:  0.975D-03-0.182D-02-0.813D-02-0.224D-01-0.462D-01 0.150D-01
 Coeff-Com:  0.362D+00 0.700D+00
 Coeff:      0.975D-03-0.182D-02-0.813D-02-0.224D-01-0.462D-01 0.150D-01
 Coeff:      0.362D+00 0.700D+00
 Gap=     0.210 Goal=   None    Shift=    0.000
 RMSDP=2.00D-05 MaxDP=3.36D-03 DE=-6.52D-06 OVMax= 6.77D-04

 Cycle   9  Pass 0  IDiag  1:
 RMSU=  9.54D-06    CP:  1.00D+00  6.52D-01  9.66D-01  7.47D-01  1.10D+00
                    CP:  1.34D+00  1.76D+00  2.09D+00
 E= -1507.92518469087     Delta-E=        0.000011191321 Rises=F Damp=F
 DIIS: error= 2.69D-05 at cycle   9 NSaved=   9.
 NSaved= 9 IEnMin= 8 EnMin= -1507.92519588219     IErMin= 9 ErrMin= 2.69D-05
 ErrMax= 2.69D-05  0.00D+00 EMaxC= 1.00D-01 BMatC= 6.50D-07 BMatP= 2.12D-06
 IDIUse=1 WtCom= 1.00D+00 WtEn= 0.00D+00
 Coeff-Com:  0.467D-03-0.809D-03-0.379D-02-0.119D-01-0.267D-01-0.769D-02
 Coeff-Com:  0.169D+00 0.410D+00 0.471D+00
 Coeff:      0.467D-03-0.809D-03-0.379D-02-0.119D-01-0.267D-01-0.769D-02
 Coeff:      0.169D+00 0.410D+00 0.471D+00
 Gap=     0.210 Goal=   None    Shift=    0.000
 RMSDP=1.89D-05 MaxDP=1.76D-03 DE= 1.12D-05 OVMax= 1.37D-04

 Cycle  10  Pass 0  IDiag  1:
 RMSU=  4.54D-06    CP:  1.00D+00  6.50D-01  9.66D-01  7.47D-01  1.13D+00
                    CP:  1.45D+00  2.16D+00  3.00D+00  2.08D+00
 E= -1507.92517424421     Delta-E=        0.000010446665 Rises=F Damp=F
 DIIS: error= 3.80D-05 at cycle  10 NSaved=  10.
 NSaved=10 IEnMin= 8 EnMin= -1507.92519588219     IErMin= 9 ErrMin= 2.69D-05
 ErrMax= 3.80D-05  0.00D+00 EMaxC= 1.00D-01 BMatC= 1.13D-06 BMatP= 6.50D-07
 IDIUse=1 WtCom= 1.00D+00 WtEn= 0.00D+00
 Coeff-Com:  0.409D-03-0.562D-03-0.346D-02-0.124D-01-0.327D-01-0.329D-01
 Coeff-Com:  0.145D+00 0.502D+00 0.123D+01-0.799D+00
 Coeff:      0.409D-03-0.562D-03-0.346D-02-0.124D-01-0.327D-01-0.329D-01
 Coeff:      0.145D+00 0.502D+00 0.123D+01-0.799D+00
 Gap=     0.210 Goal=   None    Shift=    0.000
 RMSDP=3.08D-05 MaxDP=3.52D-03 DE= 1.04D-05 OVMax= 6.79D-05

 Problem detected with inexpensive integrals.
 Switching to full accuracy and repeating last cycle.
 Cycle  11  Pass 1  IDiag  1:
 E= -1507.92515542397     Delta-E=        0.000018820241 Rises=F Damp=F
 DIIS: error= 3.33D-04 at cycle   1 NSaved=   1.
 NSaved= 1 IEnMin= 1 EnMin= -1507.92515542397     IErMin= 1 ErrMin= 3.33D-04
 ErrMax= 3.33D-04  0.00D+00 EMaxC= 1.00D-01 BMatC= 8.62D-05 BMatP= 8.62D-05
 IDIUse=3 WtCom= 9.97D-01 WtEn= 3.33D-03
 Coeff-Com:  0.100D+01
 Coeff-En:   0.100D+01
 Coeff:      0.100D+01
 Gap=     0.210 Goal=   None    Shift=    0.000
 RMSDP=4.24D-04 MaxDP=3.35D-02 DE= 1.88D-05 OVMax= 9.70D-04

 Cycle  12  Pass 1  IDiag  1:
 RMSU=  4.23D-04    CP:  9.94D-01
 E= -1507.92520934443     Delta-E=       -0.000053920463 Rises=F Damp=F
 DIIS: error= 9.60D-06 at cycle   2 NSaved=   2.
 NSaved= 2 IEnMin= 2 EnMin= -1507.92520934443     IErMin= 2 ErrMin= 9.60D-06
 ErrMax= 9.60D-06  0.00D+00 EMaxC= 1.00D-01 BMatC= 7.44D-08 BMatP= 8.62D-05
 IDIUse=1 WtCom= 1.00D+00 WtEn= 0.00D+00
 Coeff-Com: -0.162D-01 0.102D+01
 Coeff:     -0.162D-01 0.102D+01
 Gap=     0.210 Goal=   None    Shift=    0.000
 RMSDP=1.55D-05 MaxDP=1.27D-03 DE=-5.39D-05 OVMax= 8.35D-05

 Cycle  13  Pass 1  IDiag  1:
 RMSU=  5.26D-06    CP:  9.94D-01  1.03D+00
 E= -1507.92520939902     Delta-E=       -0.000000054587 Rises=F Damp=F
 DIIS: error= 4.95D-06 at cycle   3 NSaved=   3.
 NSaved= 3 IEnMin= 3 EnMin= -1507.92520939902     IErMin= 3 ErrMin= 4.95D-06
 ErrMax= 4.95D-06  0.00D+00 EMaxC= 1.00D-01 BMatC= 6.32D-08 BMatP= 7.44D-08
 IDIUse=1 WtCom= 1.00D+00 WtEn= 0.00D+00
 Coeff-Com: -0.903D-02 0.537D+00 0.472D+00
 Coeff:     -0.903D-02 0.537D+00 0.472D+00
 Gap=     0.210 Goal=   None    Shift=    0.000
 RMSDP=5.55D-07 MaxDP=1.59D-04 DE=-5.46D-08 OVMax= 3.71D-05

 Cycle  14  Pass 1  IDiag  1:
 RMSU=  4.97D-07    CP:  9.94D-01  1.03D+00  1.01D+00
 E= -1507.92520944564     Delta-E=       -0.000000046626 Rises=F Damp=F
 DIIS: error= 1.34D-06 at cycle   4 NSaved=   4.
 NSaved= 4 IEnMin= 4 EnMin= -1507.92520944564     IErMin= 4 ErrMin= 1.34D-06
 ErrMax= 1.34D-06  0.00D+00 EMaxC= 1.00D-01 BMatC= 3.22D-09 BMatP= 6.32D-08
 IDIUse=1 WtCom= 1.00D+00 WtEn= 0.00D+00
 Coeff-Com: -0.107D-03-0.431D-02 0.166D+00 0.839D+00
 Coeff:     -0.107D-03-0.431D-02 0.166D+00 0.839D+00
 Gap=     0.210 Goal=   None    Shift=    0.000
 RMSDP=3.42D-07 MaxDP=2.54D-05 DE=-4.66D-08 OVMax= 2.54D-05

 Cycle  15  Pass 1  IDiag  1:
 RMSU=  1.40D-07    CP:  9.94D-01  1.04D+00  1.05D+00  1.06D+00
 E= -1507.92520944867     Delta-E=       -0.000000003032 Rises=F Damp=F
 DIIS: error= 4.18D-07 at cycle   5 NSaved=   5.
 NSaved= 5 IEnMin= 5 EnMin= -1507.92520944867     IErMin= 5 ErrMin= 4.18D-07
 ErrMax= 4.18D-07  0.00D+00 EMaxC= 1.00D-01 BMatC= 6.14D-10 BMatP= 3.22D-09
 IDIUse=1 WtCom= 1.00D+00 WtEn= 0.00D+00
 Coeff-Com:  0.557D-03-0.386D-01 0.466D-01 0.422D+00 0.569D+00
 Coeff:      0.557D-03-0.386D-01 0.466D-01 0.422D+00 0.569D+00
 Gap=     0.210 Goal=   None    Shift=    0.000
 RMSDP=6.25D-08 MaxDP=1.14D-05 DE=-3.03D-09 OVMax= 7.51D-06

 Cycle  16  Pass 1  IDiag  1:
 RMSU=  4.51D-08    CP:  9.94D-01  1.04D+00  1.05D+00  1.12D+00  1.06D+00
 E= -1507.92520944929     Delta-E=       -0.000000000614 Rises=F Damp=F
 DIIS: error= 1.26D-07 at cycle   6 NSaved=   6.
 NSaved= 6 IEnMin= 6 EnMin= -1507.92520944929     IErMin= 6 ErrMin= 1.26D-07
 ErrMax= 1.26D-07  0.00D+00 EMaxC= 1.00D-01 BMatC= 4.72D-11 BMatP= 6.14D-10
 IDIUse=1 WtCom= 1.00D+00 WtEn= 0.00D+00
 Coeff-Com:  0.202D-03-0.121D-01-0.137D-01 0.135D-01 0.164D+00 0.848D+00
 Coeff:      0.202D-03-0.121D-01-0.137D-01 0.135D-01 0.164D+00 0.848D+00
 Gap=     0.210 Goal=   None    Shift=    0.000
 RMSDP=3.26D-08 MaxDP=1.03D-05 DE=-6.14D-10 OVMax= 5.67D-06

 Cycle  17  Pass 1  IDiag  1:
 RMSU=  2.08D-08    CP:  9.94D-01  1.04D+00  1.05D+00  1.15D+00  1.15D+00
                    CP:  1.19D+00
 E= -1507.92520944941     Delta-E=       -0.000000000117 Rises=F Damp=F
 DIIS: error= 1.01D-07 at cycle   7 NSaved=   7.
 NSaved= 7 IEnMin= 7 EnMin= -1507.92520944941     IErMin= 7 ErrMin= 1.01D-07
 ErrMax= 1.01D-07  0.00D+00 EMaxC= 1.00D-01 BMatC= 2.14D-11 BMatP= 4.72D-11
 IDIUse=1 WtCom= 1.00D+00 WtEn= 0.00D+00
 Coeff-Com: -0.217D-04 0.250D-02-0.188D-01-0.844D-01-0.562D-01 0.470D+00
 Coeff-Com:  0.687D+00
 Coeff:     -0.217D-04 0.250D-02-0.188D-01-0.844D-01-0.562D-01 0.470D+00
 Coeff:      0.687D+00
 Gap=     0.210 Goal=   None    Shift=    0.000
 RMSDP=1.53D-08 MaxDP=3.50D-06 DE=-1.17D-10 OVMax= 3.02D-06

 Cycle  18  Pass 1  IDiag  1:
 RMSU=  9.81D-09    CP:  9.94D-01  1.04D+00  1.05D+00  1.17D+00  1.18D+00
                    CP:  1.33D+00  1.02D+00
 E= -1507.92520944940     Delta-E=        0.000000000005 Rises=F Damp=F
 DIIS: error= 2.94D-08 at cycle   8 NSaved=   8.
 NSaved= 8 IEnMin= 7 EnMin= -1507.92520944941     IErMin= 8 ErrMin= 2.94D-08
 ErrMax= 2.94D-08  0.00D+00 EMaxC= 1.00D-01 BMatC= 2.39D-12 BMatP= 2.14D-11
 IDIUse=1 WtCom= 1.00D+00 WtEn= 0.00D+00
 Coeff-Com: -0.370D-04 0.285D-02-0.851D-02-0.465D-01-0.538D-01 0.137D+00
 Coeff-Com:  0.343D+00 0.626D+00
 Coeff:     -0.370D-04 0.285D-02-0.851D-02-0.465D-01-0.538D-01 0.137D+00
 Coeff:      0.343D+00 0.626D+00
 Gap=     0.210 Goal=   None    Shift=    0.000
 RMSDP=6.00D-09 MaxDP=2.27D-06 DE= 4.55D-12 OVMax= 5.95D-07

 Cycle  19  Pass 1  IDiag  1:
 RMSU=  3.42D-09    CP:  9.94D-01  1.04D+00  1.05D+00  1.18D+00  1.18D+00
                    CP:  1.37D+00  1.12D+00  1.09D+00
 E= -1507.92520944941     Delta-E=       -0.000000000008 Rises=F Damp=F
 DIIS: error= 6.71D-09 at cycle   9 NSaved=   9.
 NSaved= 9 IEnMin= 9 EnMin= -1507.92520944941     IErMin= 9 ErrMin= 6.71D-09
 ErrMax= 6.71D-09  0.00D+00 EMaxC= 1.00D-01 BMatC= 1.43D-13 BMatP= 2.39D-12
 IDIUse=1 WtCom= 1.00D+00 WtEn= 0.00D+00
 Coeff-Com: -0.962D-05 0.624D-03-0.273D-03-0.371D-02-0.102D-01-0.132D-01
 Coeff-Com:  0.243D-01 0.206D+00 0.797D+00
 Coeff:     -0.962D-05 0.624D-03-0.273D-03-0.371D-02-0.102D-01-0.132D-01
 Coeff:      0.243D-01 0.206D+00 0.797D+00
 Gap=     0.210 Goal=   None    Shift=    0.000
 RMSDP=1.63D-09 MaxDP=2.65D-07 DE=-8.19D-12 OVMax= 2.66D-07

 SCF Done:  E(RM062X) =  -1507.92520945     A.U. after   19 cycles
            NFock= 19  Conv=0.16D-08     -V/T= 2.0036
 KE= 1.502461545124D+03 PE=-8.525774980957D+03 EE= 3.021674834216D+03
 Leave Link  502 at Sat Aug 13 20:18:19 2022, MaxMem=  2684354560 cpu:            8538.4 elap:             534.5
 (Enter /storage/apps/GAUSSIAN/G16_RevA03/g16/l601.exe)
 Copying SCF densities to generalized density rwf, IOpCl= 0 IROHF=0.

 **********************************************************************

            Population analysis using the SCF density.

 **********************************************************************

 Orbital symmetries:
       Occupied  (A) (A) (A) (A) (A) (A) (A) (A) (A) (A) (A) (A)
                 (A) (A) (A) (A) (A) (A) (A) (A) (A) (A) (A) (A)
                 (A) (A) (A) (A) (A) (A) (A) (A) (A) (A) (A) (A)
                 (A) (A) (A) (A) (A) (A) (A) (A) (A) (A) (A) (A)
                 (A) (A) (A) (A) (A) (A) (A) (A) (A) (A) (A) (A)
                 (A) (A) (A) (A) (A) (A) (A) (A) (A) (A) (A) (A)
                 (A) (A) (A) (A) (A) (A) (A) (A) (A) (A) (A) (A)
                 (A) (A) (A) (A) (A) (A) (A) (A) (A) (A) (A)
       Virtual   (A) (A) (A) (A) (A) (A) (A) (A) (A) (A) (A) (A)
                 (A) (A) (A) (A) (A) (A) (A) (A) (A) (A) (A) (A)
                 (A) (A) (A) (A) (A) (A) (A) (A) (A) (A) (A) (A)
                 (A) (A) (A) (A) (A) (A) (A) (A) (A) (A) (A) (A)
                 (A) (A) (A) (A) (A) (A) (A) (A) (A) (A) (A) (A)
                 (A) (A) (A) (A) (A) (A) (A) (A) (A) (A) (A) (A)
                 (A) (A) (A) (A) (A) (A) (A) (A) (A) (A) (A) (A)
                 (A) (A) (A) (A) (A) (A) (A) (A) (A) (A) (A) (A)
                 (A) (A) (A) (A) (A) (A) (A) (A) (A) (A) (A) (A)
                 (A) (A) (A) (A) (A) (A) (A) (A) (A) (A) (A) (A)
                 (A) (A) (A) (A) (A) (A) (A) (A) (A) (A) (A) (A)
                 (A) (A) (A) (A) (A) (A) (A) (A) (A) (A) (A) (A)
                 (A) (A) (A) (A) (A) (A) (A) (A) (A) (A) (A) (A)
                 (A) (A) (A) (A) (A) (A) (A) (A) (A) (A) (A) (A)
                 (A) (A) (A) (A) (A) (A) (A) (A) (A) (A) (A) (A)
                 (A) (A) (A) (A) (A) (A) (A) (A) (A) (A) (A) (A)
                 (A) (A) (A) (A) (A) (A) (A) (A) (A) (A) (A) (A)
                 (A) (A) (A) (A) (A) (A) (A) (A) (A) (A) (A) (A)
                 (A) (A) (A) (A) (A) (A) (A) (A) (A) (A) (A) (A)
                 (A) (A) (A) (A) (A) (A) (A) (A) (A) (A) (A) (A)
                 (A) (A) (A) (A) (A) (A) (A) (A) (A) (A) (A) (A)
                 (A) (A) (A) (A) (A) (A) (A) (A) (A) (A) (A) (A)
                 (A) (A) (A) (A) (A) (A) (A) (A) (A) (A) (A) (A)
                 (A) (A) (A) (A) (A) (A) (A) (A) (A) (A) (A) (A)
                 (A) (A) (A) (A) (A) (A) (A) (A) (A) (A) (A) (A)
                 (A) (A) (A) (A) (A) (A) (A) (A) (A) (A) (A) (A)
                 (A) (A) (A) (A) (A) (A) (A) (A) (A) (A) (A) (A)
                 (A) (A) (A) (A) (A) (A) (A) (A) (A) (A) (A) (A)
                 (A) (A) (A) (A) (A) (A) (A) (A) (A) (A) (A) (A)
                 (A) (A) (A) (A) (A) (A) (A) (A) (A) (A) (A) (A)
                 (A) (A) (A) (A) (A) (A) (A) (A) (A) (A) (A) (A)
                 (A) (A) (A) (A) (A) (A) (A) (A) (A) (A) (A) (A)
                 (A) (A) (A) (A) (A) (A) (A) (A) (A) (A) (A) (A)
                 (A) (A) (A) (A) (A) (A) (A) (A) (A) (A) (A) (A)
                 (A) (A) (A) (A) (A) (A) (A) (A) (A) (A) (A) (A)
                 (A) (A) (A) (A) (A) (A) (A) (A) (A) (A) (A) (A)
                 (A) (A) (A) (A) (A) (A) (A) (A) (A) (A) (A) (A)
                 (A) (A) (A) (A) (A) (A) (A) (A) (A) (A) (A) (A)
                 (A) (A) (A) (A) (A) (A) (A) (A) (A) (A) (A) (A)
                 (A) (A) (A) (A) (A) (A) (A) (A) (A) (A) (A) (A)
                 (A) (A) (A) (A) (A) (A) (A) (A) (A) (A) (A) (A)
                 (A) (A) (A) (A) (A) (A) (A) (A) (A) (A) (A) (A)
                 (A) (A) (A) (A) (A) (A) (A) (A) (A) (A) (A) (A)
                 (A) (A) (A) (A) (A) (A) (A) (A) (A) (A) (A) (A)
                 (A) (A) (A) (A) (A) (A) (A) (A) (A) (A) (A) (A)
                 (A) (A) (A) (A) (A) (A) (A) (A) (A) (A) (A) (A)
                 (A) (A) (A) (A) (A) (A) (A) (A) (A) (A) (A) (A)
                 (A) (A) (A) (A) (A) (A) (A) (A) (A) (A) (A) (A)
                 (A) (A) (A) (A) (A) (A) (A) (A) (A) (A) (A) (A)
                 (A) (A) (A) (A) (A) (A) (A) (A) (A) (A) (A) (A)
                 (A) (A) (A) (A) (A) (A) (A) (A) (A) (A) (A) (A)
                 (A) (A) (A) (A) (A) (A) (A) (A) (A) (A) (A) (A)
                 (A) (A) (A) (A) (A) (A) (A) (A) (A) (A) (A) (A)
                 (A) (A) (A) (A) (A) (A) (A) (A) (A) (A) (A) (A)
                 (A) (A) (A) (A) (A) (A) (A) (A) (A) (A) (A) (A)
                 (A) (A) (A) (A) (A) (A) (A) (A) (A) (A) (A) (A)
                 (A) (A) (A) (A) (A) (A) (A) (A) (A) (A) (A) (A)
                 (A) (A) (A) (A) (A) (A) (A) (A) (A) (A) (A) (A)
                 (A) (A) (A) (A) (A) (A) (A) (A) (A) (A) (A) (A)
                 (A) (A) (A) (A) (A) (A) (A) (A) (A) (A) (A) (A)
                 (A) (A) (A) (A) (A) (A) (A) (A) (A) (A) (A) (A)
                 (A) (A) (A) (A) (A) (A) (A) (A) (A) (A) (A) (A)
                 (A) (A) (A) (A) (A) (A) (A) (A) (A) (A) (A) (A)
                 (A) (A) (A) (A) (A) (A) (A) (A) (A) (A) (A) (A)
                 (A) (A) (A) (A) (A) (A) (A) (A) (A) (A) (A) (A)
                 (A) (A) (A) (A) (A) (A) (A) (A) (A) (A) (A) (A)
                 (A) (A) (A) (A) (A) (A) (A)
 The electronic state is 1-A.
 Alpha  occ. eigenvalues --  -89.92328 -19.63815 -19.63329 -19.62465 -19.62138
 Alpha  occ. eigenvalues --  -19.57754 -14.79067 -14.76108 -10.66467 -10.63454
 Alpha  occ. eigenvalues --  -10.62907 -10.59395 -10.59064 -10.58947 -10.58402
 Alpha  occ. eigenvalues --  -10.57540 -10.57384 -10.57219 -10.55823 -10.55622
 Alpha  occ. eigenvalues --  -10.54961 -10.53839 -10.53475 -10.53261  -8.28258
 Alpha  occ. eigenvalues --   -6.20197  -6.19963  -6.19765  -1.19542  -1.19051
 Alpha  occ. eigenvalues --   -1.15913  -1.15049  -1.13633  -1.08483  -1.00749
 Alpha  occ. eigenvalues --   -0.93440  -0.91895  -0.90559  -0.88488  -0.87610
 Alpha  occ. eigenvalues --   -0.85561  -0.83437  -0.78924  -0.77016  -0.75590
 Alpha  occ. eigenvalues --   -0.73499  -0.70773  -0.68031  -0.67666  -0.66496
 Alpha  occ. eigenvalues --   -0.63921  -0.63319  -0.61994  -0.60443  -0.58829
 Alpha  occ. eigenvalues --   -0.58262  -0.57484  -0.56609  -0.56278  -0.55299
 Alpha  occ. eigenvalues --   -0.54692  -0.52985  -0.52609  -0.52025  -0.51466
 Alpha  occ. eigenvalues --   -0.50753  -0.50421  -0.50207  -0.49270  -0.49235
 Alpha  occ. eigenvalues --   -0.48808  -0.48590  -0.47768  -0.47121  -0.46992
 Alpha  occ. eigenvalues --   -0.46051  -0.44719  -0.44413  -0.44163  -0.43804
 Alpha  occ. eigenvalues --   -0.43434  -0.43150  -0.41699  -0.41520  -0.37806
 Alpha  occ. eigenvalues --   -0.36160  -0.35571  -0.34748  -0.34626  -0.33762
 Alpha  occ. eigenvalues --   -0.33515  -0.32732  -0.32379  -0.31285  -0.24498
 Alpha virt. eigenvalues --   -0.03507   0.00314   0.04239   0.04330   0.05959
 Alpha virt. eigenvalues --    0.06777   0.07134   0.07524   0.08616   0.09141
 Alpha virt. eigenvalues --    0.09447   0.09715   0.10425   0.10660   0.10923
 Alpha virt. eigenvalues --    0.12043   0.12161   0.12304   0.12594   0.12969
 Alpha virt. eigenvalues --    0.13393   0.13769   0.13819   0.14108   0.14497
 Alpha virt. eigenvalues --    0.14981   0.15760   0.16180   0.17103   0.17480
 Alpha virt. eigenvalues --    0.17920   0.18665   0.19074   0.19255   0.19420
 Alpha virt. eigenvalues --    0.20527   0.20764   0.21498   0.22161   0.22946
 Alpha virt. eigenvalues --    0.23065   0.23358   0.24023   0.24261   0.24683
 Alpha virt. eigenvalues --    0.24995   0.25536   0.25726   0.26475   0.27151
 Alpha virt. eigenvalues --    0.27476   0.27939   0.28238   0.28749   0.29127
 Alpha virt. eigenvalues --    0.29857   0.30355   0.30490   0.30753   0.31150
 Alpha virt. eigenvalues --    0.31226   0.32288   0.33236   0.33865   0.34034
 Alpha virt. eigenvalues --    0.34339   0.35345   0.35487   0.35915   0.36324
 Alpha virt. eigenvalues --    0.36597   0.37442   0.37885   0.38235   0.38460
 Alpha virt. eigenvalues --    0.38650   0.39368   0.39798   0.40212   0.40414
 Alpha virt. eigenvalues --    0.40912   0.41203   0.41494   0.42241   0.42354
 Alpha virt. eigenvalues --    0.43111   0.43119   0.43639   0.43708   0.44051
 Alpha virt. eigenvalues --    0.44601   0.45133   0.45392   0.45670   0.46113
 Alpha virt. eigenvalues --    0.46416   0.46489   0.46857   0.47459   0.47706
 Alpha virt. eigenvalues --    0.48005   0.48233   0.48424   0.49006   0.49499
 Alpha virt. eigenvalues --    0.49999   0.50540   0.50655   0.50973   0.51600
 Alpha virt. eigenvalues --    0.51906   0.51981   0.52183   0.52706   0.53003
 Alpha virt. eigenvalues --    0.53582   0.53777   0.54140   0.54547   0.54949
 Alpha virt. eigenvalues --    0.55407   0.55735   0.56523   0.57163   0.57580
 Alpha virt. eigenvalues --    0.58030   0.58425   0.58965   0.59653   0.59911
 Alpha virt. eigenvalues --    0.60570   0.60938   0.61627   0.61903   0.62722
 Alpha virt. eigenvalues --    0.62870   0.63372   0.64977   0.65184   0.65816
 Alpha virt. eigenvalues --    0.66511   0.66842   0.67118   0.67543   0.67958
 Alpha virt. eigenvalues --    0.68741   0.69550   0.70177   0.70459   0.70961
 Alpha virt. eigenvalues --    0.71948   0.73181   0.73341   0.73642   0.74070
 Alpha virt. eigenvalues --    0.75064   0.75131   0.76368   0.76517   0.76771
 Alpha virt. eigenvalues --    0.77428   0.78394   0.79168   0.80995   0.81278
 Alpha virt. eigenvalues --    0.81365   0.82207   0.83010   0.84085   0.84518
 Alpha virt. eigenvalues --    0.85437   0.86175   0.86590   0.87262   0.87318
 Alpha virt. eigenvalues --    0.88393   0.88766   0.89116   0.89582   0.90269
 Alpha virt. eigenvalues --    0.91025   0.91591   0.91796   0.92929   0.93682
 Alpha virt. eigenvalues --    0.94432   0.94607   0.95166   0.95873   0.96997
 Alpha virt. eigenvalues --    0.97417   0.97821   0.98504   0.98510   0.99719
 Alpha virt. eigenvalues --    1.00333   1.00945   1.01331   1.02687   1.03177
 Alpha virt. eigenvalues --    1.03639   1.04386   1.04941   1.05556   1.06704
 Alpha virt. eigenvalues --    1.07347   1.07938   1.08127   1.09112   1.09763
 Alpha virt. eigenvalues --    1.10914   1.11178   1.11950   1.12790   1.12946
 Alpha virt. eigenvalues --    1.13692   1.14688   1.15857   1.16601   1.17001
 Alpha virt. eigenvalues --    1.17871   1.19211   1.19486   1.19728   1.20747
 Alpha virt. eigenvalues --    1.20846   1.21665   1.22655   1.23304   1.24189
 Alpha virt. eigenvalues --    1.24889   1.25535   1.25997   1.27287   1.29306
 Alpha virt. eigenvalues --    1.29821   1.29890   1.30789   1.31192   1.32249
 Alpha virt. eigenvalues --    1.33286   1.33862   1.34295   1.34937   1.36039
 Alpha virt. eigenvalues --    1.37277   1.38356   1.38460   1.39200   1.40356
 Alpha virt. eigenvalues --    1.41426   1.42083   1.42957   1.43129   1.44834
 Alpha virt. eigenvalues --    1.45448   1.46005   1.48288   1.48766   1.49991
 Alpha virt. eigenvalues --    1.50280   1.50631   1.51097   1.51943   1.52979
 Alpha virt. eigenvalues --    1.53501   1.53848   1.54130   1.54962   1.55592
 Alpha virt. eigenvalues --    1.56093   1.56685   1.57193   1.57761   1.58229
 Alpha virt. eigenvalues --    1.58870   1.59229   1.59837   1.60017   1.60391
 Alpha virt. eigenvalues --    1.60661   1.61616   1.61952   1.61995   1.62419
 Alpha virt. eigenvalues --    1.62760   1.63763   1.64370   1.65485   1.65506
 Alpha virt. eigenvalues --    1.66058   1.66794   1.67608   1.68021   1.68510
 Alpha virt. eigenvalues --    1.68995   1.69260   1.69470   1.70149   1.71306
 Alpha virt. eigenvalues --    1.72440   1.73053   1.73325   1.74062   1.75263
 Alpha virt. eigenvalues --    1.75404   1.76126   1.76883   1.77907   1.78085
 Alpha virt. eigenvalues --    1.78746   1.79213   1.79422   1.80656   1.81631
 Alpha virt. eigenvalues --    1.82757   1.83414   1.84100   1.84803   1.84858
 Alpha virt. eigenvalues --    1.85185   1.86299   1.86632   1.87369   1.88434
 Alpha virt. eigenvalues --    1.88678   1.89357   1.89765   1.90909   1.91851
 Alpha virt. eigenvalues --    1.93255   1.93766   1.93942   1.94622   1.95701
 Alpha virt. eigenvalues --    1.96470   1.96638   1.97325   1.97895   1.98741
 Alpha virt. eigenvalues --    1.99265   1.99943   2.00251   2.01321   2.02805
 Alpha virt. eigenvalues --    2.03189   2.03507   2.04192   2.04948   2.06041
 Alpha virt. eigenvalues --    2.06498   2.07412   2.07509   2.08559   2.09125
 Alpha virt. eigenvalues --    2.09816   2.11260   2.12073   2.12407   2.12913
 Alpha virt. eigenvalues --    2.14079   2.15822   2.17064   2.17562   2.17883
 Alpha virt. eigenvalues --    2.18541   2.19543   2.19760   2.20295   2.20894
 Alpha virt. eigenvalues --    2.21424   2.22099   2.23087   2.23477   2.23655
 Alpha virt. eigenvalues --    2.24745   2.25509   2.26212   2.26914   2.26985
 Alpha virt. eigenvalues --    2.27277   2.28550   2.29347   2.30287   2.30535
 Alpha virt. eigenvalues --    2.32506   2.32897   2.33317   2.33691   2.34135
 Alpha virt. eigenvalues --    2.34793   2.35503   2.36260   2.36536   2.36890
 Alpha virt. eigenvalues --    2.36972   2.38009   2.38307   2.39339   2.39905
 Alpha virt. eigenvalues --    2.40847   2.41134   2.41955   2.42568   2.44031
 Alpha virt. eigenvalues --    2.44306   2.44526   2.46026   2.46505   2.47121
 Alpha virt. eigenvalues --    2.48501   2.49667   2.50659   2.50726   2.51733
 Alpha virt. eigenvalues --    2.52531   2.53957   2.54172   2.55531   2.55791
 Alpha virt. eigenvalues --    2.56545   2.57594   2.58134   2.58657   2.59183
 Alpha virt. eigenvalues --    2.59734   2.60048   2.61044   2.61333   2.61685
 Alpha virt. eigenvalues --    2.62068   2.63237   2.63733   2.64155   2.64298
 Alpha virt. eigenvalues --    2.65328   2.65996   2.66304   2.67382   2.67708
 Alpha virt. eigenvalues --    2.68880   2.69254   2.70030   2.71099   2.71821
 Alpha virt. eigenvalues --    2.72592   2.72969   2.73649   2.74054   2.74693
 Alpha virt. eigenvalues --    2.74808   2.76013   2.76687   2.77694   2.78433
 Alpha virt. eigenvalues --    2.80050   2.80857   2.81213   2.82289   2.82645
 Alpha virt. eigenvalues --    2.83597   2.84150   2.85450   2.85856   2.86572
 Alpha virt. eigenvalues --    2.86868   2.87348   2.88677   2.89259   2.89860
 Alpha virt. eigenvalues --    2.90026   2.91733   2.91947   2.92232   2.92807
 Alpha virt. eigenvalues --    2.93456   2.94791   2.95317   2.96020   2.96965
 Alpha virt. eigenvalues --    2.98034   2.98868   3.00205   3.00772   3.01475
 Alpha virt. eigenvalues --    3.02266   3.02632   3.03465   3.04553   3.05631
 Alpha virt. eigenvalues --    3.05826   3.06269   3.06956   3.07266   3.07549
 Alpha virt. eigenvalues --    3.08678   3.08857   3.09151   3.09600   3.10185
 Alpha virt. eigenvalues --    3.10899   3.11994   3.12167   3.12663   3.13307
 Alpha virt. eigenvalues --    3.14792   3.15222   3.15333   3.15643   3.16246
 Alpha virt. eigenvalues --    3.16710   3.17112   3.17480   3.17921   3.18374
 Alpha virt. eigenvalues --    3.18686   3.19095   3.20041   3.20603   3.21109
 Alpha virt. eigenvalues --    3.21993   3.22797   3.23630   3.24323   3.24844
 Alpha virt. eigenvalues --    3.25295   3.26466   3.26630   3.27539   3.28445
 Alpha virt. eigenvalues --    3.29042   3.29392   3.29792   3.31478   3.31600
 Alpha virt. eigenvalues --    3.32284   3.32598   3.33304   3.33793   3.34091
 Alpha virt. eigenvalues --    3.35195   3.35681   3.36162   3.36787   3.37320
 Alpha virt. eigenvalues --    3.37545   3.38045   3.39030   3.39486   3.40593
 Alpha virt. eigenvalues --    3.41068   3.41955   3.42328   3.43554   3.43752
 Alpha virt. eigenvalues --    3.44754   3.45129   3.45949   3.46327   3.46720
 Alpha virt. eigenvalues --    3.47059   3.48171   3.49128   3.49557   3.50045
 Alpha virt. eigenvalues --    3.50737   3.52567   3.52748   3.53644   3.54925
 Alpha virt. eigenvalues --    3.55439   3.56032   3.56443   3.56672   3.56997
 Alpha virt. eigenvalues --    3.58574   3.59332   3.60081   3.60940   3.61896
 Alpha virt. eigenvalues --    3.62087   3.62779   3.64134   3.65051   3.65491
 Alpha virt. eigenvalues --    3.66089   3.66957   3.67656   3.68069   3.68989
 Alpha virt. eigenvalues --    3.69882   3.71828   3.72583   3.74365   3.75081
 Alpha virt. eigenvalues --    3.76161   3.76374   3.78178   3.78804   3.79433
 Alpha virt. eigenvalues --    3.80826   3.81323   3.82073   3.82629   3.83040
 Alpha virt. eigenvalues --    3.85442   3.85573   3.88166   3.89098   3.89422
 Alpha virt. eigenvalues --    3.90432   3.91473   3.93582   3.94128   3.95116
 Alpha virt. eigenvalues --    3.97391   3.97573   3.98508   3.99358   4.00704
 Alpha virt. eigenvalues --    4.01841   4.02318   4.03449   4.05271   4.06746
 Alpha virt. eigenvalues --    4.09314   4.10358   4.10662   4.13893   4.15167
 Alpha virt. eigenvalues --    4.16292   4.16944   4.17733   4.18536   4.19275
 Alpha virt. eigenvalues --    4.19767   4.20219   4.21541   4.22308   4.24492
 Alpha virt. eigenvalues --    4.25756   4.26660   4.29381   4.30655   4.31540
 Alpha virt. eigenvalues --    4.32318   4.37714   4.38248   4.38735   4.39386
 Alpha virt. eigenvalues --    4.40037   4.40551   4.42348   4.42873   4.43808
 Alpha virt. eigenvalues --    4.44911   4.47278   4.48248   4.49465   4.52068
 Alpha virt. eigenvalues --    4.52736   4.53791   4.54830   4.57863   4.59394
 Alpha virt. eigenvalues --    4.63058   4.65452   4.65903   4.67184   4.69956
 Alpha virt. eigenvalues --    4.71080   4.71292   4.72966   4.73802   4.74907
 Alpha virt. eigenvalues --    4.76122   4.77783   4.81113   4.82482   4.84887
 Alpha virt. eigenvalues --    4.87120   4.88289   4.90087   4.91037   4.92727
 Alpha virt. eigenvalues --    4.94285   4.95516   4.98188   4.99448   5.00675
 Alpha virt. eigenvalues --    5.02628   5.03104   5.04760   5.06865   5.09422
 Alpha virt. eigenvalues --    5.12593   5.14406   5.16813   5.19937   5.21079
 Alpha virt. eigenvalues --    5.22565   5.24210   5.25332   5.27497   5.28920
 Alpha virt. eigenvalues --    5.29798   5.31599   5.31984   5.35236   5.38981
 Alpha virt. eigenvalues --    5.40532   5.42824   5.44424   5.47313   5.49045
 Alpha virt. eigenvalues --    5.49980   5.50916   5.53571   5.55075   5.56610
 Alpha virt. eigenvalues --    5.64716   5.68908   5.76191   5.77328   5.79770
 Alpha virt. eigenvalues --    5.80253   5.82435   5.83160   5.84213   5.89103
 Alpha virt. eigenvalues --    5.89794   5.92111   5.94120   5.96740   5.98105
 Alpha virt. eigenvalues --    5.99781   6.05832   6.07735   6.16852   6.18884
 Alpha virt. eigenvalues --    6.22054   6.25755   6.28442   6.30269   6.38862
 Alpha virt. eigenvalues --    6.39472   6.43562   6.46121   6.48857   6.54695
 Alpha virt. eigenvalues --    6.60742   6.62312   6.73075   6.76546   6.77515
 Alpha virt. eigenvalues --    6.77780   6.82863   6.84775   6.85693   6.86223
 Alpha virt. eigenvalues --    6.87189   6.98088   7.00627   7.05221   7.09267
 Alpha virt. eigenvalues --    7.11399   7.15017   7.16461   7.18417   7.22921
 Alpha virt. eigenvalues --    7.32730   7.36824   9.01841   9.39418   9.55441
 Alpha virt. eigenvalues --   19.97660  22.33105  22.47339  22.50801  22.52739
 Alpha virt. eigenvalues --   22.63415  22.67026  22.75328  22.77875  22.85510
 Alpha virt. eigenvalues --   22.92996  23.01732  23.02195  23.09040  23.10597
 Alpha virt. eigenvalues --   23.29085  23.52232  32.20986  33.24195  44.17019
 Alpha virt. eigenvalues --   44.19935  44.26559  44.30566  44.54611
          Condensed to atoms (all electrons):
               1          2          3          4          5          6
     1  C    5.159699   0.426775   0.410076   0.011788  -0.008035  -0.000250
     2  H    0.426775   0.497788  -0.015105  -0.002417   0.000436  -0.000005
     3  H    0.410076  -0.015105   0.518502  -0.000725   0.000341  -0.000011
     4  C    0.011788  -0.002417  -0.000725   5.627897   0.538647   0.182013
     5  H   -0.008035   0.000436   0.000341   0.538647   0.519572  -0.037024
     6  O   -0.000250  -0.000005  -0.000011   0.182013  -0.037024   8.155581
     7  H    0.000027  -0.000003  -0.000001  -0.057525  -0.008662   0.323616
     8  C   -0.011461   0.011083  -0.001223  -0.008123  -0.098160  -0.051340
     9  H    0.004879  -0.000358  -0.001645  -0.072083   0.002331   0.001006
    10  O    0.005472  -0.000189  -0.000031   0.058363   0.005713  -0.022004
[...]
 (Enter /storage/apps/GAUSSIAN/G16_RevA03/g16/l716.exe)
 Dipole        = 9.97926816D-01-3.62771201D-01-2.00942932D+00
 ***** Axes restored to original set *****
 -------------------------------------------------------------------
 Center     Atomic                   Forces (Hartrees/Bohr)
 Number     Number              X              Y              Z
 -------------------------------------------------------------------
      1        6           0.000210853   -0.000112272    0.000027326
      2        1           0.000010807   -0.000009120   -0.000002049
      3        1          -0.000009325   -0.000042603    0.000002978
      4        6           0.000627507   -0.000267865   -0.000081088
      5        1           0.000016503   -0.000017664    0.000018149
      6        8           0.001071157   -0.000481552    0.000225169
      7        1           0.000052951   -0.000091591    0.000088252
      8        6           0.000673955   -0.000165822   -0.000019505
      9        1           0.000057261   -0.000017099    0.000001712
     10        8           0.000712285   -0.000087874    0.000075458
     11        1           0.000040697   -0.000039833    0.000036762
     12        6           0.000416599   -0.000133548   -0.000150674
     13        1           0.000054176   -0.000011993   -0.000014394
     14        6           0.000657668   -0.000073873    0.000005162
     15        1           0.000061258   -0.000034146   -0.000007552
     16        8           0.001193300    0.000095101    0.000038125
     17        7           0.000917713   -0.000167982   -0.000785090
     18        6          -0.000132168   -0.000250711    0.000588045
     19        1          -0.000164879   -0.000056534    0.000237538
     20        6           0.000214866   -0.000740788   -0.000174732
     21        1           0.000026961   -0.000127817    0.000172236
     22        6           0.003232855   -0.000049786   -0.008269288
     23        1           0.001068690   -0.000063561   -0.000443861
     24        1          -0.000652455    0.000031576   -0.001127021
     25        6           0.000626410   -0.000313508   -0.001941244
     26        6           0.000413066   -0.000313715   -0.001297754
     27        1          -0.000035253    0.000009945   -0.000060870
     28        6           0.000634652    0.000208240   -0.000366652
     29        8          -0.000579982    0.001052609    0.001536742
     30        7           0.000995111   -0.000177073    0.000167318
     31        1           0.000013397   -0.000074212   -0.000293945
     32        1           0.000257206   -0.000249224   -0.000822456
     33        1          -0.000031240    0.000020073    0.000016215
     34        6           0.000117071    0.000047626   -0.000659353
     35        6          -0.001349224    0.000489446    0.001458475
     36        6          -0.002984167    0.001455092    0.003477674
     37        6          -0.001186290   -0.000263950    0.000252022
     38        6          -0.005146884    0.001178565    0.008234515
     39        8          -0.002058130    0.000111750    0.000849100
     40       16           0.000264339   -0.000061852   -0.000966146
     41        1           0.000039635    0.000001553   -0.000100212
     42        1          -0.000026427   -0.000044344   -0.000085039
     43        1          -0.000458422   -0.000641661   -0.000525920
     44        1          -0.000093266    0.000086120    0.000235243
     45        1           0.000593847    0.000224004   -0.000405990
     46        1          -0.000331288    0.000036503    0.000886317
     47        1          -0.000043541    0.000116359    0.000030642
     48        1           0.000010140    0.000019009   -0.000060343
 -------------------------------------------------------------------
 Cartesian Forces:  Max     0.008269288 RMS     0.001279162
 Leave Link  716 at Sat Aug 13 20:21:32 2022, MaxMem=  2684354560 cpu:               0.8 elap:               0.1
 (Enter /storage/apps/GAUSSIAN/G16_RevA03/g16/l103.exe)

 GradGradGradGradGradGradGradGradGradGradGradGradGradGradGradGradGradGrad
 Berny optimization.
 Search for a local minimum.
 Step number   1 out of a maximum of    2
 All quantities printed in internal units (Hartrees-Bohrs-Radians)
 Second derivative matrix not updated -- first step.
 ITU=  0
     Eigenvalues ---    0.00036   0.00099   0.00104   0.00127   0.00185
     Eigenvalues ---    0.00249   0.00316   0.00388   0.00426   0.00460
     Eigenvalues ---    0.00584   0.00731   0.00832   0.00875   0.00927
     Eigenvalues ---    0.01017   0.01099   0.01197   0.01380   0.01510
     Eigenvalues ---    0.01710   0.01911   0.02351   0.02491   0.02616
     Eigenvalues ---    0.02994   0.03193   0.03384   0.03725   0.03850
     Eigenvalues ---    0.04366   0.04626   0.04929   0.05142   0.05265
     Eigenvalues ---    0.05385   0.05519   0.05756   0.05873   0.05891
     Eigenvalues ---    0.06097   0.06163   0.06360   0.06368   0.06714
     Eigenvalues ---    0.06937   0.07497   0.07721   0.07844   0.08010
     Eigenvalues ---    0.08425   0.08764   0.09104   0.09846   0.10286
     Eigenvalues ---    0.10570   0.11708   0.12128   0.12491   0.12630
     Eigenvalues ---    0.12999   0.13103   0.13218   0.13606   0.13690
     Eigenvalues ---    0.13923   0.14046   0.15364   0.15980   0.16597
     Eigenvalues ---    0.16732   0.18585   0.19188   0.19707   0.19783
     Eigenvalues ---    0.20029   0.20742   0.21663   0.21828   0.22231
     Eigenvalues ---    0.24367   0.27077   0.27452   0.28484   0.31147
     Eigenvalues ---    0.32976   0.34026   0.35215   0.35292   0.37066
     Eigenvalues ---    0.38144   0.38144   0.38144   0.38144   0.40234
     Eigenvalues ---    0.43297   0.45330   0.48084   0.56537   0.56847
     Eigenvalues ---    0.61649   0.66387   0.69550   0.70162   0.74291
     Eigenvalues ---    0.78959   0.82413   0.87594   0.89153   0.90921
     Eigenvalues ---    0.91331   0.91831   0.93946   0.94626   0.94883
     Eigenvalues ---    0.96538   0.97275   1.00095   1.01949   1.03066
     Eigenvalues ---    1.05656   1.06940   1.10203   1.11497   1.14608
     Eigenvalues ---    1.19352   1.20034   1.25135   1.26129   1.30152
     Eigenvalues ---    1.33798   1.43033   1.52152   1.63441   1.70488
     Eigenvalues ---    1.79557   2.18231   2.28097
 Quadratic step=5.984D+00 exceeds max=3.000D-01 adjusted using Lamda=-2.217D-02.
 Angle between NR and scaled steps=  56.17 degrees.
 Angle between quadratic step and forces=  49.23 degrees.
 Linear search not attempted -- first point.
 Variable       Old X    -DE/DX   Delta X   Delta X   Delta X     New X
                                 (Linear)    (Quad)   (Total)
    X1        6.80619   0.00021   0.00000  -0.00608  -0.00608   6.80011
    Y1       -6.83452  -0.00011   0.00000   0.00399   0.00399  -6.83053
    Z1       -0.83821   0.00003   0.00000   0.00173   0.00173  -0.83648
    X2        7.08677   0.00001   0.00000  -0.01321  -0.01321   7.07356
    Y2       -7.01559  -0.00001   0.00000   0.00568   0.00568  -7.00991
    Z2       -2.86936  -0.00000   0.00000   0.00094   0.00094  -2.86842
    X3        8.18912  -0.00001   0.00000  -0.00856  -0.00856   8.18056
    Y3       -8.01711  -0.00004   0.00000  -0.00061  -0.00061  -8.01772
    Z3        0.12946   0.00000   0.00000  -0.00125  -0.00125   0.12821
    X4        3.55591   0.00063   0.00000   0.00669   0.00669   3.56260
    Y4       -2.73800  -0.00027   0.00000  -0.00178  -0.00178  -2.73978
    Z4        2.32975  -0.00008   0.00000   0.00407   0.00407   2.33382
    X5        2.32272   0.00002   0.00000   0.00303   0.00303   2.32575
    Y5       -4.38251  -0.00002   0.00000  -0.00039  -0.00039  -4.38291
    Z5        2.06924   0.00002   0.00000   0.01060   0.01060   2.07985
    X6        2.82114   0.00107   0.00000   0.01686   0.01686   2.83801
    Y6       -1.29903  -0.00048   0.00000  -0.00519  -0.00519  -1.30422
    Z6        4.41610   0.00023   0.00000   0.00987   0.00987   4.42597
    X7        1.06882   0.00005   0.00000   0.01340   0.01340   1.08222
    Y7       -0.78255  -0.00009   0.00000  -0.00736  -0.00736  -0.78991
    Z7        4.17087   0.00009   0.00000   0.02419   0.02419   4.19506
    X8        6.29115   0.00067   0.00000   0.00785   0.00785   6.29900
    Y8       -3.57043  -0.00017   0.00000  -0.00035  -0.00035  -3.57077
    Z8        2.65734  -0.00002   0.00000   0.00231   0.00231   2.65966
    X9        6.46816   0.00006   0.00000   0.00503   0.00503   6.47319
    Y9       -5.24460  -0.00002   0.00000  -0.00042  -0.00042  -5.24502
    Z9        3.85892   0.00000   0.00000   0.00273   0.00273   3.86165
   X10        7.72590   0.00071   0.00000   0.00866   0.00866   7.73456
   Y10       -1.54611  -0.00009   0.00000  -0.00121  -0.00121  -1.54733
   Z10        3.62081   0.00008   0.00000   0.00427   0.00427   3.62508
   X11        6.69888   0.00004   0.00000   0.00733   0.00733   6.70621
   Y11       -0.73119  -0.00004   0.00000  -0.00391  -0.00391  -0.73510
   Z11        4.89142   0.00004   0.00000   0.00584   0.00584   4.89726
   X12        3.70885   0.00042   0.00000   0.00021   0.00021   3.70905
   Y12       -1.25276  -0.00013   0.00000  -0.00114  -0.00114  -1.25390
   Z12       -0.16396  -0.00015   0.00000   0.00107   0.00107  -0.16288
   X13        4.28416   0.00005   0.00000  -0.00831  -0.00831   4.27585
   Y13        0.69282  -0.00001   0.00000   0.00067   0.00067   0.69349
   Z13        0.24239  -0.00001   0.00000   0.00675   0.00675   0.24914
   X14        7.10812   0.00066   0.00000   0.00567   0.00567   7.11379
   Y14       -4.09550  -0.00007   0.00000   0.00201   0.00201  -4.09350
   Z14       -0.05477   0.00001   0.00000   0.00249   0.00249  -0.05227
   X15        9.06100   0.00006   0.00000   0.00532   0.00532   9.06632
   Y15       -3.47907  -0.00003   0.00000   0.00001   0.00001  -3.47906
   Z15       -0.29813  -0.00001   0.00000   0.00303   0.00303  -0.29510
   X16        5.53727   0.00119   0.00000   0.01017   0.01017   5.54744
   Y16       -2.53057   0.00010   0.00000   0.00746   0.00746  -2.52311
   Z16       -1.61592   0.00004   0.00000   0.00411   0.00411  -1.61181
   X17        1.38859   0.00092   0.00000   0.00286   0.00286   1.39145
   Y17       -1.13004  -0.00017   0.00000  -0.00427  -0.00427  -1.13431
   Z17       -1.58021  -0.00079   0.00000  -0.01009  -0.01009  -1.59031
   X18        0.35581  -0.00013   0.00000  -0.00767  -0.00767   0.34814
   Y18       -3.35349  -0.00025   0.00000  -0.00609  -0.00609  -3.35958
   Z18       -2.53974   0.00059   0.00000   0.00425   0.00425  -2.53548
   X19        1.48810  -0.00016   0.00000  -0.02292  -0.02292   1.46518
   Y19       -5.02513  -0.00006   0.00000  -0.00981  -0.00981  -5.03494
   Z19       -2.23650   0.00024   0.00000   0.03363   0.03363  -2.20288
   X20       -1.78996   0.00021   0.00000   0.00418   0.00418  -1.78579
   Y20       -3.39701  -0.00074   0.00000  -0.00637  -0.00637  -3.40338
   Z20       -3.84234  -0.00017   0.00000  -0.01780  -0.01780  -3.86013
   X21       -2.43838   0.00003   0.00000  -0.00910  -0.00910  -2.44749
   Y21       -5.18066  -0.00013   0.00000  -0.01192  -0.01192  -5.19257
   Z21       -4.60021   0.00017   0.00000   0.01010   0.01010  -4.59012
   X22       -3.32563   0.00323   0.00000   0.02829   0.02829  -3.29734
   Y22       -1.06825  -0.00005   0.00000  -0.00057  -0.00057  -1.06883
   Z22       -4.32192  -0.00827   0.00000  -0.07571  -0.07571  -4.39763
   X23       -3.82854   0.00107   0.00000   0.04087   0.04087  -3.78767
   Y23       -0.94498  -0.00006   0.00000  -0.00208  -0.00208  -0.94706
   Z23       -6.32964  -0.00044   0.00000  -0.07356  -0.07356  -6.40320
   X24       -5.13951  -0.00065   0.00000   0.01579   0.01579  -5.12372
   Y24       -1.21928   0.00003   0.00000   0.01203   0.01203  -1.20724
   Z24       -3.33968  -0.00113   0.00000  -0.08416  -0.08416  -3.42383
   X25       -1.89680   0.00063   0.00000   0.01601   0.01601  -1.88079
   Y25        1.25502  -0.00031   0.00000  -0.00319  -0.00319   1.25184
   Z25       -3.51710  -0.00194   0.00000  -0.04321  -0.04321  -3.56031
   X26        0.29341   0.00041   0.00000   0.00394   0.00394   0.29735
   Y26        1.10314  -0.00031   0.00000  -0.00564  -0.00564   1.09750
   Z26       -2.23640  -0.00130   0.00000  -0.02082  -0.02082  -2.25722
   X27        1.26427  -0.00004   0.00000  -0.01296  -0.01296   1.25131
   Y27        2.81575   0.00001   0.00000  -0.00375  -0.00375   2.81200
   Z27       -1.67070  -0.00006   0.00000   0.00544   0.00544  -1.66525
   X28       -2.84001   0.00063   0.00000  -0.00478  -0.00478  -2.84479
   Y28        3.81300   0.00021   0.00000   0.00193   0.00193   3.81493
   Z28       -4.11057  -0.00037   0.00000   0.00533   0.00533  -4.10523
   X29       -1.59854  -0.00058   0.00000  -0.03161  -0.03161  -1.63015
   Y29        5.73000   0.00105   0.00000   0.01222   0.01222   5.74222
   Z29       -3.84380   0.00154   0.00000   0.05879   0.05879  -3.78501
   X30       -5.26122   0.00100   0.00000  -0.00795  -0.00795  -5.26916
   Y30        3.90663  -0.00018   0.00000  -0.00047  -0.00047   3.90615
   Z30       -5.03750   0.00017   0.00000   0.01454   0.01454  -5.02296
   X31       -6.01564   0.00001   0.00000  -0.02051  -0.02051  -6.03614
   Y31        5.63817  -0.00007   0.00000  -0.00144  -0.00144   5.63673
   Z31       -5.26021  -0.00029   0.00000   0.04417   0.04417  -5.21604
   X32       -6.43633   0.00026   0.00000  -0.00015  -0.00015  -6.43648
   Y32        2.42516  -0.00025   0.00000  -0.00881  -0.00881   2.41634
   Z32       -4.86568  -0.00082   0.00000  -0.00248  -0.00248  -4.86816
   X33        4.92002  -0.00003   0.00000  -0.00817  -0.00817   4.91186
   Y33       -7.53563   0.00002   0.00000   0.01108   0.01108  -7.52456
   Z33       -0.37650   0.00002   0.00000   0.00651   0.00651  -0.36999
   X34        0.37689   0.00012   0.00000   0.02010   0.02010   0.39699
   Y34        4.15759   0.00005   0.00000  -0.00150  -0.00150   4.15609
   Z34        5.35290  -0.00066   0.00000  -0.02458  -0.02458   5.32832
   X35       -3.06520  -0.00135   0.00000  -0.02806  -0.02806  -3.09325
   Y35        1.72032   0.00049   0.00000   0.00384   0.00384   1.72416
   Z35        2.37341   0.00146   0.00000   0.03109   0.03109   2.40450
   X36       -5.42036  -0.00298   0.00000  -0.04388  -0.04388  -5.46424
   Y36        1.62419   0.00146   0.00000   0.01192   0.01192   1.63610
   Z36        0.90463   0.00348   0.00000   0.06169   0.06169   0.96632
   X37       -9.06492  -0.00119   0.00000   0.00333   0.00333  -9.06159
   Y37       -0.80097  -0.00026   0.00000  -0.00864  -0.00864  -0.80961
   Z37       -0.81939   0.00025   0.00000  -0.01878  -0.01878  -0.83817
   X38       -6.47497  -0.00515   0.00000  -0.04528  -0.04528  -6.52026
   Y38       -0.56983   0.00118   0.00000   0.00715   0.00715  -0.56268
   Z38        0.27907   0.00823   0.00000   0.08432   0.08432   0.36339
   X39       -1.83902  -0.00206   0.00000  -0.04526  -0.04526  -1.88428
   Y39       -0.13951   0.00011   0.00000  -0.00567  -0.00567  -0.14518
   Z39        2.94037   0.00085   0.00000   0.03574   0.03574   2.97612
   X40       -2.31555   0.00026   0.00000   0.04313   0.04313  -2.27241
   Y40        4.79373  -0.00006   0.00000   0.01069   0.01069   4.80442
   Z40        3.38197  -0.00097   0.00000  -0.05364  -0.05364   3.32833
   X41        0.83164   0.00004   0.00000   0.01599   0.01599   0.84763
   Y41        5.92402   0.00000   0.00000  -0.00457  -0.00457   5.91945
   Z41        6.29949  -0.00010   0.00000  -0.01614  -0.01614   6.28335
   X42        1.98080  -0.00003   0.00000   0.02969   0.02969   2.01049
   Y42        3.53808  -0.00004   0.00000  -0.00643  -0.00643   3.53166
   Z42        4.22846  -0.00009   0.00000  -0.00682  -0.00682   4.22164
   X43      -10.40293  -0.00046   0.00000  -0.04132  -0.04132 -10.44426
   Y43       -1.20434  -0.00064   0.00000  -0.03762  -0.03762  -1.24195
   Z43        0.70261  -0.00053   0.00000  -0.07012  -0.07012   0.63249
   X44       -9.66652  -0.00009   0.00000   0.02678   0.02678  -9.63974
   Y44        0.95275   0.00009   0.00000  -0.00434  -0.00434   0.94841
   Z44       -1.72000   0.00024   0.00000  -0.02674  -0.02674  -1.74674
   X45       -9.21238   0.00059   0.00000   0.07381   0.07381  -9.13857
   Y45       -2.34786   0.00022   0.00000   0.00547   0.00547  -2.34239
   Z45       -2.17219  -0.00041   0.00000  -0.04417  -0.04417  -2.21636
   X46       -5.46071  -0.00033   0.00000  -0.03069  -0.03069  -5.49140
   Y46       -2.29287   0.00004   0.00000   0.01243   0.01243  -2.28044
   Z46        0.74891   0.00089   0.00000   0.07862   0.07862   0.82753
   X47       -6.33332  -0.00004   0.00000  -0.01057  -0.01057  -6.34388
   Y47        3.41131   0.00012   0.00000   0.01510   0.01510   3.42641
   Z47        0.48775   0.00003   0.00000   0.00993   0.00993   0.49768
   X48       -0.09253   0.00001   0.00000   0.00354   0.00354  -0.08899
   Y48        2.72160   0.00002   0.00000   0.00010   0.00010   2.72169
   Z48        6.74734  -0.00006   0.00000  -0.02706  -0.02706   6.72028
         Item               Value     Threshold  Converged?
 Maximum Force            0.008269     0.000450     NO 
 RMS     Force            0.001279     0.000300     NO 
 Maximum Displacement     0.084324     0.001800     NO 
 RMS     Displacement     0.025009     0.001200     NO 
 Predicted change in Energy=-2.502251D-03
 GradGradGradGradGradGradGradGradGradGradGradGradGradGradGradGradGradGrad

 Leave Link  103 at Sat Aug 13 20:21:32 2022, MaxMem=  2684354560 cpu:               1.3 elap:               0.1
 (Enter /storage/apps/GAUSSIAN/G16_RevA03/g16/l9999.exe)

 Test job not archived.
 1\1\GINC-T051\Force\RM062X\def2TZVP\C16H24N2O5S1\LV87696\13-Aug-2022\0
 \\#P M062X/Def2TZVP scf=(direct,conver=8) EmpiricalDispersion=GD3 Forc
 e Charge Prop=(Field,Read)\\Gaussian run\\0,1\C,3.601681,-3.616673,-0.
 44356\H,3.750156,-3.712491,-1.518398\H,4.333494,-4.242471,0.068506\C,1
 .881706,-1.448887,1.23285\H,1.22913,-2.319125,1.094997\O,1.492884,-0.6
 87419,2.336899\H,0.565595,-0.414108,2.207129\C,3.329135,-1.889388,1.40
 6205\H,3.422805,-2.775321,2.04205\O,4.088372,-0.818168,1.916052\H,3.54
 4894,-0.386928,2.58843\C,1.962637,-0.662931,-0.086762\H,2.26708,0.3666
 22,0.128265\C,3.761455,-2.167247,-0.028981\H,4.794876,-1.841046,-0.157
 765\O,2.930197,-1.339122,-0.855108\N,0.73481,-0.597989,-0.836213\C,0.1
 88288,-1.774589,-1.34397\H,0.787468,-2.659186,-1.183507\C,-0.947208,-1
 .79762,-2.033277\H,-1.290336,-2.741486,-2.434328\C,-1.759847,-0.565295
 ,-2.287063\H,-2.025977,-0.500061,-3.349503\H,-2.719713,-0.645213,-1.76
 728\C,-1.003745,0.66413,-1.861169\C,0.155265,0.583754,-1.183452\H,0.66
 9022,1.490033,-0.884096\C,-1.502869,2.017753,-2.175219\O,-0.845912,3.0
 32187,-2.034052\N,-2.784116,2.067298,-2.665732\H,-3.183337,2.983589,-2
 .783585\H,-3.405961,1.283338,-2.574807\H,2.603565,-3.987685,-0.199234\
 C,0.199443,2.200104,2.832631\C,-1.622033,0.910353,1.255953\C,-2.868329
 ,0.859482,0.478709\C,-4.796949,-0.423855,-0.433603\C,-3.426409,-0.3015
 39,0.147675\O,-0.973167,-0.073825,1.555978\S,-1.225334,2.536734,1.7896
 63\H,0.440085,3.134858,3.333547\H,1.048195,1.872273,2.237604\H,-5.5049
 95,-0.637308,0.371807\H,-5.115301,0.504171,-0.910186\H,-4.874984,-1.24
 2432,-1.149475\H,-2.889685,-1.213334,0.396306\H,-3.351446,1.805188,0.2
 58105\H,-0.048967,1.440207,3.57054\\Version=ES64L-G16RevA.03\State=1-A
 \HF=-1507.9252094\RMSD=1.629e-09\RMSF=1.279e-03\Dipole=-1.8880956,-1.1
 65,0.4930893\Quadrupole=7.3217438,-2.0418872,-5.2798566,-2.9629398,5.8
 59417,8.0983529\PG=C01 [X(C16H24N2O5S1)]\\@


 YOU KNOW YOU'RE A TEACHER WHEN YOU SAY 2, WRITE 3, AND MEAN 4.
 -- RONALD ANSTROM, HIGH SCHOOL TEACHER, UNDERWOOD, N.D. 1974
 Job cpu time:       0 days  3 hours 15 minutes  3.5 seconds.
 Elapsed time:       0 days  0 hours 12 minutes 13.4 seconds.
 File lengths (MBytes):  RWF=    435 Int=      0 D2E=      0 Chk=     48 Scr=      1
 Normal termination of Gaussian 16 at Sat Aug 13 20:21:32 2022.
