 Entering Gaussian System, Link 0=g16
 Initial command:
 /storage/apps/GAUSSIAN/G16_RevA03/g16/l1.exe "/scratch/tmp/1019171/Gau-128133.inp" -scrdir="/scratch/tmp/1019171/"
 Entering Link 1 = /storage/apps/GAUSSIAN/G16_RevA03/g16/l1.exe PID=    128134.
  
 Copyright (c) 1988,1990,1992,1993,1995,1998,2003,2009,2016,
            Gaussian, Inc.  All Rights Reserved.
  
 This is part of the Gaussian(R) 16 program.  It is based on
 the Gaussian(R) 09 system (copyright 2009, Gaussian, Inc.),
 the Gaussian(R) 03 system (copyright 2003, Gaussian, Inc.),
 the Gaussian(R) 98 system (copyright 1998, Gaussian, Inc.),
 the Gaussian(R) 94 system (copyright 1995, Gaussian, Inc.),
 the Gaussian 92(TM) system (copyright 1992, Gaussian, Inc.),
 the Gaussian 90(TM) system (copyright 1990, Gaussian, Inc.),
 the Gaussian 88(TM) system (copyright 1988, Gaussian, Inc.),
 the Gaussian 86(TM) system (copyright 1986, Carnegie Mellon
 University), and the Gaussian 82(TM) system (copyright 1983,
 Carnegie Mellon University). Gaussian is a federally registered
 trademark of Gaussian, Inc.
  
 This software contains proprietary and confidential information,
 including trade secrets, belonging to Gaussian, Inc.
  
 This software is provided under written license and may be
 used, copied, transmitted, or stored only in accord with that
 written license.
  
 The following legend is applicable only to US Government
 contracts under FAR:
  
                    RESTRICTED RIGHTS LEGEND
  
 Use, reproduction and disclosure by the US Government is
 subject to restrictions as set forth in subparagraphs (a)
 and (c) of the Commercial Computer Software - Restricted
 Rights clause in FAR 52.227-19.
  
 Gaussian, Inc.
 340 Quinnipiac St., Bldg. 40, Wallingford CT 06492
  
  
 ---------------------------------------------------------------
 Warning -- This program may not be used in any manner that
 competes with the business of Gaussian, Inc. or will provide
 assistance to any competitor of Gaussian, Inc.  The licensee
 of this program is prohibited from giving any competitor of
 Gaussian, Inc. access to this program.  By using this program,
 the user acknowledges that Gaussian, Inc. is engaged in the
 business of creating and licensing software in the field of
 computational chemistry and represents and warrants to the
 licensee that it is not a competitor of Gaussian, Inc. and that
 it will not use this program in any manner prohibited above.
 ---------------------------------------------------------------
  

 Cite this work as:
 Gaussian 16, Revision A.03,
 M. J. Frisch, G. W. Trucks, H. B. Schlegel, G. E. Scuseria, 
 M. A. Robb, J. R. Cheeseman, G. Scalmani, V. Barone, 
 G. A. Petersson, H. Nakatsuji, X. Li, M. Caricato, A. V. Marenich, 
 J. Bloino, B. G. Janesko, R. Gomperts, B. Mennucci, H. P. Hratchian, 
 J. V. Ortiz, A. F. Izmaylov, J. L. Sonnenberg, D. Williams-Young, 
 F. Ding, F. Lipparini, F. Egidi, J. Goings, B. Peng, A. Petrone, 
 T. Henderson, D. Ranasinghe, V. G. Zakrzewski, J. Gao, N. Rega, 
 G. Zheng, W. Liang, M. Hada, M. Ehara, K. Toyota, R. Fukuda, 
 J. Hasegawa, M. Ishida, T. Nakajima, Y. Honda, O. Kitao, H. Nakai, 
 T. Vreven, K. Throssell, J. A. Montgomery, Jr., J. E. Peralta, 
 F. Ogliaro, M. J. Bearpark, J. J. Heyd, E. N. Brothers, K. N. Kudin, 
 V. N. Staroverov, T. A. Keith, R. Kobayashi, J. Normand, 
 K. Raghavachari, A. P. Rendell, J. C. Burant, S. S. Iyengar, 
 J. Tomasi, M. Cossi, J. M. Millam, M. Klene, C. Adamo, R. Cammi, 
 J. W. Ochterski, R. L. Martin, K. Morokuma, O. Farkas, 
 J. B. Foresman, and D. J. Fox, Gaussian, Inc., Wallingford CT, 2016.
 
 ******************************************
 Gaussian 16:  ES64L-G16RevA.03 25-Dec-2016
                13-Aug-2022 
 ******************************************
 %NProcShared=16
 Will use up to   16 processors via shared memory.
 %mem=20GB
 ----------------------------------------------------------------------
 #P M062X/Def2TZVP scf=(direct,conver=8) EmpiricalDispersion=GD3 Force 
 Charge Prop=(Field,Read)
 ----------------------------------------------------------------------
 1/10=7,18=10,28=-2,30=1,38=1,125=101/1,3;
 2/12=2,17=6,18=5,29=2,40=1/2;
 3/5=44,7=101,11=2,25=1,30=1,71=1,74=-55,124=31/1,2,3;
 4//1;
 5/5=2,6=8,38=5/2;
 6/7=2,8=2,9=2,10=2,14=2,15=1,28=1/1,2;
 7/7=1,16=-2,29=1/1,2,3,16;
 1/10=7,18=10,28=-2,30=1/3;
 99/12=1/99;
 Leave Link    1 at Sat Aug 13 20:09:18 2022, MaxMem=  2684354560 cpu:               0.6 elap:               0.0
 (Enter /storage/apps/GAUSSIAN/G16_RevA03/g16/l101.exe)
 ------------
 Gaussian run
 ------------
 Symbolic Z-matrix:
 Charge =  0 Multiplicity = 1
 C                     3.60107  -3.61634  -0.44368 
 H                     3.74957  -3.71187  -1.51855 
 H                     4.33374  -4.2413    0.06817 
 C                     1.87963  -1.44794   1.23299 
 H                     1.22709  -2.31819   1.09437 
 O                     1.49018  -0.68629   2.33618 
 H                     0.5634   -0.41116   2.2047 
 C                     3.32697  -1.88883   1.40629 
 H                     3.42032  -2.77474   2.0422 
 O                     4.08681  -0.8179    1.9158 
 H                     3.54332  -0.38584   2.58768 
 C                     1.96138  -0.66256  -0.08644 
 H                     2.26615   0.367     0.12791 
 C                     3.75942  -2.16688  -0.02891 
 H                     4.7925   -1.83968  -0.15773 
 O                     2.9275   -1.33929  -0.8553 
 N                     0.73236  -0.59763  -0.83457 
 C                     0.18836  -1.77397  -1.34537 
 H                     0.79136  -2.65704  -1.19139 
 C                    -0.9482   -1.79492  -2.03309 
 H                    -1.29201  -2.73591  -2.44006 
 C                    -1.76697  -0.56455  -2.26164 
 H                    -2.07685  -0.49927  -3.31096 
 H                    -2.70749  -0.64772  -1.70817 
 C                    -1.00554   0.66516  -1.85638 
 C                     0.15404   0.58473  -1.17867 
 H                     0.66976   1.48999  -0.87974 
 C                    -1.50494   2.01706  -2.17428 
 O                    -0.84451   3.02931  -2.03717 
 N                    -2.78701   2.06787  -2.66649 
 H                    -3.18314   2.98717  -2.77363 
 H                    -3.41621   1.29378  -2.54249 
 H                     2.60346  -3.98858  -0.19917 
 C                     0.19918   2.19996   2.83456 
 C                    -1.61899   0.90868   1.25215 
 C                    -2.85871   0.85476   0.468 
 C                    -4.79361  -0.42286  -0.43392 
 C                    -3.41013  -0.30588   0.11922 
 O                    -0.96835  -0.07426   1.55414 
 S                    -1.22542   2.53727   1.79089 
 H                     0.439     3.13427   3.33672 
 H                     1.04852   1.87341   2.2397 
 H                    -5.48292  -0.61072   0.39386 
 H                    -5.11338   0.50085  -0.91811 
 H                    -4.90028  -1.25258  -1.13278 
 H                    -2.87289  -1.21909   0.36169 
 H                    -3.35059   1.79873   0.25963 
 H                    -0.049     1.43917   3.57161 
 
 ITRead=  0  0  0  0  0  0  0  0  0  0  0  0  0  0  0  0  0  0  0  0
 ITRead=  0  0  0  0  0  0  0  0  0  0  0  0  0  0  0  0  0  0  0  0
 ITRead=  0  0  0  0  0  0  0  0
 MicOpt= -1 -1 -1 -1 -1 -1 -1 -1 -1 -1 -1 -1 -1 -1 -1 -1 -1 -1 -1 -1
 MicOpt= -1 -1 -1 -1 -1 -1 -1 -1 -1 -1 -1 -1 -1 -1 -1 -1 -1 -1 -1 -1
 MicOpt= -1 -1 -1 -1 -1 -1 -1 -1
 NAtoms=     48 NQM=       48 NQMF=       0 NMMI=      0 NMMIF=      0
                NMic=       0 NMicF=      0.
                    Isotopes and Nuclear Properties:
 (Nuclear quadrupole moments (NQMom) in fm**2, nuclear magnetic moments (NMagM)
  in nuclear magnetons)

  Atom         1           2           3           4           5           6           7           8           9          10
 IAtWgt=          12           1           1          12           1          16           1          12           1          16
 AtmWgt=  12.0000000   1.0078250   1.0078250  12.0000000   1.0078250  15.9949146   1.0078250  12.0000000   1.0078250  15.9949146
 NucSpn=           0           1           1           0           1           0           1           0           1           0
 AtZEff=  -0.0000000  -0.0000000  -0.0000000  -0.0000000  -0.0000000  -0.0000000  -0.0000000  -0.0000000  -0.0000000  -0.0000000
 NQMom=    0.0000000   0.0000000   0.0000000   0.0000000   0.0000000   0.0000000   0.0000000   0.0000000   0.0000000   0.0000000
 NMagM=    0.0000000   2.7928460   2.7928460   0.0000000   2.7928460   0.0000000   2.7928460   0.0000000   2.7928460   0.0000000
 AtZNuc=   6.0000000   1.0000000   1.0000000   6.0000000   1.0000000   8.0000000   1.0000000   6.0000000   1.0000000   8.0000000

  Atom        11          12          13          14          15          16          17          18          19          20
 IAtWgt=           1          12           1          12           1          16          14          12           1          12
 AtmWgt=   1.0078250  12.0000000   1.0078250  12.0000000   1.0078250  15.9949146  14.0030740  12.0000000   1.0078250  12.0000000
 NucSpn=           1           0           1           0           1           0           2           0           1           0
 AtZEff=  -0.0000000  -0.0000000  -0.0000000  -0.0000000  -0.0000000  -0.0000000  -0.0000000  -0.0000000  -0.0000000  -0.0000000
 NQMom=    0.0000000   0.0000000   0.0000000   0.0000000   0.0000000   0.0000000   2.0440000   0.0000000   0.0000000   0.0000000
 NMagM=    2.7928460   0.0000000   2.7928460   0.0000000   2.7928460   0.0000000   0.4037610   0.0000000   2.7928460   0.0000000
 AtZNuc=   1.0000000   6.0000000   1.0000000   6.0000000   1.0000000   8.0000000   7.0000000   6.0000000   1.0000000   6.0000000

  Atom        21          22          23          24          25          26          27          28          29          30
 IAtWgt=           1          12           1           1          12          12           1          12          16          14
 AtmWgt=   1.0078250  12.0000000   1.0078250   1.0078250  12.0000000  12.0000000   1.0078250  12.0000000  15.9949146  14.0030740
 NucSpn=           1           0           1           1           0           0           1           0           0           2
 AtZEff=  -0.0000000  -0.0000000  -0.0000000  -0.0000000  -0.0000000  -0.0000000  -0.0000000  -0.0000000  -0.0000000  -0.0000000
 NQMom=    0.0000000   0.0000000   0.0000000   0.0000000   0.0000000   0.0000000   0.0000000   0.0000000   0.0000000   2.0440000
 NMagM=    2.7928460   0.0000000   2.7928460   2.7928460   0.0000000   0.0000000   2.7928460   0.0000000   0.0000000   0.4037610
 AtZNuc=   1.0000000   6.0000000   1.0000000   1.0000000   6.0000000   6.0000000   1.0000000   6.0000000   8.0000000   7.0000000

  Atom        31          32          33          34          35          36          37          38          39          40
 IAtWgt=           1           1           1          12          12          12          12          12          16          32
 AtmWgt=   1.0078250   1.0078250   1.0078250  12.0000000  12.0000000  12.0000000  12.0000000  12.0000000  15.9949146  31.9720718
 NucSpn=           1           1           1           0           0           0           0           0           0           0
 AtZEff=  -0.0000000  -0.0000000  -0.0000000  -0.0000000  -0.0000000  -0.0000000  -0.0000000  -0.0000000  -0.0000000  -0.0000000
 NQMom=    0.0000000   0.0000000   0.0000000   0.0000000   0.0000000   0.0000000   0.0000000   0.0000000   0.0000000   0.0000000
 NMagM=    2.7928460   2.7928460   2.7928460   0.0000000   0.0000000   0.0000000   0.0000000   0.0000000   0.0000000   0.0000000
 AtZNuc=   1.0000000   1.0000000   1.0000000   6.0000000   6.0000000   6.0000000   6.0000000   6.0000000   8.0000000  16.0000000

  Atom        41          42          43          44          45          46          47          48
 IAtWgt=           1           1           1           1           1           1           1           1
 AtmWgt=   1.0078250   1.0078250   1.0078250   1.0078250   1.0078250   1.0078250   1.0078250   1.0078250
 NucSpn=           1           1           1           1           1           1           1           1
 AtZEff=  -0.0000000  -0.0000000  -0.0000000  -0.0000000  -0.0000000  -0.0000000  -0.0000000  -0.0000000
 NQMom=    0.0000000   0.0000000   0.0000000   0.0000000   0.0000000   0.0000000   0.0000000   0.0000000
 NMagM=    2.7928460   2.7928460   2.7928460   2.7928460   2.7928460   2.7928460   2.7928460   2.7928460
 AtZNuc=   1.0000000   1.0000000   1.0000000   1.0000000   1.0000000   1.0000000   1.0000000   1.0000000
 Background charge distribution read from input stream:
 Leave Link  101 at Sat Aug 13 20:09:18 2022, MaxMem=  2684354560 cpu:               1.7 elap:               0.1
 (Enter /storage/apps/GAUSSIAN/G16_RevA03/g16/l103.exe)

 GradGradGradGradGradGradGradGradGradGradGradGradGradGradGradGradGradGrad
 Berny optimization.
 Initialization pass.
 Trust Radius=3.00D-01 FncErr=1.00D-07 GrdErr=1.00D-07 EigMax=2.50D+02 EigMin=1.00D-04
 Number of steps in this run=      2 maximum allowed number of steps=      2.
 GradGradGradGradGradGradGradGradGradGradGradGradGradGradGradGradGradGrad

 Leave Link  103 at Sat Aug 13 20:09:18 2022, MaxMem=  2684354560 cpu:               0.4 elap:               0.1
 (Enter /storage/apps/GAUSSIAN/G16_RevA03/g16/l202.exe)
 ---------------------------------------------------------------------------------------------------
                            Z-MATRIX (ANGSTROMS AND DEGREES)
   CD    Cent   Atom    N1       Length/X        N2       Alpha/Y        N3        Beta/Z          J
 ---------------------------------------------------------------------------------------------------
      1      1  C        0   3.601069         -3.616344         -0.443680
      2      2  H        0   3.749566         -3.711868         -1.518549
      3      3  H        0   4.333738         -4.241303          0.068174
      4      4  C        0   1.879633         -1.447944          1.232988
      5      5  H        0   1.227089         -2.318191          1.094368
      6      6  O        0   1.490179         -0.686289          2.336184
      7      7  H        0   0.563395         -0.411157          2.204700
      8      8  C        0   3.326965         -1.888831          1.406286
      9      9  H        0   3.420322         -2.774738          2.042201
     10     10  O        0   4.086807         -0.817903          1.915801
     11     11  H        0   3.543319         -0.385844          2.587683
     12     12  C        0   1.961379         -0.662561         -0.086438
     13     13  H        0   2.266154          0.367004          0.127912
     14     14  C        0   3.759415         -2.166878         -0.028914
     15     15  H        0   4.792504         -1.839677         -0.157727
     16     16  O        0   2.927496         -1.339290         -0.855304
     17     17  N        0   0.732357         -0.597626         -0.834573
     18     18  C        0   0.188363         -1.773972         -1.345374
     19     19  H        0   0.791364         -2.657039         -1.191393
     20     20  C        0  -0.948197         -1.794918         -2.033095
     21     21  H        0  -1.292010         -2.735910         -2.440061
     22     22  C        0  -1.766967         -0.564549         -2.261644
     23     23  H        0  -2.076854         -0.499271         -3.310959
     24     24  H        0  -2.707487         -0.647721         -1.708169
     25     25  C        0  -1.005537          0.665163         -1.856380
     26     26  C        0   0.154043          0.584732         -1.178665
     27     27  H        0   0.669755          1.489989         -0.879743
     28     28  C        0  -1.504942          2.017062         -2.174279
     29     29  O        0  -0.844513          3.029314         -2.037173
     30     30  N        0  -2.787014          2.067868         -2.666488
     31     31  H        0  -3.183137          2.987166         -2.773627
     32     32  H        0  -3.416206          1.293783         -2.542488
     33     33  H        0   2.603456         -3.988581         -0.199172
     34     34  C        0   0.199177          2.199959          2.834555
     35     35  C        0  -1.618988          0.908679          1.252154
     36     36  C        0  -2.858708          0.854759          0.467997
     37     37  C        0  -4.793611         -0.422858         -0.433918
     38     38  C        0  -3.410129         -0.305875          0.119219
     39     39  O        0  -0.968345         -0.074255          1.554142
     40     40  S        0  -1.225417          2.537268          1.790888
     41     41  H        0   0.439004          3.134273          3.336715
     42     42  H        0   1.048523          1.873406          2.239704
     43     43  H        0  -5.482919         -0.610718          0.393861
     44     44  H        0  -5.113375          0.500848         -0.918110
     45     45  H        0  -4.900283         -1.252575         -1.132783
     46     46  H        0  -2.872887         -1.219093          0.361691
     47     47  H        0  -3.350592          1.798725          0.259625
     48     48  H        0  -0.049002          1.439167          3.571609
 ---------------------------------------------------------------------------------------------------
                         Z-Matrix orientation:                         
 ---------------------------------------------------------------------
 Center     Atomic      Atomic             Coordinates (Angstroms)
 Number     Number       Type             X           Y           Z
 ---------------------------------------------------------------------
      1          6           0        3.601069   -3.616344   -0.443680
      2          1           0        3.749566   -3.711868   -1.518549
      3          1           0        4.333738   -4.241303    0.068174
      4          6           0        1.879633   -1.447944    1.232988
      5          1           0        1.227089   -2.318191    1.094368
      6          8           0        1.490179   -0.686289    2.336184
      7          1           0        0.563395   -0.411157    2.204700
      8          6           0        3.326965   -1.888831    1.406286
      9          1           0        3.420322   -2.774738    2.042201
     10          8           0        4.086807   -0.817903    1.915801
     11          1           0        3.543319   -0.385844    2.587683
     12          6           0        1.961379   -0.662561   -0.086438
     13          1           0        2.266154    0.367004    0.127912
     14          6           0        3.759415   -2.166878   -0.028914
     15          1           0        4.792504   -1.839677   -0.157727
     16          8           0        2.927496   -1.339290   -0.855304
     17          7           0        0.732357   -0.597626   -0.834573
     18          6           0        0.188363   -1.773972   -1.345374
     19          1           0        0.791364   -2.657039   -1.191393
     20          6           0       -0.948197   -1.794918   -2.033095
     21          1           0       -1.292010   -2.735910   -2.440061
     22          6           0       -1.766967   -0.564549   -2.261644
     23          1           0       -2.076854   -0.499271   -3.310959
     24          1           0       -2.707487   -0.647721   -1.708169
     25          6           0       -1.005537    0.665163   -1.856380
     26          6           0        0.154043    0.584732   -1.178665
     27          1           0        0.669755    1.489989   -0.879743
     28          6           0       -1.504942    2.017062   -2.174279
     29          8           0       -0.844513    3.029314   -2.037173
     30          7           0       -2.787014    2.067868   -2.666488
     31          1           0       -3.183137    2.987166   -2.773627
     32          1           0       -3.416206    1.293783   -2.542488
     33          1           0        2.603456   -3.988581   -0.199172
     34          6           0        0.199177    2.199959    2.834555
     35          6           0       -1.618988    0.908679    1.252154
     36          6           0       -2.858708    0.854759    0.467997
     37          6           0       -4.793611   -0.422858   -0.433918
     38          6           0       -3.410129   -0.305875    0.119219
     39          8           0       -0.968345   -0.074255    1.554142
     40         16           0       -1.225417    2.537268    1.790888
     41          1           0        0.439004    3.134273    3.336715
     42          1           0        1.048523    1.873406    2.239704
     43          1           0       -5.482919   -0.610718    0.393861
     44          1           0       -5.113375    0.500848   -0.918110
     45          1           0       -4.900283   -1.252575   -1.132783
     46          1           0       -2.872887   -1.219093    0.361691
     47          1           0       -3.350592    1.798725    0.259625
     48          1           0       -0.049002    1.439167    3.571609
 ---------------------------------------------------------------------
                    Distance matrix (angstroms):
                    1          2          3          4          5
     1  C    0.000000
     2  H    1.089275   0.000000
     3  H    1.090583   1.771792   0.000000
     4  C    3.236745   4.024047   3.896444   0.000000
     5  H    3.112326   3.890059   3.795089   1.096521   0.000000
     6  O    4.557271   5.396103   5.086042   1.396007   2.067469
     7  H    5.149233   5.908381   5.783619   1.936914   2.304367
     8  C    2.545940   3.472278   2.887605   1.522887   2.165900
     9  H    2.630698   3.696695   2.623342   2.188363   2.432508
    10  O    3.692474   4.503723   3.897995   2.394745   3.332207
    11  H    4.430421   5.288300   4.673035   2.393973   3.365840
    12  C    3.397210   3.814030   4.296439   1.537659   2.162081
    13  H    4.239785   4.642041   5.051234   2.159775   3.037098
    14  C    1.515934   2.146183   2.154649   2.375467   2.774407
    15  H    2.158201   2.538633   2.455464   3.251517   3.809055
    16  O    2.410002   2.597079   3.354401   2.338971   2.766017
    17  N    4.182698   4.389747   5.202046   2.512786   2.631714
    18  C    3.981702   4.058029   5.026925   3.100748   2.706929
    19  H    3.061663   3.157634   4.079806   2.919566   2.351463
    20  C    5.151665   5.099846   6.188616   4.334087   3.845349
    21  H    5.357511   5.217199   6.340859   5.020903   4.360337
    22  C    6.436945   6.394524   7.494343   5.127429   4.827261
    23  H    7.083519   6.890623   8.155798   6.099281   5.799260
    24  H    7.085869   7.149719   8.102350   5.507489   5.111318
    25  C    6.445762   6.471749   7.502345   4.725846   4.753097
    26  C    5.483724   5.612849   6.505004   3.595206   3.839931
    27  H    5.904015   6.078867   6.868117   3.815611   4.325502
    28  C    7.797537   7.801312   8.847933   5.922084   6.078031
    29  O    8.152741   8.174232   9.171076   6.177440   6.534056
    30  N    8.835086   8.800568   9.898946   7.024560   7.035238
    31  H    9.749895   9.721864  10.808793   7.832931   7.909380
    32  H    8.817964   8.800755   9.874936   7.058130   6.916160
    33  H    1.092509   1.769433   1.768960   3.004969   2.521475
    34  C    7.493269   8.155028   8.138631   4.323904   4.949599
    35  C    7.113416   7.605762   7.959841   4.218340   4.305548
    36  C    7.908896   8.274644   8.823887   5.323488   5.210920
    37  C    8.981598   9.218453   9.906620   6.954248   6.494365
    38  C    7.773864   8.095944   8.686638   5.525069   5.148215
    39  O    6.116963   6.703159   6.905395   3.178229   3.172786
    40  S    8.133585   8.646070   8.934258   5.082765   5.484105
    41  H    8.358282   9.022364   8.958317   5.243834   5.947988
    42  H    6.622190   7.253646   7.273091   3.568695   4.348927
    43  H    9.604900   9.925383  10.471579   7.457362   6.959194
    44  H    9.649761   9.831542  10.616435   7.571471   7.224855
    45  H    8.850720   9.000935   9.779670   7.183474   6.606090
    46  H    6.950363   7.321620   7.820189   4.837146   4.307509
    47  H    8.839864   9.161920   9.775864   6.232459   6.212967
    48  H    7.416452   8.177530   7.984373   4.186191   4.677913
                    6          7          8          9         10
     6  O    0.000000
     7  H    0.975661   0.000000
     8  C    2.384240   3.233930   0.000000
     9  H    2.858933   3.711462   1.094502   0.000000
    10  O    2.633728   3.558558   1.408493   2.071082   0.000000
    11  H    2.090192   3.004541   1.923923   2.453466   0.966167
    12  C    2.468135   2.695714   2.365753   3.334803   2.924130
    13  H    2.566716   2.796064   2.801491   3.855794   2.813419
    14  C    3.596563   4.276229   1.524507   2.184947   2.389317
    15  H    4.295957   5.050455   2.143912   2.756248   2.416930
    16  O    3.560602   3.976686   2.361432   3.270921   3.048749
    17  N    3.261266   3.049672   3.663421   4.498978   4.343433
    18  C    4.053597   3.821118   4.175601   4.787772   5.171769
    19  H    4.100731   4.077917   3.710438   4.169101   4.888458
    20  C    5.124972   4.707293   5.487729   6.054093   6.472990
    21  H    5.895256   5.515506   6.070161   6.503711   7.182197
    22  C    5.635942   5.040074   6.415261   7.093376   7.195964
    23  H    6.681985   6.115650   7.306472   8.003313   8.087723
    24  H    5.829123   5.105406   6.903245   7.492631   7.702243
    25  C    5.062866   4.484683   5.994869   6.827890   6.508518
    26  C    3.969246   3.550567   4.782041   5.685824   5.197089
    27  H    3.968812   3.624839   4.868585   5.855875   4.981734
    28  C    6.051705   5.417538   7.171037   8.062151   7.485549
    29  O    6.195381   5.640260   7.310731   8.277507   7.398986
    30  N    7.134878   6.410872   8.344081   9.173527   8.750684
    31  H    7.838643   7.097101   9.144859   9.999870   9.450998
    32  H    7.196856   6.424939   8.437547   9.182067   8.979463
    33  H    4.309588   4.768481   2.740422   2.676647   4.089822
    34  C    3.200857   2.710590   5.342398   5.979232   5.006522
    35  C    3.658683   2.722518   5.684388   6.291771   5.998134
    36  C    4.977727   4.040974   6.831561   7.421427   7.289315
    37  C    6.872327   5.971596   8.454536   8.895572   9.194513
    38  C    5.391908   4.488787   7.039228   7.513202   7.726185
    39  O    2.651512   1.697927   4.665215   5.176022   5.122340
    40  S    4.250074   3.473370   6.361010   7.061406   6.284306
    41  H    4.086897   3.723843   6.107246   6.743918   5.562837
    42  H    2.599309   2.335766   4.476641   5.222038   4.071760
    43  H    7.238952   6.314814   8.959500   9.309549   9.692207
    44  H    7.456987   6.542890   9.074840   9.608168   9.716661
    45  H    7.293313   6.457442   8.633615   9.034931   9.500031
    46  H    4.818594   3.982145   6.322807   6.696912   7.142377
    47  H    5.824127   4.897570   7.713797   8.362979   8.056337
    48  H    2.900503   2.380582   5.211655   5.668535   4.994095
                   11         12         13         14         15
    11  H    0.000000
    12  C    3.119300   0.000000
    13  H    2.872003   1.094915   0.000000
    14  C    3.172595   2.345040   2.945332   0.000000
    15  H    3.348338   3.066913   3.366523   1.091296   0.000000
    16  O    3.625253   1.408012   2.077384   1.435239   2.053109
    17  N    4.433756   1.440284   2.051688   3.503529   4.299489
    18  C    5.352716   2.442077   3.327396   3.826206   4.755306
    19  H    5.197403   2.562773   3.613919   3.225049   4.212561
    20  C    6.596271   3.679312   4.435754   5.129981   6.039425
    21  H    7.360803   4.519166   5.374299   5.626217   6.559999
    22  C    7.193542   4.317603   4.779522   6.171988   7.005646
    23  H    8.148201   5.170254   5.606959   6.900346   7.676434
    24  H    7.589170   4.942524   5.397959   6.851902   7.750774
    25  C    6.445650   3.701099   3.838004   5.836511   6.540407
    26  C    5.158933   2.452583   2.493103   4.678888   5.332485
    27  H    4.878439   2.632698   2.196578   4.862364   5.348368
    28  C    7.344057   4.853333   4.716348   7.058428   7.654982
    29  O    7.232266   5.030739   4.631602   7.227010   7.682145
    30  N    8.584878   6.054679   6.019644   8.230772   8.888863
    31  H    9.239375   6.856204   6.706635   9.071750   9.682572
    32  H    8.807655   6.227189   6.346587   8.353668   9.104316
    33  H    4.650765   3.389304   4.380853   2.164216   3.067807
    34  C    4.234455   4.453266   3.867562   6.320128   6.809630
    35  C    5.487152   4.132754   4.080645   6.326721   7.116773
    36  C    6.856976   5.083591   5.159242   7.292240   8.135881
    37  C    8.867685   6.768167   7.125996   8.738414   9.694187
    38  C    7.379034   5.387264   5.716033   7.408619   8.349397
    39  O    4.639009   3.408943   3.562418   5.407111   6.263752
    40  S    5.649806   4.890698   4.434704   7.091489   7.692212
    41  H    4.752793   5.333999   4.614398   7.103154   7.476916
    42  H    3.383682   3.560249   2.865578   5.368376   5.792414
    43  H    9.291738   7.459956   7.815037   9.381957  10.363344
    44  H    9.381639   7.217849   7.454497   9.307730  10.206992
    45  H    9.267551   6.966015   7.454543   8.777519   9.759382
    46  H    6.842298   4.886786   5.383317   6.711058   7.707992
    47  H    7.597250   5.864702   5.797845   8.146254   8.928727
    48  H    4.147716   4.673350   4.285852   6.361711   6.935340
                   16         17         18         19         20
    16  O    0.000000
    17  N    2.317138   0.000000
    18  C    2.816375   1.393067   0.000000
    19  H    2.532287   2.090929   1.080337   0.000000
    20  C    4.076246   2.386258   1.328596   2.116078   0.000000
    21  H    4.718711   3.353791   2.077298   2.430193   1.081339
    22  C    4.961451   2.878237   2.474989   3.474048   1.495469
    23  H    5.637321   3.746175   3.258772   4.168357   2.141379
    24  H    5.740965   3.549395   3.128260   4.067724   2.125262
    25  C    4.526448   2.378866   2.763314   3.835112   2.467086
    26  C    3.390939   1.360447   2.364837   3.303849   2.758209
    27  H    3.619781   2.089042   3.331965   4.160499   3.839089
    28  C    5.714132   3.692819   4.233947   5.299652   3.855008
    29  O    5.891483   4.133698   4.961550   5.977127   4.825348
    30  N    6.895269   4.779827   5.035667   6.107818   4.324760
    31  H    7.729037   5.651704   6.006276   7.082173   5.330260
    32  H    7.072639   4.868776   4.882327   5.927740   3.986304
    33  H    2.748500   3.924707   3.471447   2.457882   4.559569
    34  C    5.795263   4.644703   5.767500   6.336353   6.400744
    35  C    5.492291   3.486002   4.148528   4.949249   4.307233
    36  C    6.328122   4.086791   4.413976   5.330040   4.114159
    37  C    7.786713   5.543229   5.241787   6.062778   4.384875
    38  C    6.494854   4.260872   4.153250   4.989812   3.593162
    39  O    4.752191   2.978635   3.554463   4.159965   3.978612
    40  S    6.267114   4.533595   5.515587   6.319987   5.785113
    41  H    6.616523   5.604710   6.787904   7.359838   7.419980
    42  H    4.840561   3.956910   5.186138   5.688892   5.974973
    43  H    8.533833   6.335525   6.044960   6.787274   5.277892
    44  H    8.248979   5.948631   5.784962   6.701707   4.884920
    45  H    7.833175   5.678426   5.119704   5.862661   4.089460
    46  H    5.927897   3.849033   3.548692   4.231607   3.125861
    47  H    7.106658   4.859037   5.278673   6.254205   4.893091
    48  H    6.014725   4.916654   5.878548   6.338084   6.533036
                   21         22         23         24         25
    21  H    0.000000
    22  C    2.229849   0.000000
    23  H    2.525272   1.096063   0.000000
    24  H    2.626742   1.094454   1.728777   0.000000
    25  C    3.462665   1.502067   2.149285   2.154592   0.000000
    26  C    3.835212   2.486759   3.270878   3.160327   1.345508
    27  H    4.913383   3.473959   4.172748   4.081894   2.107311
    28  C    4.765157   2.596345   2.819762   2.960480   1.475837
    29  O    5.796583   3.717144   3.948684   4.135154   2.376515
    30  N    5.036128   2.852019   2.740415   2.880820   2.407803
    31  H    6.036657   3.857764   3.697003   3.817571   3.312851
    32  H    4.556438   2.500452   2.366317   2.228858   2.584034
    33  H    4.665343   5.922701   6.615422   6.453258   6.117884
    34  C    7.376179   6.122048   7.087560   6.098714   5.080532
    35  C    5.198307   3.813014   4.797287   3.517204   3.177830
    36  C    4.878960   3.264548   4.089646   2.648776   2.978744
    37  C    4.651454   3.538535   3.957774   2.454830   4.190071
    38  C    4.115995   2.904376   3.685261   1.987438   3.260057
    39  O    4.810699   3.929174   5.007858   3.741143   3.489955
    40  S    6.761048   5.132013   5.997863   4.958234   4.105568
    41  H    8.415854   7.063230   7.982716   7.046612   5.928865
    42  H    6.973098   5.842323   6.797605   6.004115   4.738873
    43  H    5.487374   4.567509   5.033825   3.481799   5.170919
    44  H    5.234097   3.760133   3.993297   2.780594   4.216833
    45  H    4.114474   3.400791   3.644677   2.346332   4.401177
    46  H    3.556645   2.921194   3.826248   2.153635   3.457926
    47  H    5.664713   3.801280   4.433087   3.204824   3.355849
    48  H    7.424050   6.402587   7.432326   6.268868   5.565708
                   26         27         28         29         30
    26  C    0.000000
    27  H    1.083884   0.000000
    28  C    2.407291   2.585138   0.000000
    29  O    2.776712   2.449933   1.216396   0.000000
    30  N    3.614295   3.933911   1.374249   2.256928   0.000000
    31  H    4.410483   4.546769   2.028955   2.452204   1.006728
    32  H    3.887087   4.415687   2.076449   3.143408   1.005219
    33  H    5.279604   5.849539   7.539743   8.032284   8.474986
    34  C    4.326307   3.810710   5.293949   5.050827   6.260692
    35  C    3.026130   3.181391   3.603049   3.989558   4.250148
    36  C    3.443992   3.830140   3.188299   3.880921   3.361810
    37  C    5.103838   5.805696   4.449428   5.484824   3.900579
    38  C    3.896281   4.568206   3.779670   4.728202   3.712559
    39  O    3.026921   3.324760   4.308441   4.748159   5.070500
    40  S    3.812290   3.438130   4.008902   3.878305   4.746275
    41  H    5.193267   4.531604   5.949634   5.526039   6.898033
    42  H    3.761120   3.165663   5.101379   4.817820   6.230560
    43  H    5.973046   6.624986   5.415244   6.377662   4.879392
    44  H    5.274525   5.867237   4.110676   5.086121   3.305198
    45  H    5.378105   6.213776   4.827378   5.966721   4.224157
    46  H    3.845619   4.629319   4.333026   5.283731   4.470051
    47  H    3.978055   4.190068   3.062349   3.615254   2.992022
    48  H    4.830775   4.509294   5.955582   5.883863   6.841479
                   31         32         33         34         35
    31  H    0.000000
    32  H    1.724904   0.000000
    33  H    9.421970   8.344509   0.000000
    34  C    6.596321   6.542533   7.299458   0.000000
    35  C    4.793077   4.216350   6.627106   2.734432   0.000000
    36  C    3.893654   3.092987   7.330641   4.093998   1.467895
    37  C    4.438032   3.047978   8.214992   6.518437   3.833283
    38  C    4.389100   3.105419   7.058817   5.165205   2.442718
    39  O    5.745188   4.964467   5.581561   2.859128   1.216837
    40  S    4.986970   5.012381   7.823510   1.797912   1.759953
    41  H    7.104775   7.267398   8.241505   1.087485   3.678858
    42  H    6.654389   6.568038   6.536729   1.087140   3.003593
    43  H    5.316648   4.064551   8.783570   6.792872   4.239717
    44  H    3.653839   2.479462   8.956636   6.722550   4.133656
    45  H    4.859667   3.267062   8.041359   7.325589   4.596285
    46  H    5.255387   3.878659   6.162383   5.219440   2.625376
    47  H    3.262062   2.848001   8.315894   4.403648   2.185349
    48  H    7.244386   6.981503   7.121430   1.087955   2.850639
                   36         37         38         39         40
    36  C    0.000000
    37  C    2.487892   0.000000
    38  C    1.331459   1.494546   0.000000
    39  O    2.369863   4.325109   2.841648   0.000000
    40  S    2.692307   5.142384   3.956123   2.634803   0.000000
    41  H    4.929567   7.365536   6.082986   3.931011   2.348679
    42  H    4.409426   6.822874   5.396786   2.886371   2.411006
    43  H    3.006593   1.093460   2.113011   4.692060   5.476114
    44  H    2.670219   1.090836   2.151256   4.860458   5.157702
    45  H    3.342362   1.090056   2.164326   4.905929   6.034518
    46  H    2.076623   2.226244   1.086917   2.521879   4.343617
    47  H    1.084638   2.738382   2.110118   3.295289   2.721503
    48  H    4.227102   6.482492   5.124582   2.684364   2.400155
                   41         42         43         44         45
    41  H    0.000000
    42  H    1.778969   0.000000
    43  H    7.599639   7.227568   0.000000
    44  H    7.474448   7.058661   1.758809   0.000000
    45  H    8.229753   7.518891   1.755587   1.779321   0.000000
    46  H    6.226651   5.335536   2.680191   3.100947   2.518910
    47  H    5.060949   4.824780   3.220288   2.485749   3.694695
    48  H    1.779525   1.779634   6.620239   6.832708   7.274043
                   46         47         48
    46  H    0.000000
    47  H    3.057097   0.000000
    48  H    5.034307   4.690311   0.000000
 Stoichiometry    C16H24N2O5S
 Framework group  C1[X(C16H24N2O5S)]
 Deg. of freedom   138
 Full point group                 C1      NOp   1
 Largest Abelian subgroup         C1      NOp   1
 Largest concise Abelian subgroup C1      NOp   1
                         Standard orientation:                         
 ---------------------------------------------------------------------
 Center     Atomic      Atomic             Coordinates (Angstroms)
 Number     Number       Type             X           Y           Z
 ---------------------------------------------------------------------
      1          6           0       -4.675682   -1.981071   -0.528625
      2          1           0       -4.627598   -2.923405    0.015632
      3          1           0       -5.700729   -1.823082   -0.865804
      4          6           0       -2.536344    0.443015   -0.682101
      5          1           0       -2.342824   -0.193880   -1.553464
      6          8           0       -2.076376    1.745030   -0.887086
      7          1           0       -1.121883    1.703447   -1.084895
      8          6           0       -4.025529    0.475017   -0.365102
      9          1           0       -4.642889    0.543887   -1.266244
     10          8           0       -4.295802    1.540120    0.516011
     11          1           0       -3.765411    2.290254    0.216904
     12          6           0       -1.976408   -0.239556    0.576852
     13          1           0       -1.811675    0.516880    1.351129
     14          6           0       -4.232831   -0.843946    0.370755
     15          1           0       -4.949645   -0.690197    1.179128
     16          8           0       -2.964569   -1.166427    0.960186
     17          7           0       -0.730600   -0.937510    0.389127
     18          6           0       -0.695049   -2.041862   -0.459270
     19          1           0       -1.653007   -2.333725   -0.864560
     20          6           0        0.419041   -2.727144   -0.692428
     21          1           0        0.368162   -3.601468   -1.326671
     22          6           0        1.738134   -2.330470   -0.110132
     23          1           0        2.251080   -3.203984    0.308452
     24          1           0        2.399792   -1.988865   -0.912221
     25          6           0        1.560678   -1.267987    0.936695
     26          6           0        0.382241   -0.643385    1.114313
     27          1           0        0.290238    0.135479    1.862451
     28          6           0        2.677678   -0.854532    1.808167
     29          8           0        2.542779   -0.142315    2.784982
     30          7           0        3.910424   -1.349325    1.455922
     31          1           0        4.696518   -0.981260    1.965908
     32          1           0        4.074031   -1.712015    0.532800
     33          1           0       -4.033910   -2.058631   -1.409358
     34          6           0        0.261501    3.598499    0.272427
     35          6           0        1.565700    1.424232   -0.751658
     36          6           0        2.773629    0.631536   -1.010991
     37          6           0        4.045568   -0.973098   -2.424117
     38          6           0        2.789602   -0.328809   -1.933089
     39          8           0        0.490410    1.207435   -1.278388
     40         16           0        1.861903    2.781203    0.329234
     41          1           0        0.379720    4.540527    0.802742
     42          1           0       -0.500754    2.995338    0.759290
     43          1           0        4.385778   -0.435648   -3.313532
     44          1           0        4.844935   -0.913274   -1.684282
     45          1           0        3.900500   -2.013365   -2.715702
     46          1           0        1.856539   -0.567932   -2.436678
     47          1           0        3.674586    0.919597   -0.480200
     48          1           0       -0.023890    3.790513   -0.759720
 ---------------------------------------------------------------------
 Rotational constants (GHZ):           0.3327353           0.1642768           0.1399587
 Leave Link  202 at Sat Aug 13 20:09:18 2022, MaxMem=  2684354560 cpu:               0.4 elap:               0.1
 (Enter /storage/apps/GAUSSIAN/G16_RevA03/g16/l301.exe)
 Standard basis: def2TZVP (5D, 7F)
 Ernie: Thresh=  0.10000D-02 Tol=  0.10000D-05 Strict=F.
 There are  1014 symmetry adapted cartesian basis functions of A   symmetry.
 There are   894 symmetry adapted basis functions of A   symmetry.
   894 basis functions,  1434 primitive gaussians,  1014 cartesian basis functions
    95 alpha electrons       95 beta electrons
       nuclear repulsion energy      2495.6698985502 Hartrees.
 IExCor= 4336 DFT=T Ex+Corr=M062X ExCW=0 ScaHFX=  0.540000
 ScaDFX=  1.000000  1.000000  1.000000  1.000000 ScalE2=  1.000000  1.000000
 IRadAn=      5 IRanWt=     -1 IRanGd=            0 ICorTp=0 IEmpDi=131
 NAtoms=   48 NActive=   48 NUniq=   48 SFac= 1.00D+00 NAtFMM=   60 NAOKFM=F Big=F
 Integral buffers will be    131072 words long.
 Raffenetti 2 integral format.
 Two-electron integral symmetry is turned on.
 R6Disp:  Grimme-D3 Dispersion energy=       -0.0042810759 Hartrees.
 Nuclear repulsion after empirical dispersion term =     2495.6656174743 Hartrees.
 Leave Link  301 at Sat Aug 13 20:09:19 2022, MaxMem=  2684354560 cpu:               1.8 elap:               0.1
 (Enter /storage/apps/GAUSSIAN/G16_RevA03/g16/l302.exe)
 NPDir=0 NMtPBC=     1 NCelOv=     1 NCel=       1 NClECP=     1 NCelD=      1
         NCelK=      1 NCelE2=     1 NClLst=     1 CellRange=     0.0.
 One-electron integrals computed using PRISM.
 One-electron integral symmetry used in STVInt
   1 Symmetry operations used in ECPInt.
 ECPInt:  NShTT=   65703 NPrTT=  200010 LenC2=   56946 LenP2D=  121424.
 LDataN:  DoStor=T MaxTD1= 6 Len=  172
 NBasis=   894 RedAO= T EigKep=  2.64D-05  NBF=   894
 NBsUse=   894 1.00D-06 EigRej= -1.00D+00 NBFU=   894
 Precomputing XC quadrature grid using
 IXCGrd= 4 IRadAn=           5 IRanWt=          -1 IRanGd=           0 AccXCQ= 0.00D+00.
 Generated NRdTot=       0 NPtTot=           0 NUsed=           0 NTot=          32
 NSgBfM=   998   998   998   998   998 MxSgAt=    48 MxSgA2=    48.
 Leave Link  302 at Sat Aug 13 20:09:20 2022, MaxMem=  2684354560 cpu:              19.6 elap:               1.3
 (Enter /storage/apps/GAUSSIAN/G16_RevA03/g16/l303.exe)
 DipDrv:  MaxL=1.
 Leave Link  303 at Sat Aug 13 20:09:20 2022, MaxMem=  2684354560 cpu:               2.1 elap:               0.2
 (Enter /storage/apps/GAUSSIAN/G16_RevA03/g16/l401.exe)
 ExpMin= 9.52D-02 ExpMax= 6.07D+04 ExpMxC= 2.07D+03 IAcc=3 IRadAn=         5 AccDes= 0.00D+00
 Harris functional with IExCor= 1009 and IRadAn=       5 diagonalized for initial guess.
 HarFok:  IExCor= 1009 AccDes= 0.00D+00 IRadAn=         5 IDoV= 1 UseB2=F ITyADJ=14
 ICtDFT=  3500011 ScaDFX=  1.000000  1.000000  1.000000  1.000000
 FoFCou: FMM=F IPFlag=           0 FMFlag=      100000 FMFlg1=           0
         NFxFlg=           0 DoJE=T BraDBF=F KetDBF=T FulRan=T
         wScrn=  0.000000 ICntrl=       500 IOpCl=  0 I1Cent=   200000004 NGrid=           0
         NMat0=    1 NMatS0=      1 NMatT0=    0 NMatD0=    1 NMtDS0=    0 NMtDT0=    0
 Petite list used in FoFCou.
 Harris En= -1507.24540535464    
 JPrj=0 DoOrth=F DoCkMO=F.
 Leave Link  401 at Sat Aug 13 20:09:24 2022, MaxMem=  2684354560 cpu:              61.1 elap:               3.9
 (Enter /storage/apps/GAUSSIAN/G16_RevA03/g16/l502.exe)
 Integral symmetry usage will be decided dynamically.
 Closed shell SCF:
 Using DIIS extrapolation, IDIIS=  1040.
 NGot=  2684354560 LenX=  2682272944 LenY=  2681243734
 Requested convergence on RMS density matrix=1.00D-08 within 128 cycles.
 Requested convergence on MAX density matrix=1.00D-06.
 Requested convergence on             energy=1.00D-06.
 No special actions if energy rises.
 Fock matrices will be formed incrementally for  20 cycles.
 Integral accuracy reduced to 1.0D-05 until final iterations.

 Cycle   1  Pass 0  IDiag  1:
 FoFJK:  IHMeth= 1 ICntrl=       0 DoSepK=F KAlg= 0 I1Cent=           0 FoldK=F
 IRaf= 800000000 NMat=       1 IRICut=       1 DoRegI=T DoRafI=F ISym2E= 0 IDoP0=0 IntGTp=1.
 FoFCou: FMM=F IPFlag=           0 FMFlag=      100000 FMFlg1=           0
         NFxFlg=           0 DoJE=F BraDBF=F KetDBF=F FulRan=T
         wScrn=  0.000000 ICntrl=         0 IOpCl=  0 I1Cent=           0 NGrid=           0
         NMat0=    1 NMatS0=      1 NMatT0=    0 NMatD0=    1 NMtDS0=    0 NMtDT0=    0
 Symmetry not used in FoFCou.
 E= -1507.18191378817    
 DIIS: error= 1.50D-02 at cycle   1 NSaved=   1.
 NSaved= 1 IEnMin= 1 EnMin= -1507.18191378817     IErMin= 1 ErrMin= 1.50D-02
 ErrMax= 1.50D-02  0.00D+00 EMaxC= 1.00D-01 BMatC= 9.99D-01 BMatP= 9.99D-01
 IDIUse=3 WtCom= 8.50D-01 WtEn= 1.50D-01
 Coeff-Com:  0.100D+01
 Coeff-En:   0.100D+01
 Coeff:      0.100D+01
 Gap=     0.319 Goal=   None    Shift=    0.000
 GapD=    0.319 DampG=1.000 DampE=0.500 DampFc=0.5000 IDamp=-1.
 Damping current iteration by 5.00D-01
 RMSDP=4.54D-03 MaxDP=1.82D+00              OVMax= 2.09D-01

 Cycle   2  Pass 0  IDiag  1:
 RMSU=  2.27D-03    CP:  1.02D+00
 E= -1507.52535604426     Delta-E=       -0.343442256091 Rises=F Damp=T
 DIIS: error= 3.65D-03 at cycle   2 NSaved=   2.
 NSaved= 2 IEnMin= 2 EnMin= -1507.52535604426     IErMin= 2 ErrMin= 3.65D-03
 ErrMax= 3.65D-03  0.00D+00 EMaxC= 1.00D-01 BMatC= 8.63D-02 BMatP= 9.99D-01
 IDIUse=3 WtCom= 9.64D-01 WtEn= 3.65D-02
 Coeff-Com: -0.184D-01 0.102D+01
 Coeff-En:   0.142D-01 0.986D+00
 Coeff:     -0.172D-01 0.102D+01
 Gap=     0.325 Goal=   None    Shift=    0.000
 RMSDP=1.42D-03 MaxDP=5.47D-01 DE=-3.43D-01 OVMax= 1.68D-01

 Cycle   3  Pass 0  IDiag  1:
 RMSU=  1.12D-03    CP:  1.00D+00  6.16D-01
 E= -1507.88266915090     Delta-E=       -0.357313106644 Rises=F Damp=F
 DIIS: error= 3.67D-03 at cycle   3 NSaved=   3.
 NSaved= 3 IEnMin= 3 EnMin= -1507.88266915090     IErMin= 2 ErrMin= 3.65D-03
 ErrMax= 3.67D-03  0.00D+00 EMaxC= 1.00D-01 BMatC= 5.03D-02 BMatP= 8.63D-02
 IDIUse=3 WtCom= 9.63D-01 WtEn= 3.67D-02
 Coeff-Com: -0.844D-01 0.455D+00 0.629D+00
 Coeff-En:   0.000D+00 0.000D+00 0.100D+01
 Coeff:     -0.813D-01 0.438D+00 0.643D+00
 Gap=     0.211 Goal=   None    Shift=    0.000
 RMSDP=3.78D-04 MaxDP=7.23D-02 DE=-3.57D-01 OVMax= 6.55D-02

 Cycle   4  Pass 0  IDiag  1:
 RMSU=  3.21D-04    CP:  1.00D+00  6.95D-01  9.20D-01
 E= -1507.91528408502     Delta-E=       -0.032614934118 Rises=F Damp=F
 DIIS: error= 1.81D-03 at cycle   4 NSaved=   4.
 NSaved= 4 IEnMin= 4 EnMin= -1507.91528408502     IErMin= 4 ErrMin= 1.81D-03
 ErrMax= 1.81D-03  0.00D+00 EMaxC= 1.00D-01 BMatC= 9.92D-03 BMatP= 5.03D-02
 IDIUse=3 WtCom= 9.82D-01 WtEn= 1.81D-02
 Coeff-Com: -0.375D-01 0.100D+00 0.346D+00 0.591D+00
 Coeff-En:   0.000D+00 0.000D+00 0.132D+00 0.868D+00
 Coeff:     -0.368D-01 0.987D-01 0.343D+00 0.596D+00
 Gap=     0.210 Goal=   None    Shift=    0.000
 RMSDP=1.30D-04 MaxDP=1.92D-02 DE=-3.26D-02 OVMax= 1.59D-02

 Cycle   5  Pass 0  IDiag  1:
 RMSU=  8.22D-05    CP:  1.00D+00  6.80D-01  9.47D-01  7.22D-01
 E= -1507.92263939644     Delta-E=       -0.007355311418 Rises=F Damp=F
 DIIS: error= 2.65D-04 at cycle   5 NSaved=   5.
 NSaved= 5 IEnMin= 5 EnMin= -1507.92263939644     IErMin= 5 ErrMin= 2.65D-04
 ErrMax= 2.65D-04  0.00D+00 EMaxC= 1.00D-01 BMatC= 4.03D-04 BMatP= 9.92D-03
 IDIUse=3 WtCom= 9.97D-01 WtEn= 2.65D-03
 Coeff-Com: -0.108D-01 0.189D-01 0.120D+00 0.265D+00 0.606D+00
 Coeff-En:   0.000D+00 0.000D+00 0.000D+00 0.000D+00 0.100D+01
 Coeff:     -0.108D-01 0.189D-01 0.120D+00 0.265D+00 0.607D+00
 Gap=     0.209 Goal=   None    Shift=    0.000
 RMSDP=4.69D-05 MaxDP=1.49D-02 DE=-7.36D-03 OVMax= 4.20D-03

 Cycle   6  Pass 0  IDiag  1:
 RMSU=  3.20D-05    CP:  1.00D+00  6.66D-01  9.58D-01  7.34D-01  9.10D-01
 E= -1507.92296256080     Delta-E=       -0.000323164358 Rises=F Damp=F
 DIIS: error= 1.43D-04 at cycle   6 NSaved=   6.
 NSaved= 6 IEnMin= 6 EnMin= -1507.92296256080     IErMin= 6 ErrMin= 1.43D-04
 ErrMax= 1.43D-04  0.00D+00 EMaxC= 1.00D-01 BMatC= 5.24D-05 BMatP= 4.03D-04
 IDIUse=3 WtCom= 9.99D-01 WtEn= 1.43D-03
 Coeff-Com:  0.846D-04-0.401D-02 0.130D-01 0.437D-01 0.273D+00 0.674D+00
 Coeff-En:   0.000D+00 0.000D+00 0.000D+00 0.000D+00 0.000D+00 0.100D+01
 Coeff:      0.845D-04-0.400D-02 0.130D-01 0.436D-01 0.273D+00 0.674D+00
 Gap=     0.210 Goal=   None    Shift=    0.000
 RMSDP=2.11D-05 MaxDP=4.02D-03 DE=-3.23D-04 OVMax= 3.37D-03

 Cycle   7  Pass 0  IDiag  1:
 RMSU=  1.74D-05    CP:  1.00D+00  6.63D-01  9.63D-01  7.40D-01  9.87D-01
                    CP:  1.00D+00
 E= -1507.92302395294     Delta-E=       -0.000061392147 Rises=F Damp=F
 DIIS: error= 6.61D-05 at cycle   7 NSaved=   7.
 NSaved= 7 IEnMin= 7 EnMin= -1507.92302395294     IErMin= 7 ErrMin= 6.61D-05
 ErrMax= 6.61D-05  0.00D+00 EMaxC= 1.00D-01 BMatC= 9.16D-06 BMatP= 5.24D-05
 IDIUse=1 WtCom= 1.00D+00 WtEn= 0.00D+00
 Coeff-Com:  0.184D-02-0.502D-02-0.121D-01-0.247D-01 0.131D-01 0.293D+00
 Coeff-Com:  0.734D+00
 Coeff:      0.184D-02-0.502D-02-0.121D-01-0.247D-01 0.131D-01 0.293D+00
 Coeff:      0.734D+00
 Gap=     0.210 Goal=   None    Shift=    0.000
 RMSDP=1.94D-05 MaxDP=6.04D-03 DE=-6.14D-05 OVMax= 1.79D-03

 Cycle   8  Pass 0  IDiag  1:
 RMSU=  1.23D-05    CP:  1.00D+00  6.58D-01  9.64D-01  7.46D-01  1.06D+00
                    CP:  1.21D+00  1.25D+00
 E= -1507.92303056361     Delta-E=       -0.000006610666 Rises=F Damp=F
 DIIS: error= 2.74D-05 at cycle   8 NSaved=   8.
 NSaved= 8 IEnMin= 8 EnMin= -1507.92303056361     IErMin= 8 ErrMin= 2.74D-05
 ErrMax= 2.74D-05  0.00D+00 EMaxC= 1.00D-01 BMatC= 2.14D-06 BMatP= 9.16D-06
 IDIUse=1 WtCom= 1.00D+00 WtEn= 0.00D+00
 Coeff-Com:  0.980D-03-0.184D-02-0.818D-02-0.226D-01-0.466D-01 0.156D-01
 Coeff-Com:  0.364D+00 0.698D+00
 Coeff:      0.980D-03-0.184D-02-0.818D-02-0.226D-01-0.466D-01 0.156D-01
 Coeff:      0.364D+00 0.698D+00
 Gap=     0.211 Goal=   None    Shift=    0.000
 RMSDP=1.99D-05 MaxDP=3.17D-03 DE=-6.61D-06 OVMax= 6.67D-04

 Cycle   9  Pass 0  IDiag  1:
 RMSU=  9.52D-06    CP:  1.00D+00  6.55D-01  9.64D-01  7.45D-01  1.12D+00
                    CP:  1.35D+00  1.74D+00  2.03D+00
 E= -1507.92302094499     Delta-E=        0.000009618625 Rises=F Damp=F
 DIIS: error= 2.47D-05 at cycle   9 NSaved=   9.
 NSaved= 9 IEnMin= 8 EnMin= -1507.92303056361     IErMin= 9 ErrMin= 2.47D-05
 ErrMax= 2.47D-05  0.00D+00 EMaxC= 1.00D-01 BMatC= 6.46D-07 BMatP= 2.14D-06
 IDIUse=1 WtCom= 1.00D+00 WtEn= 0.00D+00
 Coeff-Com:  0.462D-03-0.801D-03-0.377D-02-0.118D-01-0.267D-01-0.783D-02
 Coeff-Com:  0.168D+00 0.406D+00 0.477D+00
 Coeff:      0.462D-03-0.801D-03-0.377D-02-0.118D-01-0.267D-01-0.783D-02
 Coeff:      0.168D+00 0.406D+00 0.477D+00
 Gap=     0.211 Goal=   None    Shift=    0.000
 RMSDP=1.91D-05 MaxDP=1.76D-03 DE= 9.62D-06 OVMax= 1.34D-04

 Cycle  10  Pass 0  IDiag  1:
 RMSU=  4.39D-06    CP:  1.00D+00  6.54D-01  9.64D-01  7.46D-01  1.15D+00
                    CP:  1.46D+00  2.15D+00  3.00D+00  2.09D+00
 E= -1507.92301212382     Delta-E=        0.000008821166 Rises=F Damp=F
 DIIS: error= 3.57D-05 at cycle  10 NSaved=  10.
 NSaved=10 IEnMin= 8 EnMin= -1507.92303056361     IErMin= 9 ErrMin= 2.47D-05
 ErrMax= 3.57D-05  0.00D+00 EMaxC= 1.00D-01 BMatC= 1.11D-06 BMatP= 6.46D-07
 IDIUse=1 WtCom= 1.00D+00 WtEn= 0.00D+00
 Coeff-Com:  0.415D-03-0.576D-03-0.352D-02-0.125D-01-0.331D-01-0.326D-01
 Coeff-Com:  0.148D+00 0.504D+00 0.122D+01-0.787D+00
 Coeff:      0.415D-03-0.576D-03-0.352D-02-0.125D-01-0.331D-01-0.326D-01
 Coeff:      0.148D+00 0.504D+00 0.122D+01-0.787D+00
 Gap=     0.211 Goal=   None    Shift=    0.000
 RMSDP=3.04D-05 MaxDP=3.15D-03 DE= 8.82D-06 OVMax= 6.65D-05

 Cycle  11  Pass 0  IDiag  1:
 RMSU=  5.21D-06    CP:  1.00D+00  6.55D-01  9.65D-01  7.44D-01  1.10D+00
                    CP:  1.31D+00  1.53D+00  1.50D+00  3.04D-01 -1.07D+00
 E= -1507.92301644956     Delta-E=       -0.000004325741 Rises=F Damp=F
 DIIS: error= 1.99D-05 at cycle  11 NSaved=  11.
 NSaved=11 IEnMin= 8 EnMin= -1507.92303056361     IErMin=11 ErrMin= 1.99D-05
 ErrMax= 1.99D-05  0.00D+00 EMaxC= 1.00D-01 BMatC= 2.97D-07 BMatP= 6.46D-07
 IDIUse=1 WtCom= 1.00D+00 WtEn= 0.00D+00
 Coeff-Com: -0.400D-04 0.230D-03 0.482D-03-0.150D-02-0.879D-02-0.326D-01
 Coeff-Com: -0.206D-01 0.129D+00 0.945D+00-0.928D+00 0.916D+00
 Coeff:     -0.400D-04 0.230D-03 0.482D-03-0.150D-02-0.879D-02-0.326D-01
 Coeff:     -0.206D-01 0.129D+00 0.945D+00-0.928D+00 0.916D+00
 Gap=     0.211 Goal=   None    Shift=    0.000
 RMSDP=1.57D-05 MaxDP=2.46D-03 DE=-4.33D-06 OVMax= 1.60D-04

 Cycle  12  Pass 0  IDiag  1:
 RMSU=  7.22D-06    CP:  1.00D+00  6.53D-01  9.64D-01  7.42D-01  1.10D+00
                    CP:  1.30D+00  1.31D+00  1.21D+00 -2.65D-01 -2.86D+00
                    CP:  2.35D+00
 E= -1507.92300729069     Delta-E=        0.000009158868 Rises=F Damp=F
 DIIS: error= 1.97D-05 at cycle  12 NSaved=  12.
 NSaved=12 IEnMin= 8 EnMin= -1507.92303056361     IErMin=12 ErrMin= 1.97D-05
 ErrMax= 1.97D-05  0.00D+00 EMaxC= 1.00D-01 BMatC= 1.43D-07 BMatP= 2.97D-07
 IDIUse=1 WtCom= 1.00D+00 WtEn= 0.00D+00
 Coeff-Com: -0.375D-04 0.187D-03 0.474D-03-0.917D-03-0.609D-02-0.247D-01
 Coeff-Com: -0.194D-01 0.878D-01 0.702D+00-0.679D+00 0.702D+00 0.237D+00
 Coeff:     -0.375D-04 0.187D-03 0.474D-03-0.917D-03-0.609D-02-0.247D-01
 Coeff:     -0.194D-01 0.878D-01 0.702D+00-0.679D+00 0.702D+00 0.237D+00
 Gap=     0.211 Goal=   None    Shift=    0.000
 RMSDP=5.92D-06 MaxDP=9.25D-04 DE= 9.16D-06 OVMax= 1.50D-05

 Initial convergence to 1.0D-05 achieved.  Increase integral accuracy.
 Cycle  13  Pass 1  IDiag  1:
 E= -1507.92301578771     Delta-E=       -0.000008497018 Rises=F Damp=F
 DIIS: error= 3.29D-04 at cycle   1 NSaved=   1.
 NSaved= 1 IEnMin= 1 EnMin= -1507.92301578771     IErMin= 1 ErrMin= 3.29D-04
 ErrMax= 3.29D-04  0.00D+00 EMaxC= 1.00D-01 BMatC= 8.45D-05 BMatP= 8.45D-05
 IDIUse=3 WtCom= 9.97D-01 WtEn= 3.29D-03
 Coeff-Com:  0.100D+01
 Coeff-En:   0.100D+01
 Coeff:      0.100D+01
 Gap=     0.211 Goal=   None    Shift=    0.000
 RMSDP=5.92D-06 MaxDP=9.25D-04 DE=-8.50D-06 OVMax= 9.76D-04

 Cycle  14  Pass 1  IDiag  1:
 RMSU=  4.16D-04    CP:  9.95D-01
 E= -1507.92306845611     Delta-E=       -0.000052668400 Rises=F Damp=F
 DIIS: error= 9.23D-06 at cycle   2 NSaved=   2.
 NSaved= 2 IEnMin= 2 EnMin= -1507.92306845611     IErMin= 2 ErrMin= 9.23D-06
 ErrMax= 9.23D-06  0.00D+00 EMaxC= 1.00D-01 BMatC= 5.81D-08 BMatP= 8.45D-05
 IDIUse=1 WtCom= 1.00D+00 WtEn= 0.00D+00
 Coeff-Com: -0.163D-01 0.102D+01
 Coeff:     -0.163D-01 0.102D+01
 Gap=     0.211 Goal=   None    Shift=    0.000
 RMSDP=1.51D-05 MaxDP=1.23D-03 DE=-5.27D-05 OVMax= 6.49D-05

 Cycle  15  Pass 1  IDiag  1:
 RMSU=  5.05D-06    CP:  9.95D-01  1.03D+00
 E= -1507.92306851388     Delta-E=       -0.000000057767 Rises=F Damp=F
 DIIS: error= 2.81D-06 at cycle   3 NSaved=   3.
 NSaved= 3 IEnMin= 3 EnMin= -1507.92306851388     IErMin= 3 ErrMin= 2.81D-06
 ErrMax= 2.81D-06  0.00D+00 EMaxC= 1.00D-01 BMatC= 2.46D-08 BMatP= 5.81D-08
 IDIUse=1 WtCom= 1.00D+00 WtEn= 0.00D+00
 Coeff-Com: -0.744D-02 0.443D+00 0.564D+00
 Coeff:     -0.744D-02 0.443D+00 0.564D+00
 Gap=     0.211 Goal=   None    Shift=    0.000
 RMSDP=4.49D-07 MaxDP=6.84D-05 DE=-5.78D-08 OVMax= 4.24D-05

 Cycle  16  Pass 1  IDiag  1:
 RMSU=  3.31D-07    CP:  9.95D-01  1.03D+00  1.03D+00
 E= -1507.92306853262     Delta-E=       -0.000000018748 Rises=F Damp=F
 DIIS: error= 1.14D-06 at cycle   4 NSaved=   4.
 NSaved= 4 IEnMin= 4 EnMin= -1507.92306853262     IErMin= 4 ErrMin= 1.14D-06
 ErrMax= 1.14D-06  0.00D+00 EMaxC= 1.00D-01 BMatC= 3.41D-09 BMatP= 2.46D-08
 IDIUse=1 WtCom= 1.00D+00 WtEn= 0.00D+00
 Coeff-Com: -0.276D-04-0.788D-02 0.260D+00 0.748D+00
 Coeff:     -0.276D-04-0.788D-02 0.260D+00 0.748D+00
 Gap=     0.211 Goal=   None    Shift=    0.000
 RMSDP=2.92D-07 MaxDP=3.15D-05 DE=-1.87D-08 OVMax= 1.49D-05

 Cycle  17  Pass 1  IDiag  1:
 RMSU=  1.44D-07    CP:  9.95D-01  1.04D+00  1.06D+00  8.32D-01
 E= -1507.92306853550     Delta-E=       -0.000000002874 Rises=F Damp=F
 DIIS: error= 2.91D-07 at cycle   5 NSaved=   5.
 NSaved= 5 IEnMin= 5 EnMin= -1507.92306853550     IErMin= 5 ErrMin= 2.91D-07
 ErrMax= 2.91D-07  0.00D+00 EMaxC= 1.00D-01 BMatC= 3.45D-10 BMatP= 3.41D-09
 IDIUse=1 WtCom= 1.00D+00 WtEn= 0.00D+00
 Coeff-Com:  0.360D-03-0.265D-01 0.106D+00 0.387D+00 0.533D+00
 Coeff:      0.360D-03-0.265D-01 0.106D+00 0.387D+00 0.533D+00
 Gap=     0.211 Goal=   None    Shift=    0.000
 RMSDP=3.89D-08 MaxDP=4.35D-06 DE=-2.87D-09 OVMax= 3.54D-06

 Cycle  18  Pass 1  IDiag  1:
 RMSU=  2.91D-08    CP:  9.95D-01  1.04D+00  1.07D+00  8.61D-01  1.02D+00
 E= -1507.92306853579     Delta-E=       -0.000000000289 Rises=F Damp=F
 DIIS: error= 6.48D-08 at cycle   6 NSaved=   6.
 NSaved= 6 IEnMin= 6 EnMin= -1507.92306853579     IErMin= 6 ErrMin= 6.48D-08
 ErrMax= 6.48D-08  0.00D+00 EMaxC= 1.00D-01 BMatC= 1.80D-11 BMatP= 3.45D-10
 IDIUse=1 WtCom= 1.00D+00 WtEn= 0.00D+00
 Coeff-Com:  0.132D-03-0.855D-02 0.753D-02 0.511D-01 0.179D+00 0.771D+00
 Coeff:      0.132D-03-0.855D-02 0.753D-02 0.511D-01 0.179D+00 0.771D+00
 Gap=     0.211 Goal=   None    Shift=    0.000
 RMSDP=1.86D-08 MaxDP=5.23D-06 DE=-2.89D-10 OVMax= 2.64D-06

 Cycle  19  Pass 1  IDiag  1:
 RMSU=  1.27D-08    CP:  9.95D-01  1.04D+00  1.07D+00  8.57D-01  1.11D+00
                    CP:  1.10D+00
 E= -1507.92306853578     Delta-E=        0.000000000011 Rises=F Damp=F
 DIIS: error= 4.46D-08 at cycle   7 NSaved=   7.
 NSaved= 7 IEnMin= 6 EnMin= -1507.92306853579     IErMin= 7 ErrMin= 4.46D-08
 ErrMax= 4.46D-08  0.00D+00 EMaxC= 1.00D-01 BMatC= 5.96D-12 BMatP= 1.80D-11
 IDIUse=1 WtCom= 1.00D+00 WtEn= 0.00D+00
 Coeff-Com: -0.136D-04 0.156D-02-0.192D-01-0.580D-01-0.340D-01 0.386D+00
 Coeff-Com:  0.723D+00
 Coeff:     -0.136D-04 0.156D-02-0.192D-01-0.580D-01-0.340D-01 0.386D+00
 Coeff:      0.723D+00
 Gap=     0.211 Goal=   None    Shift=    0.000
 RMSDP=8.71D-09 MaxDP=2.24D-06 DE= 1.14D-11 OVMax= 1.24D-06

 Cycle  20  Pass 1  IDiag  1:
 RMSU=  5.47D-09    CP:  9.95D-01  1.04D+00  1.07D+00  8.54D-01  1.15D+00
                    CP:  1.18D+00  1.17D+00
 E= -1507.92306853580     Delta-E=       -0.000000000025 Rises=F Damp=F
 DIIS: error= 1.39D-08 at cycle   8 NSaved=   8.
 NSaved= 8 IEnMin= 8 EnMin= -1507.92306853580     IErMin= 8 ErrMin= 1.39D-08
 ErrMax= 1.39D-08  0.00D+00 EMaxC= 1.00D-01 BMatC= 4.66D-13 BMatP= 5.96D-12
 IDIUse=1 WtCom= 1.00D+00 WtEn= 0.00D+00
 Coeff-Com: -0.196D-04 0.155D-02-0.842D-02-0.286D-01-0.353D-01 0.759D-01
 Coeff-Com:  0.276D+00 0.719D+00
 Coeff:     -0.196D-04 0.155D-02-0.842D-02-0.286D-01-0.353D-01 0.759D-01
 Coeff:      0.276D+00 0.719D+00
 Gap=     0.211 Goal=   None    Shift=    0.000
 RMSDP=3.18D-09 MaxDP=1.04D-06 DE=-2.55D-11 OVMax= 5.58D-07

 Cycle  21  Pass 1  IDiag  1:
 RMSU=  1.83D-09    CP:  9.95D-01  1.04D+00  1.07D+00  8.52D-01  1.15D+00
                    CP:  1.20D+00  1.31D+00  1.18D+00
 E= -1507.92306853578     Delta-E=        0.000000000019 Rises=F Damp=F
 DIIS: error= 5.82D-09 at cycle   9 NSaved=   9.
 NSaved= 9 IEnMin= 8 EnMin= -1507.92306853580     IErMin= 9 ErrMin= 5.82D-09
 ErrMax= 5.82D-09  0.00D+00 EMaxC= 1.00D-01 BMatC= 1.11D-13 BMatP= 4.66D-13
 IDIUse=1 WtCom= 1.00D+00 WtEn= 0.00D+00
 Coeff-Com: -0.713D-05 0.477D-03-0.715D-03-0.399D-02-0.113D-01-0.234D-01
 Coeff-Com:  0.593D-02 0.337D+00 0.696D+00
 Coeff:     -0.713D-05 0.477D-03-0.715D-03-0.399D-02-0.113D-01-0.234D-01
 Coeff:      0.593D-02 0.337D+00 0.696D+00
 Gap=     0.211 Goal=   None    Shift=    0.000
 RMSDP=1.17D-09 MaxDP=3.43D-07 DE= 1.86D-11 OVMax= 1.86D-07

 SCF Done:  E(RM062X) =  -1507.92306854     A.U. after   21 cycles
            NFock= 21  Conv=0.12D-08     -V/T= 2.0036
 KE= 1.502477041004D+03 PE=-8.529655266177D+03 EE= 3.023589539164D+03
 Leave Link  502 at Sat Aug 13 20:18:49 2022, MaxMem=  2684354560 cpu:            9020.2 elap:             564.7
 (Enter /storage/apps/GAUSSIAN/G16_RevA03/g16/l601.exe)
 Copying SCF densities to generalized density rwf, IOpCl= 0 IROHF=0.

 **********************************************************************

            Population analysis using the SCF density.

 **********************************************************************

 Orbital symmetries:
       Occupied  (A) (A) (A) (A) (A) (A) (A) (A) (A) (A) (A) (A)
                 (A) (A) (A) (A) (A) (A) (A) (A) (A) (A) (A) (A)
                 (A) (A) (A) (A) (A) (A) (A) (A) (A) (A) (A) (A)
                 (A) (A) (A) (A) (A) (A) (A) (A) (A) (A) (A) (A)
                 (A) (A) (A) (A) (A) (A) (A) (A) (A) (A) (A) (A)
                 (A) (A) (A) (A) (A) (A) (A) (A) (A) (A) (A) (A)
                 (A) (A) (A) (A) (A) (A) (A) (A) (A) (A) (A) (A)
                 (A) (A) (A) (A) (A) (A) (A) (A) (A) (A) (A)
       Virtual   (A) (A) (A) (A) (A) (A) (A) (A) (A) (A) (A) (A)
                 (A) (A) (A) (A) (A) (A) (A) (A) (A) (A) (A) (A)
                 (A) (A) (A) (A) (A) (A) (A) (A) (A) (A) (A) (A)
                 (A) (A) (A) (A) (A) (A) (A) (A) (A) (A) (A) (A)
                 (A) (A) (A) (A) (A) (A) (A) (A) (A) (A) (A) (A)
                 (A) (A) (A) (A) (A) (A) (A) (A) (A) (A) (A) (A)
                 (A) (A) (A) (A) (A) (A) (A) (A) (A) (A) (A) (A)
                 (A) (A) (A) (A) (A) (A) (A) (A) (A) (A) (A) (A)
                 (A) (A) (A) (A) (A) (A) (A) (A) (A) (A) (A) (A)
                 (A) (A) (A) (A) (A) (A) (A) (A) (A) (A) (A) (A)
                 (A) (A) (A) (A) (A) (A) (A) (A) (A) (A) (A) (A)
                 (A) (A) (A) (A) (A) (A) (A) (A) (A) (A) (A) (A)
                 (A) (A) (A) (A) (A) (A) (A) (A) (A) (A) (A) (A)
                 (A) (A) (A) (A) (A) (A) (A) (A) (A) (A) (A) (A)
                 (A) (A) (A) (A) (A) (A) (A) (A) (A) (A) (A) (A)
                 (A) (A) (A) (A) (A) (A) (A) (A) (A) (A) (A) (A)
                 (A) (A) (A) (A) (A) (A) (A) (A) (A) (A) (A) (A)
                 (A) (A) (A) (A) (A) (A) (A) (A) (A) (A) (A) (A)
                 (A) (A) (A) (A) (A) (A) (A) (A) (A) (A) (A) (A)
                 (A) (A) (A) (A) (A) (A) (A) (A) (A) (A) (A) (A)
                 (A) (A) (A) (A) (A) (A) (A) (A) (A) (A) (A) (A)
                 (A) (A) (A) (A) (A) (A) (A) (A) (A) (A) (A) (A)
                 (A) (A) (A) (A) (A) (A) (A) (A) (A) (A) (A) (A)
                 (A) (A) (A) (A) (A) (A) (A) (A) (A) (A) (A) (A)
                 (A) (A) (A) (A) (A) (A) (A) (A) (A) (A) (A) (A)
                 (A) (A) (A) (A) (A) (A) (A) (A) (A) (A) (A) (A)
                 (A) (A) (A) (A) (A) (A) (A) (A) (A) (A) (A) (A)
                 (A) (A) (A) (A) (A) (A) (A) (A) (A) (A) (A) (A)
                 (A) (A) (A) (A) (A) (A) (A) (A) (A) (A) (A) (A)
                 (A) (A) (A) (A) (A) (A) (A) (A) (A) (A) (A) (A)
                 (A) (A) (A) (A) (A) (A) (A) (A) (A) (A) (A) (A)
                 (A) (A) (A) (A) (A) (A) (A) (A) (A) (A) (A) (A)
                 (A) (A) (A) (A) (A) (A) (A) (A) (A) (A) (A) (A)
                 (A) (A) (A) (A) (A) (A) (A) (A) (A) (A) (A) (A)
                 (A) (A) (A) (A) (A) (A) (A) (A) (A) (A) (A) (A)
                 (A) (A) (A) (A) (A) (A) (A) (A) (A) (A) (A) (A)
                 (A) (A) (A) (A) (A) (A) (A) (A) (A) (A) (A) (A)
                 (A) (A) (A) (A) (A) (A) (A) (A) (A) (A) (A) (A)
                 (A) (A) (A) (A) (A) (A) (A) (A) (A) (A) (A) (A)
                 (A) (A) (A) (A) (A) (A) (A) (A) (A) (A) (A) (A)
                 (A) (A) (A) (A) (A) (A) (A) (A) (A) (A) (A) (A)
                 (A) (A) (A) (A) (A) (A) (A) (A) (A) (A) (A) (A)
                 (A) (A) (A) (A) (A) (A) (A) (A) (A) (A) (A) (A)
                 (A) (A) (A) (A) (A) (A) (A) (A) (A) (A) (A) (A)
                 (A) (A) (A) (A) (A) (A) (A) (A) (A) (A) (A) (A)
                 (A) (A) (A) (A) (A) (A) (A) (A) (A) (A) (A) (A)
                 (A) (A) (A) (A) (A) (A) (A) (A) (A) (A) (A) (A)
                 (A) (A) (A) (A) (A) (A) (A) (A) (A) (A) (A) (A)
                 (A) (A) (A) (A) (A) (A) (A) (A) (A) (A) (A) (A)
                 (A) (A) (A) (A) (A) (A) (A) (A) (A) (A) (A) (A)
                 (A) (A) (A) (A) (A) (A) (A) (A) (A) (A) (A) (A)
                 (A) (A) (A) (A) (A) (A) (A) (A) (A) (A) (A) (A)
                 (A) (A) (A) (A) (A) (A) (A) (A) (A) (A) (A) (A)
                 (A) (A) (A) (A) (A) (A) (A) (A) (A) (A) (A) (A)
                 (A) (A) (A) (A) (A) (A) (A) (A) (A) (A) (A) (A)
                 (A) (A) (A) (A) (A) (A) (A) (A) (A) (A) (A) (A)
                 (A) (A) (A) (A) (A) (A) (A) (A) (A) (A) (A) (A)
                 (A) (A) (A) (A) (A) (A) (A) (A) (A) (A) (A) (A)
                 (A) (A) (A) (A) (A) (A) (A) (A) (A) (A) (A) (A)
                 (A) (A) (A) (A) (A) (A) (A) (A) (A) (A) (A) (A)
                 (A) (A) (A) (A) (A) (A) (A) (A) (A) (A) (A) (A)
                 (A) (A) (A) (A) (A) (A) (A) (A) (A) (A) (A) (A)
                 (A) (A) (A) (A) (A) (A) (A) (A) (A) (A) (A) (A)
                 (A) (A) (A) (A) (A) (A) (A) (A) (A) (A) (A) (A)
                 (A) (A) (A) (A) (A) (A) (A) (A) (A) (A) (A) (A)
                 (A) (A) (A) (A) (A) (A) (A) (A) (A) (A) (A) (A)
                 (A) (A) (A) (A) (A) (A) (A)
 The electronic state is 1-A.
 Alpha  occ. eigenvalues --  -89.92283 -19.63780 -19.63373 -19.62434 -19.62152
 Alpha  occ. eigenvalues --  -19.57811 -14.79182 -14.76116 -10.66441 -10.63485
 Alpha  occ. eigenvalues --  -10.62937 -10.59404 -10.59091 -10.58963 -10.58479
 Alpha  occ. eigenvalues --  -10.57585 -10.57450 -10.57193 -10.55860 -10.55558
 Alpha  occ. eigenvalues --  -10.54907 -10.53892 -10.53516 -10.53283  -8.28208
 Alpha  occ. eigenvalues --   -6.20148  -6.19914  -6.19714  -1.19541  -1.19054
 Alpha  occ. eigenvalues --   -1.15922  -1.15110  -1.13639  -1.08581  -1.00761
 Alpha  occ. eigenvalues --   -0.93501  -0.91953  -0.90504  -0.88513  -0.87688
 Alpha  occ. eigenvalues --   -0.85598  -0.83427  -0.78968  -0.76972  -0.75643
 Alpha  occ. eigenvalues --   -0.73547  -0.70808  -0.68097  -0.67695  -0.66494
 Alpha  occ. eigenvalues --   -0.63945  -0.63353  -0.62011  -0.60424  -0.58839
 Alpha  occ. eigenvalues --   -0.58327  -0.57470  -0.56654  -0.56291  -0.55351
 Alpha  occ. eigenvalues --   -0.54771  -0.53007  -0.52672  -0.52001  -0.51489
 Alpha  occ. eigenvalues --   -0.50792  -0.50447  -0.50225  -0.49301  -0.49268
 Alpha  occ. eigenvalues --   -0.48796  -0.48576  -0.47783  -0.47117  -0.46992
 Alpha  occ. eigenvalues --   -0.46054  -0.44756  -0.44444  -0.44183  -0.43828
 Alpha  occ. eigenvalues --   -0.43480  -0.43178  -0.41696  -0.41602  -0.37814
 Alpha  occ. eigenvalues --   -0.36175  -0.35588  -0.34736  -0.34531  -0.33854
 Alpha  occ. eigenvalues --   -0.33527  -0.32706  -0.32397  -0.31215  -0.24571
 Alpha virt. eigenvalues --   -0.03519   0.00240   0.04259   0.04324   0.05900
 Alpha virt. eigenvalues --    0.06705   0.07093   0.07511   0.08610   0.09113
 Alpha virt. eigenvalues --    0.09498   0.09707   0.10416   0.10683   0.10947
 Alpha virt. eigenvalues --    0.12023   0.12231   0.12310   0.12612   0.12987
 Alpha virt. eigenvalues --    0.13387   0.13746   0.13828   0.14148   0.14483
 Alpha virt. eigenvalues --    0.14885   0.15788   0.16155   0.17113   0.17465
 Alpha virt. eigenvalues --    0.17901   0.18667   0.19093   0.19314   0.19421
 Alpha virt. eigenvalues --    0.20538   0.20728   0.21573   0.22169   0.22979
 Alpha virt. eigenvalues --    0.23033   0.23360   0.24001   0.24257   0.24677
 Alpha virt. eigenvalues --    0.25035   0.25533   0.25836   0.26530   0.27137
 Alpha virt. eigenvalues --    0.27508   0.27913   0.28208   0.28814   0.29074
 Alpha virt. eigenvalues --    0.29861   0.30338   0.30634   0.30746   0.31138
 Alpha virt. eigenvalues --    0.31345   0.32396   0.33193   0.33874   0.34089
 Alpha virt. eigenvalues --    0.34323   0.35313   0.35441   0.35941   0.36270
 Alpha virt. eigenvalues --    0.36581   0.37487   0.38019   0.38252   0.38482
 Alpha virt. eigenvalues --    0.38667   0.39419   0.39777   0.40198   0.40411
 Alpha virt. eigenvalues --    0.40945   0.41188   0.41507   0.42295   0.42377
 Alpha virt. eigenvalues --    0.43115   0.43136   0.43592   0.43707   0.44049
 Alpha virt. eigenvalues --    0.44604   0.45128   0.45306   0.45704   0.46088
 Alpha virt. eigenvalues --    0.46380   0.46538   0.46850   0.47368   0.47771
 Alpha virt. eigenvalues --    0.48008   0.48246   0.48438   0.49025   0.49420
 Alpha virt. eigenvalues --    0.50018   0.50506   0.50606   0.51006   0.51601
 Alpha virt. eigenvalues --    0.51845   0.51976   0.52194   0.52692   0.53008
 Alpha virt. eigenvalues --    0.53547   0.54003   0.54138   0.54637   0.54934
 Alpha virt. eigenvalues --    0.55388   0.55709   0.56523   0.57247   0.57567
 Alpha virt. eigenvalues --    0.58080   0.58385   0.58941   0.59603   0.59970
 Alpha virt. eigenvalues --    0.60514   0.60950   0.61513   0.61956   0.62746
 Alpha virt. eigenvalues --    0.62955   0.63453   0.64923   0.65124   0.65931
 Alpha virt. eigenvalues --    0.66436   0.66772   0.67076   0.67602   0.67985
 Alpha virt. eigenvalues --    0.68768   0.69580   0.70219   0.70512   0.70878
 Alpha virt. eigenvalues --    0.72014   0.73172   0.73361   0.73609   0.74076
 Alpha virt. eigenvalues --    0.74969   0.75401   0.76256   0.76456   0.76757
 Alpha virt. eigenvalues --    0.77562   0.78495   0.79213   0.81033   0.81293
 Alpha virt. eigenvalues --    0.81348   0.82320   0.83106   0.84139   0.84544
 Alpha virt. eigenvalues --    0.85313   0.86201   0.86393   0.87148   0.87444
 Alpha virt. eigenvalues --    0.88395   0.89049   0.89284   0.89663   0.90276
 Alpha virt. eigenvalues --    0.91012   0.91531   0.91850   0.92943   0.93763
 Alpha virt. eigenvalues --    0.94424   0.94662   0.95170   0.95840   0.97165
 Alpha virt. eigenvalues --    0.97686   0.97755   0.98370   0.98542   0.99757
 Alpha virt. eigenvalues --    1.00433   1.00983   1.01426   1.02705   1.03258
 Alpha virt. eigenvalues --    1.03666   1.04456   1.04989   1.05568   1.06710
 Alpha virt. eigenvalues --    1.07290   1.07930   1.08081   1.09213   1.09920
 Alpha virt. eigenvalues --    1.10822   1.11193   1.11991   1.12929   1.13136
 Alpha virt. eigenvalues --    1.13814   1.14730   1.15985   1.16598   1.17067
 Alpha virt. eigenvalues --    1.18002   1.19250   1.19524   1.19707   1.20792
 Alpha virt. eigenvalues --    1.21076   1.21796   1.22833   1.23331   1.24215
 Alpha virt. eigenvalues --    1.25008   1.25666   1.26059   1.27359   1.29397
 Alpha virt. eigenvalues --    1.29786   1.30030   1.30835   1.31271   1.32359
 Alpha virt. eigenvalues --    1.33211   1.33880   1.34406   1.34884   1.35751
 Alpha virt. eigenvalues --    1.37307   1.38225   1.38580   1.39222   1.40101
 Alpha virt. eigenvalues --    1.41395   1.42116   1.43005   1.43273   1.44871
 Alpha virt. eigenvalues --    1.45552   1.45887   1.48151   1.48761   1.50082
 Alpha virt. eigenvalues --    1.50432   1.50469   1.51160   1.52074   1.53032
 Alpha virt. eigenvalues --    1.53350   1.53926   1.54201   1.55026   1.55675
 Alpha virt. eigenvalues --    1.56133   1.56713   1.57234   1.57797   1.58160
 Alpha virt. eigenvalues --    1.58851   1.59192   1.59860   1.60075   1.60564
 Alpha virt. eigenvalues --    1.60799   1.61651   1.61909   1.62032   1.62483
 Alpha virt. eigenvalues --    1.62752   1.63868   1.64361   1.65311   1.65567
 Alpha virt. eigenvalues --    1.66068   1.66719   1.67755   1.68099   1.68436
 Alpha virt. eigenvalues --    1.68899   1.69333   1.69441   1.70142   1.71356
 Alpha virt. eigenvalues --    1.72540   1.73022   1.73329   1.74137   1.75087
 Alpha virt. eigenvalues --    1.75520   1.76044   1.76907   1.77975   1.78122
 Alpha virt. eigenvalues --    1.78656   1.79276   1.79568   1.80832   1.81762
 Alpha virt. eigenvalues --    1.82941   1.83401   1.84130   1.84828   1.84967
 Alpha virt. eigenvalues --    1.85244   1.86494   1.86621   1.87385   1.88475
 Alpha virt. eigenvalues --    1.88795   1.89420   1.89883   1.90900   1.91795
 Alpha virt. eigenvalues --    1.93305   1.93792   1.94231   1.94747   1.95747
 Alpha virt. eigenvalues --    1.96733   1.96870   1.97690   1.98058   1.99005
 Alpha virt. eigenvalues --    1.99368   2.00031   2.00397   2.01515   2.02779
 Alpha virt. eigenvalues --    2.03304   2.03485   2.04355   2.05031   2.05994
 Alpha virt. eigenvalues --    2.06545   2.07372   2.07745   2.08884   2.09274
 Alpha virt. eigenvalues --    2.09811   2.11505   2.12128   2.12714   2.13004
 Alpha virt. eigenvalues --    2.14241   2.15913   2.17057   2.17689   2.18113
 Alpha virt. eigenvalues --    2.18630   2.19512   2.19759   2.20225   2.20876
 Alpha virt. eigenvalues --    2.21387   2.22133   2.23103   2.23381   2.23804
 Alpha virt. eigenvalues --    2.24698   2.25675   2.26145   2.26739   2.27098
 Alpha virt. eigenvalues --    2.27428   2.28617   2.29524   2.30306   2.30501
 Alpha virt. eigenvalues --    2.32585   2.33050   2.33254   2.33889   2.34082
 Alpha virt. eigenvalues --    2.34726   2.35673   2.36365   2.36558   2.36889
 Alpha virt. eigenvalues --    2.37318   2.38070   2.38469   2.39147   2.40167
 Alpha virt. eigenvalues --    2.41049   2.41320   2.41934   2.42543   2.44129
 Alpha virt. eigenvalues --    2.44438   2.44584   2.46133   2.46710   2.47163
 Alpha virt. eigenvalues --    2.48470   2.49754   2.50734   2.51131   2.51999
 Alpha virt. eigenvalues --    2.53539   2.54185   2.54362   2.55546   2.55922
 Alpha virt. eigenvalues --    2.56769   2.57700   2.58228   2.58636   2.59139
 Alpha virt. eigenvalues --    2.59808   2.59999   2.61083   2.61146   2.61542
 Alpha virt. eigenvalues --    2.61909   2.63209   2.63774   2.64093   2.64318
 Alpha virt. eigenvalues --    2.65295   2.65900   2.66306   2.67422   2.68029
 Alpha virt. eigenvalues --    2.69103   2.69320   2.70045   2.71186   2.72124
 Alpha virt. eigenvalues --    2.72952   2.73181   2.73769   2.73957   2.74911
 Alpha virt. eigenvalues --    2.75054   2.76095   2.77096   2.77874   2.78526
 Alpha virt. eigenvalues --    2.80066   2.80842   2.81263   2.82361   2.82663
 Alpha virt. eigenvalues --    2.83697   2.84203   2.85396   2.86002   2.86695
 Alpha virt. eigenvalues --    2.86752   2.87453   2.88725   2.89474   2.89829
 Alpha virt. eigenvalues --    2.89878   2.91572   2.91961   2.92304   2.93218
 Alpha virt. eigenvalues --    2.93657   2.94454   2.95320   2.96195   2.97035
 Alpha virt. eigenvalues --    2.98047   2.98844   3.00534   3.00730   3.01546
 Alpha virt. eigenvalues --    3.02412   3.02579   3.03173   3.04609   3.05597
 Alpha virt. eigenvalues --    3.05820   3.06257   3.07014   3.07448   3.07875
 Alpha virt. eigenvalues --    3.08713   3.08853   3.09170   3.09723   3.10294
 Alpha virt. eigenvalues --    3.10822   3.12077   3.12377   3.12838   3.13277
 Alpha virt. eigenvalues --    3.14672   3.15536   3.15691   3.15857   3.16613
 Alpha virt. eigenvalues --    3.16871   3.17213   3.17505   3.18054   3.18086
 Alpha virt. eigenvalues --    3.18615   3.18920   3.20053   3.20861   3.21090
 Alpha virt. eigenvalues --    3.22203   3.23487   3.23854   3.24646   3.25029
 Alpha virt. eigenvalues --    3.25410   3.26550   3.26833   3.27591   3.28879
 Alpha virt. eigenvalues --    3.29105   3.29903   3.30166   3.31509   3.31597
 Alpha virt. eigenvalues --    3.32487   3.32606   3.33439   3.33936   3.34197
 Alpha virt. eigenvalues --    3.35188   3.35926   3.36242   3.36778   3.37430
 Alpha virt. eigenvalues --    3.37534   3.38285   3.39457   3.39628   3.40748
 Alpha virt. eigenvalues --    3.41130   3.41976   3.42782   3.43687   3.43974
 Alpha virt. eigenvalues --    3.44821   3.45113   3.45959   3.46210   3.46947
 Alpha virt. eigenvalues --    3.47193   3.48416   3.48929   3.49677   3.50121
 Alpha virt. eigenvalues --    3.50662   3.52650   3.52848   3.53857   3.54766
 Alpha virt. eigenvalues --    3.55661   3.56097   3.56458   3.56669   3.57128
 Alpha virt. eigenvalues --    3.58592   3.59275   3.60091   3.60471   3.61924
 Alpha virt. eigenvalues --    3.62107   3.62914   3.64181   3.65062   3.65598
 Alpha virt. eigenvalues --    3.66201   3.66721   3.67811   3.68253   3.69302
 Alpha virt. eigenvalues --    3.69942   3.71853   3.72552   3.74416   3.75191
 Alpha virt. eigenvalues --    3.76325   3.76705   3.78484   3.78945   3.79705
 Alpha virt. eigenvalues --    3.81223   3.81408   3.82151   3.82806   3.83149
 Alpha virt. eigenvalues --    3.85539   3.85859   3.88587   3.89184   3.89777
 Alpha virt. eigenvalues --    3.90495   3.91610   3.93619   3.94344   3.95128
 Alpha virt. eigenvalues --    3.97473   3.97750   3.99183   3.99308   4.00844
 Alpha virt. eigenvalues --    4.01749   4.02072   4.03381   4.05196   4.06787
 Alpha virt. eigenvalues --    4.09553   4.10394   4.10477   4.13994   4.15315
 Alpha virt. eigenvalues --    4.16531   4.17466   4.17772   4.18600   4.19308
 Alpha virt. eigenvalues --    4.19736   4.20812   4.21478   4.22588   4.24582
 Alpha virt. eigenvalues --    4.25890   4.26652   4.29313   4.30768   4.31473
 Alpha virt. eigenvalues --    4.32444   4.37699   4.38499   4.38800   4.39487
 Alpha virt. eigenvalues --    4.40454   4.40760   4.41948   4.42662   4.43637
 Alpha virt. eigenvalues --    4.45201   4.47519   4.48888   4.49606   4.52082
 Alpha virt. eigenvalues --    4.52758   4.53885   4.55123   4.58146   4.59478
 Alpha virt. eigenvalues --    4.63396   4.65566   4.65749   4.67298   4.70179
 Alpha virt. eigenvalues --    4.71606   4.71855   4.72938   4.74501   4.75134
 Alpha virt. eigenvalues --    4.76261   4.78301   4.81533   4.82534   4.84904
 Alpha virt. eigenvalues --    4.87331   4.88276   4.90075   4.91081   4.92588
 Alpha virt. eigenvalues --    4.94095   4.95635   4.97970   4.99161   5.00589
 Alpha virt. eigenvalues --    5.02546   5.03062   5.04823   5.06595   5.09350
 Alpha virt. eigenvalues --    5.12391   5.14607   5.16988   5.20017   5.21174
 Alpha virt. eigenvalues --    5.22666   5.24192   5.25293   5.27477   5.28755
 Alpha virt. eigenvalues --    5.29588   5.31594   5.32013   5.35554   5.39088
 Alpha virt. eigenvalues --    5.40626   5.42872   5.44461   5.47422   5.49034
 Alpha virt. eigenvalues --    5.49873   5.50906   5.53543   5.55049   5.56686
 Alpha virt. eigenvalues --    5.64730   5.68862   5.76188   5.77309   5.79789
 Alpha virt. eigenvalues --    5.80223   5.82460   5.83235   5.84255   5.89065
 Alpha virt. eigenvalues --    5.89793   5.92042   5.94147   5.96649   5.98019
 Alpha virt. eigenvalues --    5.99738   6.05562   6.07707   6.16924   6.18888
[...]
      7        1           0.000064750   -0.000121329    0.000117402
      8        6           0.000723067   -0.000216018   -0.000007370
      9        1           0.000070689   -0.000019946   -0.000000406
     10        8           0.000652723   -0.000060134    0.000108227
     11        1           0.000036579   -0.000045899    0.000040761
     12        6           0.000398071   -0.000132398   -0.000071960
     13        1           0.000061014   -0.000015240    0.000001507
     14        6           0.000673944   -0.000068472   -0.000003850
     15        1           0.000062900   -0.000038370   -0.000007793
     16        8           0.001223164    0.000056800    0.000068122
     17        7           0.001001924   -0.000114927   -0.000458540
     18        6           0.000164173   -0.000178821    0.000351925
     19        1          -0.000095122   -0.000035880    0.000166141
     20        6           0.000416644   -0.001131131    0.000027934
     21        1           0.000121368   -0.000164101    0.000140594
     22        6           0.002826848   -0.000387734   -0.009737430
     23        1           0.001656051   -0.000023511   -0.001266427
     24        1          -0.001093447   -0.000022192   -0.001516007
     25        6           0.000354897   -0.000396693   -0.001425403
     26        6           0.000528264   -0.000300163   -0.001839344
     27        1           0.000007588    0.000016809   -0.000197343
     28        6           0.000844066    0.000294531   -0.000299236
     29        8          -0.000664090    0.001590387    0.001259665
     30        7           0.001293774   -0.000258837    0.000452036
     31        1          -0.000012731   -0.000101301   -0.000264991
     32        1           0.000335315   -0.000287218   -0.000951922
     33        1          -0.000037393    0.000022223    0.000015343
     34        6          -0.000025955    0.000042929   -0.000669618
     35        6          -0.000784929    0.000693561    0.001146584
     36        6          -0.003358905    0.001922240    0.003830755
     37        6          -0.001109512   -0.000374871    0.000129442
     38        6          -0.006098986    0.001728022    0.011032427
     39        8          -0.002237553    0.000184014    0.000828508
     40       16           0.000015514   -0.000868609   -0.001191235
     41        1           0.000018714    0.000008739   -0.000108705
     42        1          -0.000035526   -0.000038849   -0.000089777
     43        1          -0.000689932   -0.000766929   -0.000726788
     44        1          -0.000014122    0.000082603    0.000205222
     45        1           0.000807564    0.000277948   -0.000480473
     46        1          -0.000354243    0.000114719    0.000994145
     47        1          -0.000054377    0.000181021    0.000061463
     48        1           0.000005194    0.000018312   -0.000063153
 -------------------------------------------------------------------
 Cartesian Forces:  Max     0.011032427 RMS     0.001541499
 Leave Link  716 at Sat Aug 13 20:22:06 2022, MaxMem=  2684354560 cpu:               0.4 elap:               0.0
 (Enter /storage/apps/GAUSSIAN/G16_RevA03/g16/l103.exe)

 GradGradGradGradGradGradGradGradGradGradGradGradGradGradGradGradGradGrad
 Berny optimization.
 Search for a local minimum.
 Step number   1 out of a maximum of    2
 All quantities printed in internal units (Hartrees-Bohrs-Radians)
 Second derivative matrix not updated -- first step.
 ITU=  0
     Eigenvalues ---    0.00036   0.00100   0.00103   0.00128   0.00184
     Eigenvalues ---    0.00250   0.00319   0.00388   0.00427   0.00462
     Eigenvalues ---    0.00587   0.00730   0.00829   0.00872   0.00931
     Eigenvalues ---    0.01010   0.01104   0.01197   0.01379   0.01508
     Eigenvalues ---    0.01713   0.01919   0.02353   0.02491   0.02618
     Eigenvalues ---    0.03010   0.03188   0.03384   0.03714   0.03858
     Eigenvalues ---    0.04366   0.04627   0.04929   0.05161   0.05269
     Eigenvalues ---    0.05378   0.05516   0.05760   0.05877   0.05900
     Eigenvalues ---    0.06105   0.06166   0.06360   0.06364   0.06731
     Eigenvalues ---    0.06931   0.07471   0.07719   0.07804   0.07987
     Eigenvalues ---    0.08416   0.08773   0.09082   0.09847   0.10287
     Eigenvalues ---    0.10600   0.11716   0.12121   0.12496   0.12658
     Eigenvalues ---    0.12996   0.13104   0.13215   0.13560   0.13694
     Eigenvalues ---    0.13927   0.14046   0.15367   0.15981   0.16560
     Eigenvalues ---    0.16715   0.18567   0.19200   0.19690   0.19754
     Eigenvalues ---    0.20023   0.20629   0.21599   0.21796   0.22231
     Eigenvalues ---    0.24225   0.27069   0.27439   0.28527   0.31180
     Eigenvalues ---    0.32984   0.33860   0.35267   0.35324   0.37151
     Eigenvalues ---    0.38137   0.38137   0.38137   0.38137   0.40147
     Eigenvalues ---    0.43413   0.45372   0.48119   0.56621   0.56985
     Eigenvalues ---    0.61655   0.66262   0.69568   0.70325   0.74264
     Eigenvalues ---    0.78991   0.82370   0.87592   0.89139   0.90867
     Eigenvalues ---    0.91318   0.91799   0.93937   0.94639   0.94894
     Eigenvalues ---    0.96868   0.97282   1.00108   1.02101   1.03089
     Eigenvalues ---    1.05643   1.07033   1.10348   1.11503   1.14863
     Eigenvalues ---    1.19212   1.20064   1.24688   1.26051   1.30116
     Eigenvalues ---    1.33909   1.42519   1.52219   1.62833   1.70585
     Eigenvalues ---    1.79552   2.17829   2.28260
 Quadratic step=7.177D+00 exceeds max=3.000D-01 adjusted using Lamda=-2.752D-02.
 Angle between NR and scaled steps=  57.00 degrees.
 Angle between quadratic step and forces=  47.99 degrees.
 Linear search not attempted -- first point.
 Variable       Old X    -DE/DX   Delta X   Delta X   Delta X     New X
                                 (Linear)    (Quad)   (Total)
    X1        6.80503   0.00019   0.00000  -0.00577  -0.00577   6.79926
    Y1       -6.83390  -0.00011   0.00000   0.00383   0.00383  -6.83007
    Z1       -0.83843   0.00004   0.00000   0.00150   0.00150  -0.83694
    X2        7.08565   0.00001   0.00000  -0.01233  -0.01233   7.07332
    Y2       -7.01441  -0.00001   0.00000   0.00598   0.00598  -7.00844
    Z2       -2.86964  -0.00000   0.00000   0.00070   0.00070  -2.86894
    X3        8.18958  -0.00001   0.00000  -0.00776  -0.00776   8.18182
    Y3       -8.01490  -0.00005   0.00000  -0.00035  -0.00035  -8.01525
    Z3        0.12883   0.00000   0.00000  -0.00167  -0.00167   0.12716
    X4        3.55199   0.00071   0.00000   0.00672   0.00672   3.55871
    Y4       -2.73622  -0.00036   0.00000  -0.00249  -0.00249  -2.73871
    Z4        2.33001  -0.00005   0.00000   0.00557   0.00557   2.33558
    X5        2.31886   0.00002   0.00000   0.00265   0.00265   2.32151
    Y5       -4.38075  -0.00002   0.00000  -0.00076  -0.00076  -4.38151
    Z5        2.06806   0.00003   0.00000   0.01144   0.01144   2.07949
    X6        2.81603   0.00138   0.00000   0.01820   0.01820   2.83423
    Y6       -1.29690  -0.00052   0.00000  -0.00620  -0.00620  -1.30310
    Z6        4.41475   0.00038   0.00000   0.01205   0.01205   4.42680
    X7        1.06466   0.00006   0.00000   0.01468   0.01468   1.07934
    Y7       -0.77697  -0.00012   0.00000  -0.00809  -0.00809  -0.78506
    Z7        4.16628   0.00012   0.00000   0.02574   0.02574   4.19202
    X8        6.28705   0.00072   0.00000   0.00768   0.00768   6.29473
    Y8       -3.56937  -0.00022   0.00000  -0.00103  -0.00103  -3.57040
    Z8        2.65750  -0.00001   0.00000   0.00295   0.00295   2.66045
    X9        6.46347   0.00007   0.00000   0.00529   0.00529   6.46876
    Y9       -5.24349  -0.00002   0.00000  -0.00128  -0.00128  -5.24477
    Z9        3.85920  -0.00000   0.00000   0.00299   0.00299   3.86219
   X10        7.72295   0.00065   0.00000   0.00734   0.00734   7.73029
   Y10       -1.54561  -0.00006   0.00000  -0.00112  -0.00112  -1.54673
   Z10        3.62034   0.00011   0.00000   0.00499   0.00499   3.62533
   X11        6.69590   0.00004   0.00000   0.00559   0.00559   6.70150
   Y11       -0.72914  -0.00005   0.00000  -0.00431  -0.00431  -0.73345
   Z11        4.89001   0.00004   0.00000   0.00650   0.00650   4.89651
   X12        3.70647   0.00040   0.00000  -0.00024  -0.00024   3.70623
   Y12       -1.25206  -0.00013   0.00000  -0.00079  -0.00079  -1.25285
   Z12       -0.16334  -0.00007   0.00000   0.00313   0.00313  -0.16021
   X13        4.28241   0.00006   0.00000  -0.00786  -0.00786   4.27455
   Y13        0.69354  -0.00002   0.00000   0.00074   0.00074   0.69427
   Z13        0.24172   0.00000   0.00000   0.00883   0.00883   0.25055
   X14        7.10426   0.00067   0.00000   0.00491   0.00491   7.10917
   Y14       -4.09481  -0.00007   0.00000   0.00189   0.00189  -4.09292
   Z14       -0.05464  -0.00000   0.00000   0.00283   0.00283  -0.05181
   X15        9.05652   0.00006   0.00000   0.00421   0.00421   9.06073
   Y15       -3.47649  -0.00004   0.00000   0.00056   0.00056  -3.47593
   Z15       -0.29806  -0.00001   0.00000   0.00277   0.00277  -0.29529
   X16        5.53217   0.00122   0.00000   0.00862   0.00862   5.54078
   Y16       -2.53089   0.00006   0.00000   0.00723   0.00723  -2.52366
   Z16       -1.61629   0.00007   0.00000   0.00524   0.00524  -1.61105
   X17        1.38395   0.00100   0.00000   0.00228   0.00228   1.38623
   Y17       -1.12935  -0.00011   0.00000  -0.00336  -0.00336  -1.13271
   Z17       -1.57711  -0.00046   0.00000  -0.00779  -0.00779  -1.58491
   X18        0.35595   0.00016   0.00000  -0.00582  -0.00582   0.35014
   Y18       -3.35232  -0.00018   0.00000  -0.00492  -0.00492  -3.35724
   Z18       -2.54239   0.00035   0.00000   0.00338   0.00338  -2.53901
   X19        1.49546  -0.00010   0.00000  -0.01806  -0.01806   1.47740
   Y19       -5.02108  -0.00004   0.00000  -0.00748  -0.00748  -5.02856
   Z19       -2.25141   0.00017   0.00000   0.02896   0.02896  -2.22244
   X20       -1.79183   0.00042   0.00000   0.00480   0.00480  -1.78704
   Y20       -3.39190  -0.00113   0.00000  -0.00732  -0.00732  -3.39922
   Z20       -3.84199   0.00003   0.00000  -0.01712  -0.01712  -3.85911
   X21       -2.44155   0.00012   0.00000  -0.00548  -0.00548  -2.44703
   Y21       -5.17012  -0.00016   0.00000  -0.01318  -0.01318  -5.18331
   Z21       -4.61105   0.00014   0.00000   0.00913   0.00913  -4.60192
   X22       -3.33908   0.00283   0.00000   0.02514   0.02514  -3.31394
   Y22       -1.06684  -0.00039   0.00000  -0.00193  -0.00193  -1.06877
   Z22       -4.27389  -0.00974   0.00000  -0.07820  -0.07820  -4.35209
   X23       -3.92469   0.00166   0.00000   0.04507   0.04507  -3.87962
   Y23       -0.94349  -0.00002   0.00000  -0.00116  -0.00116  -0.94464
   Z23       -6.25681  -0.00127   0.00000  -0.07908  -0.07908  -6.33588
   X24       -5.11641  -0.00109   0.00000   0.00829   0.00829  -5.10812
   Y24       -1.22402  -0.00002   0.00000   0.00887   0.00887  -1.21514
   Z24       -3.22797  -0.00152   0.00000  -0.09042  -0.09042  -3.31839
   X25       -1.90019   0.00035   0.00000   0.01227   0.01227  -1.88792
   Y25        1.25698  -0.00040   0.00000  -0.00339  -0.00339   1.25359
   Z25       -3.50805  -0.00143   0.00000  -0.03863  -0.03863  -3.54668
   X26        0.29110   0.00053   0.00000   0.00236   0.00236   0.29346
   Y26        1.10498  -0.00030   0.00000  -0.00541  -0.00541   1.09957
   Z26       -2.22735  -0.00184   0.00000  -0.01950  -0.01950  -2.24686
   X27        1.26565   0.00001   0.00000  -0.01330  -0.01330   1.25235
   Y27        2.81567   0.00002   0.00000  -0.00319  -0.00319   2.81248
   Z27       -1.66247  -0.00020   0.00000   0.00422   0.00422  -1.65825
   X28       -2.84393   0.00084   0.00000  -0.00404  -0.00404  -2.84796
   Y28        3.81169   0.00029   0.00000   0.00330   0.00330   3.81500
   Z28       -4.10879  -0.00030   0.00000   0.00612   0.00612  -4.10267
   X29       -1.59590  -0.00066   0.00000  -0.02896  -0.02896  -1.62486
   Y29        5.72457   0.00159   0.00000   0.01450   0.01450   5.73907
   Z29       -3.84970   0.00126   0.00000   0.04880   0.04880  -3.80090
   X30       -5.26669   0.00129   0.00000  -0.00733  -0.00733  -5.27402
   Y30        3.90770  -0.00026   0.00000   0.00025   0.00025   3.90795
   Z30       -5.03893   0.00045   0.00000   0.01718   0.01718  -5.02175
   X31       -6.01526  -0.00001   0.00000  -0.01910  -0.01910  -6.03435
   Y31        5.64493  -0.00010   0.00000  -0.00115  -0.00115   5.64377
   Z31       -5.24140  -0.00026   0.00000   0.04261   0.04261  -5.19879
   X32       -6.45569   0.00034   0.00000   0.00002   0.00002  -6.45568
   Y32        2.44490  -0.00029   0.00000  -0.00822  -0.00822   2.43667
   Z32       -4.80461  -0.00095   0.00000   0.00229   0.00229  -4.80232
   X33        4.91982  -0.00004   0.00000  -0.00757  -0.00757   4.91225
   Y33       -7.53733   0.00002   0.00000   0.00973   0.00973  -7.52759
   Z33       -0.37638   0.00002   0.00000   0.00562   0.00562  -0.37076
   X34        0.37639  -0.00003   0.00000   0.01648   0.01648   0.39287
   Y34        4.15732   0.00004   0.00000  -0.00275  -0.00275   4.15457
   Z34        5.35653  -0.00067   0.00000  -0.02292  -0.02292   5.33361
   X35       -3.05944  -0.00078   0.00000  -0.02027  -0.02027  -3.07971
   Y35        1.71715   0.00069   0.00000   0.00443   0.00443   1.72158
   Z35        2.36623   0.00115   0.00000   0.02058   0.02058   2.38681
   X36       -5.40218  -0.00336   0.00000  -0.04292  -0.04292  -5.44510
   Y36        1.61526   0.00192   0.00000   0.01407   0.01407   1.62933
   Z36        0.88439   0.00383   0.00000   0.06290   0.06290   0.94728
   X37       -9.05861  -0.00111   0.00000   0.00208   0.00208  -9.05653
   Y37       -0.79909  -0.00037   0.00000  -0.00840  -0.00840  -0.80748
   Z37       -0.81999   0.00013   0.00000  -0.01562  -0.01562  -0.83560
   X38       -6.44421  -0.00610   0.00000  -0.04866  -0.04866  -6.49287
   Y38       -0.57802   0.00173   0.00000   0.00836   0.00836  -0.56966
   Z38        0.22529   0.01103   0.00000   0.09756   0.09756   0.32285
   X39       -1.82991  -0.00224   0.00000  -0.03587  -0.03587  -1.86578
   Y39       -0.14032   0.00018   0.00000  -0.00504  -0.00504  -0.14536
   Z39        2.93690   0.00083   0.00000   0.02154   0.02154   2.95844
   X40       -2.31570   0.00002   0.00000   0.03977   0.03977  -2.27593
   Y40        4.79474  -0.00087   0.00000   0.00738   0.00738   4.80213
   Z40        3.38429  -0.00119   0.00000  -0.05226  -0.05226   3.33203
   X41        0.82960   0.00002   0.00000   0.01152   0.01152   0.84112
   Y41        5.92292   0.00001   0.00000  -0.00538  -0.00538   5.91754
   Z41        6.30548  -0.00011   0.00000  -0.01486  -0.01486   6.29062
   X42        1.98142  -0.00004   0.00000   0.02607   0.02607   2.00749
   Y42        3.54022  -0.00004   0.00000  -0.00642  -0.00642   3.53380
   Z42        4.23243  -0.00009   0.00000  -0.00582  -0.00582   4.22660
   X43      -10.36122  -0.00069   0.00000  -0.04742  -0.04742 -10.40864
   Y43       -1.15409  -0.00077   0.00000  -0.03653  -0.03653  -1.19062
   Z43        0.74429  -0.00073   0.00000  -0.06827  -0.06827   0.67602
   X44       -9.66288  -0.00001   0.00000   0.02912   0.02912  -9.63376
   Y44        0.94647   0.00008   0.00000  -0.00440  -0.00440   0.94206
   Z44       -1.73498   0.00021   0.00000  -0.02672  -0.02672  -1.76170
   X45       -9.26019   0.00081   0.00000   0.07443   0.07443  -9.18576
   Y45       -2.36702   0.00028   0.00000   0.00449   0.00449  -2.36254
   Z45       -2.14065  -0.00048   0.00000  -0.04364  -0.04364  -2.18429
   X46       -5.42897  -0.00035   0.00000  -0.02981  -0.02981  -5.45878
   Y46       -2.30375   0.00011   0.00000   0.01355   0.01355  -2.29020
   Z46        0.68350   0.00099   0.00000   0.08237   0.08237   0.76587
   X47       -6.33170  -0.00005   0.00000  -0.00799  -0.00799  -6.33969
   Y47        3.39910   0.00018   0.00000   0.01796   0.01796   3.41706
   Z47        0.49062   0.00006   0.00000   0.00807   0.00807   0.49869
   X48       -0.09260   0.00001   0.00000   0.00171   0.00171  -0.09089
   Y48        2.71963   0.00002   0.00000  -0.00150  -0.00150   2.71813
   Z48        6.74936  -0.00006   0.00000  -0.02513  -0.02513   6.72424
         Item               Value     Threshold  Converged?
 Maximum Force            0.011032     0.000450     NO 
 RMS     Force            0.001541     0.000300     NO 
 Maximum Displacement     0.097560     0.001800     NO 
 RMS     Displacement     0.025002     0.001200     NO 
 Predicted change in Energy=-3.095826D-03
 GradGradGradGradGradGradGradGradGradGradGradGradGradGradGradGradGradGrad

 Leave Link  103 at Sat Aug 13 20:22:06 2022, MaxMem=  2684354560 cpu:               0.9 elap:               0.1
 (Enter /storage/apps/GAUSSIAN/G16_RevA03/g16/l9999.exe)

 Test job not archived.
 1\1\GINC-T048\Force\RM062X\def2TZVP\C16H24N2O5S1\LV87696\13-Aug-2022\0
 \\#P M062X/Def2TZVP scf=(direct,conver=8) EmpiricalDispersion=GD3 Forc
 e Charge Prop=(Field,Read)\\Gaussian run\\0,1\C,3.601069,-3.616344,-0.
 44368\H,3.749566,-3.711868,-1.518549\H,4.333738,-4.241303,0.068174\C,1
 .879633,-1.447944,1.232988\H,1.227089,-2.318191,1.094368\O,1.490179,-0
 .686289,2.336184\H,0.563395,-0.411157,2.2047\C,3.326965,-1.888831,1.40
 6286\H,3.420322,-2.774738,2.042201\O,4.086807,-0.817903,1.915801\H,3.5
 43319,-0.385844,2.587683\C,1.961379,-0.662561,-0.086438\H,2.266154,0.3
 67004,0.127912\C,3.759415,-2.166878,-0.028914\H,4.792504,-1.839677,-0.
 157727\O,2.927496,-1.33929,-0.855304\N,0.732357,-0.597626,-0.834573\C,
 0.188363,-1.773972,-1.345374\H,0.791364,-2.657039,-1.191393\C,-0.94819
 7,-1.794918,-2.033095\H,-1.29201,-2.73591,-2.440061\C,-1.766967,-0.564
 549,-2.261644\H,-2.076854,-0.499271,-3.310959\H,-2.707487,-0.647721,-1
 .708169\C,-1.005537,0.665163,-1.85638\C,0.154043,0.584732,-1.178665\H,
 0.669755,1.489989,-0.879743\C,-1.504942,2.017062,-2.174279\O,-0.844513
 ,3.029314,-2.037173\N,-2.787014,2.067868,-2.666488\H,-3.183137,2.98716
 6,-2.773627\H,-3.416206,1.293783,-2.542488\H,2.603456,-3.988581,-0.199
 172\C,0.199177,2.199959,2.834555\C,-1.618988,0.908679,1.252154\C,-2.85
 8708,0.854759,0.467997\C,-4.793611,-0.422858,-0.433918\C,-3.410129,-0.
 305875,0.119219\O,-0.968345,-0.074255,1.554142\S,-1.225417,2.537268,1.
 790888\H,0.439004,3.134273,3.336715\H,1.048523,1.873406,2.239704\H,-5.
 482919,-0.610718,0.393861\H,-5.113375,0.500848,-0.91811\H,-4.900283,-1
 .252575,-1.132783\H,-2.872887,-1.219093,0.361691\H,-3.350592,1.798725,
 0.259625\H,-0.049002,1.439167,3.571609\\Version=ES64L-G16RevA.03\State
 =1-A\HF=-1507.9230685\RMSD=1.166e-09\RMSF=1.541e-03\Dipole=-1.8759071,
 -1.1772403,0.5005298\Quadrupole=7.4501935,-1.9117182,-5.5384753,-2.963
 1367,5.7153639,8.1574513\PG=C01 [X(C16H24N2O5S1)]\\@


 I WOULD TAKE COUNSEL OF MYSELF.
 I WOULD STOP AND LOOK WITHIN
 AND LOOKING WITHIN, LOOK BACK, ALSO
 THAT I MAY LOOK AHEAD WITH CLEARER UNDERSTANDING
 OF THE WAY I HAVE BEEN MOVING, AND IN WHAT DIRECTION.
 I NEED TO KNOW IF I AM GOING FORWARD OR RETREATING,
 WHETHER I HAVE BEEN WASTING, OR ENJOYING
 THE PRECIOUS MOMENTS OF LIFE.  THERE HAVE BEEN FRICTIONS,
 ANNOYANCES AND SOMETIMES WRATH,
 BUT WERE THEY BECAUSE I WAS RIGHT AND OTHERS WRONG.....
 HAVE I HAD MY THOUGHTS TOO SHARPLY FOCUSED
 ON THAT WHICH PLEASED ME, SERVED MY SELF-ESTEEM,
 UNDERGIRDED MY SECURITY,
 OF WHICH I DID NOT INQUIRE WHETHER IT SERVED OR HAMPERED OTHERS.....
 HAVE I BEEN TRYING TO STOP THE CLOCK
 TO HOLD THE WORLD
 IN PERPETUATION OF WHAT WAS AN IS ALREADY SLIPPING AWAY.....
 HAVE I BEEN CRITICAL OF OTHERS FOR WHAT REALLY NEEDED CHANGING IN ME...
 LET ME INDEED TAKE COUNSEL OF MYSELF
 AND SET MY DIRECTIONS STRAIGHT.

                          R.T. WESTON AS ADAPTED BY D. OSBORN 1967
 Job cpu time:       0 days  3 hours 24 minutes 16.1 seconds.
 Elapsed time:       0 days  0 hours 12 minutes 47.8 seconds.
 File lengths (MBytes):  RWF=    435 Int=      0 D2E=      0 Chk=     48 Scr=      1
 Normal termination of Gaussian 16 at Sat Aug 13 20:22:06 2022.
