 Entering Gaussian System, Link 0=g16
 Initial command:
 /storage/apps/GAUSSIAN/G16_RevA03/g16/l1.exe "/scratch/tmp/1019267/Gau-218721.inp" -scrdir="/scratch/tmp/1019267/"
 Entering Link 1 = /storage/apps/GAUSSIAN/G16_RevA03/g16/l1.exe PID=    218722.
  
 Copyright (c) 1988,1990,1992,1993,1995,1998,2003,2009,2016,
            Gaussian, Inc.  All Rights Reserved.
  
 This is part of the Gaussian(R) 16 program.  It is based on
 the Gaussian(R) 09 system (copyright 2009, Gaussian, Inc.),
 the Gaussian(R) 03 system (copyright 2003, Gaussian, Inc.),
 the Gaussian(R) 98 system (copyright 1998, Gaussian, Inc.),
 the Gaussian(R) 94 system (copyright 1995, Gaussian, Inc.),
 the Gaussian 92(TM) system (copyright 1992, Gaussian, Inc.),
 the Gaussian 90(TM) system (copyright 1990, Gaussian, Inc.),
 the Gaussian 88(TM) system (copyright 1988, Gaussian, Inc.),
 the Gaussian 86(TM) system (copyright 1986, Carnegie Mellon
 University), and the Gaussian 82(TM) system (copyright 1983,
 Carnegie Mellon University). Gaussian is a federally registered
 trademark of Gaussian, Inc.
  
 This software contains proprietary and confidential information,
 including trade secrets, belonging to Gaussian, Inc.
  
 This software is provided under written license and may be
 used, copied, transmitted, or stored only in accord with that
 written license.
  
 The following legend is applicable only to US Government
 contracts under FAR:
  
                    RESTRICTED RIGHTS LEGEND
  
 Use, reproduction and disclosure by the US Government is
 subject to restrictions as set forth in subparagraphs (a)
 and (c) of the Commercial Computer Software - Restricted
 Rights clause in FAR 52.227-19.
  
 Gaussian, Inc.
 340 Quinnipiac St., Bldg. 40, Wallingford CT 06492
  
  
 ---------------------------------------------------------------
 Warning -- This program may not be used in any manner that
 competes with the business of Gaussian, Inc. or will provide
 assistance to any competitor of Gaussian, Inc.  The licensee
 of this program is prohibited from giving any competitor of
 Gaussian, Inc. access to this program.  By using this program,
 the user acknowledges that Gaussian, Inc. is engaged in the
 business of creating and licensing software in the field of
 computational chemistry and represents and warrants to the
 licensee that it is not a competitor of Gaussian, Inc. and that
 it will not use this program in any manner prohibited above.
 ---------------------------------------------------------------
  

 Cite this work as:
 Gaussian 16, Revision A.03,
 M. J. Frisch, G. W. Trucks, H. B. Schlegel, G. E. Scuseria, 
 M. A. Robb, J. R. Cheeseman, G. Scalmani, V. Barone, 
 G. A. Petersson, H. Nakatsuji, X. Li, M. Caricato, A. V. Marenich, 
 J. Bloino, B. G. Janesko, R. Gomperts, B. Mennucci, H. P. Hratchian, 
 J. V. Ortiz, A. F. Izmaylov, J. L. Sonnenberg, D. Williams-Young, 
 F. Ding, F. Lipparini, F. Egidi, J. Goings, B. Peng, A. Petrone, 
 T. Henderson, D. Ranasinghe, V. G. Zakrzewski, J. Gao, N. Rega, 
 G. Zheng, W. Liang, M. Hada, M. Ehara, K. Toyota, R. Fukuda, 
 J. Hasegawa, M. Ishida, T. Nakajima, Y. Honda, O. Kitao, H. Nakai, 
 T. Vreven, K. Throssell, J. A. Montgomery, Jr., J. E. Peralta, 
 F. Ogliaro, M. J. Bearpark, J. J. Heyd, E. N. Brothers, K. N. Kudin, 
 V. N. Staroverov, T. A. Keith, R. Kobayashi, J. Normand, 
 K. Raghavachari, A. P. Rendell, J. C. Burant, S. S. Iyengar, 
 J. Tomasi, M. Cossi, J. M. Millam, M. Klene, C. Adamo, R. Cammi, 
 J. W. Ochterski, R. L. Martin, K. Morokuma, O. Farkas, 
 J. B. Foresman, and D. J. Fox, Gaussian, Inc., Wallingford CT, 2016.
 
 ******************************************
 Gaussian 16:  ES64L-G16RevA.03 25-Dec-2016
                13-Aug-2022 
 ******************************************
 %NProcShared=16
 Will use up to   16 processors via shared memory.
 %mem=20GB
 ----------------------------------------------------------------------
 #P M062X/Def2TZVP scf=(direct,conver=8) EmpiricalDispersion=GD3 Force 
 Charge Prop=(Field,Read)
 ----------------------------------------------------------------------
 1/10=7,18=10,28=-2,30=1,38=1,125=101/1,3;
 2/12=2,17=6,18=5,29=2,40=1/2;
 3/5=44,7=101,11=2,25=1,30=1,71=1,74=-55,124=31/1,2,3;
 4//1;
 5/5=2,6=8,38=5/2;
 6/7=2,8=2,9=2,10=2,14=2,15=1,28=1/1,2;
 7/7=1,16=-2,29=1/1,2,3,16;
 1/10=7,18=10,28=-2,30=1/3;
 99/12=1/99;
 Leave Link    1 at Sat Aug 13 20:22:43 2022, MaxMem=  2684354560 cpu:               0.6 elap:               0.0
 (Enter /storage/apps/GAUSSIAN/G16_RevA03/g16/l101.exe)
 ------------
 Gaussian run
 ------------
 Symbolic Z-matrix:
 Charge =  0 Multiplicity = 1
 C                     3.69309  -3.63054  -0.43617 
 H                     3.86678  -3.73465  -1.50636 
 H                     4.42135  -4.24134   0.09863 
 C                     1.91602  -1.47609   1.19836 
 H                     1.28598  -2.36148   1.05644 
 O                     1.48574  -0.71277   2.2864 
 H                     0.546    -0.47952   2.16967 
 C                     3.36876  -1.89205   1.39643 
 H                     3.4672   -2.77284   2.03857 
 O                     4.11001  -0.80888   1.90845 
 H                     3.56063  -0.38569   2.58105 
 C                     2.00569  -0.69526  -0.12148 
 H                     2.31023   0.33356   0.09638 
 C                     3.8221   -2.17488  -0.03313 
 H                     4.85085  -1.83048  -0.15262 
 O                     2.98351  -1.37199  -0.87832 
 N                     0.78034  -0.62429  -0.8741 
 C                     0.19283  -1.79764  -1.34653 
 H                     0.73611  -2.7029   -1.11642 
 C                    -0.92582  -1.80696  -2.06321 
 H                    -1.30872  -2.75928  -2.40416 
 C                    -1.66627  -0.55443  -2.44024 
 H                    -1.77377  -0.50879  -3.53307 
 H                    -2.68945  -0.58593  -2.04161 
 C                    -0.93734   0.66101  -1.92089 
 C                     0.19758   0.56267  -1.20677 
 H                     0.68442   1.46406  -0.85279 
 C                    -1.46232   2.02176  -2.14778 
 O                    -0.91398   3.03985  -1.7661 
 N                    -2.67506   2.07768  -2.79182 
 H                    -2.97642   2.99369  -3.08059 
 H                    -3.02666   1.28772  -3.30205 
 H                     2.69408  -4.01154  -0.21199 
 C                     0.23432   2.22918   2.6979 
 C                    -1.73665   0.92683   1.34354 
 C                    -2.99666   0.88188   0.57408 
 C                    -4.92241  -0.40663  -0.35765 
 C                    -3.6298   -0.26943   0.37254 
 O                    -1.12758  -0.06329   1.70351 
 S                    -1.23477   2.5637    1.7194 
 H                     0.54859   3.18154   3.11901 
 H                     1.02791   1.823     2.07474 
 H                    -5.70831  -0.74257   0.32326 
 H                    -5.22878   0.53765  -0.80626 
 H                    -4.84612  -1.16386  -1.14107 
 H                    -3.17519  -1.17098   0.77461 
 H                    -3.38329   1.82335   0.19778 
 H                     0.00161   1.52813   3.49666 
 
 ITRead=  0  0  0  0  0  0  0  0  0  0  0  0  0  0  0  0  0  0  0  0
 ITRead=  0  0  0  0  0  0  0  0  0  0  0  0  0  0  0  0  0  0  0  0
 ITRead=  0  0  0  0  0  0  0  0
 MicOpt= -1 -1 -1 -1 -1 -1 -1 -1 -1 -1 -1 -1 -1 -1 -1 -1 -1 -1 -1 -1
 MicOpt= -1 -1 -1 -1 -1 -1 -1 -1 -1 -1 -1 -1 -1 -1 -1 -1 -1 -1 -1 -1
 MicOpt= -1 -1 -1 -1 -1 -1 -1 -1
 NAtoms=     48 NQM=       48 NQMF=       0 NMMI=      0 NMMIF=      0
                NMic=       0 NMicF=      0.
                    Isotopes and Nuclear Properties:
 (Nuclear quadrupole moments (NQMom) in fm**2, nuclear magnetic moments (NMagM)
  in nuclear magnetons)

  Atom         1           2           3           4           5           6           7           8           9          10
 IAtWgt=          12           1           1          12           1          16           1          12           1          16
 AtmWgt=  12.0000000   1.0078250   1.0078250  12.0000000   1.0078250  15.9949146   1.0078250  12.0000000   1.0078250  15.9949146
 NucSpn=           0           1           1           0           1           0           1           0           1           0
 AtZEff=  -0.0000000  -0.0000000  -0.0000000  -0.0000000  -0.0000000  -0.0000000  -0.0000000  -0.0000000  -0.0000000  -0.0000000
 NQMom=    0.0000000   0.0000000   0.0000000   0.0000000   0.0000000   0.0000000   0.0000000   0.0000000   0.0000000   0.0000000
 NMagM=    0.0000000   2.7928460   2.7928460   0.0000000   2.7928460   0.0000000   2.7928460   0.0000000   2.7928460   0.0000000
 AtZNuc=   6.0000000   1.0000000   1.0000000   6.0000000   1.0000000   8.0000000   1.0000000   6.0000000   1.0000000   8.0000000

  Atom        11          12          13          14          15          16          17          18          19          20
 IAtWgt=           1          12           1          12           1          16          14          12           1          12
 AtmWgt=   1.0078250  12.0000000   1.0078250  12.0000000   1.0078250  15.9949146  14.0030740  12.0000000   1.0078250  12.0000000
 NucSpn=           1           0           1           0           1           0           2           0           1           0
 AtZEff=  -0.0000000  -0.0000000  -0.0000000  -0.0000000  -0.0000000  -0.0000000  -0.0000000  -0.0000000  -0.0000000  -0.0000000
 NQMom=    0.0000000   0.0000000   0.0000000   0.0000000   0.0000000   0.0000000   2.0440000   0.0000000   0.0000000   0.0000000
 NMagM=    2.7928460   0.0000000   2.7928460   0.0000000   2.7928460   0.0000000   0.4037610   0.0000000   2.7928460   0.0000000
 AtZNuc=   1.0000000   6.0000000   1.0000000   6.0000000   1.0000000   8.0000000   7.0000000   6.0000000   1.0000000   6.0000000

  Atom        21          22          23          24          25          26          27          28          29          30
 IAtWgt=           1          12           1           1          12          12           1          12          16          14
 AtmWgt=   1.0078250  12.0000000   1.0078250   1.0078250  12.0000000  12.0000000   1.0078250  12.0000000  15.9949146  14.0030740
 NucSpn=           1           0           1           1           0           0           1           0           0           2
 AtZEff=  -0.0000000  -0.0000000  -0.0000000  -0.0000000  -0.0000000  -0.0000000  -0.0000000  -0.0000000  -0.0000000  -0.0000000
 NQMom=    0.0000000   0.0000000   0.0000000   0.0000000   0.0000000   0.0000000   0.0000000   0.0000000   0.0000000   2.0440000
 NMagM=    2.7928460   0.0000000   2.7928460   2.7928460   0.0000000   0.0000000   2.7928460   0.0000000   0.0000000   0.4037610
 AtZNuc=   1.0000000   6.0000000   1.0000000   1.0000000   6.0000000   6.0000000   1.0000000   6.0000000   8.0000000   7.0000000

  Atom        31          32          33          34          35          36          37          38          39          40
 IAtWgt=           1           1           1          12          12          12          12          12          16          32
 AtmWgt=   1.0078250   1.0078250   1.0078250  12.0000000  12.0000000  12.0000000  12.0000000  12.0000000  15.9949146  31.9720718
 NucSpn=           1           1           1           0           0           0           0           0           0           0
 AtZEff=  -0.0000000  -0.0000000  -0.0000000  -0.0000000  -0.0000000  -0.0000000  -0.0000000  -0.0000000  -0.0000000  -0.0000000
 NQMom=    0.0000000   0.0000000   0.0000000   0.0000000   0.0000000   0.0000000   0.0000000   0.0000000   0.0000000   0.0000000
 NMagM=    2.7928460   2.7928460   2.7928460   0.0000000   0.0000000   0.0000000   0.0000000   0.0000000   0.0000000   0.0000000
 AtZNuc=   1.0000000   1.0000000   1.0000000   6.0000000   6.0000000   6.0000000   6.0000000   6.0000000   8.0000000  16.0000000

  Atom        41          42          43          44          45          46          47          48
 IAtWgt=           1           1           1           1           1           1           1           1
 AtmWgt=   1.0078250   1.0078250   1.0078250   1.0078250   1.0078250   1.0078250   1.0078250   1.0078250
 NucSpn=           1           1           1           1           1           1           1           1
 AtZEff=  -0.0000000  -0.0000000  -0.0000000  -0.0000000  -0.0000000  -0.0000000  -0.0000000  -0.0000000
 NQMom=    0.0000000   0.0000000   0.0000000   0.0000000   0.0000000   0.0000000   0.0000000   0.0000000
 NMagM=    2.7928460   2.7928460   2.7928460   2.7928460   2.7928460   2.7928460   2.7928460   2.7928460
 AtZNuc=   1.0000000   1.0000000   1.0000000   1.0000000   1.0000000   1.0000000   1.0000000   1.0000000
 Background charge distribution read from input stream:
 Leave Link  101 at Sat Aug 13 20:22:43 2022, MaxMem=  2684354560 cpu:               1.5 elap:               0.1
 (Enter /storage/apps/GAUSSIAN/G16_RevA03/g16/l103.exe)

 GradGradGradGradGradGradGradGradGradGradGradGradGradGradGradGradGradGrad
 Berny optimization.
 Initialization pass.
 Trust Radius=3.00D-01 FncErr=1.00D-07 GrdErr=1.00D-07 EigMax=2.50D+02 EigMin=1.00D-04
 Number of steps in this run=      2 maximum allowed number of steps=      2.
 GradGradGradGradGradGradGradGradGradGradGradGradGradGradGradGradGradGrad

 Leave Link  103 at Sat Aug 13 20:22:43 2022, MaxMem=  2684354560 cpu:               0.3 elap:               0.0
 (Enter /storage/apps/GAUSSIAN/G16_RevA03/g16/l202.exe)
 ---------------------------------------------------------------------------------------------------
                            Z-MATRIX (ANGSTROMS AND DEGREES)
   CD    Cent   Atom    N1       Length/X        N2       Alpha/Y        N3        Beta/Z          J
 ---------------------------------------------------------------------------------------------------
      1      1  C        0   3.693089         -3.630536         -0.436172
      2      2  H        0   3.866781         -3.734650         -1.506360
      3      3  H        0   4.421347         -4.241342          0.098632
      4      4  C        0   1.916020         -1.476088          1.198359
      5      5  H        0   1.285980         -2.361482          1.056436
      6      6  O        0   1.485741         -0.712768          2.286404
      7      7  H        0   0.545997         -0.479519          2.169669
      8      8  C        0   3.368764         -1.892054          1.396433
      9      9  H        0   3.467202         -2.772839          2.038573
     10     10  O        0   4.110005         -0.808883          1.908447
     11     11  H        0   3.560633         -0.385686          2.581054
     12     12  C        0   2.005685         -0.695257         -0.121478
     13     13  H        0   2.310234          0.333564          0.096381
     14     14  C        0   3.822101         -2.174883         -0.033126
     15     15  H        0   4.850848         -1.830481         -0.152623
     16     16  O        0   2.983511         -1.371991         -0.878323
     17     17  N        0   0.780342         -0.624293         -0.874104
     18     18  C        0   0.192832         -1.797641         -1.346525
     19     19  H        0   0.736111         -2.702898         -1.116416
     20     20  C        0  -0.925824         -1.806956         -2.063207
     21     21  H        0  -1.308716         -2.759283         -2.404157
     22     22  C        0  -1.666270         -0.554425         -2.440235
     23     23  H        0  -1.773765         -0.508787         -3.533070
     24     24  H        0  -2.689449         -0.585926         -2.041606
     25     25  C        0  -0.937339          0.661005         -1.920888
     26     26  C        0   0.197579          0.562670         -1.206766
     27     27  H        0   0.684416          1.464063         -0.852792
     28     28  C        0  -1.462317          2.021761         -2.147775
     29     29  O        0  -0.913977          3.039853         -1.766101
     30     30  N        0  -2.675058          2.077678         -2.791815
     31     31  H        0  -2.976421          2.993689         -3.080591
     32     32  H        0  -3.026664          1.287717         -3.302046
     33     33  H        0   2.694076         -4.011535         -0.211992
     34     34  C        0   0.234316          2.229177          2.697901
     35     35  C        0  -1.736653          0.926827          1.343536
     36     36  C        0  -2.996662          0.881878          0.574082
     37     37  C        0  -4.922405         -0.406626         -0.357647
     38     38  C        0  -3.629799         -0.269427          0.372539
     39     39  O        0  -1.127584         -0.063289          1.703509
     40     40  S        0  -1.234771          2.563699          1.719395
     41     41  H        0   0.548586          3.181536          3.119013
     42     42  H        0   1.027914          1.822996          2.074738
     43     43  H        0  -5.708314         -0.742567          0.323258
     44     44  H        0  -5.228778          0.537649         -0.806261
     45     45  H        0  -4.846123         -1.163860         -1.141068
     46     46  H        0  -3.175187         -1.170975          0.774607
     47     47  H        0  -3.383287          1.823345          0.197780
     48     48  H        0   0.001610          1.528131          3.496659
 ---------------------------------------------------------------------------------------------------
                         Z-Matrix orientation:                         
 ---------------------------------------------------------------------
 Center     Atomic      Atomic             Coordinates (Angstroms)
 Number     Number       Type             X           Y           Z
 ---------------------------------------------------------------------
      1          6           0        3.693089   -3.630536   -0.436172
      2          1           0        3.866781   -3.734650   -1.506360
      3          1           0        4.421347   -4.241342    0.098632
      4          6           0        1.916020   -1.476088    1.198359
      5          1           0        1.285980   -2.361482    1.056436
      6          8           0        1.485741   -0.712768    2.286404
      7          1           0        0.545997   -0.479519    2.169669
      8          6           0        3.368764   -1.892054    1.396433
      9          1           0        3.467202   -2.772839    2.038573
     10          8           0        4.110005   -0.808883    1.908447
     11          1           0        3.560633   -0.385686    2.581054
     12          6           0        2.005685   -0.695257   -0.121478
     13          1           0        2.310234    0.333564    0.096381
     14          6           0        3.822101   -2.174883   -0.033126
     15          1           0        4.850848   -1.830481   -0.152623
     16          8           0        2.983511   -1.371991   -0.878323
     17          7           0        0.780342   -0.624293   -0.874104
     18          6           0        0.192832   -1.797641   -1.346525
     19          1           0        0.736111   -2.702898   -1.116416
     20          6           0       -0.925824   -1.806956   -2.063207
     21          1           0       -1.308716   -2.759283   -2.404157
     22          6           0       -1.666270   -0.554425   -2.440235
     23          1           0       -1.773765   -0.508787   -3.533070
     24          1           0       -2.689449   -0.585926   -2.041606
     25          6           0       -0.937339    0.661005   -1.920888
     26          6           0        0.197579    0.562670   -1.206766
     27          1           0        0.684416    1.464063   -0.852792
     28          6           0       -1.462317    2.021761   -2.147775
     29          8           0       -0.913977    3.039853   -1.766101
     30          7           0       -2.675058    2.077678   -2.791815
     31          1           0       -2.976421    2.993689   -3.080591
     32          1           0       -3.026664    1.287717   -3.302046
     33          1           0        2.694076   -4.011535   -0.211992
     34          6           0        0.234316    2.229177    2.697901
     35          6           0       -1.736653    0.926827    1.343536
     36          6           0       -2.996662    0.881878    0.574082
     37          6           0       -4.922405   -0.406626   -0.357647
     38          6           0       -3.629799   -0.269427    0.372539
     39          8           0       -1.127584   -0.063289    1.703509
     40         16           0       -1.234771    2.563699    1.719395
     41          1           0        0.548586    3.181536    3.119013
     42          1           0        1.027914    1.822996    2.074738
     43          1           0       -5.708314   -0.742567    0.323258
     44          1           0       -5.228778    0.537649   -0.806261
     45          1           0       -4.846123   -1.163860   -1.141068
     46          1           0       -3.175187   -1.170975    0.774607
     47          1           0       -3.383287    1.823345    0.197780
     48          1           0        0.001610    1.528131    3.496659
 ---------------------------------------------------------------------
                    Distance matrix (angstroms):
                    1          2          3          4          5
     1  C    0.000000
     2  H    1.089179   0.000000
     3  H    1.090623   1.772083   0.000000
     4  C    3.235941   4.027664   3.890076   0.000000
     5  H    3.103635   3.887679   3.779125   1.095908   0.000000
     6  O    4.560502   5.402424   5.084778   1.397011   2.066636
     7  H    5.159797   5.927620   5.784362   1.952833   2.308386
     8  C    2.546752   3.474102   2.882945   1.524049   2.161932
     9  H    2.628884   3.694766   2.613478   2.189449   2.427249
    10  O    3.692260   4.503352   3.892832   2.400616   3.333407
    11  H    4.432860   5.293037   4.665762   2.409476   3.376726
    12  C    3.400328   3.823544   4.296346   1.536134   2.163738
    13  H    4.232020   4.641334   5.038509   2.155134   3.038762
    14  C    1.515921   2.145993   2.155623   2.374450   2.766564
    15  H    2.158936   2.535124   2.461676   3.250225   3.801588
    16  O    2.408324   2.599376   3.354846   2.337302   2.757534
    17  N    4.208726   4.427208   5.223617   2.512055   2.645842
    18  C    4.054633   4.156375   5.093181   3.090179   2.699465
    19  H    3.172848   3.319287   4.174220   2.873227   2.267202
    20  C    5.225614   5.195685   6.260353   4.338590   3.864162
    21  H    5.445191   5.342579   6.426047   5.002363   4.343547
    22  C    6.496265   6.449853   7.556341   5.188606   4.920157
    23  H    7.015881   6.806578   8.093247   6.077549   5.818770
    24  H    7.251473   7.292812   8.276841   5.700886   5.343641
    25  C    6.485566   6.524813   7.538367   4.736932   4.789889
    26  C    5.513201   5.658600   6.528615   3.590849   3.854525
    27  H    5.931326   6.130352   6.886328   3.790588   4.317618
    28  C    7.839404   7.870640   8.882021   5.902942   6.085468
    29  O    8.215099   8.295601   9.217305   6.098412   6.479270
    30  N    8.870516   8.844841   9.931952   7.044767   7.085549
    31  H    9.765023   9.725130  10.824976   7.888238   7.997557
    32  H    8.806675   8.715976   9.879675   7.233422   7.135259
    33  H    1.092449   1.768415   1.769961   3.003823   2.512831
    34  C    7.491446   8.150941   8.133575   4.336559   4.987440
    35  C    7.308831   7.826222   8.135153   4.374597   4.475680
    36  C    8.132359   8.529210   9.027751   5.484904   5.393799
    37  C    9.199266   9.468108  10.110338   7.094291   6.660716
    38  C    8.097886   8.469755   8.981764   5.735339   5.386028
    39  O    6.367289   6.980389   7.128983   3.393332   3.394950
    40  S    8.203586   8.723562   8.995951   5.149645   5.572352
    41  H    8.302504   8.957573   8.900567   5.220369   5.960119
    42  H    6.568778   7.195197   7.224720   3.527142   4.314324
    43  H    9.864252  10.197181  10.719231   7.709366   7.216549
    44  H    9.854463  10.073325  10.806595   7.689069   7.369985
    45  H    8.916250   9.091595   9.843462   7.162191   6.623142
    46  H    7.395177   7.833553   8.221400   5.117914   4.625878
    47  H    8.956663   9.292948   9.884461   6.322189   6.328675
    48  H    7.463647   8.225972   8.022935   4.239396   4.767954
                    6          7          8          9         10
     6  O    0.000000
     7  H    0.975270   0.000000
     8  C    2.393437   3.249794   0.000000
     9  H    2.869059   3.716173   1.094448   0.000000
    10  O    2.653083   3.588714   1.408849   2.070568   0.000000
    11  H    2.121079   3.044022   1.925950   2.449799   0.966077
    12  C    2.463442   2.725176   2.365240   3.334396   2.926033
    13  H    2.563357   2.841155   2.786395   3.841930   2.797846
    14  C    3.602302   4.296443   1.526154   2.185278   2.391349
    15  H    4.303729   5.074434   2.144747   2.757509   2.416717
    16  O    3.562778   4.003528   2.365037   3.271791   3.058131
    17  N    3.239479   3.056212   3.669126   4.507677   4.343192
    18  C    4.005838   3.771709   4.197532   4.809511   5.188134
    19  H    4.012698   3.972142   3.728638   4.173452   4.911237
    20  C    5.092348   4.673926   5.515418   6.087381   6.490744
    21  H    5.830830   5.436650   6.088956   6.522839   7.194800
    22  C    5.683429   5.113800   6.469995   7.164748   7.234717
    23  H    6.673250   6.156572   7.256654   7.977272   8.019907
    24  H    6.014979   5.311711   7.087173   7.702909   7.866715
    25  C    5.045778   4.498193   6.005435   6.846064   6.503850
    26  C    3.935523   3.550756   4.781080   5.687555   5.185826
    27  H    3.903238   3.596101   4.850594   5.835686   4.952311
    28  C    5.985870   5.378666   7.156724   8.050705   7.450923
    29  O    6.021927   5.477937   7.257217   8.213261   7.318160
    30  N    7.133523   6.444438   8.356314   9.197147   8.744243
    31  H    7.902743   7.213587   9.174726  10.048829   9.464010
    32  H    7.456173   6.769542   8.549161   9.337056   9.081686
    33  H    4.310907   4.770921   2.744892   2.682748   4.093665
    34  C    3.223420   2.777266   5.338832   5.992197   4.987385
    35  C    3.736455   2.805494   5.832167   6.422672   6.124967
    36  C    5.056370   4.117005   6.992110   7.568568   7.425895
    37  C    6.938953   6.024621   8.603881   9.040262   9.321020
    38  C    5.479797   4.550944   7.256801   7.707799   7.909146
    39  O    2.755187   1.786456   4.863725   5.344716   5.294360
    40  S    4.296268   3.554583   6.414871   7.119625   6.322711
    41  H    4.091100   3.782140   6.054915   6.718650   5.483851
    42  H    2.585441   2.354322   4.443115   5.203185   4.056319
    43  H    7.457161   6.526472   9.212295   9.552717   9.945683
    44  H    7.497525   6.575623   9.201796   9.729978   9.818129
    45  H    7.214122   6.364296   8.628647   9.044905   9.467723
    46  H    4.921355   4.033797   6.612860   6.948734   7.381783
    47  H    5.873811   4.962943   7.799433   8.452374   8.124311
    48  H    2.947709   2.467371   5.238926   5.712678   4.986277
                   11         12         13         14         15
    11  H    0.000000
    12  C    3.133269   0.000000
    13  H    2.873050   1.094845   0.000000
    14  C    3.178605   2.344454   2.931692   0.000000
    15  H    3.350385   3.063439   3.346612   1.091427   0.000000
    16  O    3.643234   1.409584   2.076600   1.436046   2.055189
    17  N    4.441291   1.439773   2.049366   3.516230   4.306326
    18  C    5.362982   2.449985   3.332777   3.878005   4.808700
    19  H    5.197950   2.575333   3.628890   3.312952   4.315214
    20  C    6.611918   3.687808   4.440464   5.176813   6.084474
    21  H    7.361851   4.522840   5.377285   5.682305   6.623617
    22  C    7.249988   4.345080   4.799534   6.208242   7.023839
    23  H    8.115015   5.094897   5.528247   6.807290   7.553793
    24  H    7.776413   5.073769   5.514824   6.997075   7.872309
    25  C    6.449403   3.706577   3.837098   5.853048   6.545027
    26  C    5.153357   2.455499   2.492788   4.691352   5.337724
    27  H    4.846183   2.635002   2.195960   4.874305   5.357557
    28  C    7.306685   4.849237   4.703019   7.071678   7.660056
    29  O    7.117177   5.017993   4.603083   7.254454   7.717297
    30  N    8.591841   6.060464   6.019697   8.240614   8.881346
    31  H    9.284798   6.869210   6.717004   9.067584   9.649443
    32  H    8.989084   6.274770   6.398609   8.341524   9.038651
    33  H    4.658198   3.388182   4.372907   2.162805   3.067929
    34  C    4.232676   4.431587   3.830234   6.302893   6.776332
    35  C    5.596015   4.333880   4.276056   6.512722   7.296328
    36  C    6.973720   5.290996   5.356491   7.497201   8.334771
    37  C    8.977658   6.938120   7.284579   8.927398   9.878556
    38  C    7.522856   5.673100   5.976943   7.702346   8.639101
    39  O    4.780523   3.680671   3.815619   5.654566   6.504602
    40  S    5.695369   4.950774   4.491630   7.148248   7.736151
    41  H    4.699670   5.258654   4.511170   7.024465   7.371118
    42  H    3.398426   3.481523   2.788664   5.313531   5.737931
    43  H    9.546643   7.726953   8.093617   9.644032  10.625720
    44  H    9.464682   7.370647   7.595598   9.480189  10.374688
    45  H    9.226770   6.943085   7.415322   8.797034   9.769987
    46  H    7.017920   5.279272   5.728304   7.114935   8.106290
    47  H    7.666671   5.957038   5.886078   8.243589   9.015221
    48  H    4.143389   4.695816   4.280026   6.384970   6.936328
                   16         17         18         19         20
    16  O    0.000000
    17  N    2.326591   0.000000
    18  C    2.861517   1.394667   0.000000
    19  H    2.622748   2.093148   1.080552   0.000000
    20  C    4.108046   2.392417   1.328575   2.112144   0.000000
    21  H    4.761928   3.356100   2.073159   2.417183   1.081564
    22  C    4.972771   2.905780   2.489588   3.484231   1.503078
    23  H    5.515839   3.688754   3.210861   4.117501   2.136526
    24  H    5.844108   3.661145   3.202957   4.131829   2.145170
    25  C    4.537960   2.387085   2.766246   3.842324   2.472088
    26  C    3.407669   1.363509   2.364450   3.310908   2.758741
    27  H    3.650985   2.090667   3.335287   4.175612   3.841555
    28  C    5.735368   3.695045   4.239027   5.312174   3.867047
    29  O    5.953397   4.134289   4.980203   6.010330   4.855921
    30  N    6.897903   4.787280   5.033066   6.107122   4.322160
    31  H    7.709081   5.663183   6.000666   7.077569   5.318478
    32  H    7.005047   4.903466   4.869153   5.904275   3.940210
    33  H    2.737693   3.946413   3.527707   2.522725   4.625023
    34  C    5.771989   4.604308   5.707396   6.255092   6.348578
    35  C    5.700980   3.695831   4.287431   5.033968   4.442624
    36  C    6.553768   4.316428   4.587093   5.444446   4.298080
    37  C    7.981638   5.730221   5.392444   6.153649   4.565361
    38  C    6.820277   4.596672   4.461292   5.215356   3.950739
    39  O    5.027888   3.255610   3.748891   4.288691   4.155626
    40  S    6.327061   4.577140   5.518986   6.297876   5.788450
    41  H    6.530097   5.521144   6.697745   7.252626   7.342639
    42  H    4.769997   3.840076   5.050883   5.545478   5.840910
    43  H    8.797033   6.599267   6.222932   6.888118   5.449803
    44  H    8.431703   6.120803   5.927843   6.795384   5.058903
    45  H    7.836806   5.658579   5.082810   5.790560   4.078315
    46  H    6.379823   4.320106   4.029325   4.606627   3.676587
    47  H    7.204463   4.947290   5.318369   6.259667   4.932573
    48  H    6.036796   4.933855   5.878244   6.302504   6.549431
                   21         22         23         24         25
    21  H    0.000000
    22  C    2.233953   0.000000
    23  H    2.560361   1.099057   0.000000
    24  H    2.600259   1.098541   1.751825   0.000000
    25  C    3.474167   1.509414   2.160359   2.153903   0.000000
    26  C    3.839016   2.498656   3.232013   3.217322   1.344499
    27  H    4.920971   3.481378   4.137473   4.122948   2.101385
    28  C    4.790376   2.600743   2.901675   2.883948   1.476054
    29  O    5.847471   3.733529   4.056385   4.046539   2.383993
    30  N    5.041167   2.840639   2.837532   2.767274   2.405233
    31  H    6.027893   3.836100   3.730745   3.738380   3.308199
    32  H    4.487289   2.446810   2.202397   2.283191   2.581791
    33  H    4.732448   5.994105   6.577264   6.638119   6.159556
    34  C    7.300457   6.145007   7.096044   6.239882   5.016488
    35  C    5.274063   4.063986   5.083665   3.828241   3.371354
    36  C    4.997712   3.594303   4.505344   3.015071   3.242603
    37  C    4.773044   3.868001   4.472995   2.802492   4.411837
    38  C    4.392818   3.442146   4.330813   2.610082   3.657164
    39  O    4.916718   4.207376   5.295071   4.091266   3.700952
    40  S    6.733742   5.216456   6.108934   5.116772   4.118297
    41  H    8.321557   7.054660   7.953742   7.163144   5.827663
    42  H    6.820383   5.770246   6.688358   6.046981   4.601898
    43  H    5.555394   4.900042   5.514217   3.838055   5.456043
    44  H    5.365624   4.068656   4.524117   3.039192   4.435545
    45  H    4.080933   3.488655   3.948440   2.407534   4.383702
    46  H    4.013848   3.604466   4.578052   2.917067   3.953455
    47  H    5.663427   3.944751   4.684938   3.361673   3.438379
    48  H    7.410702   6.508884   7.531141   6.510255   5.566269
                   26         27         28         29         30
    26  C    0.000000
    27  H    1.083890   0.000000
    28  C    2.402020   2.568360   0.000000
    29  O    2.772156   2.423243   1.217729   0.000000
    30  N    3.613817   3.927136   1.374283   2.253725   0.000000
    31  H    4.415354   4.550228   2.026648   2.446158   1.006622
    32  H    3.913008   4.449950   2.078062   3.145243   1.003992
    33  H    5.305226   5.867839   7.577831   8.071888   8.518310
    34  C    4.245588   3.659974   5.138303   4.680073   6.214852
    35  C    3.221475   3.312711   3.669250   3.848573   4.393881
    36  C    3.671034   3.990645   3.325967   3.804062   3.586451
    37  C    5.279657   5.931365   4.590624   5.470782   4.140955
    38  C    4.223199   4.808209   4.037264   4.785478   4.053834
    39  O    3.258463   3.485803   4.392251   4.659754   5.214053
    40  S    3.823370   3.392436   3.911583   3.532466   4.760426
    41  H    5.068928   4.329365   5.755681   5.101324   6.822629
    42  H    3.611945   2.969386   4.906157   4.472552   6.120474
    43  H    6.238925   6.864350   5.637021   6.454285   5.182480
    44  H    5.441175   5.985505   4.264795   5.079353   3.582681
    45  H    5.331431   6.129922   4.755185   5.789960   4.236279
    46  H    4.278658   4.948574   4.654869   5.412886   4.850076
    47  H    4.047796   4.216514   3.038276   3.381451   3.082848
    48  H    4.805489   4.403187   5.852041   5.551598   6.856490
                   31         32         33         34         35
    31  H    0.000000
    32  H    1.721019   0.000000
    33  H    9.458148   8.387930   0.000000
    34  C    6.654644   6.893454   7.311934   0.000000
    35  C    5.038040   4.834853   6.814576   2.723075   0.000000
    36  C    4.220994   3.897432   7.546383   4.094513   1.477059
    37  C    4.771103   3.890259   8.427774   6.547946   3.849823
    38  C    4.795721   4.036217   7.371326   5.155746   2.440873
    39  O    5.970840   5.521531   5.819182   2.845872   1.216912
    40  S    5.124266   5.482142   7.899354   1.796551   1.752856
    41  H    7.134147   7.589398   8.212125   1.087699   3.668562
    42  H    6.631941   6.755437   6.484364   1.087710   2.996766
    43  H    5.745349   4.945314   9.031766   7.055852   4.427407
    44  H    4.034578   3.411869   9.155318   6.707147   4.119226
    45  H    4.954064   3.740386   8.113386   7.215348   4.495891
    46  H    5.678599   4.763016   6.594726   5.185056   2.606498
    47  H    3.504706   3.558491   8.434932   4.416147   2.197249
    48  H    7.367275   7.446518   7.189671   1.087948   2.831795
                   36         37         38         39         40
    36  C    0.000000
    37  C    2.497368   0.000000
    38  C    1.329280   1.490914   0.000000
    39  O    2.379579   4.332079   2.841664   0.000000
    40  S    2.691565   5.170646   3.946743   2.629222   0.000000
    41  H    4.932939   7.409036   6.075456   3.916898   2.349684
    42  H    4.397145   6.803970   5.382379   2.888261   2.407209
    43  H    3.170929   1.092768   2.132256   4.832142   5.735258
    44  H    2.646919   1.089392   2.144219   4.845603   5.141586
    45  H    3.247659   1.092232   2.137864   4.809408   5.926112
    46  H    2.070335   2.217882   1.086793   2.506493   4.313424
    47  H    1.085100   2.765891   2.114475   3.303756   2.734878
    48  H    4.236595   6.545600   5.116490   2.650110   2.399939
                   41         42         43         44         45
    41  H    0.000000
    42  H    1.779297   0.000000
    43  H    7.897065   7.417989   0.000000
    44  H    7.468323   7.007030   1.773336   0.000000
    45  H    8.132259   7.332600   1.750746   1.775853   0.000000
    46  H    6.189271   5.321678   2.608444   3.104155   2.542024
    47  H    5.083100   4.793920   3.464881   2.463118   3.585498
    48  H    1.782007   1.778231   6.915907   6.844935   7.228820
                   46         47         48
    46  H    0.000000
    47  H    3.056466   0.000000
    48  H    4.978632   4.735745   0.000000
 Stoichiometry    C16H24N2O5S
 Framework group  C1[X(C16H24N2O5S)]
 Deg. of freedom   138
 Full point group                 C1      NOp   1
 Largest Abelian subgroup         C1      NOp   1
 Largest concise Abelian subgroup C1      NOp   1
                         Standard orientation:                         
 ---------------------------------------------------------------------
 Center     Atomic      Atomic             Coordinates (Angstroms)
 Number     Number       Type             X           Y           Z
 ---------------------------------------------------------------------
      1          6           0        4.788908   -1.872069    0.607513
      2          1           0        4.791370   -2.825701    0.081309
      3          1           0        5.800369   -1.661351    0.956803
      4          6           0        2.555437    0.467916    0.693492
      5          1           0        2.387728   -0.160423    1.575579
      6          8           0        2.030790    1.750137    0.873198
      7          1           0        1.085320    1.686122    1.103718
      8          6           0        4.045669    0.553723    0.385968
      9          1           0        4.653053    0.663092    1.289815
     10          8           0        4.287234    1.609416   -0.515150
     11          1           0        3.738844    2.352229   -0.230892
     12          6           0        2.033134   -0.255784   -0.556774
     13          1           0        1.865984    0.481899   -1.348336
     14          6           0        4.307324   -0.773861   -0.319867
     15          1           0        5.021884   -0.609764   -1.128377
     16          8           0        3.054889   -1.162072   -0.905467
     17          7           0        0.797140   -0.971947   -0.376840
     18          6           0        0.737864   -2.026139    0.534347
     19          1           0        1.667662   -2.242592    1.040525
     20          6           0       -0.361954   -2.743032    0.738246
     21          1           0       -0.320586   -3.553995    1.452675
     22          6           0       -1.649420   -2.492741    0.004060
     23          1           0       -1.964282   -3.414264   -0.505433
     24          1           0       -2.451460   -2.257984    0.717092
     25          6           0       -1.477879   -1.364453   -0.983802
     26          6           0       -0.315014   -0.703177   -1.118483
     27          1           0       -0.240254    0.102151   -1.840060
     28          6           0       -2.600105   -0.911481   -1.828883
     29          8           0       -2.520318   -0.017539   -2.651904
     30          7           0       -3.798322   -1.541268   -1.591606
     31          1           0       -4.533478   -1.348181   -2.251568
     32          1           0       -3.835279   -2.411595   -1.092440
     33          1           0        4.136189   -1.962600    1.478837
     34          6           0       -0.331218    3.491166   -0.461033
     35          6           0       -1.695964    1.494261    0.789958
     36          6           0       -2.912018    0.701560    1.062979
     37          6           0       -4.166265   -0.922587    2.486305
     38          6           0       -2.971386   -0.113599    2.111300
     39          8           0       -0.646219    1.351511    1.388735
     40         16           0       -1.941463    2.694485   -0.463716
     41          1           0       -0.417560    4.364690   -1.103363
     42          1           0        0.430781    2.820907   -0.852470
     43          1           0       -4.570586   -0.580453    3.442135
     44          1           0       -4.948062   -0.852333    1.730903
     45          1           0       -3.896316   -1.972257    2.621553
     46          1           0       -2.088839   -0.188823    2.741038
     47          1           0       -3.749037    0.825183    0.383599
     48          1           0       -0.065465    3.796937    0.548676
 ---------------------------------------------------------------------
 Rotational constants (GHZ):           0.3259104           0.1596623           0.1373601
 Leave Link  202 at Sat Aug 13 20:22:43 2022, MaxMem=  2684354560 cpu:               0.2 elap:               0.0
 (Enter /storage/apps/GAUSSIAN/G16_RevA03/g16/l301.exe)
 Standard basis: def2TZVP (5D, 7F)
 Ernie: Thresh=  0.10000D-02 Tol=  0.10000D-05 Strict=F.
 There are  1014 symmetry adapted cartesian basis functions of A   symmetry.
 There are   894 symmetry adapted basis functions of A   symmetry.
   894 basis functions,  1434 primitive gaussians,  1014 cartesian basis functions
    95 alpha electrons       95 beta electrons
       nuclear repulsion energy      2470.7031985606 Hartrees.
 IExCor= 4336 DFT=T Ex+Corr=M062X ExCW=0 ScaHFX=  0.540000
 ScaDFX=  1.000000  1.000000  1.000000  1.000000 ScalE2=  1.000000  1.000000
 IRadAn=      5 IRanWt=     -1 IRanGd=            0 ICorTp=0 IEmpDi=131
 NAtoms=   48 NActive=   48 NUniq=   48 SFac= 1.00D+00 NAtFMM=   60 NAOKFM=F Big=F
 Integral buffers will be    131072 words long.
 Raffenetti 2 integral format.
 Two-electron integral symmetry is turned on.
 R6Disp:  Grimme-D3 Dispersion energy=       -0.0043482180 Hartrees.
 Nuclear repulsion after empirical dispersion term =     2470.6988503426 Hartrees.
 Leave Link  301 at Sat Aug 13 20:22:43 2022, MaxMem=  2684354560 cpu:               0.8 elap:               0.1
 (Enter /storage/apps/GAUSSIAN/G16_RevA03/g16/l302.exe)
 NPDir=0 NMtPBC=     1 NCelOv=     1 NCel=       1 NClECP=     1 NCelD=      1
         NCelK=      1 NCelE2=     1 NClLst=     1 CellRange=     0.0.
 One-electron integrals computed using PRISM.
 One-electron integral symmetry used in STVInt
   1 Symmetry operations used in ECPInt.
 ECPInt:  NShTT=   65703 NPrTT=  200010 LenC2=   56692 LenP2D=  120365.
 LDataN:  DoStor=T MaxTD1= 6 Len=  172
 NBasis=   894 RedAO= T EigKep=  3.18D-05  NBF=   894
 NBsUse=   894 1.00D-06 EigRej= -1.00D+00 NBFU=   894
 Precomputing XC quadrature grid using
 IXCGrd= 4 IRadAn=           5 IRanWt=          -1 IRanGd=           0 AccXCQ= 0.00D+00.
 Generated NRdTot=       0 NPtTot=           0 NUsed=           0 NTot=          32
 NSgBfM=   998   998   998   998   998 MxSgAt=    48 MxSgA2=    48.
 Leave Link  302 at Sat Aug 13 20:22:44 2022, MaxMem=  2684354560 cpu:              18.9 elap:               1.2
 (Enter /storage/apps/GAUSSIAN/G16_RevA03/g16/l303.exe)
 DipDrv:  MaxL=1.
 Leave Link  303 at Sat Aug 13 20:22:44 2022, MaxMem=  2684354560 cpu:               2.1 elap:               0.2
 (Enter /storage/apps/GAUSSIAN/G16_RevA03/g16/l401.exe)
 ExpMin= 9.52D-02 ExpMax= 6.07D+04 ExpMxC= 2.07D+03 IAcc=3 IRadAn=         5 AccDes= 0.00D+00
 Harris functional with IExCor= 1009 and IRadAn=       5 diagonalized for initial guess.
 HarFok:  IExCor= 1009 AccDes= 0.00D+00 IRadAn=         5 IDoV= 1 UseB2=F ITyADJ=14
 ICtDFT=  3500011 ScaDFX=  1.000000  1.000000  1.000000  1.000000
 FoFCou: FMM=F IPFlag=           0 FMFlag=      100000 FMFlg1=           0
         NFxFlg=           0 DoJE=T BraDBF=F KetDBF=T FulRan=T
         wScrn=  0.000000 ICntrl=       500 IOpCl=  0 I1Cent=   200000004 NGrid=           0
         NMat0=    1 NMatS0=      1 NMatT0=    0 NMatD0=    1 NMtDS0=    0 NMtDT0=    0
 Petite list used in FoFCou.
 Harris En= -1507.25858919214    
 JPrj=0 DoOrth=F DoCkMO=F.
 Leave Link  401 at Sat Aug 13 20:22:48 2022, MaxMem=  2684354560 cpu:              61.8 elap:               3.9
 (Enter /storage/apps/GAUSSIAN/G16_RevA03/g16/l502.exe)
 Integral symmetry usage will be decided dynamically.
 Closed shell SCF:
 Using DIIS extrapolation, IDIIS=  1040.
 NGot=  2684354560 LenX=  2682272944 LenY=  2681243734
 Requested convergence on RMS density matrix=1.00D-08 within 128 cycles.
 Requested convergence on MAX density matrix=1.00D-06.
 Requested convergence on             energy=1.00D-06.
 No special actions if energy rises.
 Fock matrices will be formed incrementally for  20 cycles.
 Integral accuracy reduced to 1.0D-05 until final iterations.

 Cycle   1  Pass 0  IDiag  1:
 FoFJK:  IHMeth= 1 ICntrl=       0 DoSepK=F KAlg= 0 I1Cent=           0 FoldK=F
 IRaf= 790000000 NMat=       1 IRICut=       1 DoRegI=T DoRafI=F ISym2E= 0 IDoP0=0 IntGTp=1.
 FoFCou: FMM=F IPFlag=           0 FMFlag=      100000 FMFlg1=           0
         NFxFlg=           0 DoJE=F BraDBF=F KetDBF=F FulRan=T
         wScrn=  0.000000 ICntrl=         0 IOpCl=  0 I1Cent=           0 NGrid=           0
         NMat0=    1 NMatS0=      1 NMatT0=    0 NMatD0=    1 NMtDS0=    0 NMtDT0=    0
 Symmetry not used in FoFCou.
 E= -1507.18952339566    
 DIIS: error= 1.37D-02 at cycle   1 NSaved=   1.
 NSaved= 1 IEnMin= 1 EnMin= -1507.18952339566     IErMin= 1 ErrMin= 1.37D-02
 ErrMax= 1.37D-02  0.00D+00 EMaxC= 1.00D-01 BMatC= 1.00D+00 BMatP= 1.00D+00
 IDIUse=3 WtCom= 8.63D-01 WtEn= 1.37D-01
 Coeff-Com:  0.100D+01
 Coeff-En:   0.100D+01
 Coeff:      0.100D+01
 Gap=     0.308 Goal=   None    Shift=    0.000
 GapD=    0.308 DampG=1.000 DampE=0.500 DampFc=0.5000 IDamp=-1.
 Damping current iteration by 5.00D-01
 RMSDP=4.42D-03 MaxDP=1.73D+00              OVMax= 2.63D-01

 Cycle   2  Pass 0  IDiag  1:
 RMSU=  2.21D-03    CP:  1.02D+00
 E= -1507.53452505503     Delta-E=       -0.345001659366 Rises=F Damp=T
 DIIS: error= 3.68D-03 at cycle   2 NSaved=   2.
 NSaved= 2 IEnMin= 2 EnMin= -1507.53452505503     IErMin= 2 ErrMin= 3.68D-03
 ErrMax= 3.68D-03  0.00D+00 EMaxC= 1.00D-01 BMatC= 8.61D-02 BMatP= 1.00D+00
 IDIUse=3 WtCom= 9.63D-01 WtEn= 3.68D-02
 Coeff-Com: -0.173D-01 0.102D+01
 Coeff-En:   0.138D-01 0.986D+00
 Coeff:     -0.161D-01 0.102D+01
 Gap=     0.305 Goal=   None    Shift=    0.000
 RMSDP=1.30D-03 MaxDP=4.90D-01 DE=-3.45D-01 OVMax= 1.71D-01

 Cycle   3  Pass 0  IDiag  1:
 RMSU=  1.03D-03    CP:  1.00D+00  6.43D-01
 E= -1507.89304555543     Delta-E=       -0.358520500400 Rises=F Damp=F
 DIIS: error= 5.89D-03 at cycle   3 NSaved=   3.
 NSaved= 3 IEnMin= 3 EnMin= -1507.89304555543     IErMin= 2 ErrMin= 3.68D-03
 ErrMax= 5.89D-03  0.00D+00 EMaxC= 1.00D-01 BMatC= 5.08D-02 BMatP= 8.61D-02
 IDIUse=3 WtCom= 9.41D-01 WtEn= 5.89D-02
 Coeff-Com: -0.836D-01 0.457D+00 0.627D+00
 Coeff-En:   0.000D+00 0.000D+00 0.100D+01
 Coeff:     -0.787D-01 0.430D+00 0.649D+00
 Gap=     0.214 Goal=   None    Shift=    0.000
 RMSDP=3.62D-04 MaxDP=6.28D-02 DE=-3.59D-01 OVMax= 6.91D-02

 Cycle   4  Pass 0  IDiag  1:
 RMSU=  3.05D-04    CP:  1.01D+00  7.22D-01  9.17D-01
 E= -1507.92512485449     Delta-E=       -0.032079299064 Rises=F Damp=F
 DIIS: error= 2.15D-03 at cycle   4 NSaved=   4.
 NSaved= 4 IEnMin= 4 EnMin= -1507.92512485449     IErMin= 4 ErrMin= 2.15D-03
 ErrMax= 2.15D-03  0.00D+00 EMaxC= 1.00D-01 BMatC= 1.10D-02 BMatP= 5.08D-02
 IDIUse=3 WtCom= 9.79D-01 WtEn= 2.15D-02
 Coeff-Com: -0.355D-01 0.960D-01 0.355D+00 0.585D+00
 Coeff-En:   0.000D+00 0.000D+00 0.155D+00 0.845D+00
 Coeff:     -0.348D-01 0.939D-01 0.350D+00 0.591D+00
 Gap=     0.213 Goal=   None    Shift=    0.000
 RMSDP=1.25D-04 MaxDP=1.47D-02 DE=-3.21D-02 OVMax= 1.91D-02

 Cycle   5  Pass 0  IDiag  1:
 RMSU=  7.90D-05    CP:  1.01D+00  7.07D-01  9.44D-01  7.17D-01
 E= -1507.93324274045     Delta-E=       -0.008117885957 Rises=F Damp=F
 DIIS: error= 4.15D-04 at cycle   5 NSaved=   5.
 NSaved= 5 IEnMin= 5 EnMin= -1507.93324274045     IErMin= 5 ErrMin= 4.15D-04
 ErrMax= 4.15D-04  0.00D+00 EMaxC= 1.00D-01 BMatC= 3.93D-04 BMatP= 1.10D-02
 IDIUse=3 WtCom= 9.96D-01 WtEn= 4.15D-03
 Coeff-Com: -0.972D-02 0.165D-01 0.122D+00 0.260D+00 0.611D+00
 Coeff-En:   0.000D+00 0.000D+00 0.000D+00 0.000D+00 0.100D+01
 Coeff:     -0.968D-02 0.164D-01 0.122D+00 0.259D+00 0.613D+00
 Gap=     0.212 Goal=   None    Shift=    0.000
 RMSDP=5.00D-05 MaxDP=1.81D-02 DE=-8.12D-03 OVMax= 3.93D-03

 Cycle   6  Pass 0  IDiag  1:
 RMSU=  3.14D-05    CP:  1.01D+00  6.92D-01  9.57D-01  7.35D-01  8.84D-01
 E= -1507.93355465753     Delta-E=       -0.000311917079 Rises=F Damp=F
 DIIS: error= 1.73D-04 at cycle   6 NSaved=   6.
 NSaved= 6 IEnMin= 6 EnMin= -1507.93355465753     IErMin= 6 ErrMin= 1.73D-04
 ErrMax= 1.73D-04  0.00D+00 EMaxC= 1.00D-01 BMatC= 5.11D-05 BMatP= 3.93D-04
 IDIUse=3 WtCom= 9.98D-01 WtEn= 1.73D-03
 Coeff-Com:  0.366D-03-0.456D-02 0.125D-01 0.410D-01 0.274D+00 0.677D+00
 Coeff-En:   0.000D+00 0.000D+00 0.000D+00 0.000D+00 0.000D+00 0.100D+01
 Coeff:      0.365D-03-0.455D-02 0.125D-01 0.410D-01 0.273D+00 0.678D+00
 Gap=     0.214 Goal=   None    Shift=    0.000
 RMSDP=1.82D-05 MaxDP=2.56D-03 DE=-3.12D-04 OVMax= 3.18D-03

 Cycle   7  Pass 0  IDiag  1:
 RMSU=  1.59D-05    CP:  1.00D+00  6.89D-01  9.61D-01  7.39D-01  9.50D-01
                    CP:  1.02D+00
 E= -1507.93361500159     Delta-E=       -0.000060344059 Rises=F Damp=F
 DIIS: error= 6.34D-05 at cycle   7 NSaved=   7.
 NSaved= 7 IEnMin= 7 EnMin= -1507.93361500159     IErMin= 7 ErrMin= 6.34D-05
 ErrMax= 6.34D-05  0.00D+00 EMaxC= 1.00D-01 BMatC= 8.72D-06 BMatP= 5.11D-05
 IDIUse=1 WtCom= 1.00D+00 WtEn= 0.00D+00
 Coeff-Com:  0.178D-02-0.482D-02-0.123D-01-0.246D-01 0.117D-01 0.288D+00
 Coeff-Com:  0.740D+00
 Coeff:      0.178D-02-0.482D-02-0.123D-01-0.246D-01 0.117D-01 0.288D+00
 Coeff:      0.740D+00
 Gap=     0.214 Goal=   None    Shift=    0.000
 RMSDP=1.68D-05 MaxDP=5.72D-03 DE=-6.03D-05 OVMax= 2.08D-03

 Cycle   8  Pass 0  IDiag  1:
 RMSU=  9.49D-06    CP:  1.00D+00  6.85D-01  9.62D-01  7.44D-01  1.00D+00
                    CP:  1.22D+00  1.25D+00
 E= -1507.93362285236     Delta-E=       -0.000007850772 Rises=F Damp=F
 DIIS: error= 3.05D-05 at cycle   8 NSaved=   8.
 NSaved= 8 IEnMin= 8 EnMin= -1507.93362285236     IErMin= 8 ErrMin= 3.05D-05
 ErrMax= 3.05D-05  0.00D+00 EMaxC= 1.00D-01 BMatC= 1.93D-06 BMatP= 8.72D-06
 IDIUse=1 WtCom= 1.00D+00 WtEn= 0.00D+00
 Coeff-Com:  0.882D-03-0.159D-02-0.808D-02-0.218D-01-0.471D-01 0.852D-02
 Coeff-Com:  0.358D+00 0.712D+00
 Coeff:      0.882D-03-0.159D-02-0.808D-02-0.218D-01-0.471D-01 0.852D-02
 Coeff:      0.358D+00 0.712D+00
 Gap=     0.214 Goal=   None    Shift=    0.000
 RMSDP=1.33D-05 MaxDP=1.66D-03 DE=-7.85D-06 OVMax= 7.07D-04

 Cycle   9  Pass 0  IDiag  1:
 RMSU=  7.83D-06    CP:  1.00D+00  6.83D-01  9.62D-01  7.42D-01  1.03D+00
                    CP:  1.32D+00  1.63D+00  1.74D+00
 E= -1507.93361268432     Delta-E=        0.000010168038 Rises=F Damp=F
 DIIS: error= 2.29D-05 at cycle   9 NSaved=   9.
 NSaved= 9 IEnMin= 8 EnMin= -1507.93362285236     IErMin= 9 ErrMin= 2.29D-05
 ErrMax= 2.29D-05  0.00D+00 EMaxC= 1.00D-01 BMatC= 3.29D-07 BMatP= 1.93D-06
 IDIUse=1 WtCom= 1.00D+00 WtEn= 0.00D+00
 Coeff-Com:  0.198D-03-0.226D-03-0.181D-02-0.697D-02-0.200D-01-0.258D-01
 Coeff-Com:  0.775D-01 0.304D+00 0.673D+00
 Coeff:      0.198D-03-0.226D-03-0.181D-02-0.697D-02-0.200D-01-0.258D-01
 Coeff:      0.775D-01 0.304D+00 0.673D+00
 Gap=     0.214 Goal=   None    Shift=    0.000
 RMSDP=1.58D-05 MaxDP=9.80D-04 DE= 1.02D-05 OVMax= 2.39D-04

 Cycle  10  Pass 0  IDiag  1:
 RMSU=  5.95D-06    CP:  1.00D+00  6.82D-01  9.61D-01  7.43D-01  1.06D+00
                    CP:  1.38D+00  1.97D+00  2.67D+00  2.26D+00
 E= -1507.93359771860     Delta-E=        0.000014965717 Rises=F Damp=F
 DIIS: error= 3.58D-05 at cycle  10 NSaved=  10.
 NSaved=10 IEnMin= 8 EnMin= -1507.93362285236     IErMin= 9 ErrMin= 2.29D-05
 ErrMax= 3.58D-05  0.00D+00 EMaxC= 1.00D-01 BMatC= 4.73D-07 BMatP= 3.29D-07
 IDIUse=1 WtCom= 1.00D+00 WtEn= 0.00D+00
 Coeff-Com:  0.215D-03-0.220D-03-0.203D-02-0.791D-02-0.233D-01-0.323D-01
 Coeff-Com:  0.845D-01 0.356D+00 0.833D+00-0.208D+00
 Coeff:      0.215D-03-0.220D-03-0.203D-02-0.791D-02-0.233D-01-0.323D-01
 Coeff:      0.845D-01 0.356D+00 0.833D+00-0.208D+00
 Gap=     0.214 Goal=   None    Shift=    0.000
 RMSDP=7.29D-06 MaxDP=6.98D-04 DE= 1.50D-05 OVMax= 1.92D-05

 Initial convergence to 1.0D-05 achieved.  Increase integral accuracy.
 Cycle  11  Pass 1  IDiag  1:
 E= -1507.93365941682     Delta-E=       -0.000061698218 Rises=F Damp=F
 DIIS: error= 2.79D-04 at cycle   1 NSaved=   1.
 NSaved= 1 IEnMin= 1 EnMin= -1507.93365941682     IErMin= 1 ErrMin= 2.79D-04
 ErrMax= 2.79D-04  0.00D+00 EMaxC= 1.00D-01 BMatC= 8.68D-05 BMatP= 8.68D-05
 IDIUse=3 WtCom= 9.97D-01 WtEn= 2.79D-03
 Coeff-Com:  0.100D+01
 Coeff-En:   0.100D+01
 Coeff:      0.100D+01
 Gap=     0.214 Goal=   None    Shift=    0.000
 RMSDP=7.29D-06 MaxDP=6.98D-04 DE=-6.17D-05 OVMax= 1.01D-03

 Cycle  12  Pass 1  IDiag  1:
 RMSU=  4.01D-04    CP:  9.96D-01
 E= -1507.93371371872     Delta-E=       -0.000054301899 Rises=F Damp=F
 DIIS: error= 7.91D-06 at cycle   2 NSaved=   2.
 NSaved= 2 IEnMin= 2 EnMin= -1507.93371371872     IErMin= 2 ErrMin= 7.91D-06
 ErrMax= 7.91D-06  0.00D+00 EMaxC= 1.00D-01 BMatC= 1.27D-07 BMatP= 8.68D-05
 IDIUse=1 WtCom= 1.00D+00 WtEn= 0.00D+00
 Coeff-Com: -0.154D-01 0.102D+01
 Coeff:     -0.154D-01 0.102D+01
 Gap=     0.213 Goal=   None    Shift=    0.000
 RMSDP=1.48D-05 MaxDP=1.01D-03 DE=-5.43D-05 OVMax= 1.43D-04

 Cycle  13  Pass 1  IDiag  1:
 RMSU=  5.07D-06    CP:  9.96D-01  1.03D+00
 E= -1507.93371371722     Delta-E=        0.000000001502 Rises=F Damp=F
 DIIS: error= 8.35D-06 at cycle   3 NSaved=   3.
 NSaved= 3 IEnMin= 2 EnMin= -1507.93371371872     IErMin= 2 ErrMin= 7.91D-06
 ErrMax= 8.35D-06  0.00D+00 EMaxC= 1.00D-01 BMatC= 1.72D-07 BMatP= 1.27D-07
 IDIUse=1 WtCom= 1.00D+00 WtEn= 0.00D+00
 Coeff-Com: -0.977D-02 0.574D+00 0.436D+00
 Coeff:     -0.977D-02 0.574D+00 0.436D+00
 Gap=     0.214 Goal=   None    Shift=    0.000
 RMSDP=7.20D-07 MaxDP=2.02D-04 DE= 1.50D-09 OVMax= 1.01D-04

 Cycle  14  Pass 1  IDiag  1:
 RMSU=  6.80D-07    CP:  9.96D-01  1.04D+00  9.91D-01
 E= -1507.93371386012     Delta-E=       -0.000000142902 Rises=F Damp=F
 DIIS: error= 1.41D-06 at cycle   4 NSaved=   4.
 NSaved= 4 IEnMin= 4 EnMin= -1507.93371386012     IErMin= 4 ErrMin= 1.41D-06
 ErrMax= 1.41D-06  0.00D+00 EMaxC= 1.00D-01 BMatC= 3.97D-09 BMatP= 1.27D-07
 IDIUse=1 WtCom= 1.00D+00 WtEn= 0.00D+00
 Coeff-Com: -0.994D-03 0.469D-01 0.132D+00 0.823D+00
 Coeff:     -0.994D-03 0.469D-01 0.132D+00 0.823D+00
 Gap=     0.214 Goal=   None    Shift=    0.000
 RMSDP=3.26D-07 MaxDP=3.13D-05 DE=-1.43D-07 OVMax= 1.97D-05

 Cycle  15  Pass 1  IDiag  1:
 RMSU=  1.41D-07    CP:  9.96D-01  1.04D+00  1.03D+00  9.36D-01
 E= -1507.93371386306     Delta-E=       -0.000000002935 Rises=F Damp=F
 DIIS: error= 6.78D-07 at cycle   5 NSaved=   5.
 NSaved= 5 IEnMin= 5 EnMin= -1507.93371386306     IErMin= 5 ErrMin= 6.78D-07
 ErrMax= 6.78D-07  0.00D+00 EMaxC= 1.00D-01 BMatC= 1.21D-09 BMatP= 3.97D-09
 IDIUse=1 WtCom= 1.00D+00 WtEn= 0.00D+00
 Coeff-Com:  0.536D-03-0.379D-01 0.251D-01 0.447D+00 0.565D+00
 Coeff:      0.536D-03-0.379D-01 0.251D-01 0.447D+00 0.565D+00
 Gap=     0.214 Goal=   None    Shift=    0.000
 RMSDP=8.18D-08 MaxDP=1.35D-05 DE=-2.93D-09 OVMax= 7.19D-06

 Cycle  16  Pass 1  IDiag  1:
 RMSU=  5.22D-08    CP:  9.96D-01  1.04D+00  1.03D+00  9.81D-01  1.01D+00
 E= -1507.93371386413     Delta-E=       -0.000000001074 Rises=F Damp=F
 DIIS: error= 1.58D-07 at cycle   6 NSaved=   6.
 NSaved= 6 IEnMin= 6 EnMin= -1507.93371386413     IErMin= 6 ErrMin= 1.58D-07
 ErrMax= 1.58D-07  0.00D+00 EMaxC= 1.00D-01 BMatC= 3.59D-11 BMatP= 1.21D-09
 IDIUse=1 WtCom= 1.00D+00 WtEn= 0.00D+00
 Coeff-Com:  0.234D-03-0.147D-01-0.147D-02 0.723D-01 0.164D+00 0.780D+00
 Coeff:      0.234D-03-0.147D-01-0.147D-02 0.723D-01 0.164D+00 0.780D+00
 Gap=     0.214 Goal=   None    Shift=    0.000
 RMSDP=1.75D-08 MaxDP=1.53D-06 DE=-1.07D-09 OVMax= 3.28D-06

 Cycle  17  Pass 1  IDiag  1:
 RMSU=  1.38D-08    CP:  9.96D-01  1.04D+00  1.03D+00  9.86D-01  1.07D+00
                    CP:  1.05D+00
 E= -1507.93371386416     Delta-E=       -0.000000000027 Rises=F Damp=F
 DIIS: error= 8.06D-08 at cycle   7 NSaved=   7.
 NSaved= 7 IEnMin= 7 EnMin= -1507.93371386416     IErMin= 7 ErrMin= 8.06D-08
 ErrMax= 8.06D-08  0.00D+00 EMaxC= 1.00D-01 BMatC= 1.38D-11 BMatP= 3.59D-11
 IDIUse=1 WtCom= 1.00D+00 WtEn= 0.00D+00
 Coeff-Com:  0.142D-04-0.743D-04-0.549D-02-0.546D-01-0.313D-01 0.394D+00
 Coeff-Com:  0.698D+00
 Coeff:      0.142D-04-0.743D-04-0.549D-02-0.546D-01-0.313D-01 0.394D+00
 Coeff:      0.698D+00
 Gap=     0.214 Goal=   None    Shift=    0.000
 RMSDP=8.59D-09 MaxDP=1.16D-06 DE=-2.73D-11 OVMax= 1.68D-06

 Cycle  18  Pass 1  IDiag  1:
 RMSU=  5.86D-09    CP:  9.96D-01  1.04D+00  1.03D+00  9.88D-01  1.09D+00
                    CP:  1.12D+00  1.07D+00
 E= -1507.93371386418     Delta-E=       -0.000000000024 Rises=F Damp=F
 DIIS: error= 4.05D-08 at cycle   8 NSaved=   8.
 NSaved= 8 IEnMin= 8 EnMin= -1507.93371386418     IErMin= 8 ErrMin= 4.05D-08
 ErrMax= 4.05D-08  0.00D+00 EMaxC= 1.00D-01 BMatC= 1.78D-12 BMatP= 1.38D-11
 IDIUse=1 WtCom= 1.00D+00 WtEn= 0.00D+00
 Coeff-Com: -0.254D-04 0.200D-02-0.206D-02-0.356D-01-0.369D-01 0.843D-01
 Coeff-Com:  0.331D+00 0.657D+00
 Coeff:     -0.254D-04 0.200D-02-0.206D-02-0.356D-01-0.369D-01 0.843D-01
 Coeff:      0.331D+00 0.657D+00
 Gap=     0.214 Goal=   None    Shift=    0.000
 RMSDP=3.42D-09 MaxDP=7.31D-07 DE=-2.41D-11 OVMax= 7.00D-07

 SCF Done:  E(RM062X) =  -1507.93371386     A.U. after   18 cycles
            NFock= 18  Conv=0.34D-08     -V/T= 2.0037
 KE= 1.502328882840D+03 PE=-8.480016507349D+03 EE= 2.999055060303D+03
 Leave Link  502 at Sat Aug 13 20:31:18 2022, MaxMem=  2684354560 cpu:            8139.9 elap:             509.5
 (Enter /storage/apps/GAUSSIAN/G16_RevA03/g16/l601.exe)
 Copying SCF densities to generalized density rwf, IOpCl= 0 IROHF=0.

 **********************************************************************

            Population analysis using the SCF density.

 **********************************************************************

 Orbital symmetries:
       Occupied  (A) (A) (A) (A) (A) (A) (A) (A) (A) (A) (A) (A)
                 (A) (A) (A) (A) (A) (A) (A) (A) (A) (A) (A) (A)
                 (A) (A) (A) (A) (A) (A) (A) (A) (A) (A) (A) (A)
                 (A) (A) (A) (A) (A) (A) (A) (A) (A) (A) (A) (A)
                 (A) (A) (A) (A) (A) (A) (A) (A) (A) (A) (A) (A)
                 (A) (A) (A) (A) (A) (A) (A) (A) (A) (A) (A) (A)
                 (A) (A) (A) (A) (A) (A) (A) (A) (A) (A) (A) (A)
                 (A) (A) (A) (A) (A) (A) (A) (A) (A) (A) (A)
       Virtual   (A) (A) (A) (A) (A) (A) (A) (A) (A) (A) (A) (A)
                 (A) (A) (A) (A) (A) (A) (A) (A) (A) (A) (A) (A)
                 (A) (A) (A) (A) (A) (A) (A) (A) (A) (A) (A) (A)
                 (A) (A) (A) (A) (A) (A) (A) (A) (A) (A) (A) (A)
                 (A) (A) (A) (A) (A) (A) (A) (A) (A) (A) (A) (A)
                 (A) (A) (A) (A) (A) (A) (A) (A) (A) (A) (A) (A)
                 (A) (A) (A) (A) (A) (A) (A) (A) (A) (A) (A) (A)
                 (A) (A) (A) (A) (A) (A) (A) (A) (A) (A) (A) (A)
                 (A) (A) (A) (A) (A) (A) (A) (A) (A) (A) (A) (A)
                 (A) (A) (A) (A) (A) (A) (A) (A) (A) (A) (A) (A)
                 (A) (A) (A) (A) (A) (A) (A) (A) (A) (A) (A) (A)
                 (A) (A) (A) (A) (A) (A) (A) (A) (A) (A) (A) (A)
                 (A) (A) (A) (A) (A) (A) (A) (A) (A) (A) (A) (A)
                 (A) (A) (A) (A) (A) (A) (A) (A) (A) (A) (A) (A)
                 (A) (A) (A) (A) (A) (A) (A) (A) (A) (A) (A) (A)
                 (A) (A) (A) (A) (A) (A) (A) (A) (A) (A) (A) (A)
                 (A) (A) (A) (A) (A) (A) (A) (A) (A) (A) (A) (A)
                 (A) (A) (A) (A) (A) (A) (A) (A) (A) (A) (A) (A)
                 (A) (A) (A) (A) (A) (A) (A) (A) (A) (A) (A) (A)
                 (A) (A) (A) (A) (A) (A) (A) (A) (A) (A) (A) (A)
                 (A) (A) (A) (A) (A) (A) (A) (A) (A) (A) (A) (A)
                 (A) (A) (A) (A) (A) (A) (A) (A) (A) (A) (A) (A)
                 (A) (A) (A) (A) (A) (A) (A) (A) (A) (A) (A) (A)
                 (A) (A) (A) (A) (A) (A) (A) (A) (A) (A) (A) (A)
                 (A) (A) (A) (A) (A) (A) (A) (A) (A) (A) (A) (A)
                 (A) (A) (A) (A) (A) (A) (A) (A) (A) (A) (A) (A)
                 (A) (A) (A) (A) (A) (A) (A) (A) (A) (A) (A) (A)
                 (A) (A) (A) (A) (A) (A) (A) (A) (A) (A) (A) (A)
                 (A) (A) (A) (A) (A) (A) (A) (A) (A) (A) (A) (A)
                 (A) (A) (A) (A) (A) (A) (A) (A) (A) (A) (A) (A)
                 (A) (A) (A) (A) (A) (A) (A) (A) (A) (A) (A) (A)
                 (A) (A) (A) (A) (A) (A) (A) (A) (A) (A) (A) (A)
                 (A) (A) (A) (A) (A) (A) (A) (A) (A) (A) (A) (A)
                 (A) (A) (A) (A) (A) (A) (A) (A) (A) (A) (A) (A)
                 (A) (A) (A) (A) (A) (A) (A) (A) (A) (A) (A) (A)
                 (A) (A) (A) (A) (A) (A) (A) (A) (A) (A) (A) (A)
                 (A) (A) (A) (A) (A) (A) (A) (A) (A) (A) (A) (A)
                 (A) (A) (A) (A) (A) (A) (A) (A) (A) (A) (A) (A)
                 (A) (A) (A) (A) (A) (A) (A) (A) (A) (A) (A) (A)
                 (A) (A) (A) (A) (A) (A) (A) (A) (A) (A) (A) (A)
                 (A) (A) (A) (A) (A) (A) (A) (A) (A) (A) (A) (A)
                 (A) (A) (A) (A) (A) (A) (A) (A) (A) (A) (A) (A)
                 (A) (A) (A) (A) (A) (A) (A) (A) (A) (A) (A) (A)
                 (A) (A) (A) (A) (A) (A) (A) (A) (A) (A) (A) (A)
                 (A) (A) (A) (A) (A) (A) (A) (A) (A) (A) (A) (A)
                 (A) (A) (A) (A) (A) (A) (A) (A) (A) (A) (A) (A)
                 (A) (A) (A) (A) (A) (A) (A) (A) (A) (A) (A) (A)
                 (A) (A) (A) (A) (A) (A) (A) (A) (A) (A) (A) (A)
                 (A) (A) (A) (A) (A) (A) (A) (A) (A) (A) (A) (A)
                 (A) (A) (A) (A) (A) (A) (A) (A) (A) (A) (A) (A)
                 (A) (A) (A) (A) (A) (A) (A) (A) (A) (A) (A) (A)
                 (A) (A) (A) (A) (A) (A) (A) (A) (A) (A) (A) (A)
                 (A) (A) (A) (A) (A) (A) (A) (A) (A) (A) (A) (A)
                 (A) (A) (A) (A) (A) (A) (A) (A) (A) (A) (A) (A)
                 (A) (A) (A) (A) (A) (A) (A) (A) (A) (A) (A) (A)
                 (A) (A) (A) (A) (A) (A) (A) (A) (A) (A) (A) (A)
                 (A) (A) (A) (A) (A) (A) (A) (A) (A) (A) (A) (A)
                 (A) (A) (A) (A) (A) (A) (A) (A) (A) (A) (A) (A)
                 (A) (A) (A) (A) (A) (A) (A) (A) (A) (A) (A) (A)
                 (A) (A) (A) (A) (A) (A) (A) (A) (A) (A) (A) (A)
                 (A) (A) (A) (A) (A) (A) (A) (A) (A) (A) (A) (A)
                 (A) (A) (A) (A) (A) (A) (A) (A) (A) (A) (A) (A)
                 (A) (A) (A) (A) (A) (A) (A) (A) (A) (A) (A) (A)
                 (A) (A) (A) (A) (A) (A) (A) (A) (A) (A) (A) (A)
                 (A) (A) (A) (A) (A) (A) (A) (A) (A) (A) (A) (A)
                 (A) (A) (A) (A) (A) (A) (A) (A) (A) (A) (A) (A)
                 (A) (A) (A) (A) (A) (A) (A)
 The electronic state is 1-A.
 Alpha  occ. eigenvalues --  -89.91783 -19.63347 -19.63309 -19.62763 -19.62295
 Alpha  occ. eigenvalues --  -19.57748 -14.79033 -14.76071 -10.65978 -10.63441
 Alpha  occ. eigenvalues --  -10.62916 -10.59498 -10.59132 -10.59065 -10.58395
 Alpha  occ. eigenvalues --  -10.57606 -10.56795 -10.56715 -10.55275 -10.55251
 Alpha  occ. eigenvalues --  -10.54978 -10.53858 -10.53433 -10.53266  -8.27715
 Alpha  occ. eigenvalues --   -6.19652  -6.19416  -6.19224  -1.19252  -1.18599
 Alpha  occ. eigenvalues --   -1.15925  -1.15028  -1.13795  -1.08390  -1.00695
 Alpha  occ. eigenvalues --   -0.92572  -0.91832  -0.90017  -0.88525  -0.87529
 Alpha  occ. eigenvalues --   -0.85619  -0.82720  -0.78889  -0.76445  -0.75536
 Alpha  occ. eigenvalues --   -0.73467  -0.70794  -0.67683  -0.67228  -0.66360
 Alpha  occ. eigenvalues --   -0.63413  -0.63211  -0.61657  -0.60458  -0.58739
 Alpha  occ. eigenvalues --   -0.58121  -0.56975  -0.56533  -0.56007  -0.54956
 Alpha  occ. eigenvalues --   -0.53845  -0.52964  -0.52414  -0.51608  -0.51207
 Alpha  occ. eigenvalues --   -0.50567  -0.50383  -0.49912  -0.49305  -0.48866
 Alpha  occ. eigenvalues --   -0.48353  -0.48090  -0.47845  -0.47159  -0.46541
 Alpha  occ. eigenvalues --   -0.45883  -0.44745  -0.44300  -0.43861  -0.43613
 Alpha  occ. eigenvalues --   -0.43422  -0.43208  -0.41362  -0.41219  -0.37817
 Alpha  occ. eigenvalues --   -0.36214  -0.35656  -0.34369  -0.34320  -0.33752
 Alpha  occ. eigenvalues --   -0.33454  -0.32940  -0.32532  -0.30689  -0.24407
 Alpha virt. eigenvalues --   -0.03054   0.00298   0.04427   0.04773   0.06054
 Alpha virt. eigenvalues --    0.07198   0.07420   0.08125   0.08585   0.09184
 Alpha virt. eigenvalues --    0.09244   0.09608   0.10377   0.10851   0.11265
 Alpha virt. eigenvalues --    0.11735   0.12209   0.12613   0.13001   0.13036
 Alpha virt. eigenvalues --    0.13634   0.13879   0.13931   0.14170   0.14746
 Alpha virt. eigenvalues --    0.15271   0.16064   0.16292   0.17113   0.17284
 Alpha virt. eigenvalues --    0.17895   0.18259   0.18713   0.18947   0.19562
 Alpha virt. eigenvalues --    0.20331   0.20610   0.21175   0.21746   0.22354
 Alpha virt. eigenvalues --    0.22961   0.23323   0.23512   0.24247   0.24820
 Alpha virt. eigenvalues --    0.25011   0.25575   0.25838   0.26297   0.26876
 Alpha virt. eigenvalues --    0.27295   0.27567   0.28154   0.28826   0.29025
 Alpha virt. eigenvalues --    0.29308   0.30149   0.30227   0.30757   0.31094
 Alpha virt. eigenvalues --    0.31530   0.31977   0.32925   0.33309   0.33760
 Alpha virt. eigenvalues --    0.34176   0.34976   0.35180   0.35511   0.36093
 Alpha virt. eigenvalues --    0.36560   0.37104   0.37346   0.37749   0.38397
 Alpha virt. eigenvalues --    0.38466   0.39130   0.39941   0.40154   0.40241
 Alpha virt. eigenvalues --    0.40824   0.41084   0.41640   0.41826   0.42540
 Alpha virt. eigenvalues --    0.42633   0.43016   0.43557   0.43861   0.44135
 Alpha virt. eigenvalues --    0.44471   0.44815   0.45213   0.45482   0.45919
 Alpha virt. eigenvalues --    0.46679   0.46795   0.47304   0.47496   0.47654
 Alpha virt. eigenvalues --    0.47782   0.48000   0.48677   0.49208   0.49294
 Alpha virt. eigenvalues --    0.50116   0.50358   0.50654   0.50863   0.51328
 Alpha virt. eigenvalues --    0.51855   0.51959   0.52349   0.52524   0.52762
 Alpha virt. eigenvalues --    0.53172   0.53484   0.54273   0.54603   0.55012
 Alpha virt. eigenvalues --    0.55348   0.55673   0.56288   0.56932   0.57704
 Alpha virt. eigenvalues --    0.58021   0.58476   0.58664   0.59229   0.59822
 Alpha virt. eigenvalues --    0.60550   0.61266   0.61690   0.62186   0.62519
 Alpha virt. eigenvalues --    0.62933   0.63587   0.64718   0.65199   0.65614
 Alpha virt. eigenvalues --    0.65949   0.66089   0.66839   0.67487   0.67858
 Alpha virt. eigenvalues --    0.68458   0.68644   0.69421   0.70799   0.71059
 Alpha virt. eigenvalues --    0.71357   0.72571   0.72739   0.73596   0.74174
 Alpha virt. eigenvalues --    0.74694   0.75030   0.75293   0.76283   0.76378
 Alpha virt. eigenvalues --    0.76884   0.77677   0.79245   0.80440   0.81225
 Alpha virt. eigenvalues --    0.81506   0.81814   0.82448   0.83074   0.84050
 Alpha virt. eigenvalues --    0.84192   0.84812   0.85820   0.86658   0.87446
 Alpha virt. eigenvalues --    0.87622   0.87983   0.88464   0.89533   0.89942
 Alpha virt. eigenvalues --    0.90960   0.91374   0.91757   0.92518   0.93005
 Alpha virt. eigenvalues --    0.93264   0.93897   0.94864   0.95374   0.95884
 Alpha virt. eigenvalues --    0.96292   0.97137   0.98150   0.98634   0.99272
 Alpha virt. eigenvalues --    0.99893   1.00297   1.00942   1.01943   1.02947
 Alpha virt. eigenvalues --    1.03664   1.04540   1.05155   1.05991   1.06338
 Alpha virt. eigenvalues --    1.07124   1.07529   1.08765   1.09114   1.09709
 Alpha virt. eigenvalues --    1.10501   1.11307   1.11530   1.11825   1.12651
 Alpha virt. eigenvalues --    1.13179   1.13768   1.15077   1.15719   1.15895
 Alpha virt. eigenvalues --    1.16699   1.17918   1.18108   1.18942   1.20101
 Alpha virt. eigenvalues --    1.21101   1.21895   1.22903   1.22918   1.23462
 Alpha virt. eigenvalues --    1.24972   1.25657   1.26276   1.26835   1.28576
 Alpha virt. eigenvalues --    1.29248   1.30104   1.30525   1.31484   1.31723
 Alpha virt. eigenvalues --    1.32679   1.33896   1.34144   1.35328   1.36095
 Alpha virt. eigenvalues --    1.37191   1.37366   1.38229   1.38670   1.39246
 Alpha virt. eigenvalues --    1.40834   1.41785   1.42302   1.43311   1.44667
 Alpha virt. eigenvalues --    1.45805   1.47011   1.47876   1.48458   1.49687
 Alpha virt. eigenvalues --    1.50148   1.50997   1.51296   1.52091   1.52652
 Alpha virt. eigenvalues --    1.53416   1.53753   1.54850   1.54990   1.55186
 Alpha virt. eigenvalues --    1.55923   1.56516   1.57365   1.58005   1.58272
 Alpha virt. eigenvalues --    1.58651   1.59188   1.59859   1.60018   1.60203
 Alpha virt. eigenvalues --    1.61016   1.61334   1.61821   1.61900   1.62258
 Alpha virt. eigenvalues --    1.63005   1.63319   1.63819   1.64374   1.65365
 Alpha virt. eigenvalues --    1.65946   1.67164   1.67745   1.68335   1.68613
 Alpha virt. eigenvalues --    1.69139   1.69412   1.70004   1.70568   1.70608
 Alpha virt. eigenvalues --    1.71628   1.72569   1.73078   1.73703   1.73898
 Alpha virt. eigenvalues --    1.75118   1.75388   1.76008   1.76398   1.77416
 Alpha virt. eigenvalues --    1.78145   1.78279   1.79243   1.79632   1.80049
 Alpha virt. eigenvalues --    1.82132   1.82320   1.83623   1.84376   1.84632
 Alpha virt. eigenvalues --    1.84813   1.85599   1.86555   1.86954   1.87760
 Alpha virt. eigenvalues --    1.88333   1.88754   1.89613   1.90941   1.91805
 Alpha virt. eigenvalues --    1.92300   1.93439   1.93554   1.93783   1.95166
 Alpha virt. eigenvalues --    1.95617   1.96093   1.96828   1.97261   1.97948
 Alpha virt. eigenvalues --    1.98168   1.99367   2.00100   2.01369   2.01708
 Alpha virt. eigenvalues --    2.02737   2.03041   2.03515   2.04046   2.05101
 Alpha virt. eigenvalues --    2.05302   2.06119   2.06595   2.08030   2.08508
 Alpha virt. eigenvalues --    2.09574   2.10021   2.11196   2.11997   2.13079
 Alpha virt. eigenvalues --    2.13250   2.15092   2.15434   2.16551   2.16917
 Alpha virt. eigenvalues --    2.18072   2.19100   2.19702   2.20260   2.20574
 Alpha virt. eigenvalues --    2.20960   2.21628   2.22098   2.22597   2.23586
 Alpha virt. eigenvalues --    2.24207   2.24778   2.25334   2.26252   2.27039
 Alpha virt. eigenvalues --    2.28130   2.28850   2.29430   2.30251   2.31059
 Alpha virt. eigenvalues --    2.31228   2.31584   2.32423   2.32883   2.33889
 Alpha virt. eigenvalues --    2.34402   2.34727   2.35440   2.35902   2.36647
 Alpha virt. eigenvalues --    2.36927   2.37180   2.38365   2.38468   2.39456
 Alpha virt. eigenvalues --    2.40393   2.40629   2.40871   2.41702   2.43042
 Alpha virt. eigenvalues --    2.43507   2.44664   2.45012   2.45243   2.46555
 Alpha virt. eigenvalues --    2.47438   2.48567   2.49600   2.50319   2.50823
 Alpha virt. eigenvalues --    2.52301   2.52760   2.53274   2.55003   2.55294
 Alpha virt. eigenvalues --    2.55638   2.56929   2.57832   2.58458   2.58818
 Alpha virt. eigenvalues --    2.59132   2.59679   2.60546   2.61837   2.62311
 Alpha virt. eigenvalues --    2.62407   2.63373   2.63808   2.64245   2.64561
 Alpha virt. eigenvalues --    2.65345   2.65765   2.66194   2.67386   2.67720
 Alpha virt. eigenvalues --    2.67909   2.68092   2.69271   2.70724   2.71293
 Alpha virt. eigenvalues --    2.71831   2.72329   2.72670   2.73170   2.74043
 Alpha virt. eigenvalues --    2.75224   2.75947   2.76593   2.77003   2.78436
 Alpha virt. eigenvalues --    2.79763   2.80209   2.80843   2.81869   2.82658
 Alpha virt. eigenvalues --    2.83144   2.83761   2.84005   2.85428   2.86084
 Alpha virt. eigenvalues --    2.86295   2.87650   2.88397   2.88752   2.90115
 Alpha virt. eigenvalues --    2.90579   2.91001   2.91714   2.91923   2.92436
 Alpha virt. eigenvalues --    2.92917   2.94516   2.95027   2.95733   2.97064
 Alpha virt. eigenvalues --    2.97968   2.98307   2.99030   2.99978   3.00447
 Alpha virt. eigenvalues --    3.01292   3.02214   3.02982   3.03200   3.04039
 Alpha virt. eigenvalues --    3.05167   3.05402   3.06103   3.06251   3.06988
 Alpha virt. eigenvalues --    3.08041   3.08607   3.08700   3.09169   3.09527
 Alpha virt. eigenvalues --    3.10164   3.10888   3.11667   3.12183   3.12723
 Alpha virt. eigenvalues --    3.13019   3.13502   3.14298   3.14410   3.14727
 Alpha virt. eigenvalues --    3.15732   3.16167   3.16565   3.17684   3.17971
 Alpha virt. eigenvalues --    3.18477   3.18976   3.19277   3.19874   3.20831
 Alpha virt. eigenvalues --    3.21053   3.21404   3.22874   3.23768   3.24272
 Alpha virt. eigenvalues --    3.24439   3.25363   3.25653   3.26549   3.26957
 Alpha virt. eigenvalues --    3.27629   3.29002   3.29789   3.30251   3.30410
 Alpha virt. eigenvalues --    3.31462   3.32215   3.32647   3.33722   3.34150
 Alpha virt. eigenvalues --    3.34654   3.35186   3.35508   3.35975   3.36448
 Alpha virt. eigenvalues --    3.37596   3.37927   3.38074   3.38720   3.39102
 Alpha virt. eigenvalues --    3.40178   3.40597   3.41101   3.41783   3.42298
 Alpha virt. eigenvalues --    3.42578   3.43937   3.44954   3.45083   3.46090
 Alpha virt. eigenvalues --    3.46627   3.46981   3.47590   3.49471   3.49648
 Alpha virt. eigenvalues --    3.50174   3.50476   3.52008   3.52627   3.53394
 Alpha virt. eigenvalues --    3.54253   3.55258   3.55741   3.56294   3.56795
 Alpha virt. eigenvalues --    3.58317   3.58897   3.59482   3.59809   3.60583
 Alpha virt. eigenvalues --    3.61844   3.62910   3.63358   3.64170   3.65380
 Alpha virt. eigenvalues --    3.66142   3.66235   3.66987   3.68153   3.68245
 Alpha virt. eigenvalues --    3.69341   3.69783   3.71695   3.73019   3.73718
 Alpha virt. eigenvalues --    3.74774   3.75218   3.76679   3.77386   3.78100
 Alpha virt. eigenvalues --    3.79181   3.80198   3.81387   3.81882   3.82044
 Alpha virt. eigenvalues --    3.84671   3.84813   3.86707   3.86838   3.88386
 Alpha virt. eigenvalues --    3.89729   3.90764   3.91919   3.93641   3.94372
 Alpha virt. eigenvalues --    3.95241   3.96647   3.97532   3.98615   4.00275
 Alpha virt. eigenvalues --    4.01408   4.02285   4.03086   4.05025   4.05918
 Alpha virt. eigenvalues --    4.07970   4.09949   4.11115   4.12808   4.13522
 Alpha virt. eigenvalues --    4.14270   4.15655   4.16425   4.18058   4.18402
 Alpha virt. eigenvalues --    4.19229   4.20086   4.21055   4.21940   4.24122
 Alpha virt. eigenvalues --    4.25670   4.26900   4.29214   4.30651   4.32926
 Alpha virt. eigenvalues --    4.34146   4.35393   4.37059   4.38295   4.38587
 Alpha virt. eigenvalues --    4.39978   4.40384   4.41103   4.42219   4.43340
 Alpha virt. eigenvalues --    4.44253   4.47274   4.47353   4.49511   4.51042
 Alpha virt. eigenvalues --    4.52463   4.52891   4.53670   4.56355   4.59039
 Alpha virt. eigenvalues --    4.62411   4.64852   4.65499   4.66947   4.68164
 Alpha virt. eigenvalues --    4.69306   4.69861   4.72166   4.73485   4.74007
 Alpha virt. eigenvalues --    4.75663   4.76284   4.79208   4.82385   4.84344
 Alpha virt. eigenvalues --    4.86165   4.87712   4.90070   4.90839   4.92655
 Alpha virt. eigenvalues --    4.93215   4.94536   4.97529   4.99257   5.00575
 Alpha virt. eigenvalues --    5.02930   5.04515   5.04849   5.06777   5.08457
 Alpha virt. eigenvalues --    5.13314   5.13845   5.14729   5.19963   5.21246
 Alpha virt. eigenvalues --    5.21882   5.23958   5.24532   5.25644   5.28753
 Alpha virt. eigenvalues --    5.30040   5.30830   5.31062   5.34586   5.38866
 Alpha virt. eigenvalues --    5.40328   5.41723   5.44346   5.47300   5.49269
 Alpha virt. eigenvalues --    5.50052   5.51114   5.53595   5.55390   5.56156
 Alpha virt. eigenvalues --    5.64298   5.68596   5.75971   5.77096   5.79493
 Alpha virt. eigenvalues --    5.80018   5.81737   5.82348   5.83916   5.88414
 Alpha virt. eigenvalues --    5.89632   5.91323   5.93967   5.96347   5.97317
 Alpha virt. eigenvalues --    5.99390   6.05950   6.07073   6.16016   6.18692
 Alpha virt. eigenvalues --    6.21951   6.25671   6.28516   6.29474   6.38428
 Alpha virt. eigenvalues --    6.39006   6.43315   6.44338   6.48339   6.53643
 Alpha virt. eigenvalues --    6.56163   6.62404   6.71999   6.76090   6.77293
 Alpha virt. eigenvalues --    6.77616   6.82583   6.84264   6.85647   6.86906
 Alpha virt. eigenvalues --    6.87018   6.97823   7.00441   7.04010   7.08755
 Alpha virt. eigenvalues --    7.11270   7.13030   7.14660   7.18043   7.22787
 Alpha virt. eigenvalues --    7.30646   7.35602   9.03041   9.39950   9.55297
 Alpha virt. eigenvalues --   19.98967  22.33780  22.46254  22.48510  22.51507
 Alpha virt. eigenvalues --   22.57530  22.66392  22.74217  22.76852  22.84851
 Alpha virt. eigenvalues --   22.91836  23.00797  23.01995  23.08698  23.09775
 Alpha virt. eigenvalues --   23.28115  23.49933  32.18509  33.23724  44.16482
 Alpha virt. eigenvalues --   44.19763  44.25335  44.28139  44.53897
          Condensed to atoms (all electrons):
               1          2          3          4          5          6
     1  C    5.147670   0.425346   0.411070   0.013677  -0.007324  -0.000258
     2  H    0.425346   0.500406  -0.016385  -0.002147   0.000451  -0.000005
     3  H    0.411070  -0.016385   0.521984  -0.000984   0.000309  -0.000013
     4  C    0.013677  -0.002147  -0.000984   5.624264   0.541633   0.194127
     5  H   -0.007324   0.000451   0.000309   0.541633   0.526288  -0.038168
     6  O   -0.000258  -0.000005  -0.000013   0.194127  -0.038168   8.136872
     7  H    0.000035  -0.000003  -0.000001  -0.053564  -0.008545   0.321044
     8  C   -0.012427   0.010688  -0.000908  -0.027188  -0.101134  -0.055500
     9  H    0.004677  -0.000329  -0.001759  -0.069288   0.002366   0.001354
    10  O    0.005515  -0.000185  -0.000033   0.059381   0.005841  -0.019997
    11  H   -0.001221   0.000045   0.000014   0.003021   0.001830   0.016535
    12  C   -0.000092   0.001647   0.000400  -0.205991  -0.123959  -0.006390
    13  H   -0.001114  -0.000006   0.000075  -0.030339   0.007049  -0.004407
    14  C    0.199216  -0.050660  -0.041184   0.055171   0.017768   0.008629
    15  H   -0.066621  -0.006857  -0.001415   0.000252  -0.000622   0.000027
    16  O   -0.050550   0.001441   0.005932  -0.087834   0.005063   0.005927
    17  N    0.002786  -0.000139  -0.000107   0.029029  -0.007574  -0.001741
    18  C   -0.003188   0.000199   0.000078   0.006422   0.006216  -0.000165
    19  H    0.000072  -0.000436   0.000120  -0.008924  -0.001970   0.000237
    20  C    0.000109  -0.000080   0.000001   0.007698   0.005452  -0.000169
    21  H    0.000007   0.000002  -0.000000  -0.000053   0.000054  -0.000001
[...]
 Number     Number              X              Y              Z
 -------------------------------------------------------------------
      1        6           0.000235176   -0.000007792    0.000041037
      2        1           0.000010878   -0.000002024    0.000001308
      3        1           0.000004562   -0.000006505    0.000001776
      4        6           0.000003523   -0.000066133   -0.000055427
      5        1          -0.000003908   -0.000019490    0.000015431
      6        8          -0.000176758   -0.000066173   -0.000098929
      7        1           0.000064016   -0.000033810    0.000017762
      8        6          -0.000007055    0.000013480    0.000015842
      9        1          -0.000012817    0.000007033    0.000017330
     10        8          -0.000058323    0.000089910    0.000009877
     11        1          -0.000014203   -0.000012010    0.000022051
     12        6           0.000007843   -0.000064021   -0.000075801
     13        1           0.000009679    0.000002557   -0.000023132
     14        6           0.000065563    0.000047647    0.000024103
     15        1          -0.000011898    0.000014344   -0.000007482
     16        8           0.000024728   -0.000135518   -0.000034184
     17        7           0.000078092   -0.000023313   -0.000018050
     18        6          -0.000007510   -0.000054876   -0.000133157
     19        1          -0.000015988    0.000007686   -0.000015159
     20        6           0.000133741   -0.000026430   -0.000090119
     21        1           0.000004595    0.000034024    0.000012017
     22        6           0.000159650   -0.000013076    0.000098187
     23        1           0.000001550    0.000007981   -0.000028503
     24        1          -0.000085041    0.000001615   -0.000070755
     25        6           0.000050775    0.000027415    0.000121869
     26        6          -0.000055666    0.000002541    0.000018548
     27        1          -0.000000999    0.000021289    0.000019913
     28        6          -0.000161062   -0.000247478   -0.000137872
     29        8          -0.000083476    0.000144952    0.000630422
     30        7           0.000510133    0.000205017    0.000298170
     31        1          -0.000085795    0.000147996   -0.000091443
     32        1          -0.000117727   -0.000227253   -0.000266036
     33        1          -0.000017534   -0.000003512    0.000013841
     34        6           0.000212322    0.000101611   -0.000220883
     35        6          -0.000001542   -0.000155651    0.000143255
     36        6          -0.000083032    0.000144552   -0.000014937
     37        6          -0.000070095    0.000054121    0.000157765
     38        6          -0.000194789   -0.000026264    0.000101718
     39        8          -0.000252616    0.000170408    0.000047893
     40       16           0.000032602    0.000112577   -0.000443237
     41        1          -0.000052472   -0.000180608   -0.000102261
     42        1          -0.000109569    0.000050103    0.000086530
     43        1          -0.000008845    0.000015280    0.000025056
     44        1          -0.000001864   -0.000008511    0.000008988
     45        1           0.000002948   -0.000016897    0.000001632
     46        1           0.000027465    0.000018032    0.000000034
     47        1           0.000022734   -0.000101584    0.000076453
     48        1           0.000028009    0.000056759   -0.000101441
 -------------------------------------------------------------------
 Cartesian Forces:  Max     0.000630422 RMS     0.000119539
 Leave Link  716 at Sat Aug 13 20:34:32 2022, MaxMem=  2684354560 cpu:               0.4 elap:               0.0
 (Enter /storage/apps/GAUSSIAN/G16_RevA03/g16/l103.exe)

 GradGradGradGradGradGradGradGradGradGradGradGradGradGradGradGradGradGrad
 Berny optimization.
 Search for a local minimum.
 Step number   1 out of a maximum of    2
 All quantities printed in internal units (Hartrees-Bohrs-Radians)
 Second derivative matrix not updated -- first step.
 ITU=  0
     Eigenvalues ---    0.00039   0.00094   0.00104   0.00127   0.00188
     Eigenvalues ---    0.00236   0.00307   0.00394   0.00420   0.00459
     Eigenvalues ---    0.00519   0.00728   0.00840   0.00906   0.00939
     Eigenvalues ---    0.00995   0.01089   0.01176   0.01381   0.01529
     Eigenvalues ---    0.01700   0.01883   0.02365   0.02496   0.02640
     Eigenvalues ---    0.02938   0.03209   0.03350   0.03752   0.03897
     Eigenvalues ---    0.04355   0.04629   0.04913   0.05079   0.05237
     Eigenvalues ---    0.05319   0.05549   0.05737   0.05833   0.05899
     Eigenvalues ---    0.06072   0.06181   0.06309   0.06393   0.06662
     Eigenvalues ---    0.06950   0.07349   0.07633   0.07814   0.08079
     Eigenvalues ---    0.08481   0.08792   0.09017   0.09670   0.10297
     Eigenvalues ---    0.10526   0.11545   0.12118   0.12190   0.12498
     Eigenvalues ---    0.12942   0.13120   0.13208   0.13521   0.13660
     Eigenvalues ---    0.14037   0.14084   0.15380   0.15979   0.16569
     Eigenvalues ---    0.16955   0.18137   0.18893   0.19639   0.19861
     Eigenvalues ---    0.19936   0.20348   0.21725   0.21851   0.22221
     Eigenvalues ---    0.24219   0.26817   0.27402   0.27726   0.31874
     Eigenvalues ---    0.32959   0.34211   0.34757   0.35346   0.37087
     Eigenvalues ---    0.38072   0.38072   0.38072   0.38072   0.40190
     Eigenvalues ---    0.43188   0.45142   0.48079   0.56615   0.56777
     Eigenvalues ---    0.61544   0.66429   0.69424   0.70067   0.74168
     Eigenvalues ---    0.79033   0.82483   0.87493   0.89172   0.91141
     Eigenvalues ---    0.91281   0.91934   0.93839   0.94437   0.94892
     Eigenvalues ---    0.95553   0.97106   0.99564   1.01426   1.02961
     Eigenvalues ---    1.05397   1.06774   1.09657   1.11362   1.14075
     Eigenvalues ---    1.19476   1.19985   1.24741   1.26005   1.29949
     Eigenvalues ---    1.34079   1.42334   1.51691   1.63658   1.70025
     Eigenvalues ---    1.79478   2.17578   2.27156
 Quadratic step=7.401D-01 exceeds max=3.000D-01 adjusted using Lamda=-7.572D-04.
 Angle between NR and scaled steps=  16.81 degrees.
 Angle between quadratic step and forces=  66.39 degrees.
 Linear search not attempted -- first point.
 Variable       Old X    -DE/DX   Delta X   Delta X   Delta X     New X
                                 (Linear)    (Quad)   (Total)
    X1        6.97893   0.00024   0.00000   0.00325   0.00325   6.98218
    Y1       -6.86072  -0.00001   0.00000  -0.01472  -0.01472  -6.87544
    Z1       -0.82425   0.00004   0.00000   0.03033   0.03033  -0.79392
    X2        7.30716   0.00001   0.00000   0.00291   0.00291   7.31007
    Y2       -7.05747  -0.00000   0.00000  -0.03627  -0.03627  -7.09373
    Z2       -2.84661   0.00000   0.00000   0.03252   0.03252  -2.81409
    X3        8.35513   0.00000   0.00000   0.00041   0.00041   8.35555
    Y3       -8.01497  -0.00001   0.00000  -0.00671  -0.00671  -8.02168
    Z3        0.18639   0.00000   0.00000   0.04329   0.04329   0.22967
    X4        3.62075   0.00000   0.00000   0.00113   0.00113   3.62188
    Y4       -2.78940  -0.00007   0.00000   0.00060   0.00060  -2.78881
    Z4        2.26457  -0.00006   0.00000  -0.01141  -0.01141   2.25316
    X5        2.43015  -0.00000   0.00000   0.00740   0.00740   2.43755
    Y5       -4.46255  -0.00002   0.00000  -0.00525  -0.00525  -4.46780
    Z5        1.99637   0.00002   0.00000  -0.00415  -0.00415   1.99223
    X6        2.80764  -0.00018   0.00000  -0.00932  -0.00932   2.79833
    Y6       -1.34694  -0.00007   0.00000   0.00969   0.00969  -1.33725
    Z6        4.32068  -0.00010   0.00000  -0.02208  -0.02208   4.29860
    X7        1.03178   0.00006   0.00000  -0.01090  -0.01090   1.02088
    Y7       -0.90616  -0.00003   0.00000   0.00048   0.00048  -0.90568
    Z7        4.10008   0.00002   0.00000  -0.02751  -0.02751   4.07257
    X8        6.36604  -0.00001   0.00000   0.00343   0.00343   6.36947
    Y8       -3.57546   0.00001   0.00000   0.01583   0.01583  -3.55964
    Z8        2.63888   0.00002   0.00000  -0.00156  -0.00156   2.63731
    X9        6.55206  -0.00001   0.00000   0.00781   0.00781   6.55987
    Y9       -5.23991   0.00001   0.00000   0.02827   0.02827  -5.21164
    Z9        3.85234   0.00002   0.00000   0.01504   0.01504   3.86738
   X10        7.76678  -0.00006   0.00000  -0.00623  -0.00623   7.76056
   Y10       -1.52857   0.00009   0.00000   0.03187   0.03187  -1.49669
   Z10        3.60644   0.00001   0.00000  -0.02112  -0.02112   3.58533
   X11        6.72862  -0.00001   0.00000  -0.01081  -0.01081   6.71781
   Y11       -0.72884  -0.00001   0.00000   0.03768   0.03768  -0.69116
   Z11        4.87749   0.00002   0.00000  -0.02833  -0.02833   4.84915
   X12        3.79020   0.00001   0.00000   0.00426   0.00426   3.79446
   Y12       -1.31385  -0.00006   0.00000  -0.01168  -0.01168  -1.32552
   Z12       -0.22956  -0.00008   0.00000  -0.01745  -0.01745  -0.24701
   X13        4.36571   0.00001   0.00000   0.00538   0.00538   4.37109
   Y13        0.63034   0.00000   0.00000  -0.01094  -0.01094   0.61940
   Z13        0.18213  -0.00002   0.00000  -0.02289  -0.02289   0.15925
   X14        7.22272   0.00007   0.00000   0.00474   0.00474   7.22747
   Y14       -4.10993   0.00005   0.00000  -0.00727  -0.00727  -4.11720
   Z14       -0.06260   0.00002   0.00000   0.00339   0.00339  -0.05921
   X15        9.16677  -0.00001   0.00000   0.00470   0.00470   9.17148
   Y15       -3.45911   0.00001   0.00000  -0.00965  -0.00965  -3.46876
   Z15       -0.28842  -0.00001   0.00000  -0.00137  -0.00137  -0.28979
   X16        5.63802   0.00002   0.00000   0.00469   0.00469   5.64271
   Y16       -2.59269  -0.00014   0.00000  -0.02034  -0.02034  -2.61303
   Z16       -1.65979  -0.00003   0.00000  -0.00982  -0.00982  -1.66961
   X17        1.47463   0.00008   0.00000   0.00360   0.00360   1.47823
   Y17       -1.17974  -0.00002   0.00000  -0.01007  -0.01007  -1.18981
   Z17       -1.65182  -0.00002   0.00000  -0.01538  -0.01538  -1.66720
   X18        0.36440  -0.00001   0.00000   0.00810   0.00810   0.37250
   Y18       -3.39705  -0.00005   0.00000  -0.00588  -0.00588  -3.40293
   Z18       -2.54456  -0.00013   0.00000  -0.03172  -0.03172  -2.57629
   X19        1.39105  -0.00002   0.00000   0.00963   0.00963   1.40067
   Y19       -5.10774   0.00001   0.00000  -0.00766  -0.00766  -5.11540
   Z19       -2.10972  -0.00002   0.00000  -0.04261  -0.04261  -2.15233
   X20       -1.74955   0.00013   0.00000   0.00908   0.00908  -1.74047
   Y20       -3.41465  -0.00003   0.00000   0.00061   0.00061  -3.41404
   Z20       -3.89890  -0.00009   0.00000  -0.03327  -0.03327  -3.93217
   X21       -2.47311   0.00000   0.00000   0.01138   0.01138  -2.46174
   Y21       -5.21429   0.00003   0.00000   0.00403   0.00403  -5.21026
   Z21       -4.54320   0.00001   0.00000  -0.04544  -0.04544  -4.58864
   X22       -3.14879   0.00016   0.00000   0.00467   0.00467  -3.14412
   Y22       -1.04771  -0.00001   0.00000   0.00341   0.00341  -1.04430
   Z22       -4.61138   0.00010   0.00000  -0.01603  -0.01603  -4.62741
   X23       -3.35193   0.00000   0.00000   0.01116   0.01116  -3.34077
   Y23       -0.96147   0.00001   0.00000   0.02288   0.02288  -0.93859
   Z23       -6.67653  -0.00003   0.00000  -0.01590  -0.01590  -6.69244
   X24       -5.08232  -0.00009   0.00000   0.00151   0.00151  -5.08081
   Y24       -1.10724   0.00000   0.00000  -0.01111  -0.01111  -1.11835
   Z24       -3.85808  -0.00007   0.00000  -0.02436  -0.02436  -3.88244
   X25       -1.77131   0.00005   0.00000  -0.00784  -0.00784  -1.77915
   Y25        1.24912   0.00003   0.00000  -0.00178  -0.00178   1.24734
   Z25       -3.62995   0.00012   0.00000   0.01429   0.01429  -3.61566
   X26        0.37337  -0.00006   0.00000  -0.00623  -0.00623   0.36714
   Y26        1.06329   0.00000   0.00000  -0.00803  -0.00803   1.05526
   Z26       -2.28046   0.00002   0.00000   0.00997   0.00997  -2.27048
   X27        1.29336  -0.00000   0.00000  -0.01401  -0.01401   1.27935
   Y27        2.76668   0.00002   0.00000  -0.01147  -0.01147   2.75521
   Z27       -1.61154   0.00002   0.00000   0.02924   0.02924  -1.58230
   X28       -2.76338  -0.00016   0.00000  -0.02257  -0.02257  -2.78595
   Y28        3.82057  -0.00025   0.00000  -0.00090  -0.00090   3.81968
   Z28       -4.05871  -0.00014   0.00000   0.05446   0.05446  -4.00424
   X29       -1.72717  -0.00008   0.00000  -0.06074  -0.06074  -1.78790
   Y29        5.74449   0.00014   0.00000  -0.00944  -0.00944   5.73505
   Z29       -3.33745   0.00063   0.00000   0.13308   0.13308  -3.20437
   X30       -5.05513   0.00051   0.00000   0.00507   0.00507  -5.05006
   Y30        3.92624   0.00021   0.00000   0.00742   0.00742   3.93367
   Z30       -5.27577   0.00030   0.00000   0.00366   0.00366  -5.27211
   X31       -5.62462  -0.00009   0.00000   0.00051   0.00051  -5.62411
   Y31        5.65725   0.00015   0.00000   0.01547   0.01547   5.67273
   Z31       -5.82147  -0.00009   0.00000   0.03263   0.03263  -5.78884
   X32       -5.71957  -0.00012   0.00000   0.04272   0.04272  -5.67685
   Y32        2.43343  -0.00023   0.00000   0.02502   0.02502   2.45845
   Z32       -6.23996  -0.00027   0.00000  -0.05128  -0.05128  -6.29124
   X33        5.09107  -0.00002   0.00000   0.00191   0.00191   5.09298
   Y33       -7.58070  -0.00000   0.00000  -0.00804  -0.00804  -7.58874
   Z33       -0.40061   0.00001   0.00000   0.03739   0.03739  -0.36322
   X34        0.44279   0.00021   0.00000  -0.00031  -0.00031   0.44248
   Y34        4.21253   0.00010   0.00000  -0.00024  -0.00024   4.21229
   Z34        5.09829  -0.00022   0.00000  -0.00556  -0.00556   5.09273
   X35       -3.28180  -0.00000   0.00000   0.00115   0.00115  -3.28065
   Y35        1.75145  -0.00016   0.00000   0.00048   0.00048   1.75193
   Z35        2.53892   0.00014   0.00000   0.00253   0.00253   2.54145
   X36       -5.66287  -0.00008   0.00000   0.00922   0.00922  -5.65365
   Y36        1.66651   0.00014   0.00000  -0.00152  -0.00152   1.66499
   Z36        1.08486  -0.00001   0.00000  -0.01058  -0.01058   1.07428
   X37       -9.30200  -0.00007   0.00000   0.00233   0.00233  -9.29967
   Y37       -0.76841   0.00005   0.00000   0.00090   0.00090  -0.76751
   Z37       -0.67585   0.00016   0.00000  -0.00049  -0.00049  -0.67634
   X38       -6.85933  -0.00019   0.00000  -0.00746  -0.00746  -6.86679
   Y38       -0.50914  -0.00003   0.00000   0.00275   0.00275  -0.50639
   Z38        0.70400   0.00010   0.00000   0.01648   0.01648   0.72048
   X39       -2.13082  -0.00025   0.00000  -0.03742  -0.03742  -2.16825
   Y39       -0.11960   0.00017   0.00000   0.00066   0.00066  -0.11894
   Z39        3.21917   0.00005   0.00000   0.06761   0.06761   3.28678
   X40       -2.33338   0.00003   0.00000   0.05320   0.05320  -2.28018
   Y40        4.84469   0.00011   0.00000   0.00432   0.00432   4.84901
   Z40        3.24919  -0.00044   0.00000  -0.08400  -0.08400   3.16518
   X41        1.03668  -0.00005   0.00000  -0.00123  -0.00123   1.03545
   Y41        6.01223  -0.00018   0.00000   0.00312   0.00312   6.01535
   Z41        5.89408  -0.00010   0.00000  -0.01427  -0.01427   5.87981
   X42        1.94248  -0.00011   0.00000   0.02030   0.02030   1.96277
   Y42        3.44496   0.00005   0.00000  -0.03422  -0.03422   3.41074
   Z42        3.92069   0.00009   0.00000   0.04405   0.04405   3.96474
   X43      -10.78715  -0.00001   0.00000  -0.01292  -0.01292 -10.80007
   Y43       -1.40325   0.00002   0.00000   0.02459   0.02459  -1.37865
   Z43        0.61087   0.00003   0.00000  -0.00653  -0.00653   0.60434
   X44       -9.88096  -0.00000   0.00000   0.02028   0.02028  -9.86068
   Y44        1.01601  -0.00001   0.00000  -0.00616  -0.00616   1.00985
   Z44       -1.52361   0.00001   0.00000  -0.02760  -0.02760  -1.55121
   X45       -9.15785   0.00000   0.00000   0.00697   0.00697  -9.15088
   Y45       -2.19938  -0.00002   0.00000  -0.01740  -0.01740  -2.21678
   Z45       -2.15631   0.00000   0.00000   0.01731   0.01731  -2.13899
   X46       -6.00023   0.00003   0.00000  -0.02581  -0.02581  -6.02605
   Y46       -2.21282   0.00002   0.00000   0.00689   0.00689  -2.20593
   Z46        1.46380   0.00000   0.00000   0.04650   0.04650   1.51029
   X47       -6.39349   0.00002   0.00000   0.03068   0.03068  -6.36280
   Y47        3.44562  -0.00010   0.00000  -0.00730  -0.00730   3.43832
   Z47        0.37375   0.00008   0.00000  -0.04600  -0.04600   0.32775
   X48        0.00304   0.00003   0.00000  -0.05438  -0.05438  -0.05134
   Y48        2.88775   0.00006   0.00000   0.02549   0.02549   2.91324
   Z48        6.60773  -0.00010   0.00000   0.00130   0.00130   6.60902
         Item               Value     Threshold  Converged?
 Maximum Force            0.000630     0.000450     NO 
 RMS     Force            0.000120     0.000300     YES
 Maximum Displacement     0.133080     0.001800     NO 
 RMS     Displacement     0.025007     0.001200     NO 
 Predicted change in Energy=-1.202773D-04
 GradGradGradGradGradGradGradGradGradGradGradGradGradGradGradGradGradGrad

 Leave Link  103 at Sat Aug 13 20:34:32 2022, MaxMem=  2684354560 cpu:               0.9 elap:               0.1
 (Enter /storage/apps/GAUSSIAN/G16_RevA03/g16/l9999.exe)

 Test job not archived.
 1\1\GINC-T027\Force\RM062X\def2TZVP\C16H24N2O5S1\LV87696\13-Aug-2022\0
 \\#P M062X/Def2TZVP scf=(direct,conver=8) EmpiricalDispersion=GD3 Forc
 e Charge Prop=(Field,Read)\\Gaussian run\\0,1\C,3.693089,-3.630536,-0.
 436172\H,3.866781,-3.73465,-1.50636\H,4.421347,-4.241342,0.098632\C,1.
 91602,-1.476088,1.198359\H,1.28598,-2.361482,1.056436\O,1.485741,-0.71
 2768,2.286404\H,0.545997,-0.479519,2.169669\C,3.368764,-1.892054,1.396
 433\H,3.467202,-2.772839,2.038573\O,4.110005,-0.808883,1.908447\H,3.56
 0633,-0.385686,2.581054\C,2.005685,-0.695257,-0.121478\H,2.310234,0.33
 3564,0.096381\C,3.822101,-2.174883,-0.033126\H,4.850848,-1.830481,-0.1
 52623\O,2.983511,-1.371991,-0.878323\N,0.780342,-0.624293,-0.874104\C,
 0.192832,-1.797641,-1.346525\H,0.736111,-2.702898,-1.116416\C,-0.92582
 4,-1.806956,-2.063207\H,-1.308716,-2.759283,-2.404157\C,-1.66627,-0.55
 4425,-2.440235\H,-1.773765,-0.508787,-3.53307\H,-2.689449,-0.585926,-2
 .041606\C,-0.937339,0.661005,-1.920888\C,0.197579,0.56267,-1.206766\H,
 0.684416,1.464063,-0.852792\C,-1.462317,2.021761,-2.147775\O,-0.913977
 ,3.039853,-1.766101\N,-2.675058,2.077678,-2.791815\H,-2.976421,2.99368
 9,-3.080591\H,-3.026664,1.287717,-3.302046\H,2.694076,-4.011535,-0.211
 992\C,0.234316,2.229177,2.697901\C,-1.736653,0.926827,1.343536\C,-2.99
 6662,0.881878,0.574082\C,-4.922405,-0.406626,-0.357647\C,-3.629799,-0.
 269427,0.372539\O,-1.127584,-0.063289,1.703509\S,-1.234771,2.563699,1.
 719395\H,0.548586,3.181536,3.119013\H,1.027914,1.822996,2.074738\H,-5.
 708314,-0.742567,0.323258\H,-5.228778,0.537649,-0.806261\H,-4.846123,-
 1.16386,-1.141068\H,-3.175187,-1.170975,0.774607\H,-3.383287,1.823345,
 0.19778\H,0.00161,1.528131,3.496659\\Version=ES64L-G16RevA.03\State=1-
 A\HF=-1507.9337139\RMSD=3.418e-09\RMSF=1.195e-04\Dipole=-1.5883573,-1.
 1510946,-0.1568791\Quadrupole=3.7919903,-2.99449,-0.7975003,-2.0087444
 ,8.1522809,4.6496328\PG=C01 [X(C16H24N2O5S1)]\\@


 OLD HORSE! OLD HORSE! WHAT BROUGHT YOU HERE?
 FROM SACARAP' TO PORTLAND PIER
 I'VE CARTED STONE THIS MANY A YEAR;
 TILL, KILLED BY BLOWS AND SORE ABUSE,
 THEY SALTED ME DOWN FOR SAILORS' USE.
 THE SAILORS THEY DO ME DESPISE;
 THEY TURN ME OVER AND DAMN MY EYES;
 CUT OFF MY MEAT, AND SCRAPE MY BONES,
 AND PITCH ME OVER TO DAVY JONES.

    SAILORS' COMPLAINT ABOUT THE BEEF
    SERVED ON SHIPBOARD, CIRCA 1835.
 Job cpu time:       0 days  3 hours  8 minutes 46.9 seconds.
 Elapsed time:       0 days  0 hours 11 minutes 49.4 seconds.
 File lengths (MBytes):  RWF=    435 Int=      0 D2E=      0 Chk=     48 Scr=      1
 Normal termination of Gaussian 16 at Sat Aug 13 20:34:32 2022.
