 Entering Gaussian System, Link 0=g16
 Initial command:
 /storage/apps/GAUSSIAN/G16_RevA03/g16/l1.exe "/scratch/tmp/1019166/Gau-131775.inp" -scrdir="/scratch/tmp/1019166/"
 Entering Link 1 = /storage/apps/GAUSSIAN/G16_RevA03/g16/l1.exe PID=    131779.
  
 Copyright (c) 1988,1990,1992,1993,1995,1998,2003,2009,2016,
            Gaussian, Inc.  All Rights Reserved.
  
 This is part of the Gaussian(R) 16 program.  It is based on
 the Gaussian(R) 09 system (copyright 2009, Gaussian, Inc.),
 the Gaussian(R) 03 system (copyright 2003, Gaussian, Inc.),
 the Gaussian(R) 98 system (copyright 1998, Gaussian, Inc.),
 the Gaussian(R) 94 system (copyright 1995, Gaussian, Inc.),
 the Gaussian 92(TM) system (copyright 1992, Gaussian, Inc.),
 the Gaussian 90(TM) system (copyright 1990, Gaussian, Inc.),
 the Gaussian 88(TM) system (copyright 1988, Gaussian, Inc.),
 the Gaussian 86(TM) system (copyright 1986, Carnegie Mellon
 University), and the Gaussian 82(TM) system (copyright 1983,
 Carnegie Mellon University). Gaussian is a federally registered
 trademark of Gaussian, Inc.
  
 This software contains proprietary and confidential information,
 including trade secrets, belonging to Gaussian, Inc.
  
 This software is provided under written license and may be
 used, copied, transmitted, or stored only in accord with that
 written license.
  
 The following legend is applicable only to US Government
 contracts under FAR:
  
                    RESTRICTED RIGHTS LEGEND
  
 Use, reproduction and disclosure by the US Government is
 subject to restrictions as set forth in subparagraphs (a)
 and (c) of the Commercial Computer Software - Restricted
 Rights clause in FAR 52.227-19.
  
 Gaussian, Inc.
 340 Quinnipiac St., Bldg. 40, Wallingford CT 06492
  
  
 ---------------------------------------------------------------
 Warning -- This program may not be used in any manner that
 competes with the business of Gaussian, Inc. or will provide
 assistance to any competitor of Gaussian, Inc.  The licensee
 of this program is prohibited from giving any competitor of
 Gaussian, Inc. access to this program.  By using this program,
 the user acknowledges that Gaussian, Inc. is engaged in the
 business of creating and licensing software in the field of
 computational chemistry and represents and warrants to the
 licensee that it is not a competitor of Gaussian, Inc. and that
 it will not use this program in any manner prohibited above.
 ---------------------------------------------------------------
  

 Cite this work as:
 Gaussian 16, Revision A.03,
 M. J. Frisch, G. W. Trucks, H. B. Schlegel, G. E. Scuseria, 
 M. A. Robb, J. R. Cheeseman, G. Scalmani, V. Barone, 
 G. A. Petersson, H. Nakatsuji, X. Li, M. Caricato, A. V. Marenich, 
 J. Bloino, B. G. Janesko, R. Gomperts, B. Mennucci, H. P. Hratchian, 
 J. V. Ortiz, A. F. Izmaylov, J. L. Sonnenberg, D. Williams-Young, 
 F. Ding, F. Lipparini, F. Egidi, J. Goings, B. Peng, A. Petrone, 
 T. Henderson, D. Ranasinghe, V. G. Zakrzewski, J. Gao, N. Rega, 
 G. Zheng, W. Liang, M. Hada, M. Ehara, K. Toyota, R. Fukuda, 
 J. Hasegawa, M. Ishida, T. Nakajima, Y. Honda, O. Kitao, H. Nakai, 
 T. Vreven, K. Throssell, J. A. Montgomery, Jr., J. E. Peralta, 
 F. Ogliaro, M. J. Bearpark, J. J. Heyd, E. N. Brothers, K. N. Kudin, 
 V. N. Staroverov, T. A. Keith, R. Kobayashi, J. Normand, 
 K. Raghavachari, A. P. Rendell, J. C. Burant, S. S. Iyengar, 
 J. Tomasi, M. Cossi, J. M. Millam, M. Klene, C. Adamo, R. Cammi, 
 J. W. Ochterski, R. L. Martin, K. Morokuma, O. Farkas, 
 J. B. Foresman, and D. J. Fox, Gaussian, Inc., Wallingford CT, 2016.
 
 ******************************************
 Gaussian 16:  ES64L-G16RevA.03 25-Dec-2016
                13-Aug-2022 
 ******************************************
 %NProcShared=16
 Will use up to   16 processors via shared memory.
 %mem=20GB
 ----------------------------------------------------------------------
 #P M062X/Def2TZVP scf=(direct,conver=8) EmpiricalDispersion=GD3 Force 
 Charge Prop=(Field,Read)
 ----------------------------------------------------------------------
 1/10=7,18=10,28=-2,30=1,38=1,125=101/1,3;
 2/12=2,17=6,18=5,29=2,40=1/2;
 3/5=44,7=101,11=2,25=1,30=1,71=1,74=-55,124=31/1,2,3;
 4//1;
 5/5=2,6=8,38=5/2;
 6/7=2,8=2,9=2,10=2,14=2,15=1,28=1/1,2;
 7/7=1,16=-2,29=1/1,2,3,16;
 1/10=7,18=10,28=-2,30=1/3;
 99/12=1/99;
 Leave Link    1 at Sat Aug 13 20:09:18 2022, MaxMem=  2684354560 cpu:               0.6 elap:               0.0
 (Enter /storage/apps/GAUSSIAN/G16_RevA03/g16/l101.exe)
 ------------
 Gaussian run
 ------------
 Symbolic Z-matrix:
 Charge =  0 Multiplicity = 1
 C                     3.6007   -3.61613  -0.44378 
 H                     3.7492   -3.71147  -1.51867 
 H                     4.33398  -4.24048   0.06793 
 C                     1.87805  -1.44713   1.23304 
 H                     1.22569  -2.31749   1.09377 
 O                     1.48787  -0.68547   2.33549 
 H                     0.56158  -0.40842   2.20231 
 C                     3.32542  -1.88837   1.40633 
 H                     3.41841  -2.77426   2.0423 
 O                     4.08582  -0.81777   1.91559 
 H                     3.54239  -0.38503   2.58712 
 C                     1.96059  -0.66228  -0.08637 
 H                     2.26533   0.36741   0.12728 
 C                     3.75802  -2.16664  -0.02885 
 H                     4.79084  -1.83868  -0.15774 
 O                     2.92561  -1.33934  -0.85546 
 N                     0.73065  -0.59749  -0.83417 
 C                     0.18773  -1.7737   -1.34584 
 H                     0.79186  -2.6563   -1.19418 
 C                    -0.94915  -1.79227  -2.03339 
 H                    -1.29594  -2.73114  -2.44249 
 C                    -1.77101  -0.56334  -2.24099 
 H                    -2.12276  -0.49916  -3.27662 
 H                    -2.69261  -0.64728  -1.65245 
 C                    -1.00597   0.66612  -1.8544 
 C                     0.15275   0.58535  -1.17426 
 H                     0.66866   1.48961  -0.87295 
 C                    -1.50688   2.01639  -2.17369 
 O                    -0.84335   3.02645  -2.03892 
 N                    -2.78959   2.06829  -2.66754 
 H                    -3.18245   2.99     -2.76811 
 H                    -3.42418   1.30262  -2.51872 
 H                     2.60346  -3.98925  -0.19911 
 C                     0.19926   2.19986   2.83589 
 C                    -1.61817   0.90697   1.25037 
 C                    -2.85148   0.85049   0.45999 
 C                    -4.79151  -0.42204  -0.43396 
 C                    -3.39677  -0.30988   0.09376 
 O                    -0.96469  -0.07463   1.55277 
 S                    -1.22525   2.5383    1.79189 
 H                     0.43884   3.13374   3.33902 
 H                     1.04901   1.87401   2.24126 
 H                    -5.46272  -0.59085   0.41256 
 H                    -5.11414   0.49861  -0.92218 
 H                    -4.9221   -1.25927  -1.11936 
 H                    -2.86305  -1.22468   0.33892 
 H                    -3.34951   1.79295   0.25966 
 H                    -0.04893   1.43854   3.57238 
 
 ITRead=  0  0  0  0  0  0  0  0  0  0  0  0  0  0  0  0  0  0  0  0
 ITRead=  0  0  0  0  0  0  0  0  0  0  0  0  0  0  0  0  0  0  0  0
 ITRead=  0  0  0  0  0  0  0  0
 MicOpt= -1 -1 -1 -1 -1 -1 -1 -1 -1 -1 -1 -1 -1 -1 -1 -1 -1 -1 -1 -1
 MicOpt= -1 -1 -1 -1 -1 -1 -1 -1 -1 -1 -1 -1 -1 -1 -1 -1 -1 -1 -1 -1
 MicOpt= -1 -1 -1 -1 -1 -1 -1 -1
 NAtoms=     48 NQM=       48 NQMF=       0 NMMI=      0 NMMIF=      0
                NMic=       0 NMicF=      0.
                    Isotopes and Nuclear Properties:
 (Nuclear quadrupole moments (NQMom) in fm**2, nuclear magnetic moments (NMagM)
  in nuclear magnetons)

  Atom         1           2           3           4           5           6           7           8           9          10
 IAtWgt=          12           1           1          12           1          16           1          12           1          16
 AtmWgt=  12.0000000   1.0078250   1.0078250  12.0000000   1.0078250  15.9949146   1.0078250  12.0000000   1.0078250  15.9949146
 NucSpn=           0           1           1           0           1           0           1           0           1           0
 AtZEff=  -0.0000000  -0.0000000  -0.0000000  -0.0000000  -0.0000000  -0.0000000  -0.0000000  -0.0000000  -0.0000000  -0.0000000
 NQMom=    0.0000000   0.0000000   0.0000000   0.0000000   0.0000000   0.0000000   0.0000000   0.0000000   0.0000000   0.0000000
 NMagM=    0.0000000   2.7928460   2.7928460   0.0000000   2.7928460   0.0000000   2.7928460   0.0000000   2.7928460   0.0000000
 AtZNuc=   6.0000000   1.0000000   1.0000000   6.0000000   1.0000000   8.0000000   1.0000000   6.0000000   1.0000000   8.0000000

  Atom        11          12          13          14          15          16          17          18          19          20
 IAtWgt=           1          12           1          12           1          16          14          12           1          12
 AtmWgt=   1.0078250  12.0000000   1.0078250  12.0000000   1.0078250  15.9949146  14.0030740  12.0000000   1.0078250  12.0000000
 NucSpn=           1           0           1           0           1           0           2           0           1           0
 AtZEff=  -0.0000000  -0.0000000  -0.0000000  -0.0000000  -0.0000000  -0.0000000  -0.0000000  -0.0000000  -0.0000000  -0.0000000
 NQMom=    0.0000000   0.0000000   0.0000000   0.0000000   0.0000000   0.0000000   2.0440000   0.0000000   0.0000000   0.0000000
 NMagM=    2.7928460   0.0000000   2.7928460   0.0000000   2.7928460   0.0000000   0.4037610   0.0000000   2.7928460   0.0000000
 AtZNuc=   1.0000000   6.0000000   1.0000000   6.0000000   1.0000000   8.0000000   7.0000000   6.0000000   1.0000000   6.0000000

  Atom        21          22          23          24          25          26          27          28          29          30
 IAtWgt=           1          12           1           1          12          12           1          12          16          14
 AtmWgt=   1.0078250  12.0000000   1.0078250   1.0078250  12.0000000  12.0000000   1.0078250  12.0000000  15.9949146  14.0030740
 NucSpn=           1           0           1           1           0           0           1           0           0           2
 AtZEff=  -0.0000000  -0.0000000  -0.0000000  -0.0000000  -0.0000000  -0.0000000  -0.0000000  -0.0000000  -0.0000000  -0.0000000
 NQMom=    0.0000000   0.0000000   0.0000000   0.0000000   0.0000000   0.0000000   0.0000000   0.0000000   0.0000000   2.0440000
 NMagM=    2.7928460   0.0000000   2.7928460   2.7928460   0.0000000   0.0000000   2.7928460   0.0000000   0.0000000   0.4037610
 AtZNuc=   1.0000000   6.0000000   1.0000000   1.0000000   6.0000000   6.0000000   1.0000000   6.0000000   8.0000000   7.0000000

  Atom        31          32          33          34          35          36          37          38          39          40
 IAtWgt=           1           1           1          12          12          12          12          12          16          32
 AtmWgt=   1.0078250   1.0078250   1.0078250  12.0000000  12.0000000  12.0000000  12.0000000  12.0000000  15.9949146  31.9720718
 NucSpn=           1           1           1           0           0           0           0           0           0           0
 AtZEff=  -0.0000000  -0.0000000  -0.0000000  -0.0000000  -0.0000000  -0.0000000  -0.0000000  -0.0000000  -0.0000000  -0.0000000
 NQMom=    0.0000000   0.0000000   0.0000000   0.0000000   0.0000000   0.0000000   0.0000000   0.0000000   0.0000000   0.0000000
 NMagM=    2.7928460   2.7928460   2.7928460   0.0000000   0.0000000   0.0000000   0.0000000   0.0000000   0.0000000   0.0000000
 AtZNuc=   1.0000000   1.0000000   1.0000000   6.0000000   6.0000000   6.0000000   6.0000000   6.0000000   8.0000000  16.0000000

  Atom        41          42          43          44          45          46          47          48
 IAtWgt=           1           1           1           1           1           1           1           1
 AtmWgt=   1.0078250   1.0078250   1.0078250   1.0078250   1.0078250   1.0078250   1.0078250   1.0078250
 NucSpn=           1           1           1           1           1           1           1           1
 AtZEff=  -0.0000000  -0.0000000  -0.0000000  -0.0000000  -0.0000000  -0.0000000  -0.0000000  -0.0000000
 NQMom=    0.0000000   0.0000000   0.0000000   0.0000000   0.0000000   0.0000000   0.0000000   0.0000000
 NMagM=    2.7928460   2.7928460   2.7928460   2.7928460   2.7928460   2.7928460   2.7928460   2.7928460
 AtZNuc=   1.0000000   1.0000000   1.0000000   1.0000000   1.0000000   1.0000000   1.0000000   1.0000000
 Background charge distribution read from input stream:
 Leave Link  101 at Sat Aug 13 20:09:18 2022, MaxMem=  2684354560 cpu:               1.9 elap:               0.1
 (Enter /storage/apps/GAUSSIAN/G16_RevA03/g16/l103.exe)

 GradGradGradGradGradGradGradGradGradGradGradGradGradGradGradGradGradGrad
 Berny optimization.
 Initialization pass.
 Trust Radius=3.00D-01 FncErr=1.00D-07 GrdErr=1.00D-07 EigMax=2.50D+02 EigMin=1.00D-04
 Number of steps in this run=      2 maximum allowed number of steps=      2.
 GradGradGradGradGradGradGradGradGradGradGradGradGradGradGradGradGradGrad

 Leave Link  103 at Sat Aug 13 20:09:18 2022, MaxMem=  2684354560 cpu:               0.5 elap:               0.1
 (Enter /storage/apps/GAUSSIAN/G16_RevA03/g16/l202.exe)
 ---------------------------------------------------------------------------------------------------
                            Z-MATRIX (ANGSTROMS AND DEGREES)
   CD    Cent   Atom    N1       Length/X        N2       Alpha/Y        N3        Beta/Z          J
 ---------------------------------------------------------------------------------------------------
      1      1  C        0   3.600702         -3.616129         -0.443784
      2      2  H        0   3.749195         -3.711472         -1.518672
      3      3  H        0   4.333979         -4.240480          0.067929
      4      4  C        0   1.878053         -1.447126          1.233043
      5      5  H        0   1.225686         -2.317488          1.093765
      6      6  O        0   1.487867         -0.685471          2.335492
      7      7  H        0   0.561583         -0.408417          2.202311
      8      8  C        0   3.325415         -1.888367          1.406329
      9      9  H        0   3.418407         -2.774262          2.042303
     10     10  O        0   4.085825         -0.817766          1.915590
     11     11  H        0   3.542389         -0.385027          2.587115
     12     12  C        0   1.960588         -0.662276         -0.086369
     13     13  H        0   2.265328          0.367406          0.127283
     14     14  C        0   3.758022         -2.166642         -0.028847
     15     15  H        0   4.790840         -1.838677         -0.157737
     16     16  O        0   2.925612         -1.339336         -0.855461
     17     17  N        0   0.730646         -0.597491         -0.834168
     18     18  C        0   0.187726         -1.773700         -1.345843
     19     19  H        0   0.791861         -2.656300         -1.194184
     20     20  C        0  -0.949154         -1.792274         -2.033389
     21     21  H        0  -1.295941         -2.731137         -2.442492
     22     22  C        0  -1.771009         -0.563336         -2.240991
     23     23  H        0  -2.122757         -0.499161         -3.276621
     24     24  H        0  -2.692613         -0.647276         -1.652446
     25     25  C        0  -1.005968          0.666121         -1.854399
     26     26  C        0   0.152747          0.585346         -1.174262
     27     27  H        0   0.668662          1.489611         -0.872948
     28     28  C        0  -1.506876          2.016394         -2.173691
     29     29  O        0  -0.843351          3.026451         -2.038916
     30     30  N        0  -2.789586          2.068288         -2.667539
     31     31  H        0  -3.182453          2.990002         -2.768105
     32     32  H        0  -3.424175          1.302617         -2.518717
     33     33  H        0   2.603457         -3.989247         -0.199108
     34     34  C        0   0.199256          2.199859          2.835892
     35     35  C        0  -1.618172          0.906966          1.250374
     36     36  C        0  -2.851482          0.850487          0.459992
     37     37  C        0  -4.791514         -0.422044         -0.433958
     38     38  C        0  -3.396770         -0.309883          0.093760
     39     39  O        0  -0.964694         -0.074632          1.552772
     40     40  S        0  -1.225245          2.538299          1.791890
     41     41  H        0   0.438837          3.133742          3.339019
     42     42  H        0   1.049008          1.874007          2.241262
     43     43  H        0  -5.462721         -0.590852          0.412557
     44     44  H        0  -5.114144          0.498608         -0.922175
     45     45  H        0  -4.922102         -1.259272         -1.119357
     46     46  H        0  -2.863048         -1.224676          0.338924
     47     47  H        0  -3.349512          1.792952          0.259663
     48     48  H        0  -0.048926          1.438536          3.572383
 ---------------------------------------------------------------------------------------------------
                         Z-Matrix orientation:                         
 ---------------------------------------------------------------------
 Center     Atomic      Atomic             Coordinates (Angstroms)
 Number     Number       Type             X           Y           Z
 ---------------------------------------------------------------------
      1          6           0        3.600702   -3.616129   -0.443784
      2          1           0        3.749195   -3.711472   -1.518672
      3          1           0        4.333979   -4.240480    0.067929
      4          6           0        1.878053   -1.447126    1.233043
      5          1           0        1.225686   -2.317488    1.093765
      6          8           0        1.487867   -0.685471    2.335492
      7          1           0        0.561583   -0.408417    2.202311
      8          6           0        3.325415   -1.888367    1.406329
      9          1           0        3.418407   -2.774262    2.042303
     10          8           0        4.085825   -0.817766    1.915590
     11          1           0        3.542389   -0.385027    2.587115
     12          6           0        1.960588   -0.662276   -0.086369
     13          1           0        2.265328    0.367406    0.127283
     14          6           0        3.758022   -2.166642   -0.028847
     15          1           0        4.790840   -1.838677   -0.157737
     16          8           0        2.925612   -1.339336   -0.855461
     17          7           0        0.730646   -0.597491   -0.834168
     18          6           0        0.187726   -1.773700   -1.345843
     19          1           0        0.791861   -2.656300   -1.194184
     20          6           0       -0.949154   -1.792274   -2.033389
     21          1           0       -1.295941   -2.731137   -2.442492
     22          6           0       -1.771009   -0.563336   -2.240991
     23          1           0       -2.122757   -0.499161   -3.276621
     24          1           0       -2.692613   -0.647276   -1.652446
     25          6           0       -1.005968    0.666121   -1.854399
     26          6           0        0.152747    0.585346   -1.174262
     27          1           0        0.668662    1.489611   -0.872948
     28          6           0       -1.506876    2.016394   -2.173691
     29          8           0       -0.843351    3.026451   -2.038916
     30          7           0       -2.789586    2.068288   -2.667539
     31          1           0       -3.182453    2.990002   -2.768105
     32          1           0       -3.424175    1.302617   -2.518717
     33          1           0        2.603457   -3.989247   -0.199108
     34          6           0        0.199256    2.199859    2.835892
     35          6           0       -1.618172    0.906966    1.250374
     36          6           0       -2.851482    0.850487    0.459992
     37          6           0       -4.791514   -0.422044   -0.433958
     38          6           0       -3.396770   -0.309883    0.093760
     39          8           0       -0.964694   -0.074632    1.552772
     40         16           0       -1.225245    2.538299    1.791890
     41          1           0        0.438837    3.133742    3.339019
     42          1           0        1.049008    1.874007    2.241262
     43          1           0       -5.462721   -0.590852    0.412557
     44          1           0       -5.114144    0.498608   -0.922175
     45          1           0       -4.922102   -1.259272   -1.119357
     46          1           0       -2.863048   -1.224676    0.338924
     47          1           0       -3.349512    1.792952    0.259663
     48          1           0       -0.048926    1.438536    3.572383
 ---------------------------------------------------------------------
                    Distance matrix (angstroms):
                    1          2          3          4          5
     1  C    0.000000
     2  H    1.089277   0.000000
     3  H    1.090578   1.771757   0.000000
     4  C    3.237876   4.024968   3.897677   0.000000
     5  H    3.113073   3.890516   3.796278   1.096591   0.000000
     6  O    4.558202   5.396746   5.087267   1.395621   2.067391
     7  H    5.150483   5.909040   5.785436   1.936876   2.305311
     8  C    2.546343   3.472597   2.888071   1.523016   2.165803
     9  H    2.631083   3.697070   2.624161   2.188351   2.432364
    10  O    3.692266   4.503444   3.897487   2.395041   3.332410
    11  H    4.430550   5.288241   4.673054   2.394072   3.366246
    12  C    3.397494   3.814211   4.296549   1.537417   2.161602
    13  H    4.240034   4.642012   5.051282   2.159911   3.037038
    14  C    1.515894   2.146196   2.154506   2.375785   2.774119
    15  H    2.158144   2.538608   2.455261   3.251447   3.808653
    16  O    2.410189   2.597146   3.354517   2.338984   2.765142
    17  N    4.183515   4.390565   5.202803   2.512326   2.630662
    18  C    3.982042   4.058188   5.027442   3.100727   2.706428
    19  H    3.061692   3.156660   4.080338   2.921189   2.353234
    20  C    5.153104   5.101249   6.190375   4.333798   3.845110
    21  H    5.362384   5.221867   6.346363   5.023194   4.362891
    22  C    6.434654   6.395714   7.491554   5.115237   4.814336
    23  H    7.106225   6.920198   8.177587   6.102638   5.798160
    24  H    7.062632   7.134710   8.077363   5.464137   5.067973
    25  C    6.445844   6.472064   7.502340   4.723948   4.751197
    26  C    5.484012   5.613885   6.504947   3.592039   3.836872
    27  H    5.903357   6.079302   6.866858   3.810807   4.321139
    28  C    7.797772   7.801524   8.848103   5.921111   6.076652
    29  O    8.149719   8.170786   9.167978   6.174516   6.530872
    30  N    8.837051   8.802339   9.900935   7.025634   7.035968
    31  H    9.749596   9.722067  10.808317   7.829816   7.906654
    32  H    8.823169   8.808996   9.879555   7.053397   6.912047
    33  H    1.092511   1.769498   1.768936   3.006601   2.522806
    34  C    7.493452   8.155252   8.138521   4.322960   4.949241
    35  C    7.110922   7.603040   7.957542   4.214930   4.302227
    36  C    7.899250   8.264110   8.814903   5.314615   5.202022
    37  C    8.979508   9.216325   9.904896   6.950742   6.491020
    38  C    7.757888   8.076853   8.672643   5.514984   5.137858
    39  O    6.113205   6.699337   6.901810   3.172881   3.168415
    40  S    8.134186   8.646647   8.934700   5.081966   5.483895
    41  H    8.358693   9.022892   8.958310   5.243170   5.947790
    42  H    6.622855   7.254357   7.273332   3.568437   4.349321
    43  H    9.593292   9.916013  10.460109   7.435951   6.941189
    44  H    9.649272   9.830532  10.616322   7.571107   7.224116
    45  H    8.868448   9.020207   9.796545   7.197999   6.619141
    46  H    6.936263   7.304558   7.808054   4.829800   4.299043
    47  H    8.835070   9.157117   9.771136   6.226798   6.206761
    48  H    7.416132   8.177233   7.983876   4.184830   4.677168
                    6          7          8          9         10
     6  O    0.000000
     7  H    0.975960   0.000000
     8  C    2.384719   3.234595   0.000000
     9  H    2.859369   3.712717   1.094495   0.000000
    10  O    2.634996   3.559502   1.408459   2.071082   0.000000
    11  H    2.091564   3.005632   1.923893   2.453698   0.966194
    12  C    2.467674   2.694386   2.365206   3.334211   2.923807
    13  H    2.566940   2.794707   2.801474   3.855771   2.813696
    14  C    3.596883   4.276289   1.524571   2.184995   2.389091
    15  H    4.296010   5.049959   2.143885   2.756641   2.416193
    16  O    3.560454   3.975577   2.361561   3.270917   3.049074
    17  N    3.260041   3.047054   3.663197   4.498497   4.343606
    18  C    4.053003   3.820100   4.175247   4.787270   5.171647
    19  H    4.102098   4.079483   3.710968   4.169833   4.888875
    20  C    5.123593   4.705161   5.487516   6.054020   6.472644
    21  H    5.896055   5.515398   6.072941   6.506944   7.184516
    22  C    5.619554   5.020749   6.405637   7.082714   7.186404
    23  H    6.675862   6.101853   7.317274   8.010714   8.099818
    24  H    5.777674   5.050346   6.863896   7.451161   7.662060
    25  C    5.059763   4.479815   5.993216   6.826098   6.507003
    26  C    3.964328   3.543439   4.779595   5.683115   5.194710
    27  H    3.961839   3.615411   4.864584   5.851530   4.977644
    28  C    6.049900   5.413652   7.170407   8.061228   7.485518
    29  O    6.192607   5.635616   7.307788   8.274491   7.396817
    30  N    7.135132   6.409356   8.345343   9.174534   8.752466
    31  H    7.833753   7.090282   9.142031   9.996905   9.447961
    32  H    7.186376   6.411085   8.434769   9.178495   8.975478
    33  H    4.310879   4.770577   2.740866   2.676613   4.089946
    34  C    3.199382   2.708470   5.341359   5.977842   5.005840
    35  C    3.655245   2.718041   5.681308   6.288539   5.996065
    36  C    4.970575   4.033550   6.822824   7.413098   7.282037
    37  C    6.868033   5.967055   8.451112   8.891996   9.191524
    38  C    5.387588   4.486007   7.028671   7.504440   7.717917
    39  O    2.645908   1.691991   4.660055   5.170998   5.117776
    40  S    4.248432   3.470495   6.360231   7.060419   6.283784
    41  H    4.085819   3.722105   6.106489   6.742686   5.562471
    42  H    2.598539   2.334215   4.476003   5.221115   4.071113
    43  H    7.212302   6.287189   8.938818   9.289660   9.668781
    44  H    7.456607   6.542093   9.074455   9.607509   9.717262
    45  H    7.304309   6.467475   8.648490   9.047396   9.515702
    46  H    4.817415   3.983289   6.314817   6.690246   7.137106
    47  H    5.818237   4.890457   7.708541   8.357151   8.052464
    48  H    2.898799   2.379297   5.210206   5.666675   4.993198
                   11         12         13         14         15
    11  H    0.000000
    12  C    3.118730   0.000000
    13  H    2.871901   1.094878   0.000000
    14  C    3.172366   2.344610   2.945150   0.000000
    15  H    3.347528   3.065834   3.365449   1.091278   0.000000
    16  O    3.625252   1.407545   2.077193   1.435490   2.053104
    17  N    4.433533   1.440888   2.051990   3.503681   4.299218
    18  C    5.352601   2.442248   3.327291   3.825689   4.754417
    19  H    5.198299   2.563066   3.613887   3.224265   4.211242
    20  C    6.595708   3.678910   4.434593   5.129897   6.038854
    21  H    7.362786   4.520673   5.374695   5.629110   6.562430
    22  C    7.181546   4.310105   4.771480   6.167200   7.001736
    23  H    8.154159   5.184402   5.620746   6.921856   7.701920
    24  H    7.544395   4.909695   5.364531   6.823140   7.723708
    25  C    6.443563   3.700138   3.836362   5.835477   6.538781
    26  C    5.155507   2.451196   2.490887   4.677972   5.331146
    27  H    4.872844   2.630285   2.192977   4.860539   5.346156
    28  C    7.343512   4.853400   4.716266   7.058137   7.654206
    29  O    7.230011   5.028043   4.628912   7.223657   7.678047
    30  N    8.586271   6.056614   6.021311   8.232162   8.889676
    31  H    9.235405   6.854321   6.703700   9.069989   9.680060
    32  H    8.800607   6.226780   6.344003   8.355786   9.106505
    33  H    4.651348   3.390387   4.381927   2.164232   3.067785
    34  C    4.233210   4.453506   3.868217   6.319642   6.808394
    35  C    5.485208   4.130003   4.078484   6.323522   7.113140
    36  C    6.850747   5.073754   5.150321   7.282003   8.125163
    37  C    8.864660   6.765309   7.123008   8.735119   9.690441
    38  C    7.373899   5.371956   5.702561   7.392810   8.332912
    39  O    4.634653   3.404318   3.558154   5.402043   6.258104
    40  S    5.648765   4.890917   4.434839   7.091157   7.691050
    41  H    4.751750   5.334675   4.615618   7.103068   7.476107
    42  H    3.382277   3.561120   2.866738   5.368333   5.791418
    43  H    9.266233   7.440400   7.792457   9.364831  10.344942
    44  H    9.382510   7.217898   7.454876   9.306821  10.205683
    45  H    9.281694   6.985334   7.473911   8.795288   9.777610
    46  H    6.840248   4.874898   5.373989   6.697845   7.694522
    47  H    7.593347   5.860465   5.794492   8.141171   8.923468
    48  H    4.146526   4.673117   4.286234   6.360740   6.933776
                   16         17         18         19         20
    16  O    0.000000
    17  N    2.317038   0.000000
    18  C    2.815167   1.392854   0.000000
    19  H    2.530221   2.090946   1.080260   0.000000
    20  C    4.075105   2.384820   1.328744   2.117059   0.000000
    21  H    4.719882   3.353536   2.078603   2.433678   1.081245
    22  C    4.957834   2.870295   2.470408   3.470534   1.492928
    23  H    5.661620   3.757280   3.269661   4.181482   2.143621
    24  H    5.716519   3.520051   3.107924   4.048177   2.120327
    25  C    4.525158   2.377691   2.763379   3.834913   2.465557
    26  C    3.390400   1.359682   2.365536   3.304108   2.757782
    27  H    3.618987   2.088382   3.332286   4.160162   3.838583
    28  C    5.713633   3.692319   4.233417   5.298839   3.851842
    29  O    5.887762   4.130598   4.958318   5.973370   4.819890
    30  N    6.896305   4.781178   5.037076   6.108950   4.323572
    31  H    7.727214   5.650005   6.006146   7.081887   5.328939
    32  H    7.075742   4.869359   4.887248   5.933159   3.992446
    33  H    2.748929   3.926160   3.472666   2.459432   4.562052
    34  C    5.795257   4.645092   5.768554   6.338373   6.400458
    35  C    5.488751   3.482191   4.145791   4.947827   4.303090
    36  C    6.316689   4.074694   4.402747   5.320508   4.101218
    37  C    7.782874   5.539422   5.239403   6.061676   4.381717
    38  C    6.475593   4.240204   4.130839   4.970825   3.565539
    39  O    4.746951   2.974062   3.552024   4.158878   3.976316
    40  S    6.266908   4.533748   5.516810   6.322121   5.784708
    41  H    6.617110   5.605599   6.789254   7.362007   7.419900
    42  H    4.841168   3.958273   5.187957   5.691405   5.975526
    43  H    8.516585   6.317607   6.034787   6.779933   5.272414
    44  H    8.247434   5.947331   5.783831   6.701368   4.881606
    45  H    7.852558   5.698495   5.140649   5.882743   4.111431
    46  H    5.911708   3.831989   3.528043   4.214063   3.100488
    47  H    7.101543   4.853697   5.273586   6.249839   4.886067
    48  H    6.014171   4.916384   5.879066   6.339934   6.532475
                   21         22         23         24         25
    21  H    0.000000
    22  C    2.228375   0.000000
    23  H    2.522125   1.095616   0.000000
    24  H    2.630084   1.096716   1.727605   0.000000
    25  C    3.459957   1.498768   2.151236   2.147223   0.000000
    26  C    3.834862   2.481576   3.282375   3.137529   1.346006
    27  H    4.913028   3.469600   4.186273   4.058580   2.108499
    28  C    4.759811   2.594090   2.814921   2.961892   1.475159
    29  O    5.789433   3.713213   3.949523   4.131029   2.373109
    30  N    5.031511   2.853925   2.721661   2.900708   2.410096
    31  H    6.032941   3.859564   3.681821   3.835939   3.312457
    32  H    4.561399   2.508360   2.348300   2.255591   2.587310
    33  H    4.671286   5.919637   6.632412   6.428788   6.118855
    34  C    7.376427   6.106712   7.073844   6.050972   5.079739
    35  C    5.193928   3.791408   4.767125   3.463590   3.173707
    36  C    4.865404   3.234444   4.039167   2.594403   2.965859
    37  C    4.645982   3.522610   3.899865   2.437381   4.187137
    38  C    4.087607   2.856291   3.608102   1.912827   3.234786
    39  O    4.809249   3.909170   4.984413   3.686061   3.487009
    40  S    6.760321   5.116847   5.976746   4.915741   4.104699
    41  H    8.416183   7.048994   7.970348   7.001200   5.928592
    42  H    6.974503   5.829556   6.792573   5.959661   4.738814
    43  H    5.485816   4.546516   4.977329   3.455564   5.155746
    44  H    5.226977   3.747473   3.935398   2.776717   4.215947
    45  H    4.131116   3.416398   3.614954   2.372624   4.425328
    46  H    3.530088   2.878521   3.761192   2.080383   3.440134
    47  H    5.655632   3.781142   4.389079   3.168973   3.351299
    48  H    7.424280   6.385012   7.413791   6.215990   5.564397
                   26         27         28         29         30
    26  C    0.000000
    27  H    1.083814   0.000000
    28  C    2.408548   2.588899   0.000000
    29  O    2.774677   2.451029   1.215995   0.000000
    30  N    3.617501   3.938896   1.375472   2.258556   0.000000
    31  H    4.409792   4.546854   2.027017   2.450397   1.006983
    32  H    3.887983   4.415296   2.074742   3.140456   1.005536
    33  H    5.280512   5.849391   7.540659   8.030280   8.477723
    34  C    4.323211   3.805297   5.295325   5.053121   6.264043
    35  C    3.019678   3.174521   3.601033   3.988984   4.250991
    36  C    3.430230   3.817934   3.178615   3.874526   3.356832
    37  C    5.099863   5.801781   4.445391   5.482335   3.898507
    38  C    3.874066   4.549774   3.758271   4.711622   3.694475
    39  O    3.020093   3.316448   4.307305   4.746753   5.072806
    40  S    3.809323   3.433365   4.009680   3.880620   4.749166
    41  H    5.190942   4.527323   5.951826   5.529711   6.901931
    42  H    3.758954   3.160811   5.103394   4.819655   6.234491
    43  H    5.952724   6.601114   5.397696   6.358709   4.868641
    44  H    5.273634   5.867312   4.108814   5.086922   3.303598
    45  H    5.399974   6.234879   4.848234   5.987422   4.244661
    46  H    3.828960   4.616163   4.319372   5.273081   4.459577
    47  H    3.972439   4.185755   3.060465   3.617434   2.992965
    48  H    4.826929   4.503167   5.956249   5.885513   6.844299
                   31         32         33         34         35
    31  H    0.000000
    32  H    1.722757   0.000000
    33  H    9.422654   8.349656   0.000000
    34  C    6.592804   6.527337   7.300441   0.000000
    35  C    4.788965   4.198123   6.625410   2.736509   0.000000
    36  C    3.886859   3.066775   7.322144   4.095450   1.465929
    37  C    4.436144   3.031549   8.213750   6.517214   3.830580
    38  C    4.373265   3.070170   7.044588   5.171991   2.445790
    39  O    5.742858   4.952059   5.578978   2.859106   1.217379
    40  S    4.982796   4.994350   7.825081   1.798245   1.763201
    41  H    7.101504   7.251824   8.242627   1.087508   3.681339
    42  H    6.651651   6.556924   6.538307   1.087126   3.005142
    43  H    5.304597   4.041443   8.774192   6.761553   4.210220
    44  H    3.653208   2.459954   8.956843   6.726778   4.136248
    45  H    4.878635   3.281047   8.058142   7.337431   4.606969
    46  H    5.245871   3.855929   6.149391   5.228766   2.631417
    47  H    3.260095   2.822304   8.311566   4.404121   2.182663
    48  H    7.240706   6.965076   7.121805   1.087946   2.852512
                   36         37         38         39         40
    36  C    0.000000
    37  C    2.486404   0.000000
    38  C    1.333388   1.495452   0.000000
    39  O    2.368540   4.325777   2.845883   0.000000
    40  S    2.695795   5.141625   3.963749   2.636754   0.000000
    41  H    4.932367   7.364478   6.091153   3.931188   2.348900
    42  H    4.408439   6.822049   5.398711   2.885517   2.411524
    43  H    2.982998   1.093436   2.109201   4.668921   5.445213
    44  H    2.674667   1.090892   2.152941   4.865378   5.162366
    45  H    3.351551   1.089851   2.167863   4.919830   6.046789
    46  H    2.078724   2.227228   1.087111   2.529778   4.353561
    47  H    1.084622   2.732524   2.109899   3.293533   2.723192
    48  H    4.229314   6.481101   5.134768   2.684611   2.400700
                   41         42         43         44         45
    41  H    0.000000
    42  H    1.778851   0.000000
    43  H    7.567375   7.198771   0.000000
    44  H    7.479125   7.062825   1.757822   0.000000
    45  H    8.241077   7.534278   1.756649   1.779298   0.000000
    46  H    6.236892   5.340871   2.676837   3.102823   2.523387
    47  H    5.062780   4.824965   3.189287   2.487166   3.700109
    48  H    1.779352   1.779600   6.588785   6.836735   7.282749
                   46         47         48
    46  H    0.000000
    47  H    3.057615   0.000000
    48  H    5.046507   4.689733   0.000000
 Stoichiometry    C16H24N2O5S
 Framework group  C1[X(C16H24N2O5S)]
 Deg. of freedom   138
 Full point group                 C1      NOp   1
 Largest Abelian subgroup         C1      NOp   1
 Largest concise Abelian subgroup C1      NOp   1
                         Standard orientation:                         
 ---------------------------------------------------------------------
 Center     Atomic      Atomic             Coordinates (Angstroms)
 Number     Number       Type             X           Y           Z
 ---------------------------------------------------------------------
      1          6           0       -4.675040   -1.983377   -0.523197
      2          1           0       -4.626522   -2.924539    0.023050
      3          1           0       -5.700431   -1.826008   -0.859601
      4          6           0       -2.534950    0.441192   -0.682326
      5          1           0       -2.341612   -0.197989   -1.552141
      6          8           0       -2.074520    1.742203   -0.890007
      7          1           0       -1.119275    1.700071   -1.085536
      8          6           0       -4.024239    0.473320   -0.365207
      9          1           0       -4.641554    0.540302   -1.266515
     10          8           0       -4.295075    1.539772    0.514044
     11          1           0       -3.764581    2.289489    0.213991
     12          6           0       -1.975454   -0.238973    0.577829
     13          1           0       -1.810435    0.518503    1.350976
     14          6           0       -4.231312   -0.844313    0.373225
     15          1           0       -4.947332   -0.688786    1.181936
     16          8           0       -2.962479   -1.165746    0.962611
     17          7           0       -0.728897   -0.936920    0.390412
     18          6           0       -0.694040   -2.043514   -0.454736
     19          1           0       -1.652341   -2.337980   -0.857121
     20          6           0        0.421453   -2.727637   -0.685410
     21          1           0        0.374565   -3.604133   -1.316794
     22          6           0        1.738338   -2.312977   -0.117338
     23          1           0        2.284455   -3.178217    0.274441
     24          1           0        2.375798   -1.942179   -0.929088
     25          6           0        1.561548   -1.263968    0.938422
     26          6           0        0.383124   -0.637480    1.113239
     27          1           0        0.290047    0.144341    1.858052
     28          6           0        2.679543   -0.850726    1.807566
     29          8           0        2.541564   -0.139473    2.784155
     30          7           0        3.913680   -1.346811    1.457240
     31          1           0        4.696784   -0.970483    1.966298
     32          1           0        4.080537   -1.686400    0.525606
     33          1           0       -4.034253   -2.062851   -1.404478
     34          6           0        0.260393    3.599861    0.264695
     35          6           0        1.564017    1.420415   -0.754651
     36          6           0        2.766600    0.621400   -1.008256
     37          6           0        4.043608   -0.976793   -2.421492
     38          6           0        2.780915   -0.354762   -1.916456
     39          8           0        0.486704    1.203656   -1.278507
     40         16           0        1.861486    2.783340    0.323694
     41          1           0        0.378382    4.543522    0.792194
     42          1           0       -0.501678    2.998106    0.753551
     43          1           0        4.372706   -0.413547   -3.299017
     44          1           0        4.845072   -0.920601   -1.683559
     45          1           0        3.913141   -2.012420   -2.734909
     46          1           0        1.849530   -0.593958   -2.423524
     47          1           0        3.670618    0.916124   -0.486438
     48          1           0       -0.025449    3.789012   -0.767847
 ---------------------------------------------------------------------
 Rotational constants (GHZ):           0.3333247           0.1644517           0.1400882
 Leave Link  202 at Sat Aug 13 20:09:18 2022, MaxMem=  2684354560 cpu:               0.4 elap:               0.1
 (Enter /storage/apps/GAUSSIAN/G16_RevA03/g16/l301.exe)
 Standard basis: def2TZVP (5D, 7F)
 Ernie: Thresh=  0.10000D-02 Tol=  0.10000D-05 Strict=F.
 There are  1014 symmetry adapted cartesian basis functions of A   symmetry.
 There are   894 symmetry adapted basis functions of A   symmetry.
   894 basis functions,  1434 primitive gaussians,  1014 cartesian basis functions
    95 alpha electrons       95 beta electrons
       nuclear repulsion energy      2497.1711646776 Hartrees.
 IExCor= 4336 DFT=T Ex+Corr=M062X ExCW=0 ScaHFX=  0.540000
 ScaDFX=  1.000000  1.000000  1.000000  1.000000 ScalE2=  1.000000  1.000000
 IRadAn=      5 IRanWt=     -1 IRanGd=            0 ICorTp=0 IEmpDi=131
 NAtoms=   48 NActive=   48 NUniq=   48 SFac= 1.00D+00 NAtFMM=   60 NAOKFM=F Big=F
 Integral buffers will be    131072 words long.
 Raffenetti 2 integral format.
 Two-electron integral symmetry is turned on.
 R6Disp:  Grimme-D3 Dispersion energy=       -0.0042768449 Hartrees.
 Nuclear repulsion after empirical dispersion term =     2497.1668878327 Hartrees.
 Leave Link  301 at Sat Aug 13 20:09:19 2022, MaxMem=  2684354560 cpu:               1.7 elap:               0.1
 (Enter /storage/apps/GAUSSIAN/G16_RevA03/g16/l302.exe)
 NPDir=0 NMtPBC=     1 NCelOv=     1 NCel=       1 NClECP=     1 NCelD=      1
         NCelK=      1 NCelE2=     1 NClLst=     1 CellRange=     0.0.
 One-electron integrals computed using PRISM.
 One-electron integral symmetry used in STVInt
   1 Symmetry operations used in ECPInt.
 ECPInt:  NShTT=   65703 NPrTT=  200010 LenC2=   56966 LenP2D=  121494.
 LDataN:  DoStor=T MaxTD1= 6 Len=  172
 NBasis=   894 RedAO= T EigKep=  2.63D-05  NBF=   894
 NBsUse=   894 1.00D-06 EigRej= -1.00D+00 NBFU=   894
 Precomputing XC quadrature grid using
 IXCGrd= 4 IRadAn=           5 IRanWt=          -1 IRanGd=           0 AccXCQ= 0.00D+00.
 Generated NRdTot=       0 NPtTot=           0 NUsed=           0 NTot=          32
 NSgBfM=   997   996   996   996   997 MxSgAt=    48 MxSgA2=    48.
 Leave Link  302 at Sat Aug 13 20:09:20 2022, MaxMem=  2684354560 cpu:              18.7 elap:               1.2
 (Enter /storage/apps/GAUSSIAN/G16_RevA03/g16/l303.exe)
 DipDrv:  MaxL=1.
 Leave Link  303 at Sat Aug 13 20:09:20 2022, MaxMem=  2684354560 cpu:               2.1 elap:               0.2
 (Enter /storage/apps/GAUSSIAN/G16_RevA03/g16/l401.exe)
 ExpMin= 9.52D-02 ExpMax= 6.07D+04 ExpMxC= 2.07D+03 IAcc=3 IRadAn=         5 AccDes= 0.00D+00
 Harris functional with IExCor= 1009 and IRadAn=       5 diagonalized for initial guess.
 HarFok:  IExCor= 1009 AccDes= 0.00D+00 IRadAn=         5 IDoV= 1 UseB2=F ITyADJ=14
 ICtDFT=  3500011 ScaDFX=  1.000000  1.000000  1.000000  1.000000
 FoFCou: FMM=F IPFlag=           0 FMFlag=      100000 FMFlg1=           0
         NFxFlg=           0 DoJE=T BraDBF=F KetDBF=T FulRan=T
         wScrn=  0.000000 ICntrl=       500 IOpCl=  0 I1Cent=   200000004 NGrid=           0
         NMat0=    1 NMatS0=      1 NMatT0=    0 NMatD0=    1 NMtDS0=    0 NMtDT0=    0
 Petite list used in FoFCou.
 Harris En= -1507.24323016905    
 JPrj=0 DoOrth=F DoCkMO=F.
 Leave Link  401 at Sat Aug 13 20:09:24 2022, MaxMem=  2684354560 cpu:              61.2 elap:               3.9
 (Enter /storage/apps/GAUSSIAN/G16_RevA03/g16/l502.exe)
 Integral symmetry usage will be decided dynamically.
 Closed shell SCF:
 Using DIIS extrapolation, IDIIS=  1040.
 NGot=  2684354560 LenX=  2682272944 LenY=  2681243734
 Requested convergence on RMS density matrix=1.00D-08 within 128 cycles.
 Requested convergence on MAX density matrix=1.00D-06.
 Requested convergence on             energy=1.00D-06.
 No special actions if energy rises.
 Fock matrices will be formed incrementally for  20 cycles.
 Integral accuracy reduced to 1.0D-05 until final iterations.

 Cycle   1  Pass 0  IDiag  1:
 FoFJK:  IHMeth= 1 ICntrl=       0 DoSepK=F KAlg= 0 I1Cent=           0 FoldK=F
 IRaf= 800000000 NMat=       1 IRICut=       1 DoRegI=T DoRafI=F ISym2E= 0 IDoP0=0 IntGTp=1.
 FoFCou: FMM=F IPFlag=           0 FMFlag=      100000 FMFlg1=           0
         NFxFlg=           0 DoJE=F BraDBF=F KetDBF=F FulRan=T
         wScrn=  0.000000 ICntrl=         0 IOpCl=  0 I1Cent=           0 NGrid=           0
         NMat0=    1 NMatS0=      1 NMatT0=    0 NMatD0=    1 NMtDS0=    0 NMtDT0=    0
 Symmetry not used in FoFCou.
 E= -1507.18046266652    
 DIIS: error= 1.50D-02 at cycle   1 NSaved=   1.
 NSaved= 1 IEnMin= 1 EnMin= -1507.18046266652     IErMin= 1 ErrMin= 1.50D-02
 ErrMax= 1.50D-02  0.00D+00 EMaxC= 1.00D-01 BMatC= 9.98D-01 BMatP= 9.98D-01
 IDIUse=3 WtCom= 8.50D-01 WtEn= 1.50D-01
 Coeff-Com:  0.100D+01
 Coeff-En:   0.100D+01
 Coeff:      0.100D+01
 Gap=     0.323 Goal=   None    Shift=    0.000
 GapD=    0.323 DampG=1.000 DampE=0.500 DampFc=0.5000 IDamp=-1.
 Damping current iteration by 5.00D-01
 RMSDP=4.52D-03 MaxDP=1.80D+00              OVMax= 2.07D-01

 Cycle   2  Pass 0  IDiag  1:
 RMSU=  2.26D-03    CP:  1.02D+00
 E= -1507.52361279501     Delta-E=       -0.343150128491 Rises=F Damp=T
 DIIS: error= 3.69D-03 at cycle   2 NSaved=   2.
 NSaved= 2 IEnMin= 2 EnMin= -1507.52361279501     IErMin= 2 ErrMin= 3.69D-03
 ErrMax= 3.69D-03  0.00D+00 EMaxC= 1.00D-01 BMatC= 8.62D-02 BMatP= 9.98D-01
 IDIUse=3 WtCom= 9.63D-01 WtEn= 3.69D-02
 Coeff-Com: -0.186D-01 0.102D+01
 Coeff-En:   0.141D-01 0.986D+00
 Coeff:     -0.174D-01 0.102D+01
 Gap=     0.327 Goal=   None    Shift=    0.000
 RMSDP=1.42D-03 MaxDP=5.39D-01 DE=-3.43D-01 OVMax= 1.67D-01

 Cycle   3  Pass 0  IDiag  1:
 RMSU=  1.12D-03    CP:  1.00D+00  6.20D-01
 E= -1507.88068527193     Delta-E=       -0.357072476921 Rises=F Damp=F
 DIIS: error= 3.65D-03 at cycle   3 NSaved=   3.
 NSaved= 3 IEnMin= 3 EnMin= -1507.88068527193     IErMin= 3 ErrMin= 3.65D-03
 ErrMax= 3.65D-03  0.00D+00 EMaxC= 1.00D-01 BMatC= 4.99D-02 BMatP= 8.62D-02
 IDIUse=3 WtCom= 9.63D-01 WtEn= 3.65D-02
 Coeff-Com: -0.844D-01 0.454D+00 0.630D+00
 Coeff-En:   0.000D+00 0.000D+00 0.100D+01
 Coeff:     -0.814D-01 0.437D+00 0.644D+00
 Gap=     0.211 Goal=   None    Shift=    0.000
 RMSDP=3.78D-04 MaxDP=6.99D-02 DE=-3.57D-01 OVMax= 6.46D-02

 Cycle   4  Pass 0  IDiag  1:
 RMSU=  3.23D-04    CP:  1.00D+00  6.98D-01  9.20D-01
 E= -1507.91308198948     Delta-E=       -0.032396717543 Rises=F Damp=F
 DIIS: error= 1.79D-03 at cycle   4 NSaved=   4.
 NSaved= 4 IEnMin= 4 EnMin= -1507.91308198948     IErMin= 4 ErrMin= 1.79D-03
 ErrMax= 1.79D-03  0.00D+00 EMaxC= 1.00D-01 BMatC= 9.86D-03 BMatP= 4.99D-02
 IDIUse=3 WtCom= 9.82D-01 WtEn= 1.79D-02
 Coeff-Com: -0.374D-01 0.100D+00 0.347D+00 0.590D+00
 Coeff-En:   0.000D+00 0.000D+00 0.132D+00 0.868D+00
 Coeff:     -0.368D-01 0.986D-01 0.343D+00 0.595D+00
 Gap=     0.210 Goal=   None    Shift=    0.000
 RMSDP=1.30D-04 MaxDP=1.99D-02 DE=-3.24D-02 OVMax= 1.61D-02

 Cycle   5  Pass 0  IDiag  1:
 RMSU=  8.37D-05    CP:  1.00D+00  6.83D-01  9.47D-01  7.24D-01
 E= -1507.92041345455     Delta-E=       -0.007331465075 Rises=F Damp=F
 DIIS: error= 2.55D-04 at cycle   5 NSaved=   5.
 NSaved= 5 IEnMin= 5 EnMin= -1507.92041345455     IErMin= 5 ErrMin= 2.55D-04
 ErrMax= 2.55D-04  0.00D+00 EMaxC= 1.00D-01 BMatC= 3.97D-04 BMatP= 9.86D-03
 IDIUse=3 WtCom= 9.97D-01 WtEn= 2.55D-03
 Coeff-Com: -0.108D-01 0.189D-01 0.120D+00 0.264D+00 0.608D+00
 Coeff-En:   0.000D+00 0.000D+00 0.000D+00 0.000D+00 0.100D+01
 Coeff:     -0.107D-01 0.188D-01 0.120D+00 0.264D+00 0.609D+00
 Gap=     0.210 Goal=   None    Shift=    0.000
 RMSDP=4.66D-05 MaxDP=1.46D-02 DE=-7.33D-03 OVMax= 4.16D-03

 Cycle   6  Pass 0  IDiag  1:
 RMSU=  3.21D-05    CP:  1.00D+00  6.70D-01  9.58D-01  7.36D-01  9.15D-01
 E= -1507.92073256608     Delta-E=       -0.000319111526 Rises=F Damp=F
 DIIS: error= 1.47D-04 at cycle   6 NSaved=   6.
 NSaved= 6 IEnMin= 6 EnMin= -1507.92073256608     IErMin= 6 ErrMin= 1.47D-04
 ErrMax= 1.47D-04  0.00D+00 EMaxC= 1.00D-01 BMatC= 5.18D-05 BMatP= 3.97D-04
 IDIUse=3 WtCom= 9.99D-01 WtEn= 1.47D-03
 Coeff-Com:  0.795D-04-0.397D-02 0.130D-01 0.434D-01 0.274D+00 0.674D+00
 Coeff-En:   0.000D+00 0.000D+00 0.000D+00 0.000D+00 0.000D+00 0.100D+01
 Coeff:      0.794D-04-0.396D-02 0.130D-01 0.433D-01 0.273D+00 0.674D+00
 Gap=     0.211 Goal=   None    Shift=    0.000
 RMSDP=2.11D-05 MaxDP=4.10D-03 DE=-3.19D-04 OVMax= 3.34D-03

 Cycle   7  Pass 0  IDiag  1:
 RMSU=  1.74D-05    CP:  1.00D+00  6.66D-01  9.63D-01  7.42D-01  9.89D-01
                    CP:  9.95D-01
 E= -1507.92079323316     Delta-E=       -0.000060667085 Rises=F Damp=F
 DIIS: error= 6.40D-05 at cycle   7 NSaved=   7.
 NSaved= 7 IEnMin= 7 EnMin= -1507.92079323316     IErMin= 7 ErrMin= 6.40D-05
 ErrMax= 6.40D-05  0.00D+00 EMaxC= 1.00D-01 BMatC= 9.12D-06 BMatP= 5.18D-05
 IDIUse=1 WtCom= 1.00D+00 WtEn= 0.00D+00
 Coeff-Com:  0.183D-02-0.501D-02-0.121D-01-0.248D-01 0.127D-01 0.293D+00
 Coeff-Com:  0.734D+00
 Coeff:      0.183D-02-0.501D-02-0.121D-01-0.248D-01 0.127D-01 0.293D+00
 Coeff:      0.734D+00
 Gap=     0.211 Goal=   None    Shift=    0.000
 RMSDP=1.83D-05 MaxDP=5.08D-03 DE=-6.07D-05 OVMax= 1.75D-03

 Cycle   8  Pass 0  IDiag  1:
 RMSU=  1.18D-05    CP:  1.00D+00  6.62D-01  9.64D-01  7.47D-01  1.06D+00
                    CP:  1.20D+00  1.26D+00
 E= -1507.92079992684     Delta-E=       -0.000006693679 Rises=F Damp=F
 DIIS: error= 2.97D-05 at cycle   8 NSaved=   8.
 NSaved= 8 IEnMin= 8 EnMin= -1507.92079992684     IErMin= 8 ErrMin= 2.97D-05
 ErrMax= 2.97D-05  0.00D+00 EMaxC= 1.00D-01 BMatC= 2.16D-06 BMatP= 9.12D-06
 IDIUse=1 WtCom= 1.00D+00 WtEn= 0.00D+00
 Coeff-Com:  0.980D-03-0.184D-02-0.824D-02-0.227D-01-0.469D-01 0.161D-01
 Coeff-Com:  0.367D+00 0.696D+00
 Coeff:      0.980D-03-0.184D-02-0.824D-02-0.227D-01-0.469D-01 0.161D-01
 Coeff:      0.367D+00 0.696D+00
 Gap=     0.211 Goal=   None    Shift=    0.000
 RMSDP=1.98D-05 MaxDP=3.11D-03 DE=-6.69D-06 OVMax= 6.70D-04

 Cycle   9  Pass 0  IDiag  1:
 RMSU=  9.65D-06    CP:  1.00D+00  6.59D-01  9.64D-01  7.46D-01  1.12D+00
                    CP:  1.33D+00  1.76D+00  2.04D+00
 E= -1507.92078992908     Delta-E=        0.000009997763 Rises=F Damp=F
 DIIS: error= 2.58D-05 at cycle   9 NSaved=   9.
 NSaved= 9 IEnMin= 8 EnMin= -1507.92079992684     IErMin= 9 ErrMin= 2.58D-05
 ErrMax= 2.58D-05  0.00D+00 EMaxC= 1.00D-01 BMatC= 6.55D-07 BMatP= 2.16D-06
 IDIUse=1 WtCom= 1.00D+00 WtEn= 0.00D+00
 Coeff-Com:  0.466D-03-0.808D-03-0.383D-02-0.119D-01-0.270D-01-0.746D-02
 Coeff-Com:  0.171D+00 0.406D+00 0.474D+00
 Coeff:      0.466D-03-0.808D-03-0.383D-02-0.119D-01-0.270D-01-0.746D-02
 Coeff:      0.171D+00 0.406D+00 0.474D+00
 Gap=     0.211 Goal=   None    Shift=    0.000
 RMSDP=1.87D-05 MaxDP=1.69D-03 DE= 1.00D-05 OVMax= 1.32D-04

 Cycle  10  Pass 0  IDiag  1:
 RMSU=  4.44D-06    CP:  1.00D+00  6.58D-01  9.64D-01  7.47D-01  1.15D+00
                    CP:  1.44D+00  2.18D+00  3.00D+00  2.04D+00
 E= -1507.92078085860     Delta-E=        0.000009070482 Rises=F Damp=F
 DIIS: error= 3.63D-05 at cycle  10 NSaved=  10.
 NSaved=10 IEnMin= 8 EnMin= -1507.92079992684     IErMin= 9 ErrMin= 2.58D-05
 ErrMax= 3.63D-05  0.00D+00 EMaxC= 1.00D-01 BMatC= 1.12D-06 BMatP= 6.55D-07
 IDIUse=1 WtCom= 1.00D+00 WtEn= 0.00D+00
 Coeff-Com:  0.421D-03-0.589D-03-0.361D-02-0.127D-01-0.336D-01-0.323D-01
 Coeff-Com:  0.152D+00 0.507D+00 0.122D+01-0.792D+00
 Coeff:      0.421D-03-0.589D-03-0.361D-02-0.127D-01-0.336D-01-0.323D-01
 Coeff:      0.152D+00 0.507D+00 0.122D+01-0.792D+00
 Gap=     0.211 Goal=   None    Shift=    0.000
 RMSDP=2.96D-05 MaxDP=3.00D-03 DE= 9.07D-06 OVMax= 6.61D-05

 Problem detected with inexpensive integrals.
 Switching to full accuracy and repeating last cycle.
 Cycle  11  Pass 1  IDiag  1:
 E= -1507.92080628218     Delta-E=       -0.000025423582 Rises=F Damp=F
 DIIS: error= 3.48D-04 at cycle   1 NSaved=   1.
 NSaved= 1 IEnMin= 1 EnMin= -1507.92080628218     IErMin= 1 ErrMin= 3.48D-04
 ErrMax= 3.48D-04  0.00D+00 EMaxC= 1.00D-01 BMatC= 8.69D-05 BMatP= 8.69D-05
 IDIUse=3 WtCom= 9.97D-01 WtEn= 3.48D-03
 Coeff-Com:  0.100D+01
 Coeff-En:   0.100D+01
 Coeff:      0.100D+01
 Gap=     0.211 Goal=   None    Shift=    0.000
 RMSDP=4.30D-04 MaxDP=3.56D-02 DE=-2.54D-05 OVMax= 1.00D-03

 Cycle  12  Pass 1  IDiag  1:
 RMSU=  4.29D-04    CP:  9.94D-01
 E= -1507.92086077663     Delta-E=       -0.000054494448 Rises=F Damp=F
 DIIS: error= 9.46D-06 at cycle   2 NSaved=   2.
 NSaved= 2 IEnMin= 2 EnMin= -1507.92086077663     IErMin= 2 ErrMin= 9.46D-06
 ErrMax= 9.46D-06  0.00D+00 EMaxC= 1.00D-01 BMatC= 7.04D-08 BMatP= 8.69D-05
 IDIUse=1 WtCom= 1.00D+00 WtEn= 0.00D+00
 Coeff-Com: -0.163D-01 0.102D+01
 Coeff:     -0.163D-01 0.102D+01
 Gap=     0.211 Goal=   None    Shift=    0.000
 RMSDP=1.56D-05 MaxDP=1.34D-03 DE=-5.45D-05 OVMax= 8.01D-05

 Cycle  13  Pass 1  IDiag  1:
 RMSU=  5.22D-06    CP:  9.94D-01  1.03D+00
 E= -1507.92086083368     Delta-E=       -0.000000057057 Rises=F Damp=F
 DIIS: error= 4.11D-06 at cycle   3 NSaved=   3.
 NSaved= 3 IEnMin= 3 EnMin= -1507.92086083368     IErMin= 3 ErrMin= 4.11D-06
 ErrMax= 4.11D-06  0.00D+00 EMaxC= 1.00D-01 BMatC= 5.38D-08 BMatP= 7.04D-08
 IDIUse=1 WtCom= 1.00D+00 WtEn= 0.00D+00
 Coeff-Com: -0.885D-02 0.526D+00 0.483D+00
 Coeff:     -0.885D-02 0.526D+00 0.483D+00
 Gap=     0.211 Goal=   None    Shift=    0.000
 RMSDP=5.56D-07 MaxDP=1.64D-04 DE=-5.71D-08 OVMax= 4.14D-05

 Cycle  14  Pass 1  IDiag  1:
 RMSU=  4.96D-07    CP:  9.94D-01  1.03D+00  1.02D+00
 E= -1507.92086087329     Delta-E=       -0.000000039609 Rises=F Damp=F
 DIIS: error= 1.30D-06 at cycle   4 NSaved=   4.
 NSaved= 4 IEnMin= 4 EnMin= -1507.92086087329     IErMin= 4 ErrMin= 1.30D-06
 ErrMax= 1.30D-06  0.00D+00 EMaxC= 1.00D-01 BMatC= 3.54D-09 BMatP= 5.38D-08
 IDIUse=1 WtCom= 1.00D+00 WtEn= 0.00D+00
 Coeff-Com: -0.333D-04-0.877D-02 0.186D+00 0.823D+00
 Coeff:     -0.333D-04-0.877D-02 0.186D+00 0.823D+00
 Gap=     0.211 Goal=   None    Shift=    0.000
 RMSDP=3.35D-07 MaxDP=2.46D-05 DE=-3.96D-08 OVMax= 2.21D-05

 Cycle  15  Pass 1  IDiag  1:
 RMSU=  1.37D-07    CP:  9.94D-01  1.04D+00  1.05D+00  1.02D+00
 E= -1507.92086087662     Delta-E=       -0.000000003322 Rises=F Damp=F
 DIIS: error= 4.93D-07 at cycle   5 NSaved=   5.
 NSaved= 5 IEnMin= 5 EnMin= -1507.92086087662     IErMin= 5 ErrMin= 4.93D-07
 ErrMax= 4.93D-07  0.00D+00 EMaxC= 1.00D-01 BMatC= 5.23D-10 BMatP= 3.54D-09
 IDIUse=1 WtCom= 1.00D+00 WtEn= 0.00D+00
 Coeff-Com:  0.553D-03-0.381D-01 0.544D-01 0.398D+00 0.585D+00
 Coeff:      0.553D-03-0.381D-01 0.544D-01 0.398D+00 0.585D+00
 Gap=     0.211 Goal=   None    Shift=    0.000
 RMSDP=6.53D-08 MaxDP=1.65D-05 DE=-3.32D-09 OVMax= 7.31D-06

 Cycle  16  Pass 1  IDiag  1:
 RMSU=  4.23D-08    CP:  9.94D-01  1.04D+00  1.06D+00  1.09D+00  1.11D+00
 E= -1507.92086087714     Delta-E=       -0.000000000523 Rises=F Damp=F
 DIIS: error= 1.41D-07 at cycle   6 NSaved=   6.
 NSaved= 6 IEnMin= 6 EnMin= -1507.92086087714     IErMin= 6 ErrMin= 1.41D-07
 ErrMax= 1.41D-07  0.00D+00 EMaxC= 1.00D-01 BMatC= 4.86D-11 BMatP= 5.23D-10
 IDIUse=1 WtCom= 1.00D+00 WtEn= 0.00D+00
 Coeff-Com:  0.195D-03-0.115D-01-0.161D-01 0.314D-02 0.178D+00 0.846D+00
 Coeff:      0.195D-03-0.115D-01-0.161D-01 0.314D-02 0.178D+00 0.846D+00
 Gap=     0.211 Goal=   None    Shift=    0.000
 RMSDP=3.32D-08 MaxDP=1.06D-05 DE=-5.23D-10 OVMax= 5.52D-06

 Cycle  17  Pass 1  IDiag  1:
 RMSU=  2.06D-08    CP:  9.94D-01  1.04D+00  1.06D+00  1.13D+00  1.20D+00
                    CP:  1.21D+00
 E= -1507.92086087723     Delta-E=       -0.000000000090 Rises=F Damp=F
 DIIS: error= 9.00D-08 at cycle   7 NSaved=   7.
 NSaved= 7 IEnMin= 7 EnMin= -1507.92086087723     IErMin= 7 ErrMin= 9.00D-08
 ErrMax= 9.00D-08  0.00D+00 EMaxC= 1.00D-01 BMatC= 2.10D-11 BMatP= 4.86D-11
 IDIUse=1 WtCom= 1.00D+00 WtEn= 0.00D+00
 Coeff-Com: -0.217D-04 0.252D-02-0.219D-01-0.844D-01-0.489D-01 0.473D+00
 Coeff-Com:  0.680D+00
 Coeff:     -0.217D-04 0.252D-02-0.219D-01-0.844D-01-0.489D-01 0.473D+00
 Coeff:      0.680D+00
 Gap=     0.211 Goal=   None    Shift=    0.000
 RMSDP=1.46D-08 MaxDP=2.84D-06 DE=-9.05D-11 OVMax= 3.28D-06

 Cycle  18  Pass 1  IDiag  1:
 RMSU=  9.47D-09    CP:  9.94D-01  1.04D+00  1.06D+00  1.15D+00  1.23D+00
                    CP:  1.36D+00  1.01D+00
 E= -1507.92086087729     Delta-E=       -0.000000000060 Rises=F Damp=F
 DIIS: error= 2.83D-08 at cycle   8 NSaved=   8.
 NSaved= 8 IEnMin= 8 EnMin= -1507.92086087729     IErMin= 8 ErrMin= 2.83D-08
 ErrMax= 2.83D-08  0.00D+00 EMaxC= 1.00D-01 BMatC= 2.38D-12 BMatP= 2.10D-11
 IDIUse=1 WtCom= 1.00D+00 WtEn= 0.00D+00
 Coeff-Com: -0.359D-04 0.277D-02-0.975D-02-0.454D-01-0.516D-01 0.137D+00
 Coeff-Com:  0.344D+00 0.623D+00
 Coeff:     -0.359D-04 0.277D-02-0.975D-02-0.454D-01-0.516D-01 0.137D+00
 Coeff:      0.344D+00 0.623D+00
 Gap=     0.211 Goal=   None    Shift=    0.000
 RMSDP=5.87D-09 MaxDP=2.15D-06 DE=-6.05D-11 OVMax= 5.81D-07

 Cycle  19  Pass 1  IDiag  1:
 RMSU=  3.49D-09    CP:  9.94D-01  1.04D+00  1.06D+00  1.15D+00  1.23D+00
                    CP:  1.40D+00  1.11D+00  1.07D+00
 E= -1507.92086087724     Delta-E=        0.000000000047 Rises=F Damp=F
 DIIS: error= 5.31D-09 at cycle   9 NSaved=   9.
 NSaved= 9 IEnMin= 8 EnMin= -1507.92086087729     IErMin= 9 ErrMin= 5.31D-09
 ErrMax= 5.31D-09  0.00D+00 EMaxC= 1.00D-01 BMatC= 1.06D-13 BMatP= 2.38D-12
 IDIUse=1 WtCom= 1.00D+00 WtEn= 0.00D+00
 Coeff-Com: -0.839D-05 0.541D-03-0.195D-03-0.301D-02-0.903D-02-0.137D-01
 Coeff-Com:  0.236D-01 0.177D+00 0.825D+00
 Coeff:     -0.839D-05 0.541D-03-0.195D-03-0.301D-02-0.903D-02-0.137D-01
 Coeff:      0.236D-01 0.177D+00 0.825D+00
 Gap=     0.211 Goal=   None    Shift=    0.000
 RMSDP=1.59D-09 MaxDP=1.96D-07 DE= 4.68D-11 OVMax= 2.46D-07

 SCF Done:  E(RM062X) =  -1507.92086088     A.U. after   19 cycles
            NFock= 19  Conv=0.16D-08     -V/T= 2.0036
 KE= 1.502484974685D+03 PE=-8.532630751447D+03 EE= 3.025058028052D+03
 Leave Link  502 at Sat Aug 13 20:18:27 2022, MaxMem=  2684354560 cpu:            8680.4 elap:             543.4
 (Enter /storage/apps/GAUSSIAN/G16_RevA03/g16/l601.exe)
 Copying SCF densities to generalized density rwf, IOpCl= 0 IROHF=0.

 **********************************************************************

            Population analysis using the SCF density.

 **********************************************************************

 Orbital symmetries:
       Occupied  (A) (A) (A) (A) (A) (A) (A) (A) (A) (A) (A) (A)
                 (A) (A) (A) (A) (A) (A) (A) (A) (A) (A) (A) (A)
                 (A) (A) (A) (A) (A) (A) (A) (A) (A) (A) (A) (A)
                 (A) (A) (A) (A) (A) (A) (A) (A) (A) (A) (A) (A)
                 (A) (A) (A) (A) (A) (A) (A) (A) (A) (A) (A) (A)
                 (A) (A) (A) (A) (A) (A) (A) (A) (A) (A) (A) (A)
                 (A) (A) (A) (A) (A) (A) (A) (A) (A) (A) (A) (A)
                 (A) (A) (A) (A) (A) (A) (A) (A) (A) (A) (A)
       Virtual   (A) (A) (A) (A) (A) (A) (A) (A) (A) (A) (A) (A)
                 (A) (A) (A) (A) (A) (A) (A) (A) (A) (A) (A) (A)
                 (A) (A) (A) (A) (A) (A) (A) (A) (A) (A) (A) (A)
                 (A) (A) (A) (A) (A) (A) (A) (A) (A) (A) (A) (A)
                 (A) (A) (A) (A) (A) (A) (A) (A) (A) (A) (A) (A)
                 (A) (A) (A) (A) (A) (A) (A) (A) (A) (A) (A) (A)
                 (A) (A) (A) (A) (A) (A) (A) (A) (A) (A) (A) (A)
                 (A) (A) (A) (A) (A) (A) (A) (A) (A) (A) (A) (A)
                 (A) (A) (A) (A) (A) (A) (A) (A) (A) (A) (A) (A)
                 (A) (A) (A) (A) (A) (A) (A) (A) (A) (A) (A) (A)
                 (A) (A) (A) (A) (A) (A) (A) (A) (A) (A) (A) (A)
                 (A) (A) (A) (A) (A) (A) (A) (A) (A) (A) (A) (A)
                 (A) (A) (A) (A) (A) (A) (A) (A) (A) (A) (A) (A)
                 (A) (A) (A) (A) (A) (A) (A) (A) (A) (A) (A) (A)
                 (A) (A) (A) (A) (A) (A) (A) (A) (A) (A) (A) (A)
                 (A) (A) (A) (A) (A) (A) (A) (A) (A) (A) (A) (A)
                 (A) (A) (A) (A) (A) (A) (A) (A) (A) (A) (A) (A)
                 (A) (A) (A) (A) (A) (A) (A) (A) (A) (A) (A) (A)
                 (A) (A) (A) (A) (A) (A) (A) (A) (A) (A) (A) (A)
                 (A) (A) (A) (A) (A) (A) (A) (A) (A) (A) (A) (A)
                 (A) (A) (A) (A) (A) (A) (A) (A) (A) (A) (A) (A)
                 (A) (A) (A) (A) (A) (A) (A) (A) (A) (A) (A) (A)
                 (A) (A) (A) (A) (A) (A) (A) (A) (A) (A) (A) (A)
                 (A) (A) (A) (A) (A) (A) (A) (A) (A) (A) (A) (A)
                 (A) (A) (A) (A) (A) (A) (A) (A) (A) (A) (A) (A)
                 (A) (A) (A) (A) (A) (A) (A) (A) (A) (A) (A) (A)
                 (A) (A) (A) (A) (A) (A) (A) (A) (A) (A) (A) (A)
                 (A) (A) (A) (A) (A) (A) (A) (A) (A) (A) (A) (A)
                 (A) (A) (A) (A) (A) (A) (A) (A) (A) (A) (A) (A)
                 (A) (A) (A) (A) (A) (A) (A) (A) (A) (A) (A) (A)
                 (A) (A) (A) (A) (A) (A) (A) (A) (A) (A) (A) (A)
                 (A) (A) (A) (A) (A) (A) (A) (A) (A) (A) (A) (A)
                 (A) (A) (A) (A) (A) (A) (A) (A) (A) (A) (A) (A)
                 (A) (A) (A) (A) (A) (A) (A) (A) (A) (A) (A) (A)
                 (A) (A) (A) (A) (A) (A) (A) (A) (A) (A) (A) (A)
                 (A) (A) (A) (A) (A) (A) (A) (A) (A) (A) (A) (A)
                 (A) (A) (A) (A) (A) (A) (A) (A) (A) (A) (A) (A)
                 (A) (A) (A) (A) (A) (A) (A) (A) (A) (A) (A) (A)
                 (A) (A) (A) (A) (A) (A) (A) (A) (A) (A) (A) (A)
                 (A) (A) (A) (A) (A) (A) (A) (A) (A) (A) (A) (A)
                 (A) (A) (A) (A) (A) (A) (A) (A) (A) (A) (A) (A)
                 (A) (A) (A) (A) (A) (A) (A) (A) (A) (A) (A) (A)
                 (A) (A) (A) (A) (A) (A) (A) (A) (A) (A) (A) (A)
                 (A) (A) (A) (A) (A) (A) (A) (A) (A) (A) (A) (A)
                 (A) (A) (A) (A) (A) (A) (A) (A) (A) (A) (A) (A)
                 (A) (A) (A) (A) (A) (A) (A) (A) (A) (A) (A) (A)
                 (A) (A) (A) (A) (A) (A) (A) (A) (A) (A) (A) (A)
                 (A) (A) (A) (A) (A) (A) (A) (A) (A) (A) (A) (A)
                 (A) (A) (A) (A) (A) (A) (A) (A) (A) (A) (A) (A)
                 (A) (A) (A) (A) (A) (A) (A) (A) (A) (A) (A) (A)
                 (A) (A) (A) (A) (A) (A) (A) (A) (A) (A) (A) (A)
                 (A) (A) (A) (A) (A) (A) (A) (A) (A) (A) (A) (A)
                 (A) (A) (A) (A) (A) (A) (A) (A) (A) (A) (A) (A)
                 (A) (A) (A) (A) (A) (A) (A) (A) (A) (A) (A) (A)
                 (A) (A) (A) (A) (A) (A) (A) (A) (A) (A) (A) (A)
                 (A) (A) (A) (A) (A) (A) (A) (A) (A) (A) (A) (A)
                 (A) (A) (A) (A) (A) (A) (A) (A) (A) (A) (A) (A)
                 (A) (A) (A) (A) (A) (A) (A) (A) (A) (A) (A) (A)
                 (A) (A) (A) (A) (A) (A) (A) (A) (A) (A) (A) (A)
                 (A) (A) (A) (A) (A) (A) (A) (A) (A) (A) (A) (A)
                 (A) (A) (A) (A) (A) (A) (A) (A) (A) (A) (A) (A)
                 (A) (A) (A) (A) (A) (A) (A) (A) (A) (A) (A) (A)
                 (A) (A) (A) (A) (A) (A) (A) (A) (A) (A) (A) (A)
                 (A) (A) (A) (A) (A) (A) (A) (A) (A) (A) (A) (A)
                 (A) (A) (A) (A) (A) (A) (A) (A) (A) (A) (A) (A)
                 (A) (A) (A) (A) (A) (A) (A) (A) (A) (A) (A) (A)
                 (A) (A) (A) (A) (A) (A) (A)
 The electronic state is 1-A.
 Alpha  occ. eigenvalues --  -89.92218 -19.63728 -19.63421 -19.62410 -19.62170
 Alpha  occ. eigenvalues --  -19.57864 -14.79314 -14.76129 -10.66395 -10.63519
 Alpha  occ. eigenvalues --  -10.62980 -10.59423 -10.59121 -10.58985 -10.58564
 Alpha  occ. eigenvalues --  -10.57646 -10.57521 -10.57153 -10.55880 -10.55479
 Alpha  occ. eigenvalues --  -10.54896 -10.53956 -10.53561 -10.53309  -8.28138
 Alpha  occ. eigenvalues --   -6.20079  -6.19846  -6.19643  -1.19536  -1.19038
 Alpha  occ. eigenvalues --   -1.15933  -1.15170  -1.13649  -1.08688  -1.00779
 Alpha  occ. eigenvalues --   -0.93555  -0.92011  -0.90429  -0.88543  -0.87774
 Alpha  occ. eigenvalues --   -0.85637  -0.83400  -0.79013  -0.76909  -0.75697
 Alpha  occ. eigenvalues --   -0.73603  -0.70848  -0.68154  -0.67727  -0.66505
 Alpha  occ. eigenvalues --   -0.63960  -0.63396  -0.62027  -0.60415  -0.58849
 Alpha  occ. eigenvalues --   -0.58390  -0.57443  -0.56703  -0.56298  -0.55399
 Alpha  occ. eigenvalues --   -0.54844  -0.53035  -0.52742  -0.51966  -0.51502
 Alpha  occ. eigenvalues --   -0.50835  -0.50465  -0.50239  -0.49343  -0.49299
 Alpha  occ. eigenvalues --   -0.48768  -0.48551  -0.47799  -0.47118  -0.46978
 Alpha  occ. eigenvalues --   -0.46053  -0.44796  -0.44455  -0.44204  -0.43855
 Alpha  occ. eigenvalues --   -0.43540  -0.43204  -0.41742  -0.41627  -0.37825
 Alpha  occ. eigenvalues --   -0.36191  -0.35609  -0.34714  -0.34424  -0.33931
 Alpha  occ. eigenvalues --   -0.33537  -0.32684  -0.32415  -0.31122  -0.24639
 Alpha virt. eigenvalues --   -0.03540   0.00165   0.04279   0.04324   0.05835
 Alpha virt. eigenvalues --    0.06635   0.07069   0.07503   0.08602   0.09082
 Alpha virt. eigenvalues --    0.09547   0.09696   0.10408   0.10703   0.10966
 Alpha virt. eigenvalues --    0.11995   0.12260   0.12352   0.12637   0.12996
 Alpha virt. eigenvalues --    0.13386   0.13721   0.13848   0.14178   0.14468
 Alpha virt. eigenvalues --    0.14808   0.15800   0.16136   0.17124   0.17453
 Alpha virt. eigenvalues --    0.17894   0.18660   0.19113   0.19343   0.19420
 Alpha virt. eigenvalues --    0.20543   0.20677   0.21639   0.22188   0.23003
 Alpha virt. eigenvalues --    0.23011   0.23364   0.23947   0.24246   0.24683
 Alpha virt. eigenvalues --    0.25060   0.25530   0.25929   0.26568   0.27128
 Alpha virt. eigenvalues --    0.27530   0.27882   0.28189   0.28843   0.29028
 Alpha virt. eigenvalues --    0.29858   0.30312   0.30640   0.30847   0.31120
 Alpha virt. eigenvalues --    0.31439   0.32488   0.33144   0.33854   0.34129
 Alpha virt. eigenvalues --    0.34307   0.35267   0.35400   0.35943   0.36219
 Alpha virt. eigenvalues --    0.36574   0.37530   0.38128   0.38250   0.38487
 Alpha virt. eigenvalues --    0.38678   0.39450   0.39782   0.40170   0.40413
 Alpha virt. eigenvalues --    0.40967   0.41176   0.41525   0.42339   0.42407
 Alpha virt. eigenvalues --    0.43115   0.43125   0.43539   0.43711   0.44041
 Alpha virt. eigenvalues --    0.44613   0.45116   0.45228   0.45722   0.46058
 Alpha virt. eigenvalues --    0.46331   0.46581   0.46861   0.47280   0.47819
 Alpha virt. eigenvalues --    0.48022   0.48263   0.48479   0.49030   0.49345
 Alpha virt. eigenvalues --    0.50035   0.50456   0.50557   0.51064   0.51606
 Alpha virt. eigenvalues --    0.51804   0.51956   0.52210   0.52671   0.52994
 Alpha virt. eigenvalues --    0.53511   0.54109   0.54184   0.54782   0.54925
 Alpha virt. eigenvalues --    0.55363   0.55708   0.56510   0.57298   0.57570
 Alpha virt. eigenvalues --    0.58127   0.58319   0.58919   0.59646   0.60021
 Alpha virt. eigenvalues --    0.60472   0.60979   0.61409   0.61986   0.62769
 Alpha virt. eigenvalues --    0.63031   0.63557   0.64874   0.65094   0.65977
 Alpha virt. eigenvalues --    0.66375   0.66720   0.67069   0.67639   0.67995
 Alpha virt. eigenvalues --    0.68770   0.69587   0.70221   0.70469   0.70941
 Alpha virt. eigenvalues --    0.72039   0.73130   0.73334   0.73606   0.74077
 Alpha virt. eigenvalues --    0.74850   0.75604   0.76178   0.76529   0.76748
 Alpha virt. eigenvalues --    0.77725   0.78556   0.79300   0.80995   0.81316
 Alpha virt. eigenvalues --    0.81352   0.82369   0.83237   0.84208   0.84528
 Alpha virt. eigenvalues --    0.85257   0.86145   0.86333   0.87096   0.87525
 Alpha virt. eigenvalues --    0.88415   0.89178   0.89425   0.89754   0.90331
 Alpha virt. eigenvalues --    0.90998   0.91477   0.91907   0.92952   0.93850
 Alpha virt. eigenvalues --    0.94330   0.94738   0.95178   0.95806   0.97313
 Alpha virt. eigenvalues --    0.97674   0.97863   0.98304   0.98605   0.99768
 Alpha virt. eigenvalues --    1.00487   1.01012   1.01506   1.02672   1.03318
 Alpha virt. eigenvalues --    1.03665   1.04534   1.05053   1.05600   1.06684
 Alpha virt. eigenvalues --    1.07256   1.07900   1.08060   1.09256   1.09925
 Alpha virt. eigenvalues --    1.10826   1.11245   1.12025   1.13022   1.13292
 Alpha virt. eigenvalues --    1.13956   1.14768   1.16041   1.16629   1.17127
 Alpha virt. eigenvalues --    1.18132   1.19258   1.19525   1.19728   1.20809
 Alpha virt. eigenvalues --    1.21264   1.21908   1.22983   1.23300   1.24226
 Alpha virt. eigenvalues --    1.25065   1.25759   1.26105   1.27466   1.29419
 Alpha virt. eigenvalues --    1.29779   1.30182   1.30877   1.31377   1.32428
 Alpha virt. eigenvalues --    1.33167   1.33878   1.34519   1.34841   1.35509
 Alpha virt. eigenvalues --    1.37272   1.38042   1.38725   1.39315   1.39980
 Alpha virt. eigenvalues --    1.41364   1.42154   1.43040   1.43368   1.44945
 Alpha virt. eigenvalues --    1.45634   1.45785   1.48056   1.48739   1.50040
 Alpha virt. eigenvalues --    1.50417   1.50640   1.51256   1.52198   1.53097
 Alpha virt. eigenvalues --    1.53263   1.53995   1.54267   1.55066   1.55718
 Alpha virt. eigenvalues --    1.56246   1.56735   1.57284   1.57820   1.58123
 Alpha virt. eigenvalues --    1.58823   1.59162   1.59840   1.60120   1.60669
 Alpha virt. eigenvalues --    1.60929   1.61651   1.61893   1.62067   1.62572
 Alpha virt. eigenvalues --    1.62782   1.63967   1.64368   1.65196   1.65610
 Alpha virt. eigenvalues --    1.66070   1.66669   1.67903   1.68155   1.68357
 Alpha virt. eigenvalues --    1.68865   1.69403   1.69463   1.70120   1.71404
 Alpha virt. eigenvalues --    1.72618   1.73002   1.73387   1.74204   1.74884
 Alpha virt. eigenvalues --    1.75667   1.76004   1.76925   1.77947   1.78147
 Alpha virt. eigenvalues --    1.78585   1.79335   1.79674   1.80945   1.81861
 Alpha virt. eigenvalues --    1.82981   1.83589   1.84127   1.84837   1.85033
 Alpha virt. eigenvalues --    1.85322   1.86519   1.86790   1.87287   1.88484
 Alpha virt. eigenvalues --    1.88868   1.89531   1.90067   1.90915   1.91841
 Alpha virt. eigenvalues --    1.93332   1.93812   1.94449   1.94837   1.95772
 Alpha virt. eigenvalues --    1.96841   1.96983   1.97995   1.98246   1.99275
 Alpha virt. eigenvalues --    1.99434   2.00113   2.00640   2.01677   2.02682
 Alpha virt. eigenvalues --    2.03293   2.03644   2.04530   2.05078   2.05962
 Alpha virt. eigenvalues --    2.06572   2.07280   2.07979   2.09122   2.09375
 Alpha virt. eigenvalues --    2.09757   2.11658   2.12160   2.12965   2.13050
 Alpha virt. eigenvalues --    2.14442   2.15881   2.17063   2.17685   2.18268
 Alpha virt. eigenvalues --    2.18912   2.19434   2.19809   2.20230   2.20869
 Alpha virt. eigenvalues --    2.21345   2.22148   2.23062   2.23273   2.23876
 Alpha virt. eigenvalues --    2.24597   2.25745   2.26043   2.26542   2.27119
 Alpha virt. eigenvalues --    2.27896   2.28721   2.29742   2.30278   2.30522
 Alpha virt. eigenvalues --    2.32499   2.33053   2.33312   2.33938   2.34107
 Alpha virt. eigenvalues --    2.34695   2.35796   2.36225   2.36741   2.36921
 Alpha virt. eigenvalues --    2.37624   2.38094   2.38705   2.38938   2.40441
 Alpha virt. eigenvalues --    2.41209   2.41524   2.42004   2.42535   2.44093
 Alpha virt. eigenvalues --    2.44564   2.44660   2.46132   2.46786   2.47416
 Alpha virt. eigenvalues --    2.48474   2.49834   2.50724   2.51267   2.52159
 Alpha virt. eigenvalues --    2.54076   2.54249   2.55133   2.55689   2.56072
 Alpha virt. eigenvalues --    2.56957   2.57822   2.58305   2.58706   2.59082
 Alpha virt. eigenvalues --    2.59843   2.60039   2.60875   2.61189   2.61495
 Alpha virt. eigenvalues --    2.62055   2.63147   2.63814   2.64119   2.64420
 Alpha virt. eigenvalues --    2.65261   2.65874   2.66339   2.67472   2.68207
 Alpha virt. eigenvalues --    2.69240   2.69462   2.70012   2.71260   2.72175
 Alpha virt. eigenvalues --    2.73140   2.73320   2.73827   2.74106   2.74962
 Alpha virt. eigenvalues --    2.75153   2.76158   2.77249   2.78228   2.78925
 Alpha virt. eigenvalues --    2.80081   2.80909   2.81294   2.82386   2.82700
 Alpha virt. eigenvalues --    2.83858   2.84279   2.85187   2.86157   2.86614
 Alpha virt. eigenvalues --    2.86839   2.87670   2.88783   2.89575   2.89809
 Alpha virt. eigenvalues --    2.89889   2.91423   2.92024   2.92355   2.93376
 Alpha virt. eigenvalues --    2.94027   2.94202   2.95311   2.96321   2.97153
 Alpha virt. eigenvalues --    2.98004   2.98836   3.00529   3.00986   3.01659
 Alpha virt. eigenvalues --    3.02415   3.02604   3.03021   3.04623   3.05557
 Alpha virt. eigenvalues --    3.05842   3.06245   3.07053   3.07438   3.08109
 Alpha virt. eigenvalues --    3.08621   3.08935   3.09231   3.09887   3.10281
 Alpha virt. eigenvalues --    3.10829   3.12129   3.12669   3.12935   3.13438
 Alpha virt. eigenvalues --    3.14500   3.15260   3.15865   3.16361   3.16712
 Alpha virt. eigenvalues --    3.17189   3.17306   3.17556   3.17806   3.18165
 Alpha virt. eigenvalues --    3.18645   3.18896   3.20054   3.20896   3.21304
 Alpha virt. eigenvalues --    3.22265   3.23652   3.24476   3.24781   3.25434
 Alpha virt. eigenvalues --    3.25711   3.26592   3.27005   3.27682   3.29111
 Alpha virt. eigenvalues --    3.29245   3.30015   3.30856   3.31527   3.31618
 Alpha virt. eigenvalues --    3.32570   3.32616   3.33601   3.34064   3.34424
 Alpha virt. eigenvalues --    3.35194   3.36179   3.36346   3.36752   3.37295
 Alpha virt. eigenvalues --    3.37570   3.38585   3.39596   3.40132   3.40715
 Alpha virt. eigenvalues --    3.41153   3.41993   3.43192   3.43830   3.44135
 Alpha virt. eigenvalues --    3.44883   3.45131   3.45927   3.46270   3.47114
 Alpha virt. eigenvalues --    3.47490   3.48513   3.48742   3.49743   3.50188
 Alpha virt. eigenvalues --    3.50676   3.52650   3.52992   3.53960   3.54687
 Alpha virt. eigenvalues --    3.55854   3.56095   3.56493   3.56754   3.57253
 Alpha virt. eigenvalues --    3.58632   3.59176   3.59879   3.60198   3.61819
 Alpha virt. eigenvalues --    3.62243   3.63191   3.64198   3.65111   3.65644
 Alpha virt. eigenvalues --    3.66208   3.66651   3.67718   3.68585   3.69544
 Alpha virt. eigenvalues --    3.70060   3.71721   3.72457   3.74426   3.75352
 Alpha virt. eigenvalues --    3.76533   3.76972   3.78692   3.79128   3.80039
 Alpha virt. eigenvalues --    3.81399   3.81532   3.82192   3.82937   3.83319
 Alpha virt. eigenvalues --    3.85683   3.86213   3.88894   3.89343   3.89989
 Alpha virt. eigenvalues --    3.90845   3.91743   3.93713   3.94474   3.95140
 Alpha virt. eigenvalues --    3.97511   3.97882   3.99082   3.99774   4.01071
 Alpha virt. eigenvalues --    4.01635   4.01881   4.03523   4.05053   4.06859
 Alpha virt. eigenvalues --    4.09648   4.10337   4.10542   4.14066   4.15413
 Alpha virt. eigenvalues --    4.16634   4.17575   4.18260   4.18642   4.19355
 Alpha virt. eigenvalues --    4.19654   4.21393   4.21438   4.22831   4.24698
 Alpha virt. eigenvalues --    4.25979   4.26654   4.29262   4.30886   4.31382
 Alpha virt. eigenvalues --    4.32578   4.37630   4.38507   4.38864   4.39503
 Alpha virt. eigenvalues --    4.40595   4.40986   4.41756   4.42610   4.43376
 Alpha virt. eigenvalues --    4.45455   4.47765   4.49268   4.49813   4.52024
 Alpha virt. eigenvalues --    4.52759   4.53951   4.55421   4.58408   4.59613
 Alpha virt. eigenvalues --    4.63622   4.65405   4.65798   4.67440   4.70217
 Alpha virt. eigenvalues --    4.71949   4.72362   4.72877   4.74924   4.75545
 Alpha virt. eigenvalues --    4.76333   4.78702   4.81923   4.82628   4.84926
 Alpha virt. eigenvalues --    4.87574   4.88256   4.90009   4.91070   4.92412
 Alpha virt. eigenvalues --    4.93947   4.95611   4.97829   4.98876   5.00521
 Alpha virt. eigenvalues --    5.02329   5.03115   5.04902   5.06341   5.09244
 Alpha virt. eigenvalues --    5.12241   5.14745   5.17009   5.20026   5.21267
 Alpha virt. eigenvalues --    5.22753   5.24238   5.25242   5.27359   5.28645
 Alpha virt. eigenvalues --    5.29383   5.31577   5.32010   5.35730   5.39146
 Alpha virt. eigenvalues --    5.40686   5.42919   5.44534   5.47527   5.49030
 Alpha virt. eigenvalues --    5.49746   5.50901   5.53518   5.55016   5.56735
 Alpha virt. eigenvalues --    5.64733   5.68837   5.76173   5.77258   5.79791
 Alpha virt. eigenvalues --    5.80205   5.82474   5.83320   5.84300   5.89029
 Alpha virt. eigenvalues --    5.89781   5.91975   5.94156   5.96551   5.97961
 Alpha virt. eigenvalues --    5.99686   6.05343   6.07658   6.16973   6.18883
 Alpha virt. eigenvalues --    6.22089   6.25785   6.28402   6.30176   6.38925
 Alpha virt. eigenvalues --    6.39629   6.43581   6.46515   6.48902   6.54767
 Alpha virt. eigenvalues --    6.61260   6.62409   6.73166   6.76507   6.77501
 Alpha virt. eigenvalues --    6.77885   6.82827   6.84954   6.85771   6.86247
 Alpha virt. eigenvalues --    6.87149   6.97990   7.00661   7.05381   7.09256
 Alpha virt. eigenvalues --    7.11362   7.14944   7.16883   7.18526   7.22863
 Alpha virt. eigenvalues --    7.33068   7.37178   9.01858   9.39424   9.55478
 Alpha virt. eigenvalues --   19.95313  22.33164  22.47593  22.50983  22.53172
 Alpha virt. eigenvalues --   22.64832  22.67112  22.75342  22.77760  22.85764
 Alpha virt. eigenvalues --   22.93222  23.01479  23.02082  23.09210  23.11038
 Alpha virt. eigenvalues --   23.29150  23.51983  32.20905  33.23971  44.16919
 Alpha virt. eigenvalues --   44.20090  44.26546  44.30956  44.54517
          Condensed to atoms (all electrons):
               1          2          3          4          5          6
     1  C    5.159554   0.426966   0.410257   0.011450  -0.007982  -0.000250
     2  H    0.426966   0.497588  -0.015018  -0.002417   0.000432  -0.000005
     3  H    0.410257  -0.015018   0.517851  -0.000689   0.000339  -0.000011
     4  C    0.011450  -0.002417  -0.000689   5.625691   0.538418   0.182809
     5  H   -0.007982   0.000432   0.000339   0.538418   0.519952  -0.036983
     6  O   -0.000250  -0.000005  -0.000011   0.182809  -0.036983   8.156501
     7  H    0.000024  -0.000003  -0.000001  -0.057748  -0.008606   0.323909
     8  C   -0.011071   0.011093  -0.001246  -0.008981  -0.098640  -0.051541
     9  H    0.004874  -0.000356  -0.001645  -0.072288   0.002326   0.001005
    10  O    0.005465  -0.000189  -0.000030   0.058379   0.005732  -0.021915
[...]
 (Enter /storage/apps/GAUSSIAN/G16_RevA03/g16/l716.exe)
 Dipole        = 9.58586103D-01-3.81620620D-01-2.01701484D+00
 ***** Axes restored to original set *****
 -------------------------------------------------------------------
 Center     Atomic                   Forces (Hartrees/Bohr)
 Number     Number              X              Y              Z
 -------------------------------------------------------------------
      1        6           0.000171439   -0.000098003    0.000052075
      2        1           0.000009536   -0.000007197   -0.000000551
      3        1          -0.000017855   -0.000045704    0.000005116
      4        6           0.000780511   -0.000434740   -0.000050519
      5        1           0.000016863   -0.000025516    0.000032558
      6        8           0.001643042   -0.000536478    0.000487341
      7        1           0.000079744   -0.000158266    0.000147806
      8        6           0.000728928   -0.000244409   -0.000001287
      9        1           0.000077395   -0.000021933   -0.000000809
     10        8           0.000586432   -0.000029399    0.000135619
     11        1           0.000032235   -0.000049454    0.000043733
     12        6           0.000328819   -0.000163587   -0.000007919
     13        1           0.000066402   -0.000021398    0.000017367
     14        6           0.000652733   -0.000052075   -0.000011541
     15        1           0.000064267   -0.000040015   -0.000004867
     16        8           0.001241614    0.000005359    0.000070162
     17        7           0.000986986   -0.000049211    0.000040374
     18        6           0.000497489   -0.000118472    0.000101585
     19        1           0.000004380   -0.000003374    0.000049967
     20        6           0.000590391   -0.001524285    0.000252563
     21        1           0.000242001   -0.000197317    0.000065947
     22        6           0.001632845   -0.000813223   -0.010748501
     23        1           0.002157952    0.000003065   -0.001576629
     24        1          -0.001000306   -0.000101989   -0.002403467
     25        6           0.000093063   -0.000500410   -0.000799644
     26        6           0.000817837   -0.000213256   -0.002383344
     27        1           0.000088513    0.000033325   -0.000360029
     28        6           0.001131188    0.000366370   -0.000354728
     29        8          -0.000815117    0.002200033    0.001013152
     30        7           0.001637786   -0.000264603    0.000724675
     31        1          -0.000027937   -0.000114398   -0.000213105
     32        1           0.000369241   -0.000358828   -0.001036545
     33        1          -0.000039743    0.000023105    0.000012697
     34        6          -0.000143189    0.000040140   -0.000675646
     35        6          -0.000040518    0.000973542    0.000676780
     36        6          -0.003542725    0.002289828    0.003856922
     37        6          -0.000961478   -0.000442599   -0.000044308
     38        6          -0.007033530    0.002212783    0.013920310
     39        8          -0.002486422    0.000267802    0.000950443
     40       16          -0.000341438   -0.001751628   -0.001370996
     41        1          -0.000000536    0.000014445   -0.000117532
     42        1          -0.000047690   -0.000034819   -0.000098938
     43        1          -0.000906620   -0.000851349   -0.000880589
     44        1           0.000072001    0.000082698    0.000154987
     45        1           0.001000419    0.000278890   -0.000587603
     46        1          -0.000319568    0.000230495    0.000884482
     47        1          -0.000080730    0.000230895    0.000096160
     48        1           0.000003351    0.000015160   -0.000063724
 -------------------------------------------------------------------
 Cartesian Forces:  Max     0.013920310 RMS     0.001797248
 Leave Link  716 at Sat Aug 13 20:21:45 2022, MaxMem=  2684354560 cpu:               0.4 elap:               0.0
 (Enter /storage/apps/GAUSSIAN/G16_RevA03/g16/l103.exe)

 GradGradGradGradGradGradGradGradGradGradGradGradGradGradGradGradGradGrad
 Berny optimization.
 Search for a local minimum.
 Step number   1 out of a maximum of    2
 All quantities printed in internal units (Hartrees-Bohrs-Radians)
 Second derivative matrix not updated -- first step.
 ITU=  0
     Eigenvalues ---    0.00036   0.00100   0.00104   0.00128   0.00184
     Eigenvalues ---    0.00250   0.00323   0.00389   0.00429   0.00465
     Eigenvalues ---    0.00590   0.00729   0.00825   0.00870   0.00935
     Eigenvalues ---    0.01004   0.01108   0.01196   0.01378   0.01507
     Eigenvalues ---    0.01715   0.01927   0.02355   0.02491   0.02621
     Eigenvalues ---    0.03025   0.03182   0.03382   0.03702   0.03862
     Eigenvalues ---    0.04364   0.04627   0.04928   0.05169   0.05272
     Eigenvalues ---    0.05364   0.05514   0.05763   0.05881   0.05908
     Eigenvalues ---    0.06114   0.06168   0.06354   0.06365   0.06749
     Eigenvalues ---    0.06926   0.07444   0.07708   0.07779   0.07974
     Eigenvalues ---    0.08413   0.08779   0.09058   0.09847   0.10285
     Eigenvalues ---    0.10633   0.11720   0.12111   0.12498   0.12673
     Eigenvalues ---    0.12993   0.13104   0.13212   0.13531   0.13698
     Eigenvalues ---    0.13933   0.14045   0.15370   0.15982   0.16501
     Eigenvalues ---    0.16706   0.18550   0.19208   0.19667   0.19724
     Eigenvalues ---    0.20017   0.20537   0.21555   0.21764   0.22232
     Eigenvalues ---    0.24146   0.27065   0.27416   0.28579   0.31205
     Eigenvalues ---    0.32991   0.33662   0.35240   0.35440   0.37215
     Eigenvalues ---    0.38124   0.38124   0.38124   0.38124   0.40038
     Eigenvalues ---    0.43498   0.45409   0.48142   0.56665   0.57072
     Eigenvalues ---    0.61654   0.66124   0.69579   0.70493   0.74208
     Eigenvalues ---    0.79004   0.82333   0.87568   0.88933   0.90743
     Eigenvalues ---    0.91286   0.91773   0.93919   0.94637   0.94904
     Eigenvalues ---    0.97073   0.97292   1.00108   1.02232   1.03103
     Eigenvalues ---    1.05616   1.07135   1.10500   1.11505   1.15144
     Eigenvalues ---    1.19019   1.20088   1.24296   1.26025   1.30065
     Eigenvalues ---    1.34009   1.42126   1.52297   1.61998   1.70691
     Eigenvalues ---    1.79545   2.17334   2.28460
 Quadratic step=8.243D+00 exceeds max=3.000D-01 adjusted using Lamda=-3.218D-02.
 Angle between NR and scaled steps=  57.76 degrees.
 Angle between quadratic step and forces=  46.98 degrees.
 Linear search not attempted -- first point.
 Variable       Old X    -DE/DX   Delta X   Delta X   Delta X     New X
                                 (Linear)    (Quad)   (Total)
    X1        6.80434   0.00017   0.00000  -0.00546  -0.00546   6.79889
    Y1       -6.83349  -0.00010   0.00000   0.00378   0.00378  -6.82971
    Z1       -0.83863   0.00005   0.00000   0.00138   0.00138  -0.83725
    X2        7.08495   0.00001   0.00000  -0.01149  -0.01149   7.07346
    Y2       -7.01367  -0.00001   0.00000   0.00614   0.00614  -7.00753
    Z2       -2.86987  -0.00000   0.00000   0.00062   0.00062  -2.86926
    X3        8.19003  -0.00002   0.00000  -0.00715  -0.00715   8.18289
    Y3       -8.01335  -0.00005   0.00000  -0.00000  -0.00000  -8.01335
    Z3        0.12837   0.00001   0.00000  -0.00172  -0.00172   0.12665
    X4        3.54901   0.00078   0.00000   0.00658   0.00658   3.55558
    Y4       -2.73467  -0.00043   0.00000  -0.00314  -0.00314  -2.73782
    Z4        2.33011  -0.00005   0.00000   0.00631   0.00631   2.33642
    X5        2.31621   0.00002   0.00000   0.00224   0.00224   2.31845
    Y5       -4.37942  -0.00003   0.00000  -0.00119  -0.00119  -4.38060
    Z5        2.06692   0.00003   0.00000   0.01176   0.01176   2.07867
    X6        2.81166   0.00164   0.00000   0.01891   0.01891   2.83057
    Y6       -1.29535  -0.00054   0.00000  -0.00679  -0.00679  -1.30215
    Z6        4.41344   0.00049   0.00000   0.01304   0.01304   4.42648
    X7        1.06124   0.00008   0.00000   0.01517   0.01517   1.07641
    Y7       -0.77180  -0.00016   0.00000  -0.00895  -0.00895  -0.78074
    Z7        4.16176   0.00015   0.00000   0.02642   0.02642   4.18819
    X8        6.28412   0.00073   0.00000   0.00730   0.00730   6.29143
    Y8       -3.56850  -0.00024   0.00000  -0.00145  -0.00145  -3.56994
    Z8        2.65758  -0.00000   0.00000   0.00326   0.00326   2.66084
    X9        6.45985   0.00008   0.00000   0.00515   0.00515   6.46501
    Y9       -5.24260  -0.00002   0.00000  -0.00177  -0.00177  -5.24436
    Z9        3.85939  -0.00000   0.00000   0.00313   0.00313   3.86253
   X10        7.72109   0.00059   0.00000   0.00598   0.00598   7.72707
   Y10       -1.54535  -0.00003   0.00000  -0.00088  -0.00088  -1.54623
   Z10        3.61994   0.00014   0.00000   0.00540   0.00540   3.62534
   X11        6.69415   0.00003   0.00000   0.00402   0.00402   6.69817
   Y11       -0.72760  -0.00005   0.00000  -0.00462  -0.00462  -0.73221
   Z11        4.88894   0.00004   0.00000   0.00707   0.00707   4.89601
   X12        3.70497   0.00033   0.00000  -0.00054  -0.00054   3.70443
   Y12       -1.25152  -0.00016   0.00000  -0.00068  -0.00068  -1.25220
   Z12       -0.16321  -0.00001   0.00000   0.00452   0.00452  -0.15869
   X13        4.28085   0.00007   0.00000  -0.00749  -0.00749   4.27336
   Y13        0.69430  -0.00002   0.00000   0.00060   0.00060   0.69489
   Z13        0.24053   0.00002   0.00000   0.01036   0.01036   0.25089
   X14        7.10163   0.00065   0.00000   0.00426   0.00426   7.10590
   Y14       -4.09436  -0.00005   0.00000   0.00189   0.00189  -4.09247
   Z14       -0.05451  -0.00001   0.00000   0.00296   0.00296  -0.05155
   X15        9.05338   0.00006   0.00000   0.00336   0.00336   9.05674
   Y15       -3.47460  -0.00004   0.00000   0.00106   0.00106  -3.47354
   Z15       -0.29808  -0.00000   0.00000   0.00278   0.00278  -0.29530
   X16        5.52861   0.00124   0.00000   0.00744   0.00744   5.53604
   Y16       -2.53098   0.00001   0.00000   0.00697   0.00697  -2.52401
   Z16       -1.61659   0.00007   0.00000   0.00575   0.00575  -1.61084
   X17        1.38072   0.00099   0.00000   0.00183   0.00183   1.38255
   Y17       -1.12909  -0.00005   0.00000  -0.00260  -0.00260  -1.13169
   Z17       -1.57635   0.00004   0.00000  -0.00560  -0.00560  -1.58195
   X18        0.35475   0.00050   0.00000  -0.00389  -0.00389   0.35086
   Y18       -3.35181  -0.00012   0.00000  -0.00390  -0.00390  -3.35571
   Z18       -2.54327   0.00010   0.00000   0.00236   0.00236  -2.54091
   X19        1.49640   0.00000   0.00000  -0.01344  -0.01344   1.48296
   Y19       -5.01968  -0.00000   0.00000  -0.00531  -0.00531  -5.02499
   Z19       -2.25668   0.00005   0.00000   0.02421   0.02421  -2.23247
   X20       -1.79364   0.00059   0.00000   0.00532   0.00532  -1.78832
   Y20       -3.38691  -0.00152   0.00000  -0.00831  -0.00831  -3.39521
   Z20       -3.84255   0.00025   0.00000  -0.01627  -0.01627  -3.85881
   X21       -2.44897   0.00024   0.00000  -0.00203  -0.00203  -2.45101
   Y21       -5.16110  -0.00020   0.00000  -0.01406  -0.01406  -5.17517
   Z21       -4.61564   0.00007   0.00000   0.00758   0.00758  -4.60806
   X22       -3.34672   0.00163   0.00000   0.02157   0.02157  -3.32515
   Y22       -1.06455  -0.00081   0.00000  -0.00346  -0.00346  -1.06801
   Z22       -4.23486  -0.01075   0.00000  -0.07843  -0.07843  -4.31329
   X23       -4.01143   0.00216   0.00000   0.04677   0.04677  -3.96466
   Y23       -0.94328   0.00000   0.00000  -0.00059  -0.00059  -0.94386
   Z23       -6.19192  -0.00158   0.00000  -0.08110  -0.08110  -6.27302
   X24       -5.08830  -0.00100   0.00000   0.00165   0.00165  -5.08665
   Y24       -1.22317  -0.00010   0.00000   0.00515   0.00515  -1.21803
   Z24       -3.12267  -0.00240   0.00000  -0.09593  -0.09593  -3.21860
   X25       -1.90100   0.00009   0.00000   0.00927   0.00927  -1.89173
   Y25        1.25879  -0.00050   0.00000  -0.00345  -0.00345   1.25533
   Z25       -3.50431  -0.00080   0.00000  -0.03393  -0.03393  -3.53824
   X26        0.28865   0.00082   0.00000   0.00203   0.00203   0.29068
   Y26        1.10614  -0.00021   0.00000  -0.00499  -0.00499   1.10116
   Z26       -2.21903  -0.00238   0.00000  -0.01890  -0.01890  -2.23793
   X27        1.26359   0.00009   0.00000  -0.01199  -0.01199   1.25160
   Y27        2.81496   0.00003   0.00000  -0.00262  -0.00262   2.81234
   Z27       -1.64963  -0.00036   0.00000   0.00183   0.00183  -1.64780
   X28       -2.84758   0.00113   0.00000  -0.00271  -0.00271  -2.85029
   Y28        3.81043   0.00037   0.00000   0.00468   0.00468   3.81512
   Z28       -4.10768  -0.00035   0.00000   0.00627   0.00627  -4.10141
   X29       -1.59370  -0.00082   0.00000  -0.02746  -0.02746  -1.62116
   Y29        5.71916   0.00220   0.00000   0.01737   0.01737   5.73654
   Z29       -3.85299   0.00101   0.00000   0.04124   0.04124  -3.81175
   X30       -5.27155   0.00164   0.00000  -0.00605  -0.00605  -5.27760
   Y30        3.90850  -0.00026   0.00000   0.00085   0.00085   3.90935
   Z30       -5.04092   0.00072   0.00000   0.01885   0.01885  -5.02207
   X31       -6.01396  -0.00003   0.00000  -0.01760  -0.01760  -6.03157
   Y31        5.65028  -0.00011   0.00000  -0.00085  -0.00085   5.64943
   Z31       -5.23096  -0.00021   0.00000   0.04170   0.04170  -5.18926
   X32       -6.47075   0.00037   0.00000   0.00096   0.00096  -6.46980
   Y32        2.46159  -0.00036   0.00000  -0.00784  -0.00784   2.45375
   Z32       -4.75969  -0.00104   0.00000   0.00528   0.00528  -4.75440
   X33        4.91982  -0.00004   0.00000  -0.00705  -0.00705   4.91277
   Y33       -7.53858   0.00002   0.00000   0.00881   0.00881  -7.52977
   Z33       -0.37626   0.00001   0.00000   0.00501   0.00501  -0.37125
   X34        0.37654  -0.00014   0.00000   0.01352   0.01352   0.39006
   Y34        4.15713   0.00004   0.00000  -0.00362  -0.00362   4.15351
   Z34        5.35906  -0.00068   0.00000  -0.02179  -0.02179   5.33727
   X35       -3.05790  -0.00004   0.00000  -0.01258  -0.01258  -3.07048
   Y35        1.71392   0.00097   0.00000   0.00502   0.00502   1.71894
   Z35        2.36286   0.00068   0.00000   0.01066   0.01066   2.37353
   X36       -5.38852  -0.00354   0.00000  -0.04082  -0.04082  -5.42934
   Y36        1.60719   0.00229   0.00000   0.01589   0.01589   1.62308
   Z36        0.86926   0.00386   0.00000   0.06222   0.06222   0.93148
   X37       -9.05465  -0.00096   0.00000   0.00096   0.00096  -9.05369
   Y37       -0.79755  -0.00044   0.00000  -0.00808  -0.00808  -0.80563
   Z37       -0.82006  -0.00004   0.00000  -0.01300  -0.01300  -0.83306
   X38       -6.41897  -0.00703   0.00000  -0.05147  -0.05147  -6.47044
   Y38       -0.58559   0.00221   0.00000   0.00914   0.00914  -0.57646
   Z38        0.17718   0.01392   0.00000   0.10924   0.10924   0.28642
   X39       -1.82301  -0.00249   0.00000  -0.03050  -0.03050  -1.85350
   Y39       -0.14103   0.00027   0.00000  -0.00506  -0.00506  -0.14609
   Z39        2.93431   0.00095   0.00000   0.01418   0.01418   2.94849
   X40       -2.31538  -0.00034   0.00000   0.03649   0.03649  -2.27889
   Y40        4.79669  -0.00175   0.00000   0.00392   0.00392   4.80061
   Z40        3.38618  -0.00137   0.00000  -0.05121  -0.05121   3.33498
   X41        0.82928  -0.00000   0.00000   0.00801   0.00801   0.83729
   Y41        5.92191   0.00001   0.00000  -0.00573  -0.00573   5.91618
   Z41        6.30983  -0.00012   0.00000  -0.01427  -0.01427   6.29556
   X42        1.98234  -0.00005   0.00000   0.02310   0.02310   2.00543
   Y42        3.54136  -0.00003   0.00000  -0.00632  -0.00632   3.53504
   Z42        4.23537  -0.00010   0.00000  -0.00523  -0.00523   4.23014
   X43      -10.32305  -0.00091   0.00000  -0.05237  -0.05237 -10.37541
   Y43       -1.11655  -0.00085   0.00000  -0.03510  -0.03510  -1.15165
   Z43        0.77962  -0.00088   0.00000  -0.06617  -0.06617   0.71345
   X44       -9.66433   0.00007   0.00000   0.03085   0.03085  -9.63348
   Y44        0.94223   0.00008   0.00000  -0.00431  -0.00431   0.93792
   Z44       -1.74266   0.00015   0.00000  -0.02672  -0.02672  -1.76938
   X45       -9.30142   0.00100   0.00000   0.07439   0.07439  -9.22704
   Y45       -2.37968   0.00028   0.00000   0.00363   0.00363  -2.37605
   Z45       -2.11528  -0.00059   0.00000  -0.04323  -0.04323  -2.15851
   X46       -5.41038  -0.00032   0.00000  -0.02823  -0.02823  -5.43860
   Y46       -2.31430   0.00023   0.00000   0.01396   0.01396  -2.30034
   Z46        0.64047   0.00088   0.00000   0.08276   0.08276   0.72323
   X47       -6.32966  -0.00008   0.00000  -0.00541  -0.00541  -6.33507
   Y47        3.38819   0.00023   0.00000   0.02008   0.02008   3.40827
   Z47        0.49069   0.00010   0.00000   0.00601   0.00601   0.49670
   X48       -0.09246   0.00000   0.00000   0.00055   0.00055  -0.09191
   Y48        2.71844   0.00002   0.00000  -0.00242  -0.00242   2.71602
   Z48        6.75083  -0.00006   0.00000  -0.02342  -0.02342   6.72741
         Item               Value     Threshold  Converged?
 Maximum Force            0.013920     0.000450     NO 
 RMS     Force            0.001797     0.000300     NO 
 Maximum Displacement     0.109242     0.001800     NO 
 RMS     Displacement     0.025020     0.001200     NO 
 Predicted change in Energy=-3.659315D-03
 GradGradGradGradGradGradGradGradGradGradGradGradGradGradGradGradGradGrad

 Leave Link  103 at Sat Aug 13 20:21:45 2022, MaxMem=  2684354560 cpu:               0.9 elap:               0.1
 (Enter /storage/apps/GAUSSIAN/G16_RevA03/g16/l9999.exe)

 Test job not archived.
 1\1\GINC-T046\Force\RM062X\def2TZVP\C16H24N2O5S1\LV87696\13-Aug-2022\0
 \\#P M062X/Def2TZVP scf=(direct,conver=8) EmpiricalDispersion=GD3 Forc
 e Charge Prop=(Field,Read)\\Gaussian run\\0,1\C,3.600702,-3.616129,-0.
 443784\H,3.749195,-3.711472,-1.518672\H,4.333979,-4.24048,0.067929\C,1
 .878053,-1.447126,1.233043\H,1.225686,-2.317488,1.093765\O,1.487867,-0
 .685471,2.335492\H,0.561583,-0.408417,2.202311\C,3.325415,-1.888367,1.
 406329\H,3.418407,-2.774262,2.042303\O,4.085825,-0.817766,1.91559\H,3.
 542389,-0.385027,2.587115\C,1.960588,-0.662276,-0.086369\H,2.265328,0.
 367406,0.127283\C,3.758022,-2.166642,-0.028847\H,4.79084,-1.838677,-0.
 157737\O,2.925612,-1.339336,-0.855461\N,0.730646,-0.597491,-0.834168\C
 ,0.187726,-1.7737,-1.345843\H,0.791861,-2.6563,-1.194184\C,-0.949154,-
 1.792274,-2.033389\H,-1.295941,-2.731137,-2.442492\C,-1.771009,-0.5633
 36,-2.240991\H,-2.122757,-0.499161,-3.276621\H,-2.692613,-0.647276,-1.
 652446\C,-1.005968,0.666121,-1.854399\C,0.152747,0.585346,-1.174262\H,
 0.668662,1.489611,-0.872948\C,-1.506876,2.016394,-2.173691\O,-0.843351
 ,3.026451,-2.038916\N,-2.789586,2.068288,-2.667539\H,-3.182453,2.99000
 2,-2.768105\H,-3.424175,1.302617,-2.518717\H,2.603457,-3.989247,-0.199
 108\C,0.199256,2.199859,2.835892\C,-1.618172,0.906966,1.250374\C,-2.85
 1482,0.850487,0.459992\C,-4.791514,-0.422044,-0.433958\C,-3.39677,-0.3
 09883,0.09376\O,-0.964694,-0.074632,1.552772\S,-1.225245,2.538299,1.79
 189\H,0.438837,3.133742,3.339019\H,1.049008,1.874007,2.241262\H,-5.462
 721,-0.590852,0.412557\H,-5.114144,0.498608,-0.922175\H,-4.922102,-1.2
 59272,-1.119357\H,-2.863048,-1.224676,0.338924\H,-3.349512,1.792952,0.
 259663\H,-0.048926,1.438536,3.572383\\Version=ES64L-G16RevA.03\State=1
 -A\HF=-1507.9208609\RMSD=1.594e-09\RMSF=1.797e-03\Dipole=-1.8602328,-1
 .1940895,0.4965426\Quadrupole=7.5324407,-1.8020529,-5.7303879,-2.95187
 33,5.6395152,8.1572048\PG=C01 [X(C16H24N2O5S1)]\\@


 THE MOLECULE ALSO HAS A BODY.  WHEN THIS BODY IS HIT, THE MOLECULE
 FEELS HURT ALL OVER -- A. KITAIGORODSKI
 Job cpu time:       0 days  3 hours 18 minutes 47.5 seconds.
 Elapsed time:       0 days  0 hours 12 minutes 27.2 seconds.
 File lengths (MBytes):  RWF=    435 Int=      0 D2E=      0 Chk=     48 Scr=      1
 Normal termination of Gaussian 16 at Sat Aug 13 20:21:45 2022.
