 Entering Gaussian System, Link 0=g16
 Initial command:
 /storage/apps/GAUSSIAN/G16_RevA03/g16/l1.exe "/scratch/tmp/1019165/Gau-129317.inp" -scrdir="/scratch/tmp/1019165/"
 Entering Link 1 = /storage/apps/GAUSSIAN/G16_RevA03/g16/l1.exe PID=    129318.
  
 Copyright (c) 1988,1990,1992,1993,1995,1998,2003,2009,2016,
            Gaussian, Inc.  All Rights Reserved.
  
 This is part of the Gaussian(R) 16 program.  It is based on
 the Gaussian(R) 09 system (copyright 2009, Gaussian, Inc.),
 the Gaussian(R) 03 system (copyright 2003, Gaussian, Inc.),
 the Gaussian(R) 98 system (copyright 1998, Gaussian, Inc.),
 the Gaussian(R) 94 system (copyright 1995, Gaussian, Inc.),
 the Gaussian 92(TM) system (copyright 1992, Gaussian, Inc.),
 the Gaussian 90(TM) system (copyright 1990, Gaussian, Inc.),
 the Gaussian 88(TM) system (copyright 1988, Gaussian, Inc.),
 the Gaussian 86(TM) system (copyright 1986, Carnegie Mellon
 University), and the Gaussian 82(TM) system (copyright 1983,
 Carnegie Mellon University). Gaussian is a federally registered
 trademark of Gaussian, Inc.
  
 This software contains proprietary and confidential information,
 including trade secrets, belonging to Gaussian, Inc.
  
 This software is provided under written license and may be
 used, copied, transmitted, or stored only in accord with that
 written license.
  
 The following legend is applicable only to US Government
 contracts under FAR:
  
                    RESTRICTED RIGHTS LEGEND
  
 Use, reproduction and disclosure by the US Government is
 subject to restrictions as set forth in subparagraphs (a)
 and (c) of the Commercial Computer Software - Restricted
 Rights clause in FAR 52.227-19.
  
 Gaussian, Inc.
 340 Quinnipiac St., Bldg. 40, Wallingford CT 06492
  
  
 ---------------------------------------------------------------
 Warning -- This program may not be used in any manner that
 competes with the business of Gaussian, Inc. or will provide
 assistance to any competitor of Gaussian, Inc.  The licensee
 of this program is prohibited from giving any competitor of
 Gaussian, Inc. access to this program.  By using this program,
 the user acknowledges that Gaussian, Inc. is engaged in the
 business of creating and licensing software in the field of
 computational chemistry and represents and warrants to the
 licensee that it is not a competitor of Gaussian, Inc. and that
 it will not use this program in any manner prohibited above.
 ---------------------------------------------------------------
  

 Cite this work as:
 Gaussian 16, Revision A.03,
 M. J. Frisch, G. W. Trucks, H. B. Schlegel, G. E. Scuseria, 
 M. A. Robb, J. R. Cheeseman, G. Scalmani, V. Barone, 
 G. A. Petersson, H. Nakatsuji, X. Li, M. Caricato, A. V. Marenich, 
 J. Bloino, B. G. Janesko, R. Gomperts, B. Mennucci, H. P. Hratchian, 
 J. V. Ortiz, A. F. Izmaylov, J. L. Sonnenberg, D. Williams-Young, 
 F. Ding, F. Lipparini, F. Egidi, J. Goings, B. Peng, A. Petrone, 
 T. Henderson, D. Ranasinghe, V. G. Zakrzewski, J. Gao, N. Rega, 
 G. Zheng, W. Liang, M. Hada, M. Ehara, K. Toyota, R. Fukuda, 
 J. Hasegawa, M. Ishida, T. Nakajima, Y. Honda, O. Kitao, H. Nakai, 
 T. Vreven, K. Throssell, J. A. Montgomery, Jr., J. E. Peralta, 
 F. Ogliaro, M. J. Bearpark, J. J. Heyd, E. N. Brothers, K. N. Kudin, 
 V. N. Staroverov, T. A. Keith, R. Kobayashi, J. Normand, 
 K. Raghavachari, A. P. Rendell, J. C. Burant, S. S. Iyengar, 
 J. Tomasi, M. Cossi, J. M. Millam, M. Klene, C. Adamo, R. Cammi, 
 J. W. Ochterski, R. L. Martin, K. Morokuma, O. Farkas, 
 J. B. Foresman, and D. J. Fox, Gaussian, Inc., Wallingford CT, 2016.
 
 ******************************************
 Gaussian 16:  ES64L-G16RevA.03 25-Dec-2016
                13-Aug-2022 
 ******************************************
 %NProcShared=16
 Will use up to   16 processors via shared memory.
 %mem=20GB
 ----------------------------------------------------------------------
 #P M062X/Def2TZVP scf=(direct,conver=8) EmpiricalDispersion=GD3 Force 
 Charge Prop=(Field,Read)
 ----------------------------------------------------------------------
 1/10=7,18=10,28=-2,30=1,38=1,125=101/1,3;
 2/12=2,17=6,18=5,29=2,40=1/2;
 3/5=44,7=101,11=2,25=1,30=1,71=1,74=-55,124=31/1,2,3;
 4//1;
 5/5=2,6=8,38=5/2;
 6/7=2,8=2,9=2,10=2,14=2,15=1,28=1/1,2;
 7/7=1,16=-2,29=1/1,2,3,16;
 1/10=7,18=10,28=-2,30=1/3;
 99/12=1/99;
 Leave Link    1 at Sat Aug 13 20:09:18 2022, MaxMem=  2684354560 cpu:               0.6 elap:               0.0
 (Enter /storage/apps/GAUSSIAN/G16_RevA03/g16/l101.exe)
 ------------
 Gaussian run
 ------------
 Symbolic Z-matrix:
 Charge =  0 Multiplicity = 1
 C                     3.60064  -3.61609  -0.44381 
 H                     3.74913  -3.71141  -1.5187 
 H                     4.33403  -4.24033   0.06788 
 C                     1.87775  -1.44696   1.23306 
 H                     1.22543  -2.31735   1.09364 
 O                     1.48741  -0.68532   2.33535 
 H                     0.56124  -0.40783   2.2018 
 C                     3.32514  -1.88828   1.40634 
 H                     3.41805  -2.77417   2.04232 
 O                     4.08566  -0.81775   1.91555 
 H                     3.54224  -0.38487   2.587 
 C                     1.96047  -0.66222  -0.08637 
 H                     2.26516   0.3675    0.12713 
 C                     3.75778  -2.1666   -0.02883 
 H                     4.79054  -1.83849  -0.15775 
 O                     2.92527  -1.33934  -0.85549 
 N                     0.73035  -0.59748  -0.8342 
 C                     0.18753  -1.77366  -1.34587 
 H                     0.79167  -2.65626  -1.19435 
 C                    -0.94936  -1.79171  -2.03349 
 H                    -1.297    -2.73018  -2.4427 
 C                    -1.77158  -0.56303  -2.23703 
 H                    -2.13233  -0.49921  -3.26945 
 H                    -2.68878  -0.64687  -1.64078 
 C                    -1.00598   0.66632  -1.85419 
 C                     0.15244   0.58543  -1.17335 
 H                     0.66822   1.48949  -0.87127 
 C                    -1.5073    2.01626  -2.17357 
 O                    -0.84311   3.02583  -2.03919 
 N                    -2.79011   2.06836  -2.66778 
 H                    -3.18229   2.99055  -2.76725 
 H                    -3.42572   1.30439  -2.51426 
 H                     2.60347  -3.98937  -0.19909 
 C                     0.1993    2.19984   2.83613 
 C                    -1.6182    0.90659   1.25017 
 C                    -2.85016   0.84963   0.45856 
 C                    -4.79117  -0.42188  -0.43392 
 C                    -3.39413  -0.31071   0.08853 
 O                    -0.96399  -0.07471   1.5525 
 S                    -1.22518   2.53856   1.79209 
 H                     0.43886   3.13363   3.33945 
 H                     1.04913   1.8741    2.24157 
 H                    -5.45853  -0.58706   0.41633 
 H                    -5.11452   0.4982   -0.92276 
 H                    -4.92655  -1.26048  -1.11666 
 H                    -2.86162  -1.22583   0.33521 
 H                    -3.34923   1.79182   0.25956 
 H                    -0.04891   1.43843   3.57252 
 
 ITRead=  0  0  0  0  0  0  0  0  0  0  0  0  0  0  0  0  0  0  0  0
 ITRead=  0  0  0  0  0  0  0  0  0  0  0  0  0  0  0  0  0  0  0  0
 ITRead=  0  0  0  0  0  0  0  0
 MicOpt= -1 -1 -1 -1 -1 -1 -1 -1 -1 -1 -1 -1 -1 -1 -1 -1 -1 -1 -1 -1
 MicOpt= -1 -1 -1 -1 -1 -1 -1 -1 -1 -1 -1 -1 -1 -1 -1 -1 -1 -1 -1 -1
 MicOpt= -1 -1 -1 -1 -1 -1 -1 -1
 NAtoms=     48 NQM=       48 NQMF=       0 NMMI=      0 NMMIF=      0
                NMic=       0 NMicF=      0.
                    Isotopes and Nuclear Properties:
 (Nuclear quadrupole moments (NQMom) in fm**2, nuclear magnetic moments (NMagM)
  in nuclear magnetons)

  Atom         1           2           3           4           5           6           7           8           9          10
 IAtWgt=          12           1           1          12           1          16           1          12           1          16
 AtmWgt=  12.0000000   1.0078250   1.0078250  12.0000000   1.0078250  15.9949146   1.0078250  12.0000000   1.0078250  15.9949146
 NucSpn=           0           1           1           0           1           0           1           0           1           0
 AtZEff=  -0.0000000  -0.0000000  -0.0000000  -0.0000000  -0.0000000  -0.0000000  -0.0000000  -0.0000000  -0.0000000  -0.0000000
 NQMom=    0.0000000   0.0000000   0.0000000   0.0000000   0.0000000   0.0000000   0.0000000   0.0000000   0.0000000   0.0000000
 NMagM=    0.0000000   2.7928460   2.7928460   0.0000000   2.7928460   0.0000000   2.7928460   0.0000000   2.7928460   0.0000000
 AtZNuc=   6.0000000   1.0000000   1.0000000   6.0000000   1.0000000   8.0000000   1.0000000   6.0000000   1.0000000   8.0000000

  Atom        11          12          13          14          15          16          17          18          19          20
 IAtWgt=           1          12           1          12           1          16          14          12           1          12
 AtmWgt=   1.0078250  12.0000000   1.0078250  12.0000000   1.0078250  15.9949146  14.0030740  12.0000000   1.0078250  12.0000000
 NucSpn=           1           0           1           0           1           0           2           0           1           0
 AtZEff=  -0.0000000  -0.0000000  -0.0000000  -0.0000000  -0.0000000  -0.0000000  -0.0000000  -0.0000000  -0.0000000  -0.0000000
 NQMom=    0.0000000   0.0000000   0.0000000   0.0000000   0.0000000   0.0000000   2.0440000   0.0000000   0.0000000   0.0000000
 NMagM=    2.7928460   0.0000000   2.7928460   0.0000000   2.7928460   0.0000000   0.4037610   0.0000000   2.7928460   0.0000000
 AtZNuc=   1.0000000   6.0000000   1.0000000   6.0000000   1.0000000   8.0000000   7.0000000   6.0000000   1.0000000   6.0000000

  Atom        21          22          23          24          25          26          27          28          29          30
 IAtWgt=           1          12           1           1          12          12           1          12          16          14
 AtmWgt=   1.0078250  12.0000000   1.0078250   1.0078250  12.0000000  12.0000000   1.0078250  12.0000000  15.9949146  14.0030740
 NucSpn=           1           0           1           1           0           0           1           0           0           2
 AtZEff=  -0.0000000  -0.0000000  -0.0000000  -0.0000000  -0.0000000  -0.0000000  -0.0000000  -0.0000000  -0.0000000  -0.0000000
 NQMom=    0.0000000   0.0000000   0.0000000   0.0000000   0.0000000   0.0000000   0.0000000   0.0000000   0.0000000   2.0440000
 NMagM=    2.7928460   0.0000000   2.7928460   2.7928460   0.0000000   0.0000000   2.7928460   0.0000000   0.0000000   0.4037610
 AtZNuc=   1.0000000   6.0000000   1.0000000   1.0000000   6.0000000   6.0000000   1.0000000   6.0000000   8.0000000   7.0000000

  Atom        31          32          33          34          35          36          37          38          39          40
 IAtWgt=           1           1           1          12          12          12          12          12          16          32
 AtmWgt=   1.0078250   1.0078250   1.0078250  12.0000000  12.0000000  12.0000000  12.0000000  12.0000000  15.9949146  31.9720718
 NucSpn=           1           1           1           0           0           0           0           0           0           0
 AtZEff=  -0.0000000  -0.0000000  -0.0000000  -0.0000000  -0.0000000  -0.0000000  -0.0000000  -0.0000000  -0.0000000  -0.0000000
 NQMom=    0.0000000   0.0000000   0.0000000   0.0000000   0.0000000   0.0000000   0.0000000   0.0000000   0.0000000   0.0000000
 NMagM=    2.7928460   2.7928460   2.7928460   0.0000000   0.0000000   0.0000000   0.0000000   0.0000000   0.0000000   0.0000000
 AtZNuc=   1.0000000   1.0000000   1.0000000   6.0000000   6.0000000   6.0000000   6.0000000   6.0000000   8.0000000  16.0000000

  Atom        41          42          43          44          45          46          47          48
 IAtWgt=           1           1           1           1           1           1           1           1
 AtmWgt=   1.0078250   1.0078250   1.0078250   1.0078250   1.0078250   1.0078250   1.0078250   1.0078250
 NucSpn=           1           1           1           1           1           1           1           1
 AtZEff=  -0.0000000  -0.0000000  -0.0000000  -0.0000000  -0.0000000  -0.0000000  -0.0000000  -0.0000000
 NQMom=    0.0000000   0.0000000   0.0000000   0.0000000   0.0000000   0.0000000   0.0000000   0.0000000
 NMagM=    2.7928460   2.7928460   2.7928460   2.7928460   2.7928460   2.7928460   2.7928460   2.7928460
 AtZNuc=   1.0000000   1.0000000   1.0000000   1.0000000   1.0000000   1.0000000   1.0000000   1.0000000
 Background charge distribution read from input stream:
 Leave Link  101 at Sat Aug 13 20:09:18 2022, MaxMem=  2684354560 cpu:               1.5 elap:               0.1
 (Enter /storage/apps/GAUSSIAN/G16_RevA03/g16/l103.exe)

 GradGradGradGradGradGradGradGradGradGradGradGradGradGradGradGradGradGrad
 Berny optimization.
 Initialization pass.
 Trust Radius=3.00D-01 FncErr=1.00D-07 GrdErr=1.00D-07 EigMax=2.50D+02 EigMin=1.00D-04
 Number of steps in this run=      2 maximum allowed number of steps=      2.
 GradGradGradGradGradGradGradGradGradGradGradGradGradGradGradGradGradGrad

 Leave Link  103 at Sat Aug 13 20:09:18 2022, MaxMem=  2684354560 cpu:               0.3 elap:               0.0
 (Enter /storage/apps/GAUSSIAN/G16_RevA03/g16/l202.exe)
 ---------------------------------------------------------------------------------------------------
                            Z-MATRIX (ANGSTROMS AND DEGREES)
   CD    Cent   Atom    N1       Length/X        N2       Alpha/Y        N3        Beta/Z          J
 ---------------------------------------------------------------------------------------------------
      1      1  C        0   3.600641         -3.616094         -0.443805
      2      2  H        0   3.749130         -3.711408         -1.518697
      3      3  H        0   4.334030         -4.240334          0.067882
      4      4  C        0   1.877754         -1.446961          1.233056
      5      5  H        0   1.225433         -2.317352          1.093639
      6      6  O        0   1.487408         -0.685323          2.335350
      7      7  H        0   0.561238         -0.407827          2.201795
      8      8  C        0   3.325137         -1.888278          1.406336
      9      9  H        0   3.418050         -2.774172          2.042320
     10     10  O        0   4.085660         -0.817746          1.915548
     11     11  H        0   3.542235         -0.384874          2.587003
     12     12  C        0   1.960465         -0.662217         -0.086370
     13     13  H        0   2.265162          0.367502          0.127128
     14     14  C        0   3.757778         -2.166603         -0.028833
     15     15  H        0   4.790542         -1.838491         -0.157750
     16     16  O        0   2.925271         -1.339335         -0.855489
     17     17  N        0   0.730348         -0.597479         -0.834200
     18     18  C        0   0.187530         -1.773663         -1.345868
     19     19  H        0   0.791672         -2.656261         -1.194349
     20     20  C        0  -0.949363         -1.791707         -2.033489
     21     21  H        0  -1.297002         -2.730182         -2.442698
     22     22  C        0  -1.771578         -0.563031         -2.237028
     23     23  H        0  -2.132326         -0.499213         -3.269446
     24     24  H        0  -2.688779         -0.646870         -1.640779
     25     25  C        0  -1.005981          0.666321         -1.854189
     26     26  C        0   0.152436          0.585429         -1.173349
     27     27  H        0   0.668221          1.489491         -0.871266
     28     28  C        0  -1.507295          2.016257         -2.173566
     29     29  O        0  -0.843114          3.025829         -2.039188
     30     30  N        0  -2.790111          2.068363         -2.667783
     31     31  H        0  -3.182287          2.990546         -2.767247
     32     32  H        0  -3.425719          1.304388         -2.514255
     33     33  H        0   2.603465         -3.989369         -0.199090
     34     34  C        0   0.199295          2.199842          2.836133
     35     35  C        0  -1.618199          0.906586          1.250170
     36     36  C        0  -2.850155          0.849627          0.458556
     37     37  C        0  -4.791174         -0.421883         -0.433924
     38     38  C        0  -3.394134         -0.310711          0.088534
     39     39  O        0  -0.963993         -0.074712          1.552503
     40     40  S        0  -1.225182          2.538563          1.792086
     41     41  H        0   0.438857          3.133631          3.339453
     42     42  H        0   1.049133          1.874102          2.241568
     43     43  H        0  -5.458532         -0.587058          0.416334
     44     44  H        0  -5.114519          0.498199         -0.922764
     45     45  H        0  -4.926548         -1.260476         -1.116663
     46     46  H        0  -2.861620         -1.225825          0.335214
     47     47  H        0  -3.349232          1.791818          0.259556
     48     48  H        0  -0.048908          1.438431          3.572524
 ---------------------------------------------------------------------------------------------------
                         Z-Matrix orientation:                         
 ---------------------------------------------------------------------
 Center     Atomic      Atomic             Coordinates (Angstroms)
 Number     Number       Type             X           Y           Z
 ---------------------------------------------------------------------
      1          6           0        3.600641   -3.616094   -0.443805
      2          1           0        3.749130   -3.711408   -1.518697
      3          1           0        4.334030   -4.240334    0.067882
      4          6           0        1.877754   -1.446961    1.233056
      5          1           0        1.225433   -2.317352    1.093639
      6          8           0        1.487408   -0.685323    2.335350
      7          1           0        0.561238   -0.407827    2.201795
      8          6           0        3.325137   -1.888278    1.406336
      9          1           0        3.418050   -2.774172    2.042320
     10          8           0        4.085660   -0.817746    1.915548
     11          1           0        3.542235   -0.384874    2.587003
     12          6           0        1.960465   -0.662217   -0.086370
     13          1           0        2.265162    0.367502    0.127128
     14          6           0        3.757778   -2.166603   -0.028833
     15          1           0        4.790542   -1.838491   -0.157750
     16          8           0        2.925271   -1.339335   -0.855489
     17          7           0        0.730348   -0.597479   -0.834200
     18          6           0        0.187530   -1.773663   -1.345868
     19          1           0        0.791672   -2.656261   -1.194349
     20          6           0       -0.949363   -1.791707   -2.033489
     21          1           0       -1.297002   -2.730182   -2.442698
     22          6           0       -1.771578   -0.563031   -2.237028
     23          1           0       -2.132326   -0.499213   -3.269446
     24          1           0       -2.688779   -0.646870   -1.640779
     25          6           0       -1.005981    0.666321   -1.854189
     26          6           0        0.152436    0.585429   -1.173349
     27          1           0        0.668221    1.489491   -0.871266
     28          6           0       -1.507295    2.016257   -2.173566
     29          8           0       -0.843114    3.025829   -2.039188
     30          7           0       -2.790111    2.068363   -2.667783
     31          1           0       -3.182287    2.990546   -2.767247
     32          1           0       -3.425719    1.304388   -2.514255
     33          1           0        2.603465   -3.989369   -0.199090
     34          6           0        0.199295    2.199842    2.836133
     35          6           0       -1.618199    0.906586    1.250170
     36          6           0       -2.850155    0.849627    0.458556
     37          6           0       -4.791174   -0.421883   -0.433924
     38          6           0       -3.394134   -0.310711    0.088534
     39          8           0       -0.963993   -0.074712    1.552503
     40         16           0       -1.225182    2.538563    1.792086
     41          1           0        0.438857    3.133631    3.339453
     42          1           0        1.049133    1.874102    2.241568
     43          1           0       -5.458532   -0.587058    0.416334
     44          1           0       -5.114519    0.498199   -0.922764
     45          1           0       -4.926548   -1.260476   -1.116663
     46          1           0       -2.861620   -1.225825    0.335214
     47          1           0       -3.349232    1.791818    0.259556
     48          1           0       -0.048908    1.438431    3.572524
 ---------------------------------------------------------------------
                    Distance matrix (angstroms):
                    1          2          3          4          5
     1  C    0.000000
     2  H    1.089278   0.000000
     3  H    1.090577   1.771752   0.000000
     4  C    3.238108   4.025160   3.897930   0.000000
     5  H    3.113210   3.890596   3.796500   1.096604   0.000000
     6  O    4.558385   5.396875   5.087511   1.395534   2.067364
     7  H    5.150742   5.909176   5.785815   1.936871   2.305526
     8  C    2.546423   3.472663   2.888164   1.523058   2.165789
     9  H    2.631157   3.697143   2.624320   2.188358   2.432334
    10  O    3.692227   4.503395   3.897392   2.395111   3.332454
    11  H    4.430575   5.288233   4.673059   2.394097   3.366330
    12  C    3.397547   3.814243   4.296571   1.537384   2.161519
    13  H    4.240107   4.642026   5.051324   2.159962   3.037041
    14  C    1.515889   2.146204   2.154479   2.375866   2.774066
    15  H    2.158139   2.538609   2.455232   3.251457   3.808580
    16  O    2.410236   2.597175   3.354551   2.338995   2.764971
    17  N    4.183662   4.390687   5.202948   2.512311   2.630520
    18  C    3.982160   4.058290   5.027586   3.100716   2.706295
    19  H    3.061846   3.156754   4.080541   2.921348   2.353274
    20  C    5.153447   5.101578   6.190782   4.333792   3.845123
    21  H    5.363518   5.223029   6.347605   5.023634   4.363346
    22  C    6.434095   6.395818   7.490902   5.112772   4.811763
    23  H    7.110985   6.926387   8.182145   6.103400   5.797990
    24  H    7.057325   7.131127   8.071701   5.454567   5.058518
    25  C    6.445869   6.472105   7.502355   4.723661   4.750916
    26  C    5.484081   5.614114   6.504950   3.591395   3.836234
    27  H    5.903288   6.079516   6.866662   3.809710   4.320115
    28  C    7.797850   7.801603   8.848169   5.920938   6.076397
    29  O    8.149070   8.170066   9.167316   6.173861   6.530167
    30  N    8.837468   8.802717   9.901359   7.025882   7.036148
    31  H    9.749574   9.722119  10.808266   7.829298   7.906214
    32  H    8.824264   8.810664   9.880540   7.052594   6.911376
    33  H    1.092511   1.769512   1.768930   3.006915   2.523046
    34  C    7.493481   8.155290   8.138496   4.322760   4.949170
    35  C    7.110589   7.602678   7.957237   4.214400   4.301688
    36  C    7.897448   8.262151   8.813220   5.312936   5.200337
    37  C    8.979178   9.215992   9.904632   6.950123   6.490440
    38  C    7.754729   8.073051   8.669884   5.513057   5.135878
    39  O    6.112488   6.698608   6.901127   3.171851   3.167582
    40  S    8.134346   8.646803   8.934829   5.081843   5.483909
    41  H    8.358750   9.022976   8.958287   5.243010   5.947739
    42  H    6.622966   7.254481   7.273361   3.568357   4.349380
    43  H    9.590804   9.913977  10.457634   7.431525   6.937438
    44  H    9.649395   9.830575  10.616504   7.571201   7.224140
    45  H    8.872126   9.024195   9.800051   7.201006   6.621880
    46  H    6.934052   7.301858   7.806158   4.828736   4.297748
    47  H    8.834080   9.156114   9.770164   6.225655   6.205524
    48  H    7.416086   8.177192   7.983798   4.184570   4.677042
                    6          7          8          9         10
     6  O    0.000000
     7  H    0.976029   0.000000
     8  C    2.384830   3.234753   0.000000
     9  H    2.859464   3.713004   1.094494   0.000000
    10  O    2.635277   3.559708   1.408450   2.071081   0.000000
    11  H    2.091868   3.005870   1.923884   2.453741   0.966199
    12  C    2.467599   2.694114   2.365106   3.334101   2.923751
    13  H    2.567019   2.794411   2.801511   3.855804   2.813800
    14  C    3.596961   4.276314   1.524583   2.185001   2.389046
    15  H    4.296049   5.049878   2.143888   2.756727   2.416060
    16  O    3.560426   3.975342   2.361585   3.270915   3.049132
    17  N    3.259893   3.046610   3.663208   4.498455   4.343702
    18  C    4.052843   3.819827   4.175206   4.787180   5.171656
    19  H    4.102124   4.079504   3.711038   4.169867   4.888962
    20  C    5.123348   4.704750   5.487538   6.054069   6.472631
    21  H    5.896111   5.515225   6.073552   6.507614   7.185038
    22  C    5.616279   5.016898   6.403662   7.080551   7.184428
    23  H    6.674642   6.099026   7.319586   8.012301   8.102406
    24  H    5.766422   5.038366   6.855158   7.442042   7.653083
    25  C    5.059265   4.478948   5.992961   6.825820   6.506780
    26  C    3.963323   3.541931   4.779125   5.682577   5.194270
    27  H    3.960211   3.613165   4.863743   5.850587   4.976803
    28  C    6.049554   5.412836   7.170320   8.061075   7.485558
    29  O    6.191976   5.634548   7.307147   8.273828   7.396338
    30  N    7.135215   6.409044   8.345640   9.174774   8.752872
    31  H    7.832915   7.089027   9.141569   9.996417   9.447471
    32  H    7.184458   6.408481   8.434347   9.177919   8.974822
    33  H    4.311112   4.770994   2.740946   2.676597   4.089962
    34  C    3.199093   2.708011   5.341155   5.977570   5.005711
    35  C    3.654666   2.717208   5.680865   6.288027   5.995837
    36  C    4.969193   4.032081   6.821191   7.411520   7.280693
    37  C    6.867232   5.966199   8.450525   8.891367   9.191023
    38  C    5.386833   4.485563   7.026658   7.502784   7.716371
    39  O    2.644818   1.690821   4.659080   5.170039   5.116923
    40  S    4.248143   3.469924   6.360120   7.060267   6.283717
    41  H    4.085596   3.721716   6.106318   6.742424   5.562379
    42  H    2.598372   2.333843   4.475859   5.220912   4.070974
    43  H    7.206827   6.281531   8.934546   9.285527   9.663977
    44  H    7.456639   6.542016   9.074567   9.607542   9.717562
    45  H    7.306574   6.469542   8.651587   9.050015   9.518939
    46  H    4.817337   3.983617   6.313645   6.689233   7.136434
    47  H    5.817064   4.889019   7.707491   8.355993   8.051693
    48  H    2.898482   2.379043   5.209947   5.666334   4.993051
                   11         12         13         14         15
    11  H    0.000000
    12  C    3.118628   0.000000
    13  H    2.871928   1.094871   0.000000
    14  C    3.172320   2.344530   2.945151   0.000000
    15  H    3.347378   3.065624   3.365279   1.091274   0.000000
    16  O    3.625244   1.407439   2.077155   1.435549   2.053103
    17  N    4.433570   1.441051   2.052071   3.503726   4.299171
    18  C    5.352593   2.442324   3.327290   3.825657   4.754319
    19  H    5.198405   2.563183   3.613948   3.224279   4.211205
    20  C    6.595648   3.678875   4.434368   5.129948   6.038799
    21  H    7.363191   4.521045   5.374818   5.629846   6.563101
    22  C    7.179110   4.308516   4.769737   6.166145   7.000830
    23  H    8.155471   5.187435   5.623683   6.926405   7.707296
    24  H    7.534475   4.902233   5.356863   6.816601   7.717485
    25  C    6.443250   3.700000   3.836051   5.835305   6.538476
    26  C    5.154849   2.450941   2.490451   4.677829   5.330934
    27  H    4.871635   2.629792   2.192230   4.860255   5.345849
    28  C    7.343446   4.853449   4.716250   7.058129   7.654107
    29  O    7.229511   5.027448   4.628283   7.222955   7.677206
    30  N    8.586603   6.057040   6.021648   8.232487   8.889886
    31  H    9.234752   6.854026   6.703168   9.069708   9.679622
    32  H    8.799365   6.226808   6.343563   8.356299   9.107016
    33  H    4.651450   3.390589   4.382145   2.164232   3.067783
    34  C    4.232974   4.453552   3.868331   6.319547   6.808158
    35  C    5.484986   4.129687   4.078275   6.323090   7.112640
    36  C    6.849593   5.071950   5.148666   7.280108   8.123181
    37  C    8.864145   6.764849   7.122485   8.734571   9.689806
    38  C    7.372995   5.368974   5.699920   7.389720   8.329687
    39  O    4.633841   3.403457   3.557343   5.401088   6.257040
    40  S    5.648596   4.891006   4.434872   7.091137   7.690865
    41  H    4.751527   5.334793   4.615831   7.103032   7.475934
    42  H    3.381990   3.561283   2.866954   5.368312   5.791219
    43  H    9.261020   7.436389   7.787829   9.361277  10.341140
    44  H    9.382839   7.218138   7.455136   9.306876  10.205665
    45  H    9.284617   6.989304   7.477835   8.798975   9.781383
    46  H    6.840110   4.873181   5.372698   6.695821   7.692461
    47  H    7.592583   5.859593   5.793758   8.140139   8.922399
    48  H    4.146324   4.673094   4.286323   6.360574   6.933501
                   16         17         18         19         20
    16  O    0.000000
    17  N    2.317000   0.000000
    18  C    2.815020   1.392790   0.000000
    19  H    2.530092   2.090945   1.080243   0.000000
    20  C    4.074937   2.384513   1.328787   2.117265   0.000000
    21  H    4.720305   3.353481   2.078894   2.434420   1.081222
    22  C    4.956984   2.868579   2.469393   3.469732   1.492351
    23  H    5.666770   3.759652   3.272019   4.184334   2.144186
    24  H    5.710845   3.513323   3.103190   4.043574   2.119066
    25  C    4.524909   2.377479   2.763400   3.834905   2.465209
    26  C    3.390334   1.359513   2.365652   3.304182   2.757640
    27  H    3.618947   2.088224   3.332339   4.160154   3.838437
    28  C    5.713577   3.692230   4.233321   5.298730   3.851169
    29  O    5.886979   4.129908   4.957625   5.972640   4.818711
    30  N    6.896550   4.781461   5.037357   6.109194   4.323288
    31  H    7.726898   5.649717   6.006136   7.081863   5.328630
    32  H    7.076429   4.869556   4.888261   5.934246   3.993655
    33  H    2.749018   3.926430   3.472923   2.459738   4.562601
    34  C    5.795239   4.645252   5.768710   6.338567   6.400398
    35  C    5.488268   3.481736   4.145335   4.947427   4.302388
    36  C    6.314572   4.072510   4.400583   5.318482   4.098773
    37  C    7.782221   5.538796   5.238935   6.061259   4.381157
    38  C    6.471795   4.236157   4.126264   4.966726   3.559949
    39  O    4.745953   2.973286   3.551478   4.158359   3.975880
    40  S    6.266898   4.533898   5.517047   6.322396   5.784664
    41  H    6.617191   5.605848   6.789472   7.362248   7.419880
    42  H    4.841264   3.958622   5.188280   5.691748   5.975638
    43  H    8.513026   6.313967   6.032529   6.777975   5.271187
    44  H    8.247380   5.947338   5.783779   6.701303   4.881179
    45  H    7.856557   5.702615   5.144870   5.886620   4.115917
    46  H    5.909210   3.829436   3.524696   4.210968   3.096402
    47  H    7.100481   4.852630   5.272450   6.248706   4.884576
    48  H    6.014069   4.916440   5.879118   6.340044   6.532380
                   21         22         23         24         25
    21  H    0.000000
    22  C    2.228018   0.000000
    23  H    2.521607   1.095490   0.000000
    24  H    2.630647   1.097178   1.727425   0.000000
    25  C    3.459374   1.498002   2.151761   2.145186   0.000000
    26  C    3.834761   2.480364   3.284845   3.132021   1.346112
    27  H    4.912956   3.468540   4.189185   4.052855   2.108720
    28  C    4.758712   2.593569   2.814108   2.961758   1.475007
    29  O    5.787961   3.712291   3.949876   4.129640   2.372347
    30  N    5.030514   2.854329   2.717927   2.904737   2.410555
    31  H    6.032111   3.859941   3.678728   3.839697   3.312402
    32  H    4.562270   2.510038   2.344388   2.261294   2.588040
    33  H    4.672577   5.918951   6.635962   6.423287   6.119061
    34  C    7.376320   6.103669   7.071029   6.040487   5.079714
    35  C    5.192930   3.787327   4.761043   3.452094   3.173261
    36  C    4.862570   3.228793   4.028976   2.583167   2.963675
    37  C    4.644637   3.519811   3.887883   2.434581   4.186768
    38  C    4.081536   2.846857   3.592175   1.897644   3.229867
    39  O    4.808747   3.905278   4.979598   3.674140   3.486609
    40  S    6.760046   5.113922   5.972445   4.906492   4.104712
    41  H    8.416102   7.046167   7.967815   6.991209   5.928667
    42  H    6.974678   5.826993   6.791582   5.949782   4.738930
    43  H    5.485014   4.542525   4.965515   3.450626   5.152809
    44  H    5.225522   3.745498   3.923675   2.776858   4.216148
    45  H    4.134248   3.419866   3.608555   2.378827   4.430275
    46  H    3.525325   2.871222   3.748788   2.066304   3.437601
    47  H    5.653522   3.777200   4.379902   3.161435   3.350446
    48  H    7.424148   6.381562   7.409970   6.204509   5.564293
                   26         27         28         29         30
    26  C    0.000000
    27  H    1.083797   0.000000
    28  C    2.408819   2.589660   0.000000
    29  O    2.774229   2.451226   1.215907   0.000000
    30  N    3.618150   3.939876   1.375712   2.258909   0.000000
    31  H    4.409702   4.546902   2.026646   2.450111   1.007034
    32  H    3.888203   4.415203   2.074410   3.139888   1.005597
    33  H    5.280672   5.849350   7.540852   8.029811   8.478280
    34  C    4.322554   3.803853   5.295587   5.053477   6.264737
    35  C    3.018565   3.173009   3.600783   3.988963   4.251289
    36  C    3.427604   3.815340   3.176848   3.873344   3.356027
    37  C    5.099089   5.800829   4.444631   5.481858   3.898167
    38  C    3.869570   4.545841   3.753936   4.708227   3.690816
    39  O    3.018687   3.314440   4.307078   4.746389   5.073292
    40  S    3.808723   3.432051   4.009836   3.880988   4.749792
    41  H    5.190448   4.526142   5.952261   5.530357   6.902747
    42  H    3.758511   3.159550   5.103816   4.819953   6.235323
    43  H    5.948511   6.595989   5.394173   6.354890   4.866571
    44  H    5.273634   5.867316   4.108658   5.087260   3.303540
    45  H    5.404318   6.238908   4.852351   5.991485   4.248706
    46  H    3.826348   4.613926   4.317322   5.271500   4.458114
    47  H    3.971180   4.184506   3.059933   3.617684   2.993060
    48  H    4.826123   4.501572   5.956369   5.885738   6.844884
                   31         32         33         34         35
    31  H    0.000000
    32  H    1.722322   0.000000
    33  H    9.422822   8.350743   0.000000
    34  C    6.592282   6.524509   7.300613   0.000000
    35  C    4.788413   4.194791   6.625193   2.736983   0.000000
    36  C    3.885827   3.061974   7.320543   4.095741   1.465474
    37  C    4.435942   3.028573   8.213573   6.517016   3.829983
    38  C    4.370202   3.063340   7.041764   5.173481   2.446458
    39  O    5.742550   4.949801   5.578474   2.859115   1.217512
    40  S    4.982175   4.991004   7.825421   1.798305   1.763940
    41  H    7.101052   7.248929   8.242812   1.087512   3.681890
    42  H    6.651285   6.554901   6.538582   1.087124   3.005598
    43  H    5.302427   4.037109   8.772130   6.755238   4.204095
    44  H    3.653414   2.456589   8.957078   6.727668   4.136747
    45  H    4.882424   3.283943   8.061631   7.339800   4.609038
    46  H    5.244604   3.852228   6.147342   5.230582   2.632569
    47  H    3.259809   2.817351   8.310661   4.404234   2.182069
    48  H    7.240153   6.962018   7.121879   1.087944   2.852869
                   36         37         38         39         40
    36  C    0.000000
    37  C    2.486124   0.000000
    38  C    1.333872   1.495675   0.000000
    39  O    2.368276   4.325937   2.846838   0.000000
    40  S    2.696543   5.141562   3.965451   2.637200   0.000000
    41  H    4.932934   7.364325   6.092929   3.931239   2.348931
    42  H    4.408302   6.821949   5.399221   2.885370   2.411649
    43  H    2.978167   1.093430   2.108450   4.664146   5.439067
    44  H    2.675610   1.090902   2.153319   4.866420   5.163375
    45  H    3.353395   1.089815   2.168605   4.922634   6.049267
    46  H    2.079145   2.227347   1.087132   2.531372   4.355574
    47  H    1.084621   2.731407   2.109951   3.293176   2.723576
    48  H    4.229713   6.480855   5.136947   2.684673   2.400806
                   41         42         43         44         45
    41  H    0.000000
    42  H    1.778820   0.000000
    43  H    7.560909   7.192947   0.000000
    44  H    7.480106   7.063760   1.757644   0.000000
    45  H    8.243344   7.537377   1.756866   1.779289   0.000000
    46  H    6.238867   5.342071   2.675548   3.103276   2.524495
    47  H    5.063185   4.825014   3.183202   2.487482   3.701135
    48  H    1.779309   1.779592   6.582414   6.837548   7.284500
                   46         47         48
    46  H    0.000000
    47  H    3.057721   0.000000
    48  H    5.048741   4.689646   0.000000
 Stoichiometry    C16H24N2O5S
 Framework group  C1[X(C16H24N2O5S)]
 Deg. of freedom   138
 Full point group                 C1      NOp   1
 Largest Abelian subgroup         C1      NOp   1
 Largest concise Abelian subgroup C1      NOp   1
                         Standard orientation:                         
 ---------------------------------------------------------------------
 Center     Atomic      Atomic             Coordinates (Angstroms)
 Number     Number       Type             X           Y           Z
 ---------------------------------------------------------------------
      1          6           0       -4.674930   -1.983819   -0.522172
      2          1           0       -4.626332   -2.924760    0.024449
      3          1           0       -5.700383   -1.826568   -0.858439
      4          6           0       -2.534680    0.440847   -0.682368
      5          1           0       -2.341384   -0.198784   -1.551878
      6          8           0       -2.074146    1.741644   -0.890578
      7          1           0       -1.118728    1.699406   -1.085580
      8          6           0       -4.024006    0.472996   -0.365229
      9          1           0       -4.641301    0.539615   -1.266576
     10          8           0       -4.294959    1.539703    0.513662
     11          1           0       -3.764441    2.289340    0.213434
     12          6           0       -1.975295   -0.238873    0.578036
     13          1           0       -1.810180    0.518790    1.350970
     14          6           0       -4.231048   -0.844382    0.373690
     15          1           0       -4.946915   -0.688524    1.182468
     16          8           0       -2.962100   -1.165608    0.963083
     17          7           0       -0.728585   -0.936910    0.390719
     18          6           0       -0.693806   -2.043795   -0.453946
     19          1           0       -1.652091   -2.338565   -0.856097
     20          6           0        0.421972   -2.727743   -0.684008
     21          1           0        0.376022   -3.604434   -1.315151
     22          6           0        1.738225   -2.309580   -0.118565
     23          1           0        2.291351   -3.172913    0.267190
     24          1           0        2.370290   -1.932167   -0.932109
     25          6           0        1.561689   -1.263336    0.938894
     26          6           0        0.383310   -0.636324    1.112947
     27          1           0        0.290102    0.146301    1.856873
     28          6           0        2.679925   -0.850010    1.807430
     29          8           0        2.541258   -0.138929    2.783937
     30          7           0        3.914328   -1.346387    1.457515
     31          1           0        4.696834   -0.968601    1.966513
     32          1           0        4.081845   -1.681549    0.524332
     33          1           0       -4.034323   -2.063649   -1.403552
     34          6           0        0.260169    3.600103    0.263242
     35          6           0        1.563806    1.419745   -0.755406
     36          6           0        2.765269    0.619502   -1.007817
     37          6           0        4.043288   -0.977482   -2.421013
     38          6           0        2.779238   -0.360057   -1.913070
     39          8           0        0.485998    1.202915   -1.278522
     40         16           0        1.861412    2.783779    0.322707
     41          1           0        0.378082    4.544078    0.790205
     42          1           0       -0.501892    2.998626    0.752453
     43          1           0        4.369893   -0.409136   -3.296171
     44          1           0        4.845270   -0.921869   -1.683585
     45          1           0        3.915809   -2.012139   -2.738707
     46          1           0        1.848423   -0.598483   -2.421590
     47          1           0        3.669809    0.915337   -0.487536
     48          1           0       -0.025733    3.788718   -0.769379
 ---------------------------------------------------------------------
 Rotational constants (GHZ):           0.3334362           0.1644845           0.1401122
 Leave Link  202 at Sat Aug 13 20:09:18 2022, MaxMem=  2684354560 cpu:               0.3 elap:               0.0
 (Enter /storage/apps/GAUSSIAN/G16_RevA03/g16/l301.exe)
 Standard basis: def2TZVP (5D, 7F)
 Ernie: Thresh=  0.10000D-02 Tol=  0.10000D-05 Strict=F.
 There are  1014 symmetry adapted cartesian basis functions of A   symmetry.
 There are   894 symmetry adapted basis functions of A   symmetry.
   894 basis functions,  1434 primitive gaussians,  1014 cartesian basis functions
    95 alpha electrons       95 beta electrons
       nuclear repulsion energy      2497.4574947577 Hartrees.
 IExCor= 4336 DFT=T Ex+Corr=M062X ExCW=0 ScaHFX=  0.540000
 ScaDFX=  1.000000  1.000000  1.000000  1.000000 ScalE2=  1.000000  1.000000
 IRadAn=      5 IRanWt=     -1 IRanGd=            0 ICorTp=0 IEmpDi=131
 NAtoms=   48 NActive=   48 NUniq=   48 SFac= 1.00D+00 NAtFMM=   60 NAOKFM=F Big=F
 Integral buffers will be    131072 words long.
 Raffenetti 2 integral format.
 Two-electron integral symmetry is turned on.
 R6Disp:  Grimme-D3 Dispersion energy=       -0.0042760253 Hartrees.
 Nuclear repulsion after empirical dispersion term =     2497.4532187323 Hartrees.
 Leave Link  301 at Sat Aug 13 20:09:18 2022, MaxMem=  2684354560 cpu:               0.8 elap:               0.1
 (Enter /storage/apps/GAUSSIAN/G16_RevA03/g16/l302.exe)
 NPDir=0 NMtPBC=     1 NCelOv=     1 NCel=       1 NClECP=     1 NCelD=      1
         NCelK=      1 NCelE2=     1 NClLst=     1 CellRange=     0.0.
 One-electron integrals computed using PRISM.
 One-electron integral symmetry used in STVInt
   1 Symmetry operations used in ECPInt.
 ECPInt:  NShTT=   65703 NPrTT=  200010 LenC2=   56969 LenP2D=  121508.
 LDataN:  DoStor=T MaxTD1= 6 Len=  172
 NBasis=   894 RedAO= T EigKep=  2.63D-05  NBF=   894
 NBsUse=   894 1.00D-06 EigRej= -1.00D+00 NBFU=   894
 Precomputing XC quadrature grid using
 IXCGrd= 4 IRadAn=           5 IRanWt=          -1 IRanGd=           0 AccXCQ= 0.00D+00.
 Generated NRdTot=       0 NPtTot=           0 NUsed=           0 NTot=          32
 NSgBfM=   997   996   996   996   997 MxSgAt=    48 MxSgA2=    48.
 Leave Link  302 at Sat Aug 13 20:09:19 2022, MaxMem=  2684354560 cpu:              18.4 elap:               1.2
 (Enter /storage/apps/GAUSSIAN/G16_RevA03/g16/l303.exe)
 DipDrv:  MaxL=1.
 Leave Link  303 at Sat Aug 13 20:09:20 2022, MaxMem=  2684354560 cpu:               2.0 elap:               0.2
 (Enter /storage/apps/GAUSSIAN/G16_RevA03/g16/l401.exe)
 ExpMin= 9.52D-02 ExpMax= 6.07D+04 ExpMxC= 2.07D+03 IAcc=3 IRadAn=         5 AccDes= 0.00D+00
 Harris functional with IExCor= 1009 and IRadAn=       5 diagonalized for initial guess.
 HarFok:  IExCor= 1009 AccDes= 0.00D+00 IRadAn=         5 IDoV= 1 UseB2=F ITyADJ=14
 ICtDFT=  3500011 ScaDFX=  1.000000  1.000000  1.000000  1.000000
 FoFCou: FMM=F IPFlag=           0 FMFlag=      100000 FMFlg1=           0
         NFxFlg=           0 DoJE=T BraDBF=F KetDBF=T FulRan=T
         wScrn=  0.000000 ICntrl=       500 IOpCl=  0 I1Cent=   200000004 NGrid=           0
         NMat0=    1 NMatS0=      1 NMatT0=    0 NMatD0=    1 NMtDS0=    0 NMtDT0=    0
 Petite list used in FoFCou.
 Harris En= -1507.24275598056    
 JPrj=0 DoOrth=F DoCkMO=F.
 Leave Link  401 at Sat Aug 13 20:09:23 2022, MaxMem=  2684354560 cpu:              60.3 elap:               3.8
 (Enter /storage/apps/GAUSSIAN/G16_RevA03/g16/l502.exe)
 Integral symmetry usage will be decided dynamically.
 Closed shell SCF:
 Using DIIS extrapolation, IDIIS=  1040.
 NGot=  2684354560 LenX=  2682272944 LenY=  2681243734
 Requested convergence on RMS density matrix=1.00D-08 within 128 cycles.
 Requested convergence on MAX density matrix=1.00D-06.
 Requested convergence on             energy=1.00D-06.
 No special actions if energy rises.
 Fock matrices will be formed incrementally for  20 cycles.
 Integral accuracy reduced to 1.0D-05 until final iterations.

 Cycle   1  Pass 0  IDiag  1:
 FoFJK:  IHMeth= 1 ICntrl=       0 DoSepK=F KAlg= 0 I1Cent=           0 FoldK=F
 IRaf= 800000000 NMat=       1 IRICut=       1 DoRegI=T DoRafI=F ISym2E= 0 IDoP0=0 IntGTp=1.
 FoFCou: FMM=F IPFlag=           0 FMFlag=      100000 FMFlg1=           0
         NFxFlg=           0 DoJE=F BraDBF=F KetDBF=F FulRan=T
         wScrn=  0.000000 ICntrl=         0 IOpCl=  0 I1Cent=           0 NGrid=           0
         NMat0=    1 NMatS0=      1 NMatT0=    0 NMatD0=    1 NMtDS0=    0 NMtDT0=    0
 Symmetry not used in FoFCou.
 E= -1507.18011770785    
 DIIS: error= 1.50D-02 at cycle   1 NSaved=   1.
 NSaved= 1 IEnMin= 1 EnMin= -1507.18011770785     IErMin= 1 ErrMin= 1.50D-02
 ErrMax= 1.50D-02  0.00D+00 EMaxC= 1.00D-01 BMatC= 9.98D-01 BMatP= 9.98D-01
 IDIUse=3 WtCom= 8.50D-01 WtEn= 1.50D-01
 Coeff-Com:  0.100D+01
 Coeff-En:   0.100D+01
 Coeff:      0.100D+01
 Gap=     0.323 Goal=   None    Shift=    0.000
 GapD=    0.323 DampG=1.000 DampE=0.500 DampFc=0.5000 IDamp=-1.
 Damping current iteration by 5.00D-01
 RMSDP=4.52D-03 MaxDP=1.80D+00              OVMax= 2.07D-01

 Cycle   2  Pass 0  IDiag  1:
 RMSU=  2.25D-03    CP:  1.02D+00
 E= -1507.52321151446     Delta-E=       -0.343093806612 Rises=F Damp=T
 DIIS: error= 3.69D-03 at cycle   2 NSaved=   2.
 NSaved= 2 IEnMin= 2 EnMin= -1507.52321151446     IErMin= 2 ErrMin= 3.69D-03
 ErrMax= 3.69D-03  0.00D+00 EMaxC= 1.00D-01 BMatC= 8.61D-02 BMatP= 9.98D-01
 IDIUse=3 WtCom= 9.63D-01 WtEn= 3.69D-02
 Coeff-Com: -0.186D-01 0.102D+01
 Coeff-En:   0.141D-01 0.986D+00
 Coeff:     -0.174D-01 0.102D+01
 Gap=     0.327 Goal=   None    Shift=    0.000
 RMSDP=1.42D-03 MaxDP=5.36D-01 DE=-3.43D-01 OVMax= 1.67D-01

 Cycle   3  Pass 0  IDiag  1:
 RMSU=  1.12D-03    CP:  1.00D+00  6.21D-01
 E= -1507.88024361467     Delta-E=       -0.357032100208 Rises=F Damp=F
 DIIS: error= 3.68D-03 at cycle   3 NSaved=   3.
 NSaved= 3 IEnMin= 3 EnMin= -1507.88024361467     IErMin= 3 ErrMin= 3.68D-03
 ErrMax= 3.68D-03  0.00D+00 EMaxC= 1.00D-01 BMatC= 4.98D-02 BMatP= 8.61D-02
 IDIUse=3 WtCom= 9.63D-01 WtEn= 3.68D-02
 Coeff-Com: -0.845D-01 0.454D+00 0.631D+00
 Coeff-En:   0.000D+00 0.000D+00 0.100D+01
 Coeff:     -0.813D-01 0.437D+00 0.644D+00
 Gap=     0.211 Goal=   None    Shift=    0.000
 RMSDP=3.78D-04 MaxDP=6.93D-02 DE=-3.57D-01 OVMax= 6.44D-02

 Cycle   4  Pass 0  IDiag  1:
 RMSU=  3.23D-04    CP:  1.00D+00  6.99D-01  9.20D-01
 E= -1507.91258532978     Delta-E=       -0.032341715108 Rises=F Damp=F
 DIIS: error= 1.78D-03 at cycle   4 NSaved=   4.
 NSaved= 4 IEnMin= 4 EnMin= -1507.91258532978     IErMin= 4 ErrMin= 1.78D-03
 ErrMax= 1.78D-03  0.00D+00 EMaxC= 1.00D-01 BMatC= 9.86D-03 BMatP= 4.98D-02
 IDIUse=3 WtCom= 9.82D-01 WtEn= 1.78D-02
 Coeff-Com: -0.374D-01 0.100D+00 0.347D+00 0.590D+00
 Coeff-En:   0.000D+00 0.000D+00 0.132D+00 0.868D+00
 Coeff:     -0.367D-01 0.986D-01 0.343D+00 0.595D+00
 Gap=     0.210 Goal=   None    Shift=    0.000
 RMSDP=1.30D-04 MaxDP=1.99D-02 DE=-3.23D-02 OVMax= 1.62D-02

 Cycle   5  Pass 0  IDiag  1:
 RMSU=  8.37D-05    CP:  1.00D+00  6.84D-01  9.47D-01  7.24D-01
 E= -1507.91992095433     Delta-E=       -0.007335624554 Rises=F Damp=F
 DIIS: error= 2.56D-04 at cycle   5 NSaved=   5.
 NSaved= 5 IEnMin= 5 EnMin= -1507.91992095433     IErMin= 5 ErrMin= 2.56D-04
 ErrMax= 2.56D-04  0.00D+00 EMaxC= 1.00D-01 BMatC= 3.96D-04 BMatP= 9.86D-03
 IDIUse=3 WtCom= 9.97D-01 WtEn= 2.56D-03
 Coeff-Com: -0.107D-01 0.188D-01 0.120D+00 0.264D+00 0.608D+00
 Coeff-En:   0.000D+00 0.000D+00 0.000D+00 0.000D+00 0.100D+01
 Coeff:     -0.107D-01 0.188D-01 0.120D+00 0.263D+00 0.609D+00
 Gap=     0.210 Goal=   None    Shift=    0.000
 RMSDP=4.68D-05 MaxDP=1.47D-02 DE=-7.34D-03 OVMax= 4.14D-03

 Cycle   6  Pass 0  IDiag  1:
 RMSU=  3.21D-05    CP:  1.00D+00  6.70D-01  9.58D-01  7.35D-01  9.13D-01
 E= -1507.92023921174     Delta-E=       -0.000318257411 Rises=F Damp=F
 DIIS: error= 1.48D-04 at cycle   6 NSaved=   6.
 NSaved= 6 IEnMin= 6 EnMin= -1507.92023921174     IErMin= 6 ErrMin= 1.48D-04
 ErrMax= 1.48D-04  0.00D+00 EMaxC= 1.00D-01 BMatC= 5.16D-05 BMatP= 3.96D-04
 IDIUse=3 WtCom= 9.99D-01 WtEn= 1.48D-03
 Coeff-Com:  0.803D-04-0.396D-02 0.131D-01 0.433D-01 0.274D+00 0.674D+00
 Coeff-En:   0.000D+00 0.000D+00 0.000D+00 0.000D+00 0.000D+00 0.100D+01
 Coeff:      0.802D-04-0.395D-02 0.130D-01 0.433D-01 0.273D+00 0.674D+00
 Gap=     0.211 Goal=   None    Shift=    0.000
 RMSDP=2.09D-05 MaxDP=4.08D-03 DE=-3.18D-04 OVMax= 3.33D-03

 Cycle   7  Pass 0  IDiag  1:
 RMSU=  1.73D-05    CP:  1.00D+00  6.67D-01  9.63D-01  7.42D-01  9.88D-01
                    CP:  9.92D-01
 E= -1507.92029971446     Delta-E=       -0.000060502722 Rises=F Damp=F
 DIIS: error= 6.41D-05 at cycle   7 NSaved=   7.
 NSaved= 7 IEnMin= 7 EnMin= -1507.92029971446     IErMin= 7 ErrMin= 6.41D-05
 ErrMax= 6.41D-05  0.00D+00 EMaxC= 1.00D-01 BMatC= 9.10D-06 BMatP= 5.16D-05
 IDIUse=1 WtCom= 1.00D+00 WtEn= 0.00D+00
 Coeff-Com:  0.183D-02-0.500D-02-0.121D-01-0.248D-01 0.127D-01 0.293D+00
 Coeff-Com:  0.734D+00
 Coeff:      0.183D-02-0.500D-02-0.121D-01-0.248D-01 0.127D-01 0.293D+00
 Coeff:      0.734D+00
 Gap=     0.211 Goal=   None    Shift=    0.000
 RMSDP=1.81D-05 MaxDP=5.19D-03 DE=-6.05D-05 OVMax= 1.74D-03

 Cycle   8  Pass 0  IDiag  1:
 RMSU=  1.16D-05    CP:  1.00D+00  6.62D-01  9.64D-01  7.47D-01  1.06D+00
                    CP:  1.19D+00  1.26D+00
 E= -1507.92030637280     Delta-E=       -0.000006658333 Rises=F Damp=F
 DIIS: error= 2.95D-05 at cycle   8 NSaved=   8.
 NSaved= 8 IEnMin= 8 EnMin= -1507.92030637280     IErMin= 8 ErrMin= 2.95D-05
 ErrMax= 2.95D-05  0.00D+00 EMaxC= 1.00D-01 BMatC= 2.15D-06 BMatP= 9.10D-06
 IDIUse=1 WtCom= 1.00D+00 WtEn= 0.00D+00
 Coeff-Com:  0.979D-03-0.184D-02-0.826D-02-0.227D-01-0.471D-01 0.159D-01
 Coeff-Com:  0.367D+00 0.696D+00
 Coeff:      0.979D-03-0.184D-02-0.826D-02-0.227D-01-0.471D-01 0.159D-01
 Coeff:      0.367D+00 0.696D+00
 Gap=     0.211 Goal=   None    Shift=    0.000
 RMSDP=1.93D-05 MaxDP=3.00D-03 DE=-6.66D-06 OVMax= 6.72D-04

 Cycle   9  Pass 0  IDiag  1:
 RMSU=  9.94D-06    CP:  1.00D+00  6.60D-01  9.64D-01  7.47D-01  1.11D+00
                    CP:  1.33D+00  1.75D+00  1.99D+00
 E= -1507.92029582872     Delta-E=        0.000010544072 Rises=F Damp=F
 DIIS: error= 2.55D-05 at cycle   9 NSaved=   9.
 NSaved= 9 IEnMin= 8 EnMin= -1507.92030637280     IErMin= 9 ErrMin= 2.55D-05
 ErrMax= 2.55D-05  0.00D+00 EMaxC= 1.00D-01 BMatC= 6.36D-07 BMatP= 2.15D-06
 IDIUse=1 WtCom= 1.00D+00 WtEn= 0.00D+00
 Coeff-Com:  0.454D-03-0.782D-03-0.375D-02-0.117D-01-0.268D-01-0.837D-02
 Coeff-Com:  0.167D+00 0.401D+00 0.483D+00
 Coeff:      0.454D-03-0.782D-03-0.375D-02-0.117D-01-0.268D-01-0.837D-02
 Coeff:      0.167D+00 0.401D+00 0.483D+00
 Gap=     0.211 Goal=   None    Shift=    0.000
 RMSDP=1.90D-05 MaxDP=1.70D-03 DE= 1.05D-05 OVMax= 1.34D-04

 Cycle  10  Pass 0  IDiag  1:
 RMSU=  4.17D-06    CP:  1.00D+00  6.59D-01  9.64D-01  7.46D-01  1.15D+00
                    CP:  1.44D+00  2.16D+00  3.00D+00  2.09D+00
 E= -1507.92028650933     Delta-E=        0.000009319398 Rises=F Damp=F
 DIIS: error= 3.66D-05 at cycle  10 NSaved=  10.
 NSaved=10 IEnMin= 8 EnMin= -1507.92030637280     IErMin= 9 ErrMin= 2.55D-05
 ErrMax= 3.66D-05  0.00D+00 EMaxC= 1.00D-01 BMatC= 1.09D-06 BMatP= 6.36D-07
 IDIUse=1 WtCom= 1.00D+00 WtEn= 0.00D+00
 Coeff-Com:  0.416D-03-0.580D-03-0.358D-02-0.126D-01-0.334D-01-0.323D-01
 Coeff-Com:  0.151D+00 0.502D+00 0.119D+01-0.759D+00
 Coeff:      0.416D-03-0.580D-03-0.358D-02-0.126D-01-0.334D-01-0.323D-01
 Coeff:      0.151D+00 0.502D+00 0.119D+01-0.759D+00
 Gap=     0.211 Goal=   None    Shift=    0.000
 RMSDP=2.96D-05 MaxDP=2.97D-03 DE= 9.32D-06 OVMax= 6.44D-05

 Problem detected with inexpensive integrals.
 Switching to full accuracy and repeating last cycle.
 Cycle  11  Pass 1  IDiag  1:
 E= -1507.92031515485     Delta-E=       -0.000028645519 Rises=F Damp=F
 DIIS: error= 3.48D-04 at cycle   1 NSaved=   1.
 NSaved= 1 IEnMin= 1 EnMin= -1507.92031515485     IErMin= 1 ErrMin= 3.48D-04
 ErrMax= 3.48D-04  0.00D+00 EMaxC= 1.00D-01 BMatC= 8.68D-05 BMatP= 8.68D-05
 IDIUse=3 WtCom= 9.97D-01 WtEn= 3.48D-03
 Coeff-Com:  0.100D+01
 Coeff-En:   0.100D+01
 Coeff:      0.100D+01
 Gap=     0.211 Goal=   None    Shift=    0.000
 RMSDP=4.30D-04 MaxDP=3.51D-02 DE=-2.86D-05 OVMax= 9.98D-04

 Cycle  12  Pass 1  IDiag  1:
 RMSU=  4.28D-04    CP:  9.94D-01
 E= -1507.92036961263     Delta-E=       -0.000054457785 Rises=F Damp=F
 DIIS: error= 9.35D-06 at cycle   2 NSaved=   2.
 NSaved= 2 IEnMin= 2 EnMin= -1507.92036961263     IErMin= 2 ErrMin= 9.35D-06
 ErrMax= 9.35D-06  0.00D+00 EMaxC= 1.00D-01 BMatC= 6.96D-08 BMatP= 8.68D-05
 IDIUse=1 WtCom= 1.00D+00 WtEn= 0.00D+00
 Coeff-Com: -0.163D-01 0.102D+01
 Coeff:     -0.163D-01 0.102D+01
 Gap=     0.211 Goal=   None    Shift=    0.000
 RMSDP=1.55D-05 MaxDP=1.32D-03 DE=-5.45D-05 OVMax= 8.18D-05

 Cycle  13  Pass 1  IDiag  1:
 RMSU=  5.19D-06    CP:  9.94D-01  1.03D+00
 E= -1507.92036966991     Delta-E=       -0.000000057283 Rises=F Damp=F
 DIIS: error= 3.83D-06 at cycle   3 NSaved=   3.
 NSaved= 3 IEnMin= 3 EnMin= -1507.92036966991     IErMin= 3 ErrMin= 3.83D-06
 ErrMax= 3.83D-06  0.00D+00 EMaxC= 1.00D-01 BMatC= 5.19D-08 BMatP= 6.96D-08
 IDIUse=1 WtCom= 1.00D+00 WtEn= 0.00D+00
 Coeff-Com: -0.879D-02 0.523D+00 0.486D+00
 Coeff:     -0.879D-02 0.523D+00 0.486D+00
 Gap=     0.211 Goal=   None    Shift=    0.000
 RMSDP=5.58D-07 MaxDP=1.67D-04 DE=-5.73D-08 OVMax= 4.39D-05

 Cycle  14  Pass 1  IDiag  1:
 RMSU=  4.99D-07    CP:  9.94D-01  1.03D+00  1.01D+00
 E= -1507.92036970768     Delta-E=       -0.000000037768 Rises=F Damp=F
 DIIS: error= 1.32D-06 at cycle   4 NSaved=   4.
 NSaved= 4 IEnMin= 4 EnMin= -1507.92036970768     IErMin= 4 ErrMin= 1.32D-06
 ErrMax= 1.32D-06  0.00D+00 EMaxC= 1.00D-01 BMatC= 3.63D-09 BMatP= 5.19D-08
 IDIUse=1 WtCom= 1.00D+00 WtEn= 0.00D+00
 Coeff-Com: -0.408D-04-0.827D-02 0.192D+00 0.817D+00
 Coeff:     -0.408D-04-0.827D-02 0.192D+00 0.817D+00
 Gap=     0.211 Goal=   None    Shift=    0.000
 RMSDP=3.31D-07 MaxDP=2.40D-05 DE=-3.78D-08 OVMax= 2.11D-05

 Cycle  15  Pass 1  IDiag  1:
 RMSU=  1.36D-07    CP:  9.94D-01  1.04D+00  1.05D+00  9.99D-01
 E= -1507.92036971103     Delta-E=       -0.000000003348 Rises=F Damp=F
 DIIS: error= 4.71D-07 at cycle   5 NSaved=   5.
 NSaved= 5 IEnMin= 5 EnMin= -1507.92036971103     IErMin= 5 ErrMin= 4.71D-07
 ErrMax= 4.71D-07  0.00D+00 EMaxC= 1.00D-01 BMatC= 5.20D-10 BMatP= 3.63D-09
 IDIUse=1 WtCom= 1.00D+00 WtEn= 0.00D+00
 Coeff-Com:  0.545D-03-0.377D-01 0.575D-01 0.397D+00 0.583D+00
 Coeff:      0.545D-03-0.377D-01 0.575D-01 0.397D+00 0.583D+00
 Gap=     0.211 Goal=   None    Shift=    0.000
 RMSDP=6.35D-08 MaxDP=1.57D-05 DE=-3.35D-09 OVMax= 7.42D-06

 Cycle  16  Pass 1  IDiag  1:
 RMSU=  4.13D-08    CP:  9.94D-01  1.04D+00  1.06D+00  1.07D+00  1.10D+00
 E= -1507.92036971157     Delta-E=       -0.000000000538 Rises=F Damp=F
 DIIS: error= 1.40D-07 at cycle   6 NSaved=   6.
 NSaved= 6 IEnMin= 6 EnMin= -1507.92036971157     IErMin= 6 ErrMin= 1.40D-07
 ErrMax= 1.40D-07  0.00D+00 EMaxC= 1.00D-01 BMatC= 4.79D-11 BMatP= 5.20D-10
 IDIUse=1 WtCom= 1.00D+00 WtEn= 0.00D+00
 Coeff-Com:  0.194D-03-0.114D-01-0.158D-01 0.362D-02 0.178D+00 0.845D+00
 Coeff:      0.194D-03-0.114D-01-0.158D-01 0.362D-02 0.178D+00 0.845D+00
 Gap=     0.211 Goal=   None    Shift=    0.000
 RMSDP=3.25D-08 MaxDP=1.03D-05 DE=-5.38D-10 OVMax= 5.38D-06

 Cycle  17  Pass 1  IDiag  1:
 RMSU=  2.04D-08    CP:  9.94D-01  1.04D+00  1.06D+00  1.11D+00  1.19D+00
                    CP:  1.20D+00
 E= -1507.92036971165     Delta-E=       -0.000000000083 Rises=F Damp=F
 DIIS: error= 8.81D-08 at cycle   7 NSaved=   7.
 NSaved= 7 IEnMin= 7 EnMin= -1507.92036971165     IErMin= 7 ErrMin= 8.81D-08
 ErrMax= 8.81D-08  0.00D+00 EMaxC= 1.00D-01 BMatC= 2.02D-11 BMatP= 4.79D-11
 IDIUse=1 WtCom= 1.00D+00 WtEn= 0.00D+00
 Coeff-Com: -0.208D-04 0.245D-02-0.223D-01-0.840D-01-0.468D-01 0.470D+00
 Coeff-Com:  0.681D+00
 Coeff:     -0.208D-04 0.245D-02-0.223D-01-0.840D-01-0.468D-01 0.470D+00
 Coeff:      0.681D+00
 Gap=     0.211 Goal=   None    Shift=    0.000
 RMSDP=1.42D-08 MaxDP=2.58D-06 DE=-8.32D-11 OVMax= 3.24D-06

 Cycle  18  Pass 1  IDiag  1:
 RMSU=  9.26D-09    CP:  9.94D-01  1.04D+00  1.05D+00  1.12D+00  1.22D+00
                    CP:  1.35D+00  1.02D+00
 E= -1507.92036971167     Delta-E=       -0.000000000021 Rises=F Damp=F
 DIIS: error= 2.75D-08 at cycle   8 NSaved=   8.
 NSaved= 8 IEnMin= 8 EnMin= -1507.92036971167     IErMin= 8 ErrMin= 2.75D-08
 ErrMax= 2.75D-08  0.00D+00 EMaxC= 1.00D-01 BMatC= 2.32D-12 BMatP= 2.02D-11
 IDIUse=1 WtCom= 1.00D+00 WtEn= 0.00D+00
 Coeff-Com: -0.353D-04 0.273D-02-0.989D-02-0.448D-01-0.503D-01 0.132D+00
 Coeff-Com:  0.343D+00 0.627D+00
 Coeff:     -0.353D-04 0.273D-02-0.989D-02-0.448D-01-0.503D-01 0.132D+00
 Coeff:      0.343D+00 0.627D+00
 Gap=     0.211 Goal=   None    Shift=    0.000
 RMSDP=5.85D-09 MaxDP=2.15D-06 DE=-2.14D-11 OVMax= 5.74D-07

 Cycle  19  Pass 1  IDiag  1:
 RMSU=  3.47D-09    CP:  9.94D-01  1.04D+00  1.05D+00  1.13D+00  1.22D+00
                    CP:  1.39D+00  1.12D+00  1.07D+00
 E= -1507.92036971168     Delta-E=       -0.000000000011 Rises=F Damp=F
 DIIS: error= 5.22D-09 at cycle   9 NSaved=   9.
 NSaved= 9 IEnMin= 9 EnMin= -1507.92036971168     IErMin= 9 ErrMin= 5.22D-09
 ErrMax= 5.22D-09  0.00D+00 EMaxC= 1.00D-01 BMatC= 1.06D-13 BMatP= 2.32D-12
 IDIUse=1 WtCom= 1.00D+00 WtEn= 0.00D+00
 Coeff-Com: -0.844D-05 0.545D-03-0.229D-03-0.309D-02-0.903D-02-0.149D-01
 Coeff-Com:  0.250D-01 0.179D+00 0.823D+00
 Coeff:     -0.844D-05 0.545D-03-0.229D-03-0.309D-02-0.903D-02-0.149D-01
 Coeff:      0.250D-01 0.179D+00 0.823D+00
 Gap=     0.211 Goal=   None    Shift=    0.000
 RMSDP=1.58D-09 MaxDP=2.05D-07 DE=-1.14D-11 OVMax= 2.41D-07

 SCF Done:  E(RM062X) =  -1507.92036971     A.U. after   19 cycles
            NFock= 19  Conv=0.16D-08     -V/T= 2.0036
 KE= 1.502486459387D+03 PE=-8.533197534550D+03 EE= 3.025337486719D+03
 Leave Link  502 at Sat Aug 13 20:18:24 2022, MaxMem=  2684354560 cpu:            8635.9 elap:             540.6
 (Enter /storage/apps/GAUSSIAN/G16_RevA03/g16/l601.exe)
 Copying SCF densities to generalized density rwf, IOpCl= 0 IROHF=0.

 **********************************************************************

            Population analysis using the SCF density.

 **********************************************************************

 Orbital symmetries:
       Occupied  (A) (A) (A) (A) (A) (A) (A) (A) (A) (A) (A) (A)
                 (A) (A) (A) (A) (A) (A) (A) (A) (A) (A) (A) (A)
                 (A) (A) (A) (A) (A) (A) (A) (A) (A) (A) (A) (A)
                 (A) (A) (A) (A) (A) (A) (A) (A) (A) (A) (A) (A)
                 (A) (A) (A) (A) (A) (A) (A) (A) (A) (A) (A) (A)
                 (A) (A) (A) (A) (A) (A) (A) (A) (A) (A) (A) (A)
                 (A) (A) (A) (A) (A) (A) (A) (A) (A) (A) (A) (A)
                 (A) (A) (A) (A) (A) (A) (A) (A) (A) (A) (A)
       Virtual   (A) (A) (A) (A) (A) (A) (A) (A) (A) (A) (A) (A)
                 (A) (A) (A) (A) (A) (A) (A) (A) (A) (A) (A) (A)
                 (A) (A) (A) (A) (A) (A) (A) (A) (A) (A) (A) (A)
                 (A) (A) (A) (A) (A) (A) (A) (A) (A) (A) (A) (A)
                 (A) (A) (A) (A) (A) (A) (A) (A) (A) (A) (A) (A)
                 (A) (A) (A) (A) (A) (A) (A) (A) (A) (A) (A) (A)
                 (A) (A) (A) (A) (A) (A) (A) (A) (A) (A) (A) (A)
                 (A) (A) (A) (A) (A) (A) (A) (A) (A) (A) (A) (A)
                 (A) (A) (A) (A) (A) (A) (A) (A) (A) (A) (A) (A)
                 (A) (A) (A) (A) (A) (A) (A) (A) (A) (A) (A) (A)
                 (A) (A) (A) (A) (A) (A) (A) (A) (A) (A) (A) (A)
                 (A) (A) (A) (A) (A) (A) (A) (A) (A) (A) (A) (A)
                 (A) (A) (A) (A) (A) (A) (A) (A) (A) (A) (A) (A)
                 (A) (A) (A) (A) (A) (A) (A) (A) (A) (A) (A) (A)
                 (A) (A) (A) (A) (A) (A) (A) (A) (A) (A) (A) (A)
                 (A) (A) (A) (A) (A) (A) (A) (A) (A) (A) (A) (A)
                 (A) (A) (A) (A) (A) (A) (A) (A) (A) (A) (A) (A)
                 (A) (A) (A) (A) (A) (A) (A) (A) (A) (A) (A) (A)
                 (A) (A) (A) (A) (A) (A) (A) (A) (A) (A) (A) (A)
                 (A) (A) (A) (A) (A) (A) (A) (A) (A) (A) (A) (A)
                 (A) (A) (A) (A) (A) (A) (A) (A) (A) (A) (A) (A)
                 (A) (A) (A) (A) (A) (A) (A) (A) (A) (A) (A) (A)
                 (A) (A) (A) (A) (A) (A) (A) (A) (A) (A) (A) (A)
                 (A) (A) (A) (A) (A) (A) (A) (A) (A) (A) (A) (A)
                 (A) (A) (A) (A) (A) (A) (A) (A) (A) (A) (A) (A)
                 (A) (A) (A) (A) (A) (A) (A) (A) (A) (A) (A) (A)
                 (A) (A) (A) (A) (A) (A) (A) (A) (A) (A) (A) (A)
                 (A) (A) (A) (A) (A) (A) (A) (A) (A) (A) (A) (A)
                 (A) (A) (A) (A) (A) (A) (A) (A) (A) (A) (A) (A)
                 (A) (A) (A) (A) (A) (A) (A) (A) (A) (A) (A) (A)
                 (A) (A) (A) (A) (A) (A) (A) (A) (A) (A) (A) (A)
                 (A) (A) (A) (A) (A) (A) (A) (A) (A) (A) (A) (A)
                 (A) (A) (A) (A) (A) (A) (A) (A) (A) (A) (A) (A)
                 (A) (A) (A) (A) (A) (A) (A) (A) (A) (A) (A) (A)
                 (A) (A) (A) (A) (A) (A) (A) (A) (A) (A) (A) (A)
                 (A) (A) (A) (A) (A) (A) (A) (A) (A) (A) (A) (A)
                 (A) (A) (A) (A) (A) (A) (A) (A) (A) (A) (A) (A)
                 (A) (A) (A) (A) (A) (A) (A) (A) (A) (A) (A) (A)
                 (A) (A) (A) (A) (A) (A) (A) (A) (A) (A) (A) (A)
                 (A) (A) (A) (A) (A) (A) (A) (A) (A) (A) (A) (A)
                 (A) (A) (A) (A) (A) (A) (A) (A) (A) (A) (A) (A)
                 (A) (A) (A) (A) (A) (A) (A) (A) (A) (A) (A) (A)
                 (A) (A) (A) (A) (A) (A) (A) (A) (A) (A) (A) (A)
                 (A) (A) (A) (A) (A) (A) (A) (A) (A) (A) (A) (A)
                 (A) (A) (A) (A) (A) (A) (A) (A) (A) (A) (A) (A)
                 (A) (A) (A) (A) (A) (A) (A) (A) (A) (A) (A) (A)
                 (A) (A) (A) (A) (A) (A) (A) (A) (A) (A) (A) (A)
                 (A) (A) (A) (A) (A) (A) (A) (A) (A) (A) (A) (A)
                 (A) (A) (A) (A) (A) (A) (A) (A) (A) (A) (A) (A)
                 (A) (A) (A) (A) (A) (A) (A) (A) (A) (A) (A) (A)
                 (A) (A) (A) (A) (A) (A) (A) (A) (A) (A) (A) (A)
                 (A) (A) (A) (A) (A) (A) (A) (A) (A) (A) (A) (A)
                 (A) (A) (A) (A) (A) (A) (A) (A) (A) (A) (A) (A)
                 (A) (A) (A) (A) (A) (A) (A) (A) (A) (A) (A) (A)
                 (A) (A) (A) (A) (A) (A) (A) (A) (A) (A) (A) (A)
                 (A) (A) (A) (A) (A) (A) (A) (A) (A) (A) (A) (A)
                 (A) (A) (A) (A) (A) (A) (A) (A) (A) (A) (A) (A)
                 (A) (A) (A) (A) (A) (A) (A) (A) (A) (A) (A) (A)
                 (A) (A) (A) (A) (A) (A) (A) (A) (A) (A) (A) (A)
                 (A) (A) (A) (A) (A) (A) (A) (A) (A) (A) (A) (A)
                 (A) (A) (A) (A) (A) (A) (A) (A) (A) (A) (A) (A)
                 (A) (A) (A) (A) (A) (A) (A) (A) (A) (A) (A) (A)
                 (A) (A) (A) (A) (A) (A) (A) (A) (A) (A) (A) (A)
                 (A) (A) (A) (A) (A) (A) (A) (A) (A) (A) (A) (A)
                 (A) (A) (A) (A) (A) (A) (A) (A) (A) (A) (A) (A)
                 (A) (A) (A) (A) (A) (A) (A) (A) (A) (A) (A) (A)
                 (A) (A) (A) (A) (A) (A) (A)
 The electronic state is 1-A.
 Alpha  occ. eigenvalues --  -89.92202 -19.63715 -19.63432 -19.62405 -19.62174
 Alpha  occ. eigenvalues --  -19.57876 -14.79345 -14.76133 -10.66383 -10.63527
 Alpha  occ. eigenvalues --  -10.62990 -10.59428 -10.59129 -10.58990 -10.58583
 Alpha  occ. eigenvalues --  -10.57661 -10.57536 -10.57143 -10.55883 -10.55461
 Alpha  occ. eigenvalues --  -10.54895 -10.53971 -10.53571 -10.53315  -8.28121
 Alpha  occ. eigenvalues --   -6.20061  -6.19829  -6.19626  -1.19535  -1.19032
 Alpha  occ. eigenvalues --   -1.15936  -1.15184  -1.13652  -1.08712  -1.00784
 Alpha  occ. eigenvalues --   -0.93566  -0.92024  -0.90410  -0.88550  -0.87794
 Alpha  occ. eigenvalues --   -0.85646  -0.83392  -0.79023  -0.76894  -0.75710
 Alpha  occ. eigenvalues --   -0.73616  -0.70858  -0.68166  -0.67734  -0.66509
 Alpha  occ. eigenvalues --   -0.63962  -0.63406  -0.62030  -0.60414  -0.58851
 Alpha  occ. eigenvalues --   -0.58405  -0.57436  -0.56714  -0.56299  -0.55409
 Alpha  occ. eigenvalues --   -0.54859  -0.53042  -0.52758  -0.51957  -0.51504
 Alpha  occ. eigenvalues --   -0.50844  -0.50468  -0.50242  -0.49352  -0.49307
 Alpha  occ. eigenvalues --   -0.48761  -0.48544  -0.47803  -0.47120  -0.46973
 Alpha  occ. eigenvalues --   -0.46052  -0.44806  -0.44456  -0.44209  -0.43862
 Alpha  occ. eigenvalues --   -0.43555  -0.43210  -0.41761  -0.41623  -0.37828
 Alpha  occ. eigenvalues --   -0.36195  -0.35614  -0.34708  -0.34401  -0.33947
 Alpha  occ. eigenvalues --   -0.33539  -0.32679  -0.32418  -0.31100  -0.24653
 Alpha virt. eigenvalues --   -0.03546   0.00148   0.04283   0.04325   0.05821
 Alpha virt. eigenvalues --    0.06621   0.07065   0.07502   0.08600   0.09075
 Alpha virt. eigenvalues --    0.09557   0.09693   0.10406   0.10707   0.10969
 Alpha virt. eigenvalues --    0.11988   0.12262   0.12366   0.12644   0.12997
 Alpha virt. eigenvalues --    0.13386   0.13715   0.13853   0.14183   0.14464
 Alpha virt. eigenvalues --    0.14794   0.15801   0.16133   0.17126   0.17451
 Alpha virt. eigenvalues --    0.17894   0.18657   0.19117   0.19347   0.19420
 Alpha virt. eigenvalues --    0.20543   0.20665   0.21652   0.22193   0.23001
 Alpha virt. eigenvalues --    0.23014   0.23365   0.23932   0.24244   0.24686
 Alpha virt. eigenvalues --    0.25064   0.25529   0.25946   0.26574   0.27126
 Alpha virt. eigenvalues --    0.27534   0.27875   0.28186   0.28845   0.29020
 Alpha virt. eigenvalues --    0.29857   0.30306   0.30631   0.30877   0.31118
 Alpha virt. eigenvalues --    0.31457   0.32507   0.33133   0.33847   0.34135
 Alpha virt. eigenvalues --    0.34305   0.35256   0.35391   0.35941   0.36209
 Alpha virt. eigenvalues --    0.36574   0.37540   0.38149   0.38247   0.38488
 Alpha virt. eigenvalues --    0.38681   0.39453   0.39788   0.40162   0.40414
 Alpha virt. eigenvalues --    0.40971   0.41174   0.41528   0.42346   0.42414
 Alpha virt. eigenvalues --    0.43115   0.43121   0.43526   0.43712   0.44039
 Alpha virt. eigenvalues --    0.44618   0.45112   0.45214   0.45725   0.46051
 Alpha virt. eigenvalues --    0.46319   0.46588   0.46865   0.47263   0.47827
 Alpha virt. eigenvalues --    0.48027   0.48266   0.48491   0.49029   0.49331
 Alpha virt. eigenvalues --    0.50038   0.50445   0.50547   0.51079   0.51608
 Alpha virt. eigenvalues --    0.51796   0.51950   0.52214   0.52666   0.52989
 Alpha virt. eigenvalues --    0.53503   0.54104   0.54210   0.54816   0.54930
 Alpha virt. eigenvalues --    0.55358   0.55711   0.56506   0.57306   0.57573
 Alpha virt. eigenvalues --    0.58131   0.58304   0.58920   0.59665   0.60033
 Alpha virt. eigenvalues --    0.60465   0.60987   0.61385   0.61992   0.62774
 Alpha virt. eigenvalues --    0.63045   0.63583   0.64862   0.65093   0.65975
 Alpha virt. eigenvalues --    0.66373   0.66711   0.67069   0.67648   0.67996
 Alpha virt. eigenvalues --    0.68768   0.69586   0.70211   0.70465   0.70966
 Alpha virt. eigenvalues --    0.72041   0.73120   0.73324   0.73607   0.74077
 Alpha virt. eigenvalues --    0.74826   0.75636   0.76172   0.76546   0.76750
 Alpha virt. eigenvalues --    0.77764   0.78565   0.79325   0.80979   0.81321
 Alpha virt. eigenvalues --    0.81356   0.82374   0.83269   0.84220   0.84520
 Alpha virt. eigenvalues --    0.85257   0.86124   0.86337   0.87089   0.87538
 Alpha virt. eigenvalues --    0.88422   0.89192   0.89451   0.89773   0.90347
 Alpha virt. eigenvalues --    0.90996   0.91466   0.91920   0.92954   0.93868
 Alpha virt. eigenvalues --    0.94310   0.94744   0.95183   0.95800   0.97345
 Alpha virt. eigenvalues --    0.97658   0.97890   0.98296   0.98622   0.99769
 Alpha virt. eigenvalues --    1.00497   1.01017   1.01522   1.02661   1.03329
 Alpha virt. eigenvalues --    1.03663   1.04550   1.05068   1.05609   1.06672
 Alpha virt. eigenvalues --    1.07253   1.07893   1.08057   1.09261   1.09907
 Alpha virt. eigenvalues --    1.10836   1.11263   1.12031   1.13037   1.13321
 Alpha virt. eigenvalues --    1.13990   1.14778   1.16042   1.16644   1.17139
 Alpha virt. eigenvalues --    1.18161   1.19256   1.19523   1.19736   1.20813
 Alpha virt. eigenvalues --    1.21298   1.21931   1.23010   1.23286   1.24227
 Alpha virt. eigenvalues --    1.25076   1.25773   1.26113   1.27494   1.29407
 Alpha virt. eigenvalues --    1.29793   1.30212   1.30885   1.31402   1.32439
 Alpha virt. eigenvalues --    1.33160   1.33873   1.34544   1.34831   1.35465
 Alpha virt. eigenvalues --    1.37257   1.38004   1.38754   1.39348   1.39965
 Alpha virt. eigenvalues --    1.41356   1.42162   1.43047   1.43383   1.44966
 Alpha virt. eigenvalues --    1.45650   1.45766   1.48042   1.48732   1.50015
 Alpha virt. eigenvalues --    1.50429   1.50681   1.51281   1.52224   1.53112
 Alpha virt. eigenvalues --    1.53254   1.54008   1.54280   1.55072   1.55723
 Alpha virt. eigenvalues --    1.56277   1.56739   1.57295   1.57828   1.58119
 Alpha virt. eigenvalues --    1.58815   1.59158   1.59831   1.60129   1.60688
 Alpha virt. eigenvalues --    1.60948   1.61645   1.61898   1.62077   1.62591
 Alpha virt. eigenvalues --    1.62795   1.63988   1.64373   1.65177   1.65619
 Alpha virt. eigenvalues --    1.66069   1.66661   1.67935   1.68165   1.68341
 Alpha virt. eigenvalues --    1.68867   1.69417   1.69470   1.70113   1.71414
 Alpha virt. eigenvalues --    1.72633   1.72998   1.73404   1.74217   1.74843
 Alpha virt. eigenvalues --    1.75693   1.76003   1.76930   1.77931   1.78150
 Alpha virt. eigenvalues --    1.78573   1.79348   1.79692   1.80962   1.81879
 Alpha virt. eigenvalues --    1.82979   1.83645   1.84125   1.84838   1.85041
 Alpha virt. eigenvalues --    1.85344   1.86522   1.86831   1.87254   1.88485
 Alpha virt. eigenvalues --    1.88880   1.89574   1.90107   1.90922   1.91860
 Alpha virt. eigenvalues --    1.93337   1.93817   1.94487   1.94854   1.95776
 Alpha virt. eigenvalues --    1.96858   1.97002   1.98033   1.98296   1.99327
 Alpha virt. eigenvalues --    1.99442   2.00131   2.00698   2.01715   2.02652
 Alpha virt. eigenvalues --    2.03300   2.03680   2.04569   2.05084   2.05955
 Alpha virt. eigenvalues --    2.06583   2.07261   2.08018   2.09167   2.09394
 Alpha virt. eigenvalues --    2.09743   2.11680   2.12165   2.13009   2.13057
 Alpha virt. eigenvalues --    2.14496   2.15863   2.17067   2.17681   2.18287
 Alpha virt. eigenvalues --    2.18984   2.19413   2.19822   2.20238   2.20873
 Alpha virt. eigenvalues --    2.21339   2.22149   2.23048   2.23250   2.23886
 Alpha virt. eigenvalues --    2.24573   2.25725   2.26038   2.26513   2.27126
 Alpha virt. eigenvalues --    2.27999   2.28752   2.29793   2.30275   2.30531
 Alpha virt. eigenvalues --    2.32465   2.33044   2.33336   2.33926   2.34130
 Alpha virt. eigenvalues --    2.34690   2.35821   2.36202   2.36771   2.36930
 Alpha virt. eigenvalues --    2.37663   2.38125   2.38748   2.38906   2.40496
 Alpha virt. eigenvalues --    2.41235   2.41575   2.42027   2.42542   2.44086
 Alpha virt. eigenvalues --    2.44591   2.44676   2.46129   2.46791   2.47486
 Alpha virt. eigenvalues --    2.48479   2.49852   2.50712   2.51291   2.52186
 Alpha virt. eigenvalues --    2.54132   2.54256   2.55244   2.55762   2.56127
 Alpha virt. eigenvalues --    2.57011   2.57842   2.58321   2.58736   2.59072
 Alpha virt. eigenvalues --    2.59851   2.60059   2.60844   2.61200   2.61496
 Alpha virt. eigenvalues --    2.62110   2.63128   2.63823   2.64138   2.64447
 Alpha virt. eigenvalues --    2.65255   2.65878   2.66348   2.67487   2.68239
 Alpha virt. eigenvalues --    2.69256   2.69503   2.70005   2.71280   2.72171
 Alpha virt. eigenvalues --    2.73116   2.73362   2.73815   2.74192   2.74956
 Alpha virt. eigenvalues --    2.75172   2.76170   2.77241   2.78292   2.78997
 Alpha virt. eigenvalues --    2.80140   2.80932   2.81294   2.82380   2.82713
 Alpha virt. eigenvalues --    2.83883   2.84325   2.85135   2.86189   2.86593
 Alpha virt. eigenvalues --    2.86866   2.87721   2.88795   2.89576   2.89805
 Alpha virt. eigenvalues --    2.89932   2.91397   2.92037   2.92366   2.93369
 Alpha virt. eigenvalues --    2.94114   2.94186   2.95308   2.96348   2.97187
 Alpha virt. eigenvalues --    2.97986   2.98837   3.00513   3.01052   3.01684
 Alpha virt. eigenvalues --    3.02407   3.02622   3.03003   3.04618   3.05550
 Alpha virt. eigenvalues --    3.05851   3.06245   3.07050   3.07428   3.08119
 Alpha virt. eigenvalues --    3.08629   3.08941   3.09245   3.09921   3.10264
 Alpha virt. eigenvalues --    3.10849   3.12139   3.12727   3.12943   3.13510
 Alpha virt. eigenvalues --    3.14459   3.15175   3.15895   3.16461   3.16683
 Alpha virt. eigenvalues --    3.17236   3.17314   3.17610   3.17791   3.18180
 Alpha virt. eigenvalues --    3.18660   3.18907   3.20055   3.20892   3.21363
 Alpha virt. eigenvalues --    3.22285   3.23651   3.24587   3.24825   3.25473
 Alpha virt. eigenvalues --    3.25844   3.26600   3.27052   3.27712   3.29117
 Alpha virt. eigenvalues --    3.29312   3.30039   3.30979   3.31537   3.31626
 Alpha virt. eigenvalues --    3.32562   3.32636   3.33637   3.34089   3.34466
 Alpha virt. eigenvalues --    3.35201   3.36219   3.36386   3.36745   3.37258
 Alpha virt. eigenvalues --    3.37576   3.38656   3.39613   3.40236   3.40701
 Alpha virt. eigenvalues --    3.41157   3.42006   3.43235   3.43889   3.44156
 Alpha virt. eigenvalues --    3.44889   3.45147   3.45919   3.46310   3.47161
 Alpha virt. eigenvalues --    3.47558   3.48516   3.48704   3.49755   3.50194
 Alpha virt. eigenvalues --    3.50698   3.52644   3.53026   3.53968   3.54680
 Alpha virt. eigenvalues --    3.55890   3.56077   3.56510   3.56785   3.57278
 Alpha virt. eigenvalues --    3.58644   3.59147   3.59780   3.60210   3.61796
 Alpha virt. eigenvalues --    3.62265   3.63273   3.64198   3.65121   3.65650
 Alpha virt. eigenvalues --    3.66201   3.66649   3.67695   3.68652   3.69569
 Alpha virt. eigenvalues --    3.70101   3.71661   3.72447   3.74426   3.75389
 Alpha virt. eigenvalues --    3.76584   3.77022   3.78723   3.79176   3.80120
 Alpha virt. eigenvalues --    3.81393   3.81587   3.82188   3.82955   3.83374
 Alpha virt. eigenvalues --    3.85719   3.86298   3.88932   3.89400   3.90012
 Alpha virt. eigenvalues --    3.90967   3.91770   3.93742   3.94493   3.95146
 Alpha virt. eigenvalues --    3.97516   3.97906   3.99057   3.99848   4.01101
 Alpha virt. eigenvalues --    4.01592   4.01884   4.03588   4.05012   4.06879
 Alpha virt. eigenvalues --    4.09641   4.10323   4.10586   4.14079   4.15433
 Alpha virt. eigenvalues --    4.16650   4.17569   4.18382   4.18649   4.19361
 Alpha virt. eigenvalues --    4.19635   4.21377   4.21574   4.22883   4.24728
 Alpha virt. eigenvalues --    4.25992   4.26660   4.29255   4.30915   4.31361
 Alpha virt. eigenvalues --    4.32599   4.37612   4.38491   4.38872   4.39486
 Alpha virt. eigenvalues --    4.40595   4.41033   4.41778   4.42601   4.43320
 Alpha virt. eigenvalues --    4.45501   4.47819   4.49325   4.49863   4.52006
 Alpha virt. eigenvalues --    4.52758   4.53965   4.55499   4.58470   4.59664
 Alpha virt. eigenvalues --    4.63665   4.65362   4.65814   4.67476   4.70207
 Alpha virt. eigenvalues --    4.72020   4.72459   4.72863   4.74996   4.75651
 Alpha virt. eigenvalues --    4.76350   4.78772   4.81991   4.82666   4.84933
 Alpha virt. eigenvalues --    4.87630   4.88255   4.89987   4.91066   4.92372
 Alpha virt. eigenvalues --    4.93921   4.95588   4.97807   4.98817   5.00503
 Alpha virt. eigenvalues --    5.02279   5.03128   5.04920   5.06290   5.09218
 Alpha virt. eigenvalues --    5.12214   5.14771   5.17002   5.20025   5.21286
 Alpha virt. eigenvalues --    5.22771   5.24252   5.25232   5.27326   5.28627
 Alpha virt. eigenvalues --    5.29339   5.31572   5.32007   5.35758   5.39153
 Alpha virt. eigenvalues --    5.40694   5.42928   5.44555   5.47550   5.49031
 Alpha virt. eigenvalues --    5.49718   5.50901   5.53514   5.55008   5.56743
 Alpha virt. eigenvalues --    5.64732   5.68834   5.76168   5.77244   5.79790
 Alpha virt. eigenvalues --    5.80203   5.82476   5.83339   5.84310   5.89022
 Alpha virt. eigenvalues --    5.89777   5.91961   5.94156   5.96529   5.97950
 Alpha virt. eigenvalues --    5.99674   6.05300   6.07646   6.16982   6.18882
 Alpha virt. eigenvalues --    6.22092   6.25783   6.28397   6.30161   6.38934
 Alpha virt. eigenvalues --    6.39644   6.43587   6.46547   6.48905   6.54771
 Alpha virt. eigenvalues --    6.61309   6.62422   6.73173   6.76502   6.77497
 Alpha virt. eigenvalues --    6.77900   6.82819   6.84968   6.85777   6.86249
 Alpha virt. eigenvalues --    6.87143   6.97981   7.00663   7.05395   7.09254
 Alpha virt. eigenvalues --    7.11360   7.14936   7.16918   7.18539   7.22853
 Alpha virt. eigenvalues --    7.33095   7.37212   9.01865   9.39423   9.55481
 Alpha virt. eigenvalues --   19.95041  22.33172  22.47610  22.50993  22.53226
 Alpha virt. eigenvalues --   22.64936  22.67124  22.75363  22.77758  22.85783
 Alpha virt. eigenvalues --   22.93240  23.01427  23.02042  23.09230  23.11094
 Alpha virt. eigenvalues --   23.29166  23.51972  32.20890  33.23946  44.16913
 Alpha virt. eigenvalues --   44.20097  44.26542  44.30989  44.54507
          Condensed to atoms (all electrons):
               1          2          3          4          5          6
     1  C    5.159481   0.426977   0.410278   0.011406  -0.007974  -0.000250
     2  H    0.426977   0.497572  -0.015014  -0.002416   0.000432  -0.000005
     3  H    0.410278  -0.015014   0.517800  -0.000686   0.000338  -0.000011
     4  C    0.011406  -0.002416  -0.000686   5.625357   0.538422   0.182934
     5  H   -0.007974   0.000432   0.000338   0.538422   0.520020  -0.036978
     6  O   -0.000250  -0.000005  -0.000011   0.182934  -0.036978   8.156546
     7  H    0.000023  -0.000003  -0.000001  -0.057763  -0.008598   0.323930
     8  C   -0.011022   0.011093  -0.001249  -0.009123  -0.098702  -0.051579
     9  H    0.004878  -0.000356  -0.001647  -0.072312   0.002324   0.001006
    10  O    0.005464  -0.000190  -0.000030   0.058353   0.005734  -0.021901
[...]
 (Enter /storage/apps/GAUSSIAN/G16_RevA03/g16/l716.exe)
 Dipole        = 9.53787438D-01-3.85992178D-01-2.01696695D+00
 ***** Axes restored to original set *****
 -------------------------------------------------------------------
 Center     Atomic                   Forces (Hartrees/Bohr)
 Number     Number              X              Y              Z
 -------------------------------------------------------------------
      1        6           0.000167708   -0.000093982    0.000054688
      2        1           0.000009311   -0.000006423    0.000000065
      3        1          -0.000018687   -0.000045214    0.000005111
      4        6           0.000794725   -0.000450864   -0.000057950
      5        1           0.000016802   -0.000026698    0.000033909
      6        8           0.001694393   -0.000535648    0.000507626
      7        1           0.000081907   -0.000166750    0.000154595
      8        6           0.000725332   -0.000247515   -0.000000864
      9        1           0.000078225   -0.000022362   -0.000000545
     10        8           0.000572807   -0.000023532    0.000140319
     11        1           0.000030776   -0.000049256    0.000045247
     12        6           0.000304343   -0.000172875    0.000001634
     13        1           0.000067179   -0.000023734    0.000020595
     14        6           0.000644364   -0.000047681   -0.000013249
     15        1           0.000064030   -0.000040492   -0.000003615
     16        8           0.001247195   -0.000007677    0.000068722
     17        7           0.000974046   -0.000035410    0.000163615
     18        6           0.000572230   -0.000113178    0.000045118
     19        1           0.000027488    0.000004025    0.000022684
     20        6           0.000635067   -0.001613214    0.000289298
     21        1           0.000271137   -0.000205742    0.000045859
     22        6           0.001435625   -0.000902551   -0.010918471
     23        1           0.002257189    0.000011862   -0.001655619
     24        1          -0.001099462   -0.000133282   -0.002526318
     25        6           0.000056131   -0.000524423   -0.000674622
     26        6           0.000900355   -0.000176144   -0.002494902
     27        1           0.000109766    0.000038135   -0.000395893
     28        6           0.001203496    0.000377657   -0.000382890
     29        8          -0.000853290    0.002340571    0.000966911
     30        7           0.001703220   -0.000259326    0.000781881
     31        1          -0.000029499   -0.000116369   -0.000200926
     32        1           0.000376397   -0.000371690   -0.001051194
     33        1          -0.000040638    0.000022782    0.000012050
     34        6          -0.000164084    0.000038977   -0.000675135
     35        6           0.000136803    0.001043085    0.000567457
     36        6          -0.003560853    0.002356527    0.003820560
     37        6          -0.000916937   -0.000453538   -0.000090989
     38        6          -0.007251695    0.002327308    0.014530070
     39        8          -0.002548599    0.000287044    0.000986663
     40       16          -0.000428037   -0.001947079   -0.001405394
     41        1          -0.000003820    0.000016141   -0.000118883
     42        1          -0.000051087   -0.000033879   -0.000101355
     43        1          -0.000949647   -0.000866902   -0.000911787
     44        1           0.000090763    0.000082494    0.000142899
     45        1           0.001042893    0.000278652   -0.000609694
     46        1          -0.000289921    0.000237593    0.000842580
     47        1          -0.000088668    0.000236100    0.000104171
     48        1           0.000003221    0.000014475   -0.000064031
 -------------------------------------------------------------------
 Cartesian Forces:  Max     0.014530070 RMS     0.001853651
 Leave Link  716 at Sat Aug 13 20:21:44 2022, MaxMem=  2684354560 cpu:               0.4 elap:               0.0
 (Enter /storage/apps/GAUSSIAN/G16_RevA03/g16/l103.exe)

 GradGradGradGradGradGradGradGradGradGradGradGradGradGradGradGradGradGrad
 Berny optimization.
 Search for a local minimum.
 Step number   1 out of a maximum of    2
 All quantities printed in internal units (Hartrees-Bohrs-Radians)
 Second derivative matrix not updated -- first step.
 ITU=  0
     Eigenvalues ---    0.00036   0.00100   0.00104   0.00128   0.00184
     Eigenvalues ---    0.00250   0.00323   0.00389   0.00429   0.00466
     Eigenvalues ---    0.00590   0.00729   0.00824   0.00870   0.00936
     Eigenvalues ---    0.01003   0.01109   0.01196   0.01377   0.01507
     Eigenvalues ---    0.01716   0.01929   0.02355   0.02491   0.02622
     Eigenvalues ---    0.03028   0.03181   0.03381   0.03700   0.03863
     Eigenvalues ---    0.04364   0.04627   0.04928   0.05170   0.05272
     Eigenvalues ---    0.05360   0.05514   0.05763   0.05882   0.05910
     Eigenvalues ---    0.06117   0.06169   0.06353   0.06365   0.06753
     Eigenvalues ---    0.06925   0.07439   0.07704   0.07776   0.07971
     Eigenvalues ---    0.08413   0.08780   0.09052   0.09847   0.10285
     Eigenvalues ---    0.10640   0.11721   0.12109   0.12498   0.12676
     Eigenvalues ---    0.12992   0.13104   0.13211   0.13527   0.13698
     Eigenvalues ---    0.13934   0.14045   0.15371   0.15983   0.16485
     Eigenvalues ---    0.16705   0.18546   0.19210   0.19663   0.19719
     Eigenvalues ---    0.20015   0.20520   0.21547   0.21758   0.22232
     Eigenvalues ---    0.24135   0.27064   0.27410   0.28592   0.31210
     Eigenvalues ---    0.32994   0.33615   0.35234   0.35466   0.37228
     Eigenvalues ---    0.38122   0.38122   0.38122   0.38122   0.40012
     Eigenvalues ---    0.43515   0.45418   0.48147   0.56672   0.57091
     Eigenvalues ---    0.61653   0.66095   0.69582   0.70531   0.74194
     Eigenvalues ---    0.79006   0.82327   0.87562   0.88893   0.90715
     Eigenvalues ---    0.91280   0.91768   0.93914   0.94636   0.94904
     Eigenvalues ---    0.97117   0.97301   1.00106   1.02262   1.03106
     Eigenvalues ---    1.05609   1.07158   1.10535   1.11506   1.15210
     Eigenvalues ---    1.18970   1.20094   1.24217   1.26022   1.30054
     Eigenvalues ---    1.34031   1.42054   1.52315   1.61789   1.70716
     Eigenvalues ---    1.79545   2.17215   2.28510
 Quadratic step=8.444D+00 exceeds max=3.000D-01 adjusted using Lamda=-3.307D-02.
 Angle between NR and scaled steps=  57.93 degrees.
 Angle between quadratic step and forces=  46.86 degrees.
 Linear search not attempted -- first point.
 Variable       Old X    -DE/DX   Delta X   Delta X   Delta X     New X
                                 (Linear)    (Quad)   (Total)
    X1        6.80423   0.00017   0.00000  -0.00538  -0.00538   6.79884
    Y1       -6.83343  -0.00009   0.00000   0.00379   0.00379  -6.82964
    Z1       -0.83867   0.00005   0.00000   0.00136   0.00136  -0.83731
    X2        7.08483   0.00001   0.00000  -0.01132  -0.01132   7.07351
    Y2       -7.01354  -0.00001   0.00000   0.00617   0.00617  -7.00737
    Z2       -2.86992   0.00000   0.00000   0.00061   0.00061  -2.86931
    X3        8.19013  -0.00002   0.00000  -0.00703  -0.00703   8.18310
    Y3       -8.01307  -0.00005   0.00000   0.00008   0.00008  -8.01299
    Z3        0.12828   0.00001   0.00000  -0.00170  -0.00170   0.12657
    X4        3.54844   0.00079   0.00000   0.00654   0.00654   3.55498
    Y4       -2.73436  -0.00045   0.00000  -0.00328  -0.00328  -2.73764
    Z4        2.33014  -0.00006   0.00000   0.00640   0.00640   2.33654
    X5        2.31573   0.00002   0.00000   0.00215   0.00215   2.31789
    Y5       -4.37916  -0.00003   0.00000  -0.00129  -0.00129  -4.38045
    Z5        2.06668   0.00003   0.00000   0.01179   0.01179   2.07846
    X6        2.81079   0.00169   0.00000   0.01902   0.01902   2.82982
    Y6       -1.29507  -0.00054   0.00000  -0.00690  -0.00690  -1.30197
    Z6        4.41317   0.00051   0.00000   0.01316   0.01316   4.42634
    X7        1.06059   0.00008   0.00000   0.01522   0.01522   1.07580
    Y7       -0.77068  -0.00017   0.00000  -0.00915  -0.00915  -0.77983
    Z7        4.16079   0.00015   0.00000   0.02652   0.02652   4.18731
    X8        6.28360   0.00073   0.00000   0.00721   0.00721   6.29081
    Y8       -3.56833  -0.00025   0.00000  -0.00152  -0.00152  -3.56984
    Z8        2.65759  -0.00000   0.00000   0.00330   0.00330   2.66089
    X9        6.45918   0.00008   0.00000   0.00510   0.00510   6.46427
    Y9       -5.24243  -0.00002   0.00000  -0.00185  -0.00185  -5.24427
    Z9        3.85943  -0.00000   0.00000   0.00316   0.00316   3.86258
   X10        7.72078   0.00057   0.00000   0.00569   0.00569   7.72647
   Y10       -1.54532  -0.00002   0.00000  -0.00082  -0.00082  -1.54614
   Z10        3.61986   0.00014   0.00000   0.00548   0.00548   3.62534
   X11        6.69385   0.00003   0.00000   0.00371   0.00371   6.69756
   Y11       -0.72731  -0.00005   0.00000  -0.00467  -0.00467  -0.73198
   Z11        4.88873   0.00005   0.00000   0.00719   0.00719   4.89592
   X12        3.70474   0.00030   0.00000  -0.00060  -0.00060   3.70414
   Y12       -1.25141  -0.00017   0.00000  -0.00069  -0.00069  -1.25210
   Z12       -0.16322   0.00000   0.00000   0.00476   0.00476  -0.15846
   X13        4.28054   0.00007   0.00000  -0.00743  -0.00743   4.27310
   Y13        0.69448  -0.00002   0.00000   0.00054   0.00054   0.69502
   Z13        0.24024   0.00002   0.00000   0.01064   0.01064   0.25087
   X14        7.10117   0.00064   0.00000   0.00414   0.00414   7.10532
   Y14       -4.09429  -0.00005   0.00000   0.00191   0.00191  -4.09238
   Z14       -0.05449  -0.00001   0.00000   0.00298   0.00298  -0.05151
   X15        9.05281   0.00006   0.00000   0.00321   0.00321   9.05602
   Y15       -3.47424  -0.00004   0.00000   0.00115   0.00115  -3.47309
   Z15       -0.29810  -0.00000   0.00000   0.00282   0.00282  -0.29528
   X16        5.52796   0.00125   0.00000   0.00724   0.00724   5.53520
   Y16       -2.53098  -0.00001   0.00000   0.00691   0.00691  -2.52406
   Z16       -1.61664   0.00007   0.00000   0.00581   0.00581  -1.61083
   X17        1.38016   0.00097   0.00000   0.00175   0.00175   1.38190
   Y17       -1.12907  -0.00004   0.00000  -0.00246  -0.00246  -1.13153
   Z17       -1.57641   0.00016   0.00000  -0.00516  -0.00516  -1.58157
   X18        0.35438   0.00057   0.00000  -0.00346  -0.00346   0.35092
   Y18       -3.35174  -0.00011   0.00000  -0.00372  -0.00372  -3.35546
   Z18       -2.54332   0.00005   0.00000   0.00212   0.00212  -2.54120
   X19        1.49604   0.00003   0.00000  -0.01248  -0.01248   1.48356
   Y19       -5.01961   0.00000   0.00000  -0.00490  -0.00490  -5.02450
   Z19       -2.25699   0.00002   0.00000   0.02322   0.02322  -2.23378
   X20       -1.79404   0.00064   0.00000   0.00545   0.00545  -1.78859
   Y20       -3.38584  -0.00161   0.00000  -0.00854  -0.00854  -3.39437
   Z20       -3.84274   0.00029   0.00000  -0.01610  -0.01610  -3.85884
   X21       -2.45098   0.00027   0.00000  -0.00128  -0.00128  -2.45226
   Y21       -5.15930  -0.00021   0.00000  -0.01424  -0.01424  -5.17353
   Z21       -4.61603   0.00005   0.00000   0.00716   0.00716  -4.60887
   X22       -3.34780   0.00144   0.00000   0.02074   0.02074  -3.32705
   Y22       -1.06397  -0.00090   0.00000  -0.00380  -0.00380  -1.06778
   Z22       -4.22737  -0.01092   0.00000  -0.07816  -0.07816  -4.30553
   X23       -4.02951   0.00226   0.00000   0.04704   0.04704  -3.98247
   Y23       -0.94338   0.00001   0.00000  -0.00050  -0.00050  -0.94388
   Z23       -6.17836  -0.00166   0.00000  -0.08136  -0.08136  -6.25972
   X24       -5.08106  -0.00110   0.00000  -0.00018  -0.00018  -5.08123
   Y24       -1.22241  -0.00013   0.00000   0.00433   0.00433  -1.21808
   Z24       -3.10062  -0.00253   0.00000  -0.09666  -0.09666  -3.19728
   X25       -1.90103   0.00006   0.00000   0.00878   0.00878  -1.89225
   Y25        1.25916  -0.00052   0.00000  -0.00345  -0.00345   1.25571
   Z25       -3.50391  -0.00067   0.00000  -0.03302  -0.03302  -3.53693
   X26        0.28806   0.00090   0.00000   0.00212   0.00212   0.29019
   Y26        1.10630  -0.00018   0.00000  -0.00486  -0.00486   1.10144
   Z26       -2.21731  -0.00249   0.00000  -0.01886  -0.01886  -2.23617
   X27        1.26275   0.00011   0.00000  -0.01153  -0.01153   1.25122
   Y27        2.81473   0.00004   0.00000  -0.00247  -0.00247   2.81226
   Z27       -1.64645  -0.00040   0.00000   0.00122   0.00122  -1.64523
   X28       -2.84837   0.00120   0.00000  -0.00235  -0.00235  -2.85072
   Y28        3.81017   0.00038   0.00000   0.00498   0.00498   3.81515
   Z28       -4.10744  -0.00038   0.00000   0.00616   0.00616  -4.10128
   X29       -1.59325  -0.00085   0.00000  -0.02726  -0.02726  -1.62052
   Y29        5.71799   0.00234   0.00000   0.01806   0.01806   5.73605
   Z29       -3.85351   0.00097   0.00000   0.03986   0.03986  -3.81364
   X30       -5.27255   0.00170   0.00000  -0.00573  -0.00573  -5.27827
   Y30        3.90864  -0.00026   0.00000   0.00098   0.00098   3.90962
   Z30       -5.04138   0.00078   0.00000   0.01910   0.01910  -5.02228
   X31       -6.01365  -0.00003   0.00000  -0.01729  -0.01729  -6.03094
   Y31        5.65131  -0.00012   0.00000  -0.00078  -0.00078   5.65053
   Z31       -5.22934  -0.00020   0.00000   0.04156   0.04156  -5.18778
   X32       -6.47367   0.00038   0.00000   0.00123   0.00123  -6.47244
   Y32        2.46494  -0.00037   0.00000  -0.00777  -0.00777   2.45716
   Z32       -4.75125  -0.00105   0.00000   0.00574   0.00574  -4.74551
   X33        4.91984  -0.00004   0.00000  -0.00694  -0.00694   4.91289
   Y33       -7.53881   0.00002   0.00000   0.00866   0.00866  -7.53016
   Z33       -0.37623   0.00001   0.00000   0.00490   0.00490  -0.37133
   X34        0.37661  -0.00016   0.00000   0.01298   0.01298   0.38960
   Y34        4.15710   0.00004   0.00000  -0.00378  -0.00378   4.15332
   Z34        5.35951  -0.00068   0.00000  -0.02160  -0.02160   5.33792
   X35       -3.05795   0.00014   0.00000  -0.01100  -0.01100  -3.06895
   Y35        1.71320   0.00104   0.00000   0.00516   0.00516   1.71836
   Z35        2.36248   0.00057   0.00000   0.00864   0.00864   2.37112
   X36       -5.38601  -0.00356   0.00000  -0.04030  -0.04030  -5.42632
   Y36        1.60556   0.00236   0.00000   0.01627   0.01627   1.62183
   Z36        0.86655   0.00382   0.00000   0.06192   0.06192   0.92847
   X37       -9.05401  -0.00092   0.00000   0.00073   0.00073  -9.05328
   Y37       -0.79724  -0.00045   0.00000  -0.00801  -0.00801  -0.80525
   Z37       -0.82000  -0.00009   0.00000  -0.01252  -0.01252  -0.83252
   X38       -6.41398  -0.00725   0.00000  -0.05207  -0.05207  -6.46605
   Y38       -0.58716   0.00233   0.00000   0.00926   0.00926  -0.57789
   Z38        0.16731   0.01453   0.00000   0.11163   0.11163   0.27894
   X39       -1.82168  -0.00255   0.00000  -0.02973  -0.02973  -1.85141
   Y39       -0.14119   0.00029   0.00000  -0.00512  -0.00512  -0.14630
   Z39        2.93381   0.00099   0.00000   0.01315   0.01315   2.94696
   X40       -2.31526  -0.00043   0.00000   0.03580   0.03580  -2.27946
   Y40        4.79719  -0.00195   0.00000   0.00318   0.00318   4.80037
   Z40        3.38655  -0.00141   0.00000  -0.05098  -0.05098   3.33558
   X41        0.82932  -0.00000   0.00000   0.00739   0.00739   0.83671
   Y41        5.92170   0.00002   0.00000  -0.00577  -0.00577   5.91594
   Z41        6.31065  -0.00012   0.00000  -0.01421  -0.01421   6.29644
   X42        1.98257  -0.00005   0.00000   0.02254   0.02254   2.00511
   Y42        3.54154  -0.00003   0.00000  -0.00628  -0.00628   3.53526
   Z42        4.23595  -0.00010   0.00000  -0.00516  -0.00516   4.23079
   X43      -10.31513  -0.00095   0.00000  -0.05336  -0.05336 -10.36849
   Y43       -1.10938  -0.00087   0.00000  -0.03483  -0.03483  -1.14421
   Z43        0.78676  -0.00091   0.00000  -0.06576  -0.06576   0.72099
   X44       -9.66504   0.00009   0.00000   0.03116   0.03116  -9.63388
   Y44        0.94146   0.00008   0.00000  -0.00427  -0.00427   0.93719
   Z44       -1.74377   0.00014   0.00000  -0.02672  -0.02672  -1.77049
   X45       -9.30983   0.00104   0.00000   0.07441   0.07441  -9.23542
   Y45       -2.38195   0.00028   0.00000   0.00348   0.00348  -2.37847
   Z45       -2.11019  -0.00061   0.00000  -0.04321  -0.04321  -2.15339
   X46       -5.40768  -0.00029   0.00000  -0.02780  -0.02780  -5.43547
   Y46       -2.31647   0.00024   0.00000   0.01394   0.01394  -2.30254
   Z46        0.63346   0.00084   0.00000   0.08260   0.08260   0.71606
   X47       -6.32913  -0.00009   0.00000  -0.00492  -0.00492  -6.33405
   Y47        3.38605   0.00024   0.00000   0.02047   0.02047   3.40651
   Z47        0.49049   0.00010   0.00000   0.00558   0.00558   0.49607
   X48       -0.09242   0.00000   0.00000   0.00040   0.00040  -0.09202
   Y48        2.71824   0.00001   0.00000  -0.00256  -0.00256   2.71568
   Z48        6.75109  -0.00006   0.00000  -0.02309  -0.02309   6.72801
         Item               Value     Threshold  Converged?
 Maximum Force            0.014530     0.000450     NO 
 RMS     Force            0.001854     0.000300     NO 
 Maximum Displacement     0.111633     0.001800     NO 
 RMS     Displacement     0.025028     0.001200     NO 
 Predicted change in Energy=-3.775859D-03
 GradGradGradGradGradGradGradGradGradGradGradGradGradGradGradGradGradGrad

 Leave Link  103 at Sat Aug 13 20:21:44 2022, MaxMem=  2684354560 cpu:               0.9 elap:               0.1
 (Enter /storage/apps/GAUSSIAN/G16_RevA03/g16/l9999.exe)

 Test job not archived.
 1\1\GINC-T045\Force\RM062X\def2TZVP\C16H24N2O5S1\LV87696\13-Aug-2022\0
 \\#P M062X/Def2TZVP scf=(direct,conver=8) EmpiricalDispersion=GD3 Forc
 e Charge Prop=(Field,Read)\\Gaussian run\\0,1\C,3.600641,-3.616094,-0.
 443805\H,3.74913,-3.711408,-1.518697\H,4.33403,-4.240334,0.067882\C,1.
 877754,-1.446961,1.233056\H,1.225433,-2.317352,1.093639\O,1.487408,-0.
 685323,2.33535\H,0.561238,-0.407827,2.201795\C,3.325137,-1.888278,1.40
 6336\H,3.41805,-2.774172,2.04232\O,4.08566,-0.817746,1.915548\H,3.5422
 35,-0.384874,2.587003\C,1.960465,-0.662217,-0.08637\H,2.265162,0.36750
 2,0.127128\C,3.757778,-2.166603,-0.028833\H,4.790542,-1.838491,-0.1577
 5\O,2.925271,-1.339335,-0.855489\N,0.730348,-0.597479,-0.8342\C,0.1875
 3,-1.773663,-1.345868\H,0.791672,-2.656261,-1.194349\C,-0.949363,-1.79
 1707,-2.033489\H,-1.297002,-2.730182,-2.442698\C,-1.771578,-0.563031,-
 2.237028\H,-2.132326,-0.499213,-3.269446\H,-2.688779,-0.64687,-1.64077
 9\C,-1.005981,0.666321,-1.854189\C,0.152436,0.585429,-1.173349\H,0.668
 221,1.489491,-0.871266\C,-1.507295,2.016257,-2.173566\O,-0.843114,3.02
 5829,-2.039188\N,-2.790111,2.068363,-2.667783\H,-3.182287,2.990546,-2.
 767247\H,-3.425719,1.304388,-2.514255\H,2.603465,-3.989369,-0.19909\C,
 0.199295,2.199842,2.836133\C,-1.618199,0.906586,1.25017\C,-2.850155,0.
 849627,0.458556\C,-4.791174,-0.421883,-0.433924\C,-3.394134,-0.310711,
 0.088534\O,-0.963993,-0.074712,1.552503\S,-1.225182,2.538563,1.792086\
 H,0.438857,3.133631,3.339453\H,1.049133,1.874102,2.241568\H,-5.458532,
 -0.587058,0.416334\H,-5.114519,0.498199,-0.922764\H,-4.926548,-1.26047
 6,-1.116663\H,-2.86162,-1.225825,0.335214\H,-3.349232,1.791818,0.25955
 6\H,-0.048908,1.438431,3.572524\\Version=ES64L-G16RevA.03\State=1-A\HF
 =-1507.9203697\RMSD=1.584e-09\RMSF=1.854e-03\Dipole=-1.8564923,-1.1982
 421,0.4944777\Quadrupole=7.5463007,-1.780117,-5.7661836,-2.9485752,5.6
 296985,8.1519415\PG=C01 [X(C16H24N2O5S1)]\\@


 Any fool can criticize, condemn, and complain -- and most do.
 -- Dale Carnegie
 Job cpu time:       0 days  3 hours 18 minutes 26.0 seconds.
 Elapsed time:       0 days  0 hours 12 minutes 25.8 seconds.
 File lengths (MBytes):  RWF=    435 Int=      0 D2E=      0 Chk=     48 Scr=      1
 Normal termination of Gaussian 16 at Sat Aug 13 20:21:44 2022.
