 Entering Gaussian System, Link 0=g16
 Initial command:
 /storage/apps/GAUSSIAN/G16_RevA03/g16/l1.exe "/scratch/tmp/1019153/Gau-209596.inp" -scrdir="/scratch/tmp/1019153/"
 Entering Link 1 = /storage/apps/GAUSSIAN/G16_RevA03/g16/l1.exe PID=    209612.
  
 Copyright (c) 1988,1990,1992,1993,1995,1998,2003,2009,2016,
            Gaussian, Inc.  All Rights Reserved.
  
 This is part of the Gaussian(R) 16 program.  It is based on
 the Gaussian(R) 09 system (copyright 2009, Gaussian, Inc.),
 the Gaussian(R) 03 system (copyright 2003, Gaussian, Inc.),
 the Gaussian(R) 98 system (copyright 1998, Gaussian, Inc.),
 the Gaussian(R) 94 system (copyright 1995, Gaussian, Inc.),
 the Gaussian 92(TM) system (copyright 1992, Gaussian, Inc.),
 the Gaussian 90(TM) system (copyright 1990, Gaussian, Inc.),
 the Gaussian 88(TM) system (copyright 1988, Gaussian, Inc.),
 the Gaussian 86(TM) system (copyright 1986, Carnegie Mellon
 University), and the Gaussian 82(TM) system (copyright 1983,
 Carnegie Mellon University). Gaussian is a federally registered
 trademark of Gaussian, Inc.
  
 This software contains proprietary and confidential information,
 including trade secrets, belonging to Gaussian, Inc.
  
 This software is provided under written license and may be
 used, copied, transmitted, or stored only in accord with that
 written license.
  
 The following legend is applicable only to US Government
 contracts under FAR:
  
                    RESTRICTED RIGHTS LEGEND
  
 Use, reproduction and disclosure by the US Government is
 subject to restrictions as set forth in subparagraphs (a)
 and (c) of the Commercial Computer Software - Restricted
 Rights clause in FAR 52.227-19.
  
 Gaussian, Inc.
 340 Quinnipiac St., Bldg. 40, Wallingford CT 06492
  
  
 ---------------------------------------------------------------
 Warning -- This program may not be used in any manner that
 competes with the business of Gaussian, Inc. or will provide
 assistance to any competitor of Gaussian, Inc.  The licensee
 of this program is prohibited from giving any competitor of
 Gaussian, Inc. access to this program.  By using this program,
 the user acknowledges that Gaussian, Inc. is engaged in the
 business of creating and licensing software in the field of
 computational chemistry and represents and warrants to the
 licensee that it is not a competitor of Gaussian, Inc. and that
 it will not use this program in any manner prohibited above.
 ---------------------------------------------------------------
  

 Cite this work as:
 Gaussian 16, Revision A.03,
 M. J. Frisch, G. W. Trucks, H. B. Schlegel, G. E. Scuseria, 
 M. A. Robb, J. R. Cheeseman, G. Scalmani, V. Barone, 
 G. A. Petersson, H. Nakatsuji, X. Li, M. Caricato, A. V. Marenich, 
 J. Bloino, B. G. Janesko, R. Gomperts, B. Mennucci, H. P. Hratchian, 
 J. V. Ortiz, A. F. Izmaylov, J. L. Sonnenberg, D. Williams-Young, 
 F. Ding, F. Lipparini, F. Egidi, J. Goings, B. Peng, A. Petrone, 
 T. Henderson, D. Ranasinghe, V. G. Zakrzewski, J. Gao, N. Rega, 
 G. Zheng, W. Liang, M. Hada, M. Ehara, K. Toyota, R. Fukuda, 
 J. Hasegawa, M. Ishida, T. Nakajima, Y. Honda, O. Kitao, H. Nakai, 
 T. Vreven, K. Throssell, J. A. Montgomery, Jr., J. E. Peralta, 
 F. Ogliaro, M. J. Bearpark, J. J. Heyd, E. N. Brothers, K. N. Kudin, 
 V. N. Staroverov, T. A. Keith, R. Kobayashi, J. Normand, 
 K. Raghavachari, A. P. Rendell, J. C. Burant, S. S. Iyengar, 
 J. Tomasi, M. Cossi, J. M. Millam, M. Klene, C. Adamo, R. Cammi, 
 J. W. Ochterski, R. L. Martin, K. Morokuma, O. Farkas, 
 J. B. Foresman, and D. J. Fox, Gaussian, Inc., Wallingford CT, 2016.
 
 ******************************************
 Gaussian 16:  ES64L-G16RevA.03 25-Dec-2016
                13-Aug-2022 
 ******************************************
 %NProcShared=16
 Will use up to   16 processors via shared memory.
 %mem=20GB
 ----------------------------------------------------------------------
 #P M062X/Def2TZVP scf=(direct,conver=8) EmpiricalDispersion=GD3 Force 
 Charge Prop=(Field,Read)
 ----------------------------------------------------------------------
 1/10=7,18=10,28=-2,30=1,38=1,125=101/1,3;
 2/12=2,17=6,18=5,29=2,40=1/2;
 3/5=44,7=101,11=2,25=1,30=1,71=1,74=-55,124=31/1,2,3;
 4//1;
 5/5=2,6=8,38=5/2;
 6/7=2,8=2,9=2,10=2,14=2,15=1,28=1/1,2;
 7/7=1,16=-2,29=1/1,2,3,16;
 1/10=7,18=10,28=-2,30=1/3;
 99/12=1/99;
 Leave Link    1 at Sat Aug 13 20:09:15 2022, MaxMem=  2684354560 cpu:               0.6 elap:               0.0
 (Enter /storage/apps/GAUSSIAN/G16_RevA03/g16/l101.exe)
 ------------
 Gaussian run
 ------------
 Symbolic Z-matrix:
 Charge =  0 Multiplicity = 1
 C                     3.60016  -3.61585  -0.44408 
 H                     3.74857  -3.71111  -1.51898 
 H                     4.33455  -4.23905   0.0674 
 C                     1.87446  -1.44501   1.23373 
 H                     1.22275  -2.31573   1.09208 
 O                     1.4822   -0.68401   2.3336 
 H                     0.55752  -0.39969   2.19488 
 C                     3.3227   -1.88735   1.40639 
 H                     3.41454  -2.7733    2.04244 
 O                     4.08428  -0.81769   1.91503 
 H                     3.54083  -0.3835    2.58576 
 C                     1.96055  -0.66137  -0.08629 
 H                     2.2634    0.36927   0.12484 
 C                     3.75583  -2.1665   -0.02859 
 H                     4.78775  -1.83646  -0.15861 
 O                     2.92167  -1.33894  -0.85575 
 N                     0.72763  -0.59775  -0.83737 
 C                     0.18381  -1.77263  -1.34485 
 H                     0.78359  -2.65702  -1.18879 
 C                    -0.95323  -1.78353  -2.03426 
 H                    -1.31632  -2.71753  -2.43911 
 C                    -1.76821  -0.55776  -2.19892 
 H                    -2.25738  -0.50207  -3.17535 
 H                    -2.62494  -0.63433  -1.49381 
 C                    -1.00693   0.66799  -1.85374 
 C                     0.14696   0.58427  -1.16252 
 H                     0.65701   1.48628  -0.84607 
 C                    -1.51346   2.01477  -2.17134 
 O                    -0.84009   3.01729  -2.04122 
 N                    -2.79602   2.06895  -2.67118 
 H                    -3.18086   2.9957   -2.76201 
 H                    -3.44149   1.3241   -2.46852 
 H                     2.60368  -3.99049  -0.19866 
 C                     0.19999   2.19964   2.83834 
 C                    -1.62337   0.90102   1.25026 
 C                    -2.83733   0.841     0.44762 
 C                    -4.79022  -0.4205   -0.43187 
 C                    -3.36235  -0.3216    0.02265 
 O                    -0.95586  -0.07588   1.54928 
 S                    -1.22374   2.54286   1.79426 
 H                     0.43964   3.13236   3.34382 
 H                     1.0515    1.87494   2.24563 
 H                    -5.4098   -0.54652   0.45985 
 H                    -5.12209   0.49413  -0.92553 
 H                    -4.98136  -1.2708   -1.08579 
 H                    -2.86333  -1.23985   0.3253 
 H                    -3.34197   1.7819    0.25706 
 H                    -0.04861   1.43777   3.57412 
 
 ITRead=  0  0  0  0  0  0  0  0  0  0  0  0  0  0  0  0  0  0  0  0
 ITRead=  0  0  0  0  0  0  0  0  0  0  0  0  0  0  0  0  0  0  0  0
 ITRead=  0  0  0  0  0  0  0  0
 MicOpt= -1 -1 -1 -1 -1 -1 -1 -1 -1 -1 -1 -1 -1 -1 -1 -1 -1 -1 -1 -1
 MicOpt= -1 -1 -1 -1 -1 -1 -1 -1 -1 -1 -1 -1 -1 -1 -1 -1 -1 -1 -1 -1
 MicOpt= -1 -1 -1 -1 -1 -1 -1 -1
 NAtoms=     48 NQM=       48 NQMF=       0 NMMI=      0 NMMIF=      0
                NMic=       0 NMicF=      0.
                    Isotopes and Nuclear Properties:
 (Nuclear quadrupole moments (NQMom) in fm**2, nuclear magnetic moments (NMagM)
  in nuclear magnetons)

  Atom         1           2           3           4           5           6           7           8           9          10
 IAtWgt=          12           1           1          12           1          16           1          12           1          16
 AtmWgt=  12.0000000   1.0078250   1.0078250  12.0000000   1.0078250  15.9949146   1.0078250  12.0000000   1.0078250  15.9949146
 NucSpn=           0           1           1           0           1           0           1           0           1           0
 AtZEff=  -0.0000000  -0.0000000  -0.0000000  -0.0000000  -0.0000000  -0.0000000  -0.0000000  -0.0000000  -0.0000000  -0.0000000
 NQMom=    0.0000000   0.0000000   0.0000000   0.0000000   0.0000000   0.0000000   0.0000000   0.0000000   0.0000000   0.0000000
 NMagM=    0.0000000   2.7928460   2.7928460   0.0000000   2.7928460   0.0000000   2.7928460   0.0000000   2.7928460   0.0000000
 AtZNuc=   6.0000000   1.0000000   1.0000000   6.0000000   1.0000000   8.0000000   1.0000000   6.0000000   1.0000000   8.0000000

  Atom        11          12          13          14          15          16          17          18          19          20
 IAtWgt=           1          12           1          12           1          16          14          12           1          12
 AtmWgt=   1.0078250  12.0000000   1.0078250  12.0000000   1.0078250  15.9949146  14.0030740  12.0000000   1.0078250  12.0000000
 NucSpn=           1           0           1           0           1           0           2           0           1           0
 AtZEff=  -0.0000000  -0.0000000  -0.0000000  -0.0000000  -0.0000000  -0.0000000  -0.0000000  -0.0000000  -0.0000000  -0.0000000
 NQMom=    0.0000000   0.0000000   0.0000000   0.0000000   0.0000000   0.0000000   2.0440000   0.0000000   0.0000000   0.0000000
 NMagM=    2.7928460   0.0000000   2.7928460   0.0000000   2.7928460   0.0000000   0.4037610   0.0000000   2.7928460   0.0000000
 AtZNuc=   1.0000000   6.0000000   1.0000000   6.0000000   1.0000000   8.0000000   7.0000000   6.0000000   1.0000000   6.0000000

  Atom        21          22          23          24          25          26          27          28          29          30
 IAtWgt=           1          12           1           1          12          12           1          12          16          14
 AtmWgt=   1.0078250  12.0000000   1.0078250   1.0078250  12.0000000  12.0000000   1.0078250  12.0000000  15.9949146  14.0030740
 NucSpn=           1           0           1           1           0           0           1           0           0           2
 AtZEff=  -0.0000000  -0.0000000  -0.0000000  -0.0000000  -0.0000000  -0.0000000  -0.0000000  -0.0000000  -0.0000000  -0.0000000
 NQMom=    0.0000000   0.0000000   0.0000000   0.0000000   0.0000000   0.0000000   0.0000000   0.0000000   0.0000000   2.0440000
 NMagM=    2.7928460   0.0000000   2.7928460   2.7928460   0.0000000   0.0000000   2.7928460   0.0000000   0.0000000   0.4037610
 AtZNuc=   1.0000000   6.0000000   1.0000000   1.0000000   6.0000000   6.0000000   1.0000000   6.0000000   8.0000000   7.0000000

  Atom        31          32          33          34          35          36          37          38          39          40
 IAtWgt=           1           1           1          12          12          12          12          12          16          32
 AtmWgt=   1.0078250   1.0078250   1.0078250  12.0000000  12.0000000  12.0000000  12.0000000  12.0000000  15.9949146  31.9720718
 NucSpn=           1           1           1           0           0           0           0           0           0           0
 AtZEff=  -0.0000000  -0.0000000  -0.0000000  -0.0000000  -0.0000000  -0.0000000  -0.0000000  -0.0000000  -0.0000000  -0.0000000
 NQMom=    0.0000000   0.0000000   0.0000000   0.0000000   0.0000000   0.0000000   0.0000000   0.0000000   0.0000000   0.0000000
 NMagM=    2.7928460   2.7928460   2.7928460   0.0000000   0.0000000   0.0000000   0.0000000   0.0000000   0.0000000   0.0000000
 AtZNuc=   1.0000000   1.0000000   1.0000000   6.0000000   6.0000000   6.0000000   6.0000000   6.0000000   8.0000000  16.0000000

  Atom        41          42          43          44          45          46          47          48
 IAtWgt=           1           1           1           1           1           1           1           1
 AtmWgt=   1.0078250   1.0078250   1.0078250   1.0078250   1.0078250   1.0078250   1.0078250   1.0078250
 NucSpn=           1           1           1           1           1           1           1           1
 AtZEff=  -0.0000000  -0.0000000  -0.0000000  -0.0000000  -0.0000000  -0.0000000  -0.0000000  -0.0000000
 NQMom=    0.0000000   0.0000000   0.0000000   0.0000000   0.0000000   0.0000000   0.0000000   0.0000000
 NMagM=    2.7928460   2.7928460   2.7928460   2.7928460   2.7928460   2.7928460   2.7928460   2.7928460
 AtZNuc=   1.0000000   1.0000000   1.0000000   1.0000000   1.0000000   1.0000000   1.0000000   1.0000000
 Background charge distribution read from input stream:
 Leave Link  101 at Sat Aug 13 20:09:15 2022, MaxMem=  2684354560 cpu:               1.7 elap:               0.1
 (Enter /storage/apps/GAUSSIAN/G16_RevA03/g16/l103.exe)

 GradGradGradGradGradGradGradGradGradGradGradGradGradGradGradGradGradGrad
 Berny optimization.
 Initialization pass.
 Trust Radius=3.00D-01 FncErr=1.00D-07 GrdErr=1.00D-07 EigMax=2.50D+02 EigMin=1.00D-04
 Number of steps in this run=      2 maximum allowed number of steps=      2.
 GradGradGradGradGradGradGradGradGradGradGradGradGradGradGradGradGradGrad

 Leave Link  103 at Sat Aug 13 20:09:15 2022, MaxMem=  2684354560 cpu:               0.7 elap:               0.2
 (Enter /storage/apps/GAUSSIAN/G16_RevA03/g16/l202.exe)
 ---------------------------------------------------------------------------------------------------
                            Z-MATRIX (ANGSTROMS AND DEGREES)
   CD    Cent   Atom    N1       Length/X        N2       Alpha/Y        N3        Beta/Z          J
 ---------------------------------------------------------------------------------------------------
      1      1  C        0   3.600162         -3.615845         -0.444077
      2      2  H        0   3.748565         -3.711113         -1.518976
      3      3  H        0   4.334555         -4.239047          0.067398
      4      4  C        0   1.874459         -1.445011          1.233725
      5      5  H        0   1.222754         -2.315731          1.092084
      6      6  O        0   1.482199         -0.684014          2.333596
      7      7  H        0   0.557523         -0.399690          2.194875
      8      8  C        0   3.322703         -1.887347          1.406388
      9      9  H        0   3.414536         -2.773303          2.042438
     10     10  O        0   4.084283         -0.817693          1.915030
     11     11  H        0   3.540830         -0.383499          2.585764
     12     12  C        0   1.960545         -0.661369         -0.086288
     13     13  H        0   2.263398          0.369269          0.124838
     14     14  C        0   3.755826         -2.166498         -0.028586
     15     15  H        0   4.787748         -1.836457         -0.158605
     16     16  O        0   2.921668         -1.338938         -0.855753
     17     17  N        0   0.727634         -0.597745         -0.837370
     18     18  C        0   0.183808         -1.772627         -1.344846
     19     19  H        0   0.783590         -2.657017         -1.188786
     20     20  C        0  -0.953232         -1.783527         -2.034256
     21     21  H        0  -1.316322         -2.717527         -2.439105
     22     22  C        0  -1.768214         -0.557757         -2.198918
     23     23  H        0  -2.257376         -0.502070         -3.175348
     24     24  H        0  -2.624944         -0.634331         -1.493809
     25     25  C        0  -1.006930          0.667986         -1.853735
     26     26  C        0   0.146955          0.584270         -1.162521
     27     27  H        0   0.657013          1.486276         -0.846068
     28     28  C        0  -1.513455          2.014765         -2.171338
     29     29  O        0  -0.840085          3.017290         -2.041223
     30     30  N        0  -2.796023          2.068955         -2.671184
     31     31  H        0  -3.180858          2.995704         -2.762011
     32     32  H        0  -3.441494          1.324104         -2.468524
     33     33  H        0   2.603678         -3.990485         -0.198658
     34     34  C        0   0.199985          2.199637          2.838339
     35     35  C        0  -1.623365          0.901022          1.250259
     36     36  C        0  -2.837328          0.841000          0.447623
     37     37  C        0  -4.790224         -0.420497         -0.431873
     38     38  C        0  -3.362351         -0.321600          0.022649
     39     39  O        0  -0.955858         -0.075882          1.549283
     40     40  S        0  -1.223735          2.542859          1.794261
     41     41  H        0   0.439636          3.132361          3.343820
     42     42  H        0   1.051496          1.874938          2.245629
     43     43  H        0  -5.409799         -0.546520          0.459848
     44     44  H        0  -5.122090          0.494128         -0.925525
     45     45  H        0  -4.981363         -1.270799         -1.085793
     46     46  H        0  -2.863330         -1.239852          0.325301
     47     47  H        0  -3.341969          1.781904          0.257063
     48     48  H        0  -0.048612          1.437774          3.574117
 ---------------------------------------------------------------------------------------------------
                         Z-Matrix orientation:                         
 ---------------------------------------------------------------------
 Center     Atomic      Atomic             Coordinates (Angstroms)
 Number     Number       Type             X           Y           Z
 ---------------------------------------------------------------------
      1          6           0        3.600162   -3.615845   -0.444077
      2          1           0        3.748565   -3.711113   -1.518976
      3          1           0        4.334555   -4.239047    0.067398
      4          6           0        1.874459   -1.445011    1.233725
      5          1           0        1.222754   -2.315731    1.092084
      6          8           0        1.482199   -0.684014    2.333596
      7          1           0        0.557523   -0.399690    2.194875
      8          6           0        3.322703   -1.887347    1.406388
      9          1           0        3.414536   -2.773303    2.042438
     10          8           0        4.084283   -0.817693    1.915030
     11          1           0        3.540830   -0.383499    2.585764
     12          6           0        1.960545   -0.661369   -0.086288
     13          1           0        2.263398    0.369269    0.124838
     14          6           0        3.755826   -2.166498   -0.028586
     15          1           0        4.787748   -1.836457   -0.158605
     16          8           0        2.921668   -1.338938   -0.855753
     17          7           0        0.727634   -0.597745   -0.837370
     18          6           0        0.183808   -1.772627   -1.344846
     19          1           0        0.783590   -2.657017   -1.188786
     20          6           0       -0.953232   -1.783527   -2.034256
     21          1           0       -1.316322   -2.717527   -2.439105
     22          6           0       -1.768214   -0.557757   -2.198918
     23          1           0       -2.257376   -0.502070   -3.175348
     24          1           0       -2.624944   -0.634331   -1.493809
     25          6           0       -1.006930    0.667986   -1.853735
     26          6           0        0.146955    0.584270   -1.162521
     27          1           0        0.657013    1.486276   -0.846068
     28          6           0       -1.513455    2.014765   -2.171338
     29          8           0       -0.840085    3.017290   -2.041223
     30          7           0       -2.796023    2.068955   -2.671184
     31          1           0       -3.180858    2.995704   -2.762011
     32          1           0       -3.441494    1.324104   -2.468524
     33          1           0        2.603678   -3.990485   -0.198658
     34          6           0        0.199985    2.199637    2.838339
     35          6           0       -1.623365    0.901022    1.250259
     36          6           0       -2.837328    0.841000    0.447623
     37          6           0       -4.790224   -0.420497   -0.431873
     38          6           0       -3.362351   -0.321600    0.022649
     39          8           0       -0.955858   -0.075882    1.549283
     40         16           0       -1.223735    2.542859    1.794261
     41          1           0        0.439636    3.132361    3.343820
     42          1           0        1.051496    1.874938    2.245629
     43          1           0       -5.409799   -0.546520    0.459848
     44          1           0       -5.122090    0.494128   -0.925525
     45          1           0       -4.981363   -1.270799   -1.085793
     46          1           0       -2.863330   -1.239852    0.325301
     47          1           0       -3.341969    1.781904    0.257063
     48          1           0       -0.048612    1.437774    3.574117
 ---------------------------------------------------------------------
                    Distance matrix (angstroms):
                    1          2          3          4          5
     1  C    0.000000
     2  H    1.089269   0.000000
     3  H    1.090560   1.771632   0.000000
     4  C    3.241233   4.028009   3.901157   0.000000
     5  H    3.114828   3.891587   3.799004   1.096784   0.000000
     6  O    4.560358   5.398338   5.090172   1.393808   2.066679
     7  H    5.154161   5.911088   5.790750   1.936705   2.308656
     8  C    2.547334   3.473505   2.889158   1.524101   2.166122
     9  H    2.631937   3.697936   2.625952   2.188656   2.432376
    10  O    3.691804   4.502997   3.896414   2.396044   3.333123
    11  H    4.430747   5.288200   4.673052   2.394078   3.367206
    12  C    3.397835   3.814518   4.296431   1.537511   2.160974
    13  H    4.241667   4.642991   5.052679   2.161600   3.037718
    14  C    1.515741   2.146427   2.153973   2.377712   2.773919
    15  H    2.158258   2.538670   2.455382   3.252548   3.808295
    16  O    2.411252   2.598237   3.355457   2.339619   2.763060
    17  N    4.185095   4.391318   5.204571   2.514459   2.630478
    18  C    3.985011   4.061470   5.030543   3.100752   2.704256
    19  H    3.067087   3.164051   4.085360   2.920191   2.347703
    20  C    5.159405   5.107641   6.197356   4.334758   3.846057
    21  H    5.381350   5.242798   6.366317   5.028922   4.367796
    22  C    6.422681   6.390683   7.478762   5.083240   4.781951
    23  H    7.173994   7.008056   8.242206   6.115646   5.797555
    24  H    6.981641   7.077347   7.991619   5.323652   4.931402
    25  C    6.446987   6.473276   7.503412   4.722242   4.748885
    26  C    5.484685   5.616847   6.504851   3.583887   3.827609
    27  H    5.903843   6.084682   6.865716   3.794754   4.304852
    28  C    7.799761   7.803852   8.849934   5.919668   6.073710
    29  O    8.140341   8.160874   9.158472   6.164914   6.520278
    30  N    8.842406   8.807293   9.906355   7.029201   7.038340
    31  H    9.750263   9.723345  10.808728   7.825732   7.902986
    32  H    8.836651   8.829043   9.891738   7.045140   6.905182
    33  H    1.092504   1.769761   1.768758   3.010468   2.525424
    34  C    7.493683   8.155708   8.138147   4.319966   4.948132
    35  C    7.110422   7.602505   7.957153   4.211759   4.298013
    36  C    7.880347   8.243982   8.797008   5.295728   5.183102
    37  C    8.978250   9.215252   9.904150   6.945635   6.486159
    38  C    7.716636   8.026863   8.636594   5.491169   5.113065
    39  O    6.104272   6.690345   6.893214   3.159871   3.157896
    40  S    8.136939   8.649478   8.937052   5.080956   5.484912
    41  H    8.359149   9.023798   8.957845   5.240568   5.946873
    42  H    6.624116   7.256059   7.273512   3.566971   4.349908
    43  H    9.561236   9.889693  10.427905   7.380148   6.893518
    44  H    9.654085   9.834874  10.621534   7.574584   7.226555
    45  H    8.919283   9.074934   9.845135   7.239669   6.657785
    46  H    6.929215   7.295591   7.802002   4.828454   4.294363
    47  H    8.821591   9.143480   9.757912   6.211117   6.190684
    48  H    7.416097   8.177358   7.983453   4.181637   4.676073
                    6          7          8          9         10
     6  O    0.000000
     7  H    0.977297   0.000000
     8  C    2.386458   3.237446   0.000000
     9  H    2.860739   3.717499   1.094491   0.000000
    10  O    2.638922   3.562454   1.408148   2.071039   0.000000
    11  H    2.095676   3.008850   1.923556   2.454041   0.966307
    12  C    2.466813   2.690846   2.363594   3.332541   2.922323
    13  H    2.568713   2.790405   2.803001   3.857210   2.815899
    14  C    3.598200   4.277211   1.524687   2.184910   2.388473
    15  H    4.297190   5.049552   2.144330   2.758257   2.415099
    16  O    3.559908   3.972115   2.361962   3.271060   3.049690
    17  N    3.260650   3.043464   3.664957   4.499532   4.346398
    18  C    4.049918   3.815002   4.175537   4.786716   5.172272
    19  H    4.097313   4.073793   3.711390   4.168478   4.889924
    20  C    5.120389   4.699248   5.489301   6.056112   6.473504
    21  H    5.894537   5.509758   6.082563   6.516775   7.192663
    22  C    5.578961   4.973877   6.378360   7.053981   7.158481
    23  H    6.660780   6.064110   7.351774   8.034574   8.138071
    24  H    5.614278   4.877452   6.734664   7.318167   7.527784
    25  C    5.055434   4.469753   5.991982   6.824368   6.506249
    26  C    3.951488   3.522620   4.774260   5.676455   5.190315
    27  H    3.937176   3.579679   4.853946   5.838785   4.967707
    28  C    6.045807   5.402070   7.170427   8.060186   7.487048
    29  O    6.183178   5.619038   7.298650   8.264929   7.389752
    30  N    7.136515   6.404608   8.349714   9.178057   8.758122
    31  H    7.826215   7.076363   9.138711   9.993167   9.444521
    32  H    7.164890   6.380509   8.431057   9.172931   8.968844
    33  H    4.313094   4.775935   2.741598   2.676104   4.089802
    34  C    3.195979   2.701551   5.339035   5.974691   5.004453
    35  C    3.651094   2.709322   5.680050   6.285591   5.997762
    36  C    4.953875   4.014625   6.805078   7.395433   7.267272
    37  C    6.860069   5.958073   8.446919   8.886844   9.188177
    38  C    5.379729   4.482195   7.004016   7.484423   7.699323
    39  O    2.632317   1.676891   4.648431   5.159421   5.107551
    40  S    4.245665   3.462942   6.359817   7.059513   6.283546
    41  H    4.083162   3.716094   6.104358   6.739473   5.561279
    42  H    2.596436   2.328201   4.474092   5.218370   4.069073
    43  H    7.143492   6.216173   8.885401   9.237534   9.608782
    44  H    7.458319   6.541698   9.078754   9.610353   9.723525
    45  H    7.335814   6.496220   8.691870   9.084848   9.560135
    46  H    4.819318   3.987909   6.313082   6.686676   7.139663
    47  H    5.802184   4.870370   7.694297   8.341932   8.040894
    48  H    2.895558   2.376128   5.207806   5.663268   4.992046
                   11         12         13         14         15
    11  H    0.000000
    12  C    3.116789   0.000000
    13  H    2.873090   1.094764   0.000000
    14  C    3.171772   2.343454   2.946353   0.000000
    15  H    3.346260   3.062538   3.364210   1.091190   0.000000
    16  O    3.624950   1.405323   2.076740   1.436969   2.053240
    17  N    4.435969   1.445075   2.054150   3.505006   4.298797
    18  C    5.352473   2.444516   3.327519   3.827138   4.754735
    19  H    5.197931   2.565801   3.615777   3.228136   4.215195
    20  C    6.595548   3.680206   4.432034   5.132700   6.039844
    21  H    7.368102   4.527846   5.377407   5.642776   6.575457
    22  C    7.149091   4.286909   4.744799   6.149261   6.984167
    23  H    8.174574   5.230538   5.664614   6.987920   7.779145
    24  H    7.397473   4.796723   5.246248   6.723737   7.627311
    25  C    6.441808   3.700941   3.833931   5.835179   6.536359
    26  C    5.148262   2.449286   2.486534   4.677230   5.329608
    27  H    4.856947   2.624660   2.184224   4.859391   5.345665
    28  C    7.343534   4.855698   4.716429   7.059722   7.654291
    29  O    7.222658   5.019744   4.619030   7.214206   7.666526
    30  N    8.591027   6.063109   6.025314   8.237057   8.892631
    31  H    9.230320   6.853299   6.698655   9.068491   9.676062
    32  H    8.787183   6.228899   6.339009   8.362955   9.112919
    33  H    4.652054   3.392530   4.384962   2.164093   3.067834
    34  C    4.230559   4.454029   3.869239   6.318734   6.805828
    35  C    5.486573   4.131808   4.081208   6.323039   7.112036
    36  C    6.837539   5.055864   5.132653   7.262334   8.104201
    37  C    8.860810   6.763899   7.119497   8.731903   9.685926
    38  C    7.363919   5.334841   5.668932   7.353551   8.291668
    39  O    4.624838   3.394598   3.548353   5.390762   6.245440
    40  S    5.647223   4.893177   4.435264   7.092027   7.689605
    41  H    4.749034   5.335840   4.617643   7.102686   7.474103
    42  H    3.378315   3.563293   2.869408   5.368301   5.789160
    43  H    9.201079   7.391443   7.734911   9.320492  10.297397
    44  H    9.388587   7.225179   7.460850   9.311328  10.209049
    45  H    9.321771   7.039922   7.526089   8.846380   9.829302
    46  H    6.845166   4.875840   5.377062   6.693066   7.689545
    47  H    7.581869   5.848429   5.782141   8.127125   8.908289
    48  H    4.144632   4.673508   4.287729   6.359559   6.931391
                   16         17         18         19         20
    16  O    0.000000
    17  N    2.315921   0.000000
    18  C    2.814814   1.390549   0.000000
    19  H    2.533697   2.089791   1.079925   0.000000
    20  C    4.074479   2.379900   1.329761   2.119989   0.000000
    21  H    4.729489   3.352132   2.083418   2.444706   1.080784
    22  C    4.940580   2.843355   2.452700   3.455280   1.481155
    23  H    5.736146   3.792833   3.305213   4.223470   2.155230
    24  H    5.627476   3.416435   3.034303   3.975223   2.099370
    25  C    4.523007   2.375665   2.762864   3.834549   2.458737
    26  C    3.389966   1.356492   2.364226   3.303322   2.752598
    27  H    3.620855   2.085235   3.330638   4.159369   3.833574
    28  C    5.713878   3.691498   4.231800   5.297865   3.841831
    29  O    5.876466   4.120131   4.947383   5.963282   4.802155
    30  N    6.899385   4.784383   5.039476   6.111133   4.317774
    31  H    7.724232   5.647427   6.005524   7.081323   5.322875
    32  H    7.083972   4.871940   4.898491   5.944610   4.004673
    33  H    2.750199   3.929145   3.476839   2.463983   4.570743
    34  C    5.794427   4.649150   5.768724   6.336041   6.398257
    35  C    5.487261   3.483058   4.141116   4.939840   4.294639
    36  C    6.294200   4.053412   4.378499   5.293865   4.074025
    37  C    7.777949   5.535576   5.234765   6.053292   4.375842
    38  C    6.426154   4.188540   4.068263   4.910252   3.488831
    39  O    4.734418   2.966917   3.543129   4.145475   3.969611
    40  S    6.267000   4.538361   5.518930   6.321917   5.783453
    41  H    6.617357   5.610613   6.790283   7.360687   7.418203
    42  H    4.842015   3.965341   5.191255   5.692591   5.976681
    43  H    8.471840   6.273235   6.004057   6.747611   5.254687
    44  H    8.250275   5.951406   5.785029   6.698961   4.878153
    45  H    7.906672   5.753900   5.195953   5.930168   4.169929
    46  H    5.905159   3.828724   3.515436   4.195336   3.084083
    47  H    7.085984   4.839647   5.256606   6.230147   4.865029
    48  H    6.013023   4.920072   5.878511   6.336018   6.530618
                   21         22         23         24         25
    21  H    0.000000
    22  C    2.219573   0.000000
    23  H    2.517119   1.093525   0.000000
    24  H    2.635485   1.112218   1.726318   0.000000
    25  C    3.449649   1.483627   2.163171   2.107972   0.000000
    26  C    3.830497   2.458906   3.318496   3.046008   1.347678
    27  H    4.909560   3.448188   4.227615   3.960781   2.110379
    28  C    4.743959   2.585253   2.809967   2.951637   1.473517
    29  O    5.768296   3.696925   3.959905   4.101185   2.362672
    30  N    5.015355   2.859903   2.674788   2.953512   2.414910
    31  H    6.018453   3.865194   3.641166   3.885168   3.311978
    32  H    4.566399   2.532579   2.288372   2.335014   2.595295
    33  H    4.691101   5.907461   6.682781   6.346627   6.121856
    34  C    7.370828   6.070501   7.035785   5.897381   5.081157
    35  C    5.176831   3.747778   4.685791   3.300057   3.173181
    36  C    4.828019   3.178633   3.907186   2.447625   2.945597
    37  C    4.623129   3.503403   3.734786   2.421130   4.185666
    38  C    3.998366   2.744522   3.388322   1.714997   3.169875
    39  O    4.797443   3.865377   4.919118   3.515412   3.483745
    40  S    6.752897   5.084856   5.919208   4.782189   4.107314
    41  H    8.411112   7.015235   7.936152   6.854362   5.931296
    42  H    6.974527   5.798514   6.781283   5.813436   4.743273
    43  H    5.465689   4.508914   4.811902   3.402926   5.119858
    44  H    5.204760   3.738513   3.776334   2.798590   4.222125
    45  H    4.166173   3.474450   3.518137   2.474728   4.488289
    46  H    3.495525   2.834822   3.628505   1.932005   3.440097
    47  H    5.622939   3.739326   4.263136   3.068855   3.338965
    48  H    7.418386   6.345637   7.361855   6.051031   5.565296
                   26         27         28         29         30
    26  C    0.000000
    27  H    1.083474   0.000000
    28  C    2.412673   2.597417   0.000000
    29  O    2.768745   2.452285   1.214666   0.000000
    30  N    3.625117   3.948927   1.377593   2.263158   0.000000
    31  H    4.409957   4.547358   2.022713   2.449330   1.007577
    32  H    3.889725   4.410944   2.069460   3.133176   1.006234
    33  H    5.281373   5.848381   7.543559   8.022684   8.484513
    34  C    4.314986   3.780557   5.297822   5.055732   6.272797
    35  C    3.009298   3.152338   3.599976   3.990736   4.256396
    36  C    3.400650   3.781592   3.160589   3.862586   3.352094
    37  C    5.091084   5.786167   4.437731   5.478320   3.897271
    38  C    3.813195   4.492034   3.700081   4.665788   3.645849
    39  O    3.000980   3.283199   4.304038   4.740554   5.079259
    40  S    3.802292   3.409533   4.011084   3.883711   4.757822
    41  H    5.185127   4.506885   5.956555   5.536209   6.912351
    42  H    3.754931   3.140902   5.109611   4.822877   6.246287
    43  H    5.898159   6.530228   5.353953   6.311766   4.845193
    44  H    5.275142   5.864188   4.109335   5.093790   3.307264
    45  H    5.454064   6.280941   4.898951   6.037445   4.294547
    46  H    3.821368   4.603987   4.318322   5.274203   4.464488
    47  H    3.952485   4.158864   3.048741   3.614930   2.992505
    48  H    4.816893   4.476415   5.957259   5.886709   6.852039
                   31         32         33         34         35
    31  H    0.000000
    32  H    1.717065   0.000000
    33  H    9.425416   8.363089   0.000000
    34  C    6.589973   6.495362   7.301966   0.000000
    35  C    4.786626   4.161002   6.625262   2.744632   0.000000
    36  C    3.881045   3.017005   7.305168   4.097156   1.456548
    37  C    4.437345   3.001775   8.213951   6.516255   3.821646
    38  C    4.334948   2.986729   7.007367   5.193745   2.454772
    39  O    5.742170   4.927588   5.572227   2.859305   1.220378
    40  S    4.979459   4.957333   7.829777   1.798577   1.775182
    41  H    7.099847   7.219162   8.244220   1.087620   3.690236
    42  H    6.651721   6.535565   6.541177   1.087109   3.015652
    43  H    5.281657   3.993598   8.747019   6.683433   4.130038
    44  H    3.660457   2.427779   8.962566   6.737946   4.140130
    45  H    4.924893   3.319136   8.106574   7.368114   4.631425
    46  H    5.250929   3.835831   6.142369   5.246841   2.641288
    47  H    3.257925   2.765558   8.299330   4.402604   2.171633
    48  H    7.237723   6.930951   7.122813   1.087936   2.858018
                   36         37         38         39         40
    36  C    0.000000
    37  C    2.485697   0.000000
    38  C    1.344578   1.501730   0.000000
    39  O    2.365218   4.329677   2.860454   0.000000
    40  S    2.704337   5.143636   3.989663   2.643781   0.000000
    41  H    4.937285   7.364108   6.116791   3.931996   2.348499
    42  H    4.407358   6.823762   5.408185   2.884453   2.413820
    43  H    2.922836   1.093125   2.105653   4.609334   5.371038
    44  H    2.688121   1.091039   2.158964   4.879249   5.176071
    45  H    3.377565   1.089568   2.179638   4.957433   6.079348
    46  H    2.084606   2.226561   1.088029   2.547824   4.376645
    47  H    1.084563   2.724453   2.116623   3.288575   2.725609
    48  H    4.231789   6.479507   5.166158   2.685927   2.402085
                   41         42         43         44         45
    41  H    0.000000
    42  H    1.778063   0.000000
    43  H    7.487813   7.127468   0.000000
    44  H    7.491353   7.076441   1.756412   0.000000
    45  H    8.270219   7.575581   1.759870   1.777767   0.000000
    46  H    6.255980   5.358679   2.642597   3.110185   2.545232
    47  H    5.064814   4.823441   3.120673   2.495138   3.716163
    48  H    1.778496   1.779390   6.509871   6.846709   7.306378
                   46         47         48
    46  H    0.000000
    47  H    3.060190   0.000000
    48  H    5.064299   4.686947   0.000000
 Stoichiometry    C16H24N2O5S
 Framework group  C1[X(C16H24N2O5S)]
 Deg. of freedom   138
 Full point group                 C1      NOp   1
 Largest Abelian subgroup         C1      NOp   1
 Largest concise Abelian subgroup C1      NOp   1
                         Standard orientation:                         
 ---------------------------------------------------------------------
 Center     Atomic      Atomic             Coordinates (Angstroms)
 Number     Number       Type             X           Y           Z
 ---------------------------------------------------------------------
      1          6           0       -4.674004   -1.988539   -0.511995
      2          1           0       -4.624749   -2.927335    0.038227
      3          1           0       -5.699996   -1.832488   -0.847118
      4          6           0       -2.531678    0.437727   -0.683073
      5          1           0       -2.338724   -0.207172   -1.548988
      6          8           0       -2.069841    1.735335   -0.896659
      7          1           0       -1.111582    1.692177   -1.083704
      8          6           0       -4.021974    0.469568   -0.365444
      9          1           0       -4.638762    0.532414   -1.267406
     10          8           0       -4.294162    1.538701    0.509626
     11          1           0       -3.763258    2.287472    0.207579
     12          6           0       -1.974845   -0.237716    0.580911
     13          1           0       -1.807193    0.521333    1.351785
     14          6           0       -4.229078   -0.845264    0.378193
     15          1           0       -4.942838   -0.686501    1.188152
     16          8           0       -2.958111   -1.164169    0.967959
     17          7           0       -0.725383   -0.939586    0.395264
     18          6           0       -0.689934   -2.045584   -0.446840
     19          1           0       -1.646260   -2.339792   -0.853189
     20          6           0        0.429774   -2.727669   -0.668831
     21          1           0        0.398401   -3.602082   -1.303269
     22          6           0        1.730514   -2.275227   -0.123678
     23          1           0        2.379849   -3.105513    0.167503
     24          1           0        2.290775   -1.800378   -0.958935
     25          6           0        1.563843   -1.258836    0.944180
     26          6           0        0.385792   -0.624811    1.106796
     27          1           0        0.293646    0.171074    1.836173
     28          6           0        2.684966   -0.842427    1.804958
     29          8           0        2.536133   -0.134207    2.780502
     30          7           0        3.921310   -1.343273    1.460909
     31          1           0        4.697854   -0.952907    1.970620
     32          1           0        4.095763   -1.631362    0.512712
     33          1           0       -4.035089   -2.071624   -1.394294
     34          6           0        0.257650    3.602089    0.248895
     35          6           0        1.564711    1.413117   -0.767469
     36          6           0        2.751675    0.603020   -1.004945
     37          6           0        4.041897   -0.983698   -2.417865
     38          6           0        2.759526   -0.425619   -1.870815
     39          8           0        0.477973    1.194635   -1.277947
     40         16           0        1.860631    2.789048    0.314435
     41          1           0        0.374421    4.549377    0.770363
     42          1           0       -0.505347    3.004490    0.741353
     43          1           0        4.336074   -0.358618   -3.265011
     44          1           0        4.850005   -0.932664   -1.686617
     45          1           0        3.951564   -2.006642   -2.781986
     46          1           0        1.844584   -0.624063   -2.425169
     47          1           0        3.658796    0.907079   -0.494108
     48          1           0       -0.028473    3.785824   -0.784536
 ---------------------------------------------------------------------
 Rotational constants (GHZ):           0.3346001           0.1648244           0.1403534
 Leave Link  202 at Sat Aug 13 20:09:16 2022, MaxMem=  2684354560 cpu:               0.7 elap:               0.1
 (Enter /storage/apps/GAUSSIAN/G16_RevA03/g16/l301.exe)
 Standard basis: def2TZVP (5D, 7F)
 Ernie: Thresh=  0.10000D-02 Tol=  0.10000D-05 Strict=F.
 There are  1014 symmetry adapted cartesian basis functions of A   symmetry.
 There are   894 symmetry adapted basis functions of A   symmetry.
   894 basis functions,  1434 primitive gaussians,  1014 cartesian basis functions
    95 alpha electrons       95 beta electrons
       nuclear repulsion energy      2500.5319791392 Hartrees.
 IExCor= 4336 DFT=T Ex+Corr=M062X ExCW=0 ScaHFX=  0.540000
 ScaDFX=  1.000000  1.000000  1.000000  1.000000 ScalE2=  1.000000  1.000000
 IRadAn=      5 IRanWt=     -1 IRanGd=            0 ICorTp=0 IEmpDi=131
 NAtoms=   48 NActive=   48 NUniq=   48 SFac= 1.00D+00 NAtFMM=   60 NAOKFM=F Big=F
 Integral buffers will be    131072 words long.
 Raffenetti 2 integral format.
 Two-electron integral symmetry is turned on.
 R6Disp:  Grimme-D3 Dispersion energy=       -0.0042670316 Hartrees.
 Nuclear repulsion after empirical dispersion term =     2500.5277121077 Hartrees.
 Leave Link  301 at Sat Aug 13 20:09:16 2022, MaxMem=  2684354560 cpu:               1.6 elap:               0.2
 (Enter /storage/apps/GAUSSIAN/G16_RevA03/g16/l302.exe)
 NPDir=0 NMtPBC=     1 NCelOv=     1 NCel=       1 NClECP=     1 NCelD=      1
         NCelK=      1 NCelE2=     1 NClLst=     1 CellRange=     0.0.
 One-electron integrals computed using PRISM.
 One-electron integral symmetry used in STVInt
   1 Symmetry operations used in ECPInt.
 ECPInt:  NShTT=   65703 NPrTT=  200010 LenC2=   56999 LenP2D=  121625.
 LDataN:  DoStor=T MaxTD1= 6 Len=  172
 NBasis=   894 RedAO= T EigKep=  2.60D-05  NBF=   894
 NBsUse=   894 1.00D-06 EigRej= -1.00D+00 NBFU=   894
 Precomputing XC quadrature grid using
 IXCGrd= 4 IRadAn=           5 IRanWt=          -1 IRanGd=           0 AccXCQ= 0.00D+00.
 Generated NRdTot=       0 NPtTot=           0 NUsed=           0 NTot=          32
 NSgBfM=   997   996   996   996   997 MxSgAt=    48 MxSgA2=    48.
 Leave Link  302 at Sat Aug 13 20:09:17 2022, MaxMem=  2684354560 cpu:              18.4 elap:               1.3
 (Enter /storage/apps/GAUSSIAN/G16_RevA03/g16/l303.exe)
 DipDrv:  MaxL=1.
 Leave Link  303 at Sat Aug 13 20:09:17 2022, MaxMem=  2684354560 cpu:               2.4 elap:               0.2
 (Enter /storage/apps/GAUSSIAN/G16_RevA03/g16/l401.exe)
 ExpMin= 9.52D-02 ExpMax= 6.07D+04 ExpMxC= 2.07D+03 IAcc=3 IRadAn=         5 AccDes= 0.00D+00
 Harris functional with IExCor= 1009 and IRadAn=       5 diagonalized for initial guess.
 HarFok:  IExCor= 1009 AccDes= 0.00D+00 IRadAn=         5 IDoV= 1 UseB2=F ITyADJ=14
 ICtDFT=  3500011 ScaDFX=  1.000000  1.000000  1.000000  1.000000
 FoFCou: FMM=F IPFlag=           0 FMFlag=      100000 FMFlg1=           0
         NFxFlg=           0 DoJE=T BraDBF=F KetDBF=T FulRan=T
         wScrn=  0.000000 ICntrl=       500 IOpCl=  0 I1Cent=   200000004 NGrid=           0
         NMat0=    1 NMatS0=      1 NMatT0=    0 NMatD0=    1 NMtDS0=    0 NMtDT0=    0
 Petite list used in FoFCou.
 Harris En= -1507.23517701557    
 JPrj=0 DoOrth=F DoCkMO=F.
 Leave Link  401 at Sat Aug 13 20:09:21 2022, MaxMem=  2684354560 cpu:              61.3 elap:               3.9
 (Enter /storage/apps/GAUSSIAN/G16_RevA03/g16/l502.exe)
 Integral symmetry usage will be decided dynamically.
 Closed shell SCF:
 Using DIIS extrapolation, IDIIS=  1040.
 NGot=  2684354560 LenX=  2682272944 LenY=  2681243734
 Requested convergence on RMS density matrix=1.00D-08 within 128 cycles.
 Requested convergence on MAX density matrix=1.00D-06.
 Requested convergence on             energy=1.00D-06.
 No special actions if energy rises.
 Fock matrices will be formed incrementally for  20 cycles.
 Integral accuracy reduced to 1.0D-05 until final iterations.

 Cycle   1  Pass 0  IDiag  1:
 FoFJK:  IHMeth= 1 ICntrl=       0 DoSepK=F KAlg= 0 I1Cent=           0 FoldK=F
 IRaf= 800000000 NMat=       1 IRICut=       1 DoRegI=T DoRafI=F ISym2E= 0 IDoP0=0 IntGTp=1.
 FoFCou: FMM=F IPFlag=           0 FMFlag=      100000 FMFlg1=           0
         NFxFlg=           0 DoJE=F BraDBF=F KetDBF=F FulRan=T
         wScrn=  0.000000 ICntrl=         0 IOpCl=  0 I1Cent=           0 NGrid=           0
         NMat0=    1 NMatS0=      1 NMatT0=    0 NMatD0=    1 NMtDS0=    0 NMtDT0=    0
 Symmetry not used in FoFCou.
 E= -1507.17491592233    
 DIIS: error= 1.40D-02 at cycle   1 NSaved=   1.
 NSaved= 1 IEnMin= 1 EnMin= -1507.17491592233     IErMin= 1 ErrMin= 1.40D-02
 ErrMax= 1.40D-02  0.00D+00 EMaxC= 1.00D-01 BMatC= 9.95D-01 BMatP= 9.95D-01
 IDIUse=3 WtCom= 8.60D-01 WtEn= 1.40D-01
 Coeff-Com:  0.100D+01
 Coeff-En:   0.100D+01
 Coeff:      0.100D+01
 Gap=     0.325 Goal=   None    Shift=    0.000
 GapD=    0.325 DampG=1.000 DampE=0.500 DampFc=0.5000 IDamp=-1.
 Damping current iteration by 5.00D-01
 RMSDP=4.44D-03 MaxDP=1.75D+00              OVMax= 2.28D-01

 Cycle   2  Pass 0  IDiag  1:
 RMSU=  2.22D-03    CP:  1.02D+00
 E= -1507.51704600103     Delta-E=       -0.342130078701 Rises=F Damp=T
 DIIS: error= 4.31D-03 at cycle   2 NSaved=   2.
 NSaved= 2 IEnMin= 2 EnMin= -1507.51704600103     IErMin= 2 ErrMin= 4.31D-03
 ErrMax= 4.31D-03  0.00D+00 EMaxC= 1.00D-01 BMatC= 8.58D-02 BMatP= 9.95D-01
 IDIUse=3 WtCom= 9.57D-01 WtEn= 4.31D-02
 Coeff-Com: -0.188D-01 0.102D+01
 Coeff-En:   0.146D-01 0.985D+00
 Coeff:     -0.174D-01 0.102D+01
 Gap=     0.331 Goal=   None    Shift=    0.000
 RMSDP=1.41D-03 MaxDP=5.11D-01 DE=-3.42D-01 OVMax= 1.64D-01

 Cycle   3  Pass 0  IDiag  1:
 RMSU=  1.14D-03    CP:  1.00D+00  6.32D-01
 E= -1507.87359070186     Delta-E=       -0.356544700837 Rises=F Damp=F
 DIIS: error= 3.76D-03 at cycle   3 NSaved=   3.
 NSaved= 3 IEnMin= 3 EnMin= -1507.87359070186     IErMin= 3 ErrMin= 3.76D-03
 ErrMax= 3.76D-03  0.00D+00 EMaxC= 1.00D-01 BMatC= 4.83D-02 BMatP= 8.58D-02
 IDIUse=3 WtCom= 9.62D-01 WtEn= 3.76D-02
 Coeff-Com: -0.842D-01 0.449D+00 0.635D+00
 Coeff-En:   0.000D+00 0.000D+00 0.100D+01
 Coeff:     -0.810D-01 0.432D+00 0.649D+00
 Gap=     0.212 Goal=   None    Shift=    0.000
 RMSDP=3.76D-04 MaxDP=6.31D-02 DE=-3.57D-01 OVMax= 6.31D-02

 Cycle   4  Pass 0  IDiag  1:
 RMSU=  3.23D-04    CP:  1.00D+00  7.07D-01  9.18D-01
 E= -1507.90516830728     Delta-E=       -0.031577605412 Rises=F Damp=F
 DIIS: error= 1.95D-03 at cycle   4 NSaved=   4.
 NSaved= 4 IEnMin= 4 EnMin= -1507.90516830728     IErMin= 4 ErrMin= 1.95D-03
 ErrMax= 1.95D-03  0.00D+00 EMaxC= 1.00D-01 BMatC= 9.74D-03 BMatP= 4.83D-02
 IDIUse=3 WtCom= 9.81D-01 WtEn= 1.95D-02
 Coeff-Com: -0.371D-01 0.993D-01 0.350D+00 0.588D+00
 Coeff-En:   0.000D+00 0.000D+00 0.136D+00 0.864D+00
 Coeff:     -0.363D-01 0.974D-01 0.345D+00 0.593D+00
 Gap=     0.210 Goal=   None    Shift=    0.000
 RMSDP=1.30D-04 MaxDP=1.94D-02 DE=-3.16D-02 OVMax= 1.78D-02

 Cycle   5  Pass 0  IDiag  1:
 RMSU=  8.48D-05    CP:  1.00D+00  6.93D-01  9.44D-01  7.26D-01
 E= -1507.91251304106     Delta-E=       -0.007344733783 Rises=F Damp=F
 DIIS: error= 2.82D-04 at cycle   5 NSaved=   5.
 NSaved= 5 IEnMin= 5 EnMin= -1507.91251304106     IErMin= 5 ErrMin= 2.82D-04
 ErrMax= 2.82D-04  0.00D+00 EMaxC= 1.00D-01 BMatC= 3.75D-04 BMatP= 9.74D-03
 IDIUse=3 WtCom= 9.97D-01 WtEn= 2.82D-03
 Coeff-Com: -0.104D-01 0.182D-01 0.119D+00 0.260D+00 0.613D+00
 Coeff-En:   0.000D+00 0.000D+00 0.000D+00 0.000D+00 0.100D+01
 Coeff:     -0.104D-01 0.182D-01 0.119D+00 0.259D+00 0.614D+00
 Gap=     0.210 Goal=   None    Shift=    0.000
 RMSDP=4.57D-05 MaxDP=1.37D-02 DE=-7.34D-03 OVMax= 4.12D-03

 Cycle   6  Pass 0  IDiag  1:
 RMSU=  3.14D-05    CP:  1.00D+00  6.80D-01  9.56D-01  7.37D-01  9.31D-01
 E= -1507.91281687673     Delta-E=       -0.000303835669 Rises=F Damp=F
 DIIS: error= 1.42D-04 at cycle   6 NSaved=   6.
 NSaved= 6 IEnMin= 6 EnMin= -1507.91281687673     IErMin= 6 ErrMin= 1.42D-04
 ErrMax= 1.42D-04  0.00D+00 EMaxC= 1.00D-01 BMatC= 4.92D-05 BMatP= 3.75D-04
 IDIUse=3 WtCom= 9.99D-01 WtEn= 1.42D-03
 Coeff-Com:  0.138D-03-0.397D-02 0.126D-01 0.415D-01 0.274D+00 0.676D+00
 Coeff-En:   0.000D+00 0.000D+00 0.000D+00 0.000D+00 0.000D+00 0.100D+01
 Coeff:      0.138D-03-0.397D-02 0.126D-01 0.415D-01 0.273D+00 0.676D+00
 Gap=     0.211 Goal=   None    Shift=    0.000
 RMSDP=2.15D-05 MaxDP=4.50D-03 DE=-3.04D-04 OVMax= 3.12D-03

 Cycle   7  Pass 0  IDiag  1:
 RMSU=  1.75D-05    CP:  1.00D+00  6.76D-01  9.60D-01  7.46D-01  1.00D+00
                    CP:  1.00D+00
 E= -1507.91287366212     Delta-E=       -0.000056785389 Rises=F Damp=F
 DIIS: error= 6.17D-05 at cycle   7 NSaved=   7.
 NSaved= 7 IEnMin= 7 EnMin= -1507.91287366212     IErMin= 7 ErrMin= 6.17D-05
 ErrMax= 6.17D-05  0.00D+00 EMaxC= 1.00D-01 BMatC= 8.75D-06 BMatP= 4.92D-05
 IDIUse=1 WtCom= 1.00D+00 WtEn= 0.00D+00
 Coeff-Com:  0.182D-02-0.495D-02-0.124D-01-0.255D-01 0.113D-01 0.293D+00
 Coeff-Com:  0.737D+00
 Coeff:      0.182D-02-0.495D-02-0.124D-01-0.255D-01 0.113D-01 0.293D+00
 Coeff:      0.737D+00
 Gap=     0.211 Goal=   None    Shift=    0.000
 RMSDP=2.05D-05 MaxDP=6.70D-03 DE=-5.68D-05 OVMax= 1.62D-03

 Cycle   8  Pass 0  IDiag  1:
 RMSU=  1.27D-05    CP:  1.00D+00  6.71D-01  9.62D-01  7.53D-01  1.09D+00
                    CP:  1.22D+00  1.27D+00
 E= -1507.91288089188     Delta-E=       -0.000007229767 Rises=F Damp=F
 DIIS: error= 2.41D-05 at cycle   8 NSaved=   8.
 NSaved= 8 IEnMin= 8 EnMin= -1507.91288089188     IErMin= 8 ErrMin= 2.41D-05
 ErrMax= 2.41D-05  0.00D+00 EMaxC= 1.00D-01 BMatC= 2.18D-06 BMatP= 8.75D-06
 IDIUse=1 WtCom= 1.00D+00 WtEn= 0.00D+00
 Coeff-Com:  0.970D-03-0.183D-02-0.845D-02-0.229D-01-0.471D-01 0.191D-01
 Coeff-Com:  0.377D+00 0.683D+00
 Coeff:      0.970D-03-0.183D-02-0.845D-02-0.229D-01-0.471D-01 0.191D-01
 Coeff:      0.377D+00 0.683D+00
 Gap=     0.211 Goal=   None    Shift=    0.000
 RMSDP=2.02D-05 MaxDP=3.35D-03 DE=-7.23D-06 OVMax= 6.67D-04

 Cycle   9  Pass 0  IDiag  1:
 RMSU=  9.84D-06    CP:  1.00D+00  6.68D-01  9.62D-01  7.55D-01  1.15D+00
                    CP:  1.35D+00  1.82D+00  1.95D+00
 E= -1507.91287208265     Delta-E=        0.000008809233 Rises=F Damp=F
 DIIS: error= 2.71D-05 at cycle   9 NSaved=   9.
 NSaved= 9 IEnMin= 8 EnMin= -1507.91288089188     IErMin= 8 ErrMin= 2.41D-05
 ErrMax= 2.71D-05  0.00D+00 EMaxC= 1.00D-01 BMatC= 6.66D-07 BMatP= 2.18D-06
 IDIUse=1 WtCom= 1.00D+00 WtEn= 0.00D+00
 Coeff-Com:  0.468D-03-0.818D-03-0.402D-02-0.122D-01-0.275D-01-0.577D-02
 Coeff-Com:  0.180D+00 0.404D+00 0.466D+00
 Coeff:      0.468D-03-0.818D-03-0.402D-02-0.122D-01-0.275D-01-0.577D-02
 Coeff:      0.180D+00 0.404D+00 0.466D+00
 Gap=     0.211 Goal=   None    Shift=    0.000
 RMSDP=1.93D-05 MaxDP=2.02D-03 DE= 8.81D-06 OVMax= 1.31D-04

 Cycle  10  Pass 0  IDiag  1:
 RMSU=  4.77D-06    CP:  1.00D+00  6.68D-01  9.63D-01  7.57D-01  1.19D+00
                    CP:  1.46D+00  2.27D+00  2.90D+00  2.10D+00
 E= -1507.91286264622     Delta-E=        0.000009436435 Rises=F Damp=F
 DIIS: error= 3.76D-05 at cycle  10 NSaved=  10.
 NSaved=10 IEnMin= 8 EnMin= -1507.91288089188     IErMin= 8 ErrMin= 2.41D-05
 ErrMax= 3.76D-05  0.00D+00 EMaxC= 1.00D-01 BMatC= 1.12D-06 BMatP= 6.66D-07
 IDIUse=1 WtCom= 1.00D+00 WtEn= 0.00D+00
 Coeff-Com:  0.432D-03-0.617D-03-0.390D-02-0.132D-01-0.346D-01-0.305D-01
 Coeff-Com:  0.167D+00 0.510D+00 0.119D+01-0.787D+00
 Coeff:      0.432D-03-0.617D-03-0.390D-02-0.132D-01-0.346D-01-0.305D-01
 Coeff:      0.167D+00 0.510D+00 0.119D+01-0.787D+00
 Gap=     0.211 Goal=   None    Shift=    0.000
 RMSDP=3.12D-05 MaxDP=3.57D-03 DE= 9.44D-06 OVMax= 7.37D-05

 Cycle  11  Pass 0  IDiag  1:
 RMSU=  4.64D-06    CP:  1.00D+00  6.68D-01  9.62D-01  7.54D-01  1.13D+00
                    CP:  1.32D+00  1.61D+00  1.48D+00  2.13D-01 -1.08D+00
 E= -1507.91286798819     Delta-E=       -0.000005341969 Rises=F Damp=F
 DIIS: error= 2.21D-05 at cycle  11 NSaved=  11.
 NSaved=11 IEnMin= 8 EnMin= -1507.91288089188     IErMin=11 ErrMin= 2.21D-05
 ErrMax= 2.21D-05  0.00D+00 EMaxC= 1.00D-01 BMatC= 3.26D-07 BMatP= 6.66D-07
 IDIUse=1 WtCom= 1.00D+00 WtEn= 0.00D+00
 Coeff-Com: -0.145D-04 0.186D-03 0.188D-03-0.224D-02-0.106D-01-0.330D-01
 Coeff-Com: -0.732D-02 0.151D+00 0.961D+00-0.950D+00 0.891D+00
 Coeff:     -0.145D-04 0.186D-03 0.188D-03-0.224D-02-0.106D-01-0.330D-01
 Coeff:     -0.732D-02 0.151D+00 0.961D+00-0.950D+00 0.891D+00
 Gap=     0.211 Goal=   None    Shift=    0.000
 RMSDP=1.67D-05 MaxDP=2.10D-03 DE=-5.34D-06 OVMax= 1.54D-04

 Cycle  12  Pass 0  IDiag  1:
 RMSU=  7.08D-06    CP:  1.00D+00  6.66D-01  9.60D-01  7.55D-01  1.13D+00
                    CP:  1.32D+00  1.44D+00  1.17D+00 -5.05D-01 -3.00D+00
                    CP:  2.48D+00
 E= -1507.91285480980     Delta-E=        0.000013178385 Rises=F Damp=F
 DIIS: error= 1.95D-05 at cycle  12 NSaved=  12.
 NSaved=12 IEnMin= 8 EnMin= -1507.91288089188     IErMin=12 ErrMin= 1.95D-05
 ErrMax= 1.95D-05  0.00D+00 EMaxC= 1.00D-01 BMatC= 1.96D-07 BMatP= 3.26D-07
 IDIUse=1 WtCom= 1.00D+00 WtEn= 0.00D+00
 Coeff-Com: -0.138D-04 0.171D-03 0.193D-03-0.202D-02-0.958D-02-0.301D-01
 Coeff-Com: -0.724D-02 0.136D+00 0.871D+00-0.855D+00 0.807D+00 0.894D-01
 Coeff:     -0.138D-04 0.171D-03 0.193D-03-0.202D-02-0.958D-02-0.301D-01
 Coeff:     -0.724D-02 0.136D+00 0.871D+00-0.855D+00 0.807D+00 0.894D-01
 Gap=     0.211 Goal=   None    Shift=    0.000
 RMSDP=2.44D-06 MaxDP=3.31D-04 DE= 1.32D-05 OVMax= 5.64D-06

 Initial convergence to 1.0D-05 achieved.  Increase integral accuracy.
 Cycle  13  Pass 1  IDiag  1:
 E= -1507.91286124094     Delta-E=       -0.000006431143 Rises=F Damp=F
 DIIS: error= 2.63D-04 at cycle   1 NSaved=   1.
 NSaved= 1 IEnMin= 1 EnMin= -1507.91286124094     IErMin= 1 ErrMin= 2.63D-04
 ErrMax= 2.63D-04  0.00D+00 EMaxC= 1.00D-01 BMatC= 8.57D-05 BMatP= 8.57D-05
 IDIUse=3 WtCom= 9.97D-01 WtEn= 2.63D-03
 Coeff-Com:  0.100D+01
 Coeff-En:   0.100D+01
 Coeff:      0.100D+01
 Gap=     0.211 Goal=   None    Shift=    0.000
 RMSDP=2.44D-06 MaxDP=3.31D-04 DE=-6.43D-06 OVMax= 9.18D-04

 Cycle  14  Pass 1  IDiag  1:
 RMSU=  4.16D-04    CP:  9.95D-01
 E= -1507.91291457310     Delta-E=       -0.000053332159 Rises=F Damp=F
 DIIS: error= 8.65D-06 at cycle   2 NSaved=   2.
 NSaved= 2 IEnMin= 2 EnMin= -1507.91291457310     IErMin= 2 ErrMin= 8.65D-06
 ErrMax= 8.65D-06  0.00D+00 EMaxC= 1.00D-01 BMatC= 7.13D-08 BMatP= 8.57D-05
 IDIUse=1 WtCom= 1.00D+00 WtEn= 0.00D+00
 Coeff-Com: -0.160D-01 0.102D+01
 Coeff:     -0.160D-01 0.102D+01
 Gap=     0.211 Goal=   None    Shift=    0.000
 RMSDP=1.49D-05 MaxDP=1.19D-03 DE=-5.33D-05 OVMax= 9.30D-05

 Cycle  15  Pass 1  IDiag  1:
 RMSU=  5.07D-06    CP:  9.95D-01  1.03D+00
 E= -1507.91291461488     Delta-E=       -0.000000041773 Rises=F Damp=F
 DIIS: error= 4.00D-06 at cycle   3 NSaved=   3.
 NSaved= 3 IEnMin= 3 EnMin= -1507.91291461488     IErMin= 3 ErrMin= 4.00D-06
 ErrMax= 4.00D-06  0.00D+00 EMaxC= 1.00D-01 BMatC= 5.68D-08 BMatP= 7.13D-08
 IDIUse=1 WtCom= 1.00D+00 WtEn= 0.00D+00
 Coeff-Com: -0.878D-02 0.528D+00 0.481D+00
 Coeff:     -0.878D-02 0.528D+00 0.481D+00
 Gap=     0.211 Goal=   None    Shift=    0.000
 RMSDP=5.34D-07 MaxDP=9.17D-05 DE=-4.18D-08 OVMax= 5.43D-05

 Cycle  16  Pass 1  IDiag  1:
 RMSU=  4.67D-07    CP:  9.95D-01  1.03D+00  1.03D+00
 E= -1507.91291466246     Delta-E=       -0.000000047585 Rises=F Damp=F
 DIIS: error= 1.03D-06 at cycle   4 NSaved=   4.
 NSaved= 4 IEnMin= 4 EnMin= -1507.91291466246     IErMin= 4 ErrMin= 1.03D-06
 ErrMax= 1.03D-06  0.00D+00 EMaxC= 1.00D-01 BMatC= 3.24D-09 BMatP= 5.68D-08
 IDIUse=1 WtCom= 1.00D+00 WtEn= 0.00D+00
 Coeff-Com: -0.337D-03 0.997D-02 0.181D+00 0.809D+00
 Coeff:     -0.337D-03 0.997D-02 0.181D+00 0.809D+00
 Gap=     0.211 Goal=   None    Shift=    0.000
 RMSDP=3.27D-07 MaxDP=2.82D-05 DE=-4.76D-08 OVMax= 1.76D-05

 Cycle  17  Pass 1  IDiag  1:
 RMSU=  1.62D-07    CP:  9.95D-01  1.03D+00  1.06D+00  8.75D-01
 E= -1507.91291466500     Delta-E=       -0.000000002543 Rises=F Damp=F
 DIIS: error= 4.61D-07 at cycle   5 NSaved=   5.
 NSaved= 5 IEnMin= 5 EnMin= -1507.91291466500     IErMin= 5 ErrMin= 4.61D-07
 ErrMax= 4.61D-07  0.00D+00 EMaxC= 1.00D-01 BMatC= 7.39D-10 BMatP= 3.24D-09
 IDIUse=1 WtCom= 1.00D+00 WtEn= 0.00D+00
 Coeff-Com:  0.404D-03-0.300D-01 0.708D-01 0.455D+00 0.503D+00
 Coeff:      0.404D-03-0.300D-01 0.708D-01 0.455D+00 0.503D+00
 Gap=     0.211 Goal=   None    Shift=    0.000
 RMSDP=5.37D-08 MaxDP=8.30D-06 DE=-2.54D-09 OVMax= 6.37D-06

 Cycle  18  Pass 1  IDiag  1:
 RMSU=  3.93D-08    CP:  9.95D-01  1.03D+00  1.07D+00  9.02D-01  1.01D+00
 E= -1507.91291466560     Delta-E=       -0.000000000598 Rises=F Damp=F
 DIIS: error= 8.86D-08 at cycle   6 NSaved=   6.
 NSaved= 6 IEnMin= 6 EnMin= -1507.91291466560     IErMin= 6 ErrMin= 8.86D-08
 ErrMax= 8.86D-08  0.00D+00 EMaxC= 1.00D-01 BMatC= 2.37D-11 BMatP= 7.39D-10
 IDIUse=1 WtCom= 1.00D+00 WtEn= 0.00D+00
 Coeff-Com:  0.161D-03-0.106D-01 0.568D-02 0.660D-01 0.158D+00 0.780D+00
 Coeff:      0.161D-03-0.106D-01 0.568D-02 0.660D-01 0.158D+00 0.780D+00
 Gap=     0.211 Goal=   None    Shift=    0.000
 RMSDP=1.74D-08 MaxDP=2.25D-06 DE=-5.98D-10 OVMax= 2.65D-06

 Cycle  19  Pass 1  IDiag  1:
 RMSU=  1.16D-08    CP:  9.95D-01  1.03D+00  1.07D+00  8.97D-01  1.08D+00
                    CP:  1.08D+00
 E= -1507.91291466568     Delta-E=       -0.000000000076 Rises=F Damp=F
 DIIS: error= 5.74D-08 at cycle   7 NSaved=   7.
 NSaved= 7 IEnMin= 7 EnMin= -1507.91291466568     IErMin= 7 ErrMin= 5.74D-08
 ErrMax= 5.74D-08  0.00D+00 EMaxC= 1.00D-01 BMatC= 7.47D-12 BMatP= 2.37D-11
 IDIUse=1 WtCom= 1.00D+00 WtEn= 0.00D+00
 Coeff-Com: -0.106D-05 0.771D-03-0.112D-01-0.572D-01-0.203D-01 0.394D+00
 Coeff-Com:  0.694D+00
 Coeff:     -0.106D-05 0.771D-03-0.112D-01-0.572D-01-0.203D-01 0.394D+00
 Coeff:      0.694D+00
 Gap=     0.211 Goal=   None    Shift=    0.000
 RMSDP=9.57D-09 MaxDP=2.35D-06 DE=-7.64D-11 OVMax= 1.23D-06

 Cycle  20  Pass 1  IDiag  1:
 RMSU=  6.48D-09    CP:  9.95D-01  1.03D+00  1.07D+00  8.94D-01  1.12D+00
                    CP:  1.15D+00  1.07D+00
 E= -1507.91291466569     Delta-E=       -0.000000000011 Rises=F Damp=F
 DIIS: error= 1.67D-08 at cycle   8 NSaved=   8.
 NSaved= 8 IEnMin= 8 EnMin= -1507.91291466569     IErMin= 8 ErrMin= 1.67D-08
 ErrMax= 1.67D-08  0.00D+00 EMaxC= 1.00D-01 BMatC= 8.75D-13 BMatP= 7.47D-12
 IDIUse=1 WtCom= 1.00D+00 WtEn= 0.00D+00
 Coeff-Com: -0.201D-04 0.165D-02-0.604D-02-0.349D-01-0.291D-01 0.861D-01
 Coeff-Com:  0.314D+00 0.668D+00
 Coeff:     -0.201D-04 0.165D-02-0.604D-02-0.349D-01-0.291D-01 0.861D-01
 Coeff:      0.314D+00 0.668D+00
 Gap=     0.211 Goal=   None    Shift=    0.000
 RMSDP=2.77D-09 MaxDP=3.57D-07 DE=-1.09D-11 OVMax= 4.59D-07

 SCF Done:  E(RM062X) =  -1507.91291467     A.U. after   20 cycles
            NFock= 20  Conv=0.28D-08     -V/T= 2.0036
 KE= 1.502492741830D+03 PE=-8.539255832671D+03 EE= 3.028322464069D+03
 Leave Link  502 at Sat Aug 13 20:18:21 2022, MaxMem=  2684354560 cpu:            8621.7 elap:             539.8
 (Enter /storage/apps/GAUSSIAN/G16_RevA03/g16/l601.exe)
 Copying SCF densities to generalized density rwf, IOpCl= 0 IROHF=0.

 **********************************************************************

            Population analysis using the SCF density.

 **********************************************************************

 Orbital symmetries:
       Occupied  (A) (A) (A) (A) (A) (A) (A) (A) (A) (A) (A) (A)
                 (A) (A) (A) (A) (A) (A) (A) (A) (A) (A) (A) (A)
                 (A) (A) (A) (A) (A) (A) (A) (A) (A) (A) (A) (A)
                 (A) (A) (A) (A) (A) (A) (A) (A) (A) (A) (A) (A)
                 (A) (A) (A) (A) (A) (A) (A) (A) (A) (A) (A) (A)
                 (A) (A) (A) (A) (A) (A) (A) (A) (A) (A) (A) (A)
                 (A) (A) (A) (A) (A) (A) (A) (A) (A) (A) (A) (A)
                 (A) (A) (A) (A) (A) (A) (A) (A) (A) (A) (A)
       Virtual   (A) (A) (A) (A) (A) (A) (A) (A) (A) (A) (A) (A)
                 (A) (A) (A) (A) (A) (A) (A) (A) (A) (A) (A) (A)
                 (A) (A) (A) (A) (A) (A) (A) (A) (A) (A) (A) (A)
                 (A) (A) (A) (A) (A) (A) (A) (A) (A) (A) (A) (A)
                 (A) (A) (A) (A) (A) (A) (A) (A) (A) (A) (A) (A)
                 (A) (A) (A) (A) (A) (A) (A) (A) (A) (A) (A) (A)
                 (A) (A) (A) (A) (A) (A) (A) (A) (A) (A) (A) (A)
                 (A) (A) (A) (A) (A) (A) (A) (A) (A) (A) (A) (A)
                 (A) (A) (A) (A) (A) (A) (A) (A) (A) (A) (A) (A)
                 (A) (A) (A) (A) (A) (A) (A) (A) (A) (A) (A) (A)
                 (A) (A) (A) (A) (A) (A) (A) (A) (A) (A) (A) (A)
                 (A) (A) (A) (A) (A) (A) (A) (A) (A) (A) (A) (A)
                 (A) (A) (A) (A) (A) (A) (A) (A) (A) (A) (A) (A)
                 (A) (A) (A) (A) (A) (A) (A) (A) (A) (A) (A) (A)
                 (A) (A) (A) (A) (A) (A) (A) (A) (A) (A) (A) (A)
                 (A) (A) (A) (A) (A) (A) (A) (A) (A) (A) (A) (A)
                 (A) (A) (A) (A) (A) (A) (A) (A) (A) (A) (A) (A)
                 (A) (A) (A) (A) (A) (A) (A) (A) (A) (A) (A) (A)
                 (A) (A) (A) (A) (A) (A) (A) (A) (A) (A) (A) (A)
                 (A) (A) (A) (A) (A) (A) (A) (A) (A) (A) (A) (A)
                 (A) (A) (A) (A) (A) (A) (A) (A) (A) (A) (A) (A)
                 (A) (A) (A) (A) (A) (A) (A) (A) (A) (A) (A) (A)
                 (A) (A) (A) (A) (A) (A) (A) (A) (A) (A) (A) (A)
                 (A) (A) (A) (A) (A) (A) (A) (A) (A) (A) (A) (A)
                 (A) (A) (A) (A) (A) (A) (A) (A) (A) (A) (A) (A)
                 (A) (A) (A) (A) (A) (A) (A) (A) (A) (A) (A) (A)
                 (A) (A) (A) (A) (A) (A) (A) (A) (A) (A) (A) (A)
                 (A) (A) (A) (A) (A) (A) (A) (A) (A) (A) (A) (A)
                 (A) (A) (A) (A) (A) (A) (A) (A) (A) (A) (A) (A)
                 (A) (A) (A) (A) (A) (A) (A) (A) (A) (A) (A) (A)
                 (A) (A) (A) (A) (A) (A) (A) (A) (A) (A) (A) (A)
                 (A) (A) (A) (A) (A) (A) (A) (A) (A) (A) (A) (A)
                 (A) (A) (A) (A) (A) (A) (A) (A) (A) (A) (A) (A)
                 (A) (A) (A) (A) (A) (A) (A) (A) (A) (A) (A) (A)
                 (A) (A) (A) (A) (A) (A) (A) (A) (A) (A) (A) (A)
                 (A) (A) (A) (A) (A) (A) (A) (A) (A) (A) (A) (A)
                 (A) (A) (A) (A) (A) (A) (A) (A) (A) (A) (A) (A)
                 (A) (A) (A) (A) (A) (A) (A) (A) (A) (A) (A) (A)
                 (A) (A) (A) (A) (A) (A) (A) (A) (A) (A) (A) (A)
                 (A) (A) (A) (A) (A) (A) (A) (A) (A) (A) (A) (A)
                 (A) (A) (A) (A) (A) (A) (A) (A) (A) (A) (A) (A)
                 (A) (A) (A) (A) (A) (A) (A) (A) (A) (A) (A) (A)
                 (A) (A) (A) (A) (A) (A) (A) (A) (A) (A) (A) (A)
                 (A) (A) (A) (A) (A) (A) (A) (A) (A) (A) (A) (A)
                 (A) (A) (A) (A) (A) (A) (A) (A) (A) (A) (A) (A)
                 (A) (A) (A) (A) (A) (A) (A) (A) (A) (A) (A) (A)
                 (A) (A) (A) (A) (A) (A) (A) (A) (A) (A) (A) (A)
                 (A) (A) (A) (A) (A) (A) (A) (A) (A) (A) (A) (A)
                 (A) (A) (A) (A) (A) (A) (A) (A) (A) (A) (A) (A)
                 (A) (A) (A) (A) (A) (A) (A) (A) (A) (A) (A) (A)
                 (A) (A) (A) (A) (A) (A) (A) (A) (A) (A) (A) (A)
                 (A) (A) (A) (A) (A) (A) (A) (A) (A) (A) (A) (A)
                 (A) (A) (A) (A) (A) (A) (A) (A) (A) (A) (A) (A)
                 (A) (A) (A) (A) (A) (A) (A) (A) (A) (A) (A) (A)
                 (A) (A) (A) (A) (A) (A) (A) (A) (A) (A) (A) (A)
                 (A) (A) (A) (A) (A) (A) (A) (A) (A) (A) (A) (A)
                 (A) (A) (A) (A) (A) (A) (A) (A) (A) (A) (A) (A)
                 (A) (A) (A) (A) (A) (A) (A) (A) (A) (A) (A) (A)
                 (A) (A) (A) (A) (A) (A) (A) (A) (A) (A) (A) (A)
                 (A) (A) (A) (A) (A) (A) (A) (A) (A) (A) (A) (A)
                 (A) (A) (A) (A) (A) (A) (A) (A) (A) (A) (A) (A)
                 (A) (A) (A) (A) (A) (A) (A) (A) (A) (A) (A) (A)
                 (A) (A) (A) (A) (A) (A) (A) (A) (A) (A) (A) (A)
                 (A) (A) (A) (A) (A) (A) (A) (A) (A) (A) (A) (A)
                 (A) (A) (A) (A) (A) (A) (A) (A) (A) (A) (A) (A)
                 (A) (A) (A) (A) (A) (A) (A) (A) (A) (A) (A) (A)
                 (A) (A) (A) (A) (A) (A) (A)
 The electronic state is 1-A.
 Alpha  occ. eigenvalues --  -89.91854 -19.63627 -19.63397 -19.62346 -19.62249
 Alpha  occ. eigenvalues --  -19.58055 -14.79860 -14.76225 -10.66073 -10.63673
 Alpha  occ. eigenvalues --  -10.63194 -10.59529 -10.59262 -10.59089 -10.58898
 Alpha  occ. eigenvalues --  -10.57931 -10.57745 -10.56924 -10.55869 -10.55120
 Alpha  occ. eigenvalues --  -10.55063 -10.54254 -10.53778 -10.53425  -8.27759
 Alpha  occ. eigenvalues --   -6.19702  -6.19472  -6.19260  -1.19592  -1.18740
 Alpha  occ. eigenvalues --   -1.15996  -1.15400  -1.13701  -1.09134  -1.00921
 Alpha  occ. eigenvalues --   -0.93728  -0.92191  -0.90042  -0.88680  -0.88133
 Alpha  occ. eigenvalues --   -0.85806  -0.83197  -0.79204  -0.76610  -0.75927
 Alpha  occ. eigenvalues --   -0.73853  -0.71028  -0.68273  -0.67867  -0.66639
 Alpha  occ. eigenvalues --   -0.63929  -0.63623  -0.62069  -0.60432  -0.58888
 Alpha  occ. eigenvalues --   -0.58627  -0.57321  -0.56853  -0.56304  -0.55554
 Alpha  occ. eigenvalues --   -0.55035  -0.53190  -0.53005  -0.51779  -0.51526
 Alpha  occ. eigenvalues --   -0.50979  -0.50440  -0.50274  -0.49520  -0.49468
 Alpha  occ. eigenvalues --   -0.48579  -0.48349  -0.47901  -0.47173  -0.46884
 Alpha  occ. eigenvalues --   -0.45970  -0.44960  -0.44412  -0.44273  -0.43976
 Alpha  occ. eigenvalues --   -0.43894  -0.43268  -0.42154  -0.41460  -0.37883
 Alpha  occ. eigenvalues --   -0.36260  -0.35700  -0.34618  -0.34189  -0.34054
 Alpha  occ. eigenvalues --   -0.33553  -0.32616  -0.32437  -0.30683  -0.24769
 Alpha virt. eigenvalues --   -0.03670  -0.00104   0.04280   0.04435   0.05628
 Alpha virt. eigenvalues --    0.06429   0.07040   0.07489   0.08568   0.08978
 Alpha virt. eigenvalues --    0.09623   0.09672   0.10410   0.10774   0.11005
 Alpha virt. eigenvalues --    0.11879   0.12286   0.12594   0.12778   0.12965
 Alpha virt. eigenvalues --    0.13390   0.13626   0.13975   0.14184   0.14394
 Alpha virt. eigenvalues --    0.14751   0.15752   0.16104   0.17155   0.17429
 Alpha virt. eigenvalues --    0.17949   0.18557   0.19092   0.19373   0.19478
 Alpha virt. eigenvalues --    0.20449   0.20546   0.21776   0.22288   0.22946
 Alpha virt. eigenvalues --    0.23085   0.23396   0.23706   0.24214   0.24734
 Alpha virt. eigenvalues --    0.25089   0.25511   0.26114   0.26571   0.27107
 Alpha virt. eigenvalues --    0.27502   0.27792   0.28169   0.28764   0.28979
 Alpha virt. eigenvalues --    0.29784   0.30149   0.30504   0.31020   0.31215
 Alpha virt. eigenvalues --    0.31647   0.32743   0.33009   0.33724   0.34132
 Alpha virt. eigenvalues --    0.34317   0.35154   0.35224   0.35852   0.36096
 Alpha virt. eigenvalues --    0.36588   0.37692   0.38165   0.38393   0.38515
 Alpha virt. eigenvalues --    0.38753   0.39438   0.39888   0.40071   0.40439
 Alpha virt. eigenvalues --    0.41014   0.41193   0.41566   0.42389   0.42501
 Alpha virt. eigenvalues --    0.43017   0.43138   0.43325   0.43732   0.44032
 Alpha virt. eigenvalues --    0.44727   0.44959   0.45197   0.45737   0.45970
 Alpha virt. eigenvalues --    0.46117   0.46621   0.46919   0.47076   0.47845
 Alpha virt. eigenvalues --    0.48117   0.48310   0.48654   0.48946   0.49240
 Alpha virt. eigenvalues --    0.50043   0.50337   0.50414   0.51292   0.51579
 Alpha virt. eigenvalues --    0.51780   0.51856   0.52229   0.52605   0.52908
 Alpha virt. eigenvalues --    0.53397   0.53998   0.54305   0.54858   0.55162
 Alpha virt. eigenvalues --    0.55537   0.55899   0.56407   0.57310   0.57636
 Alpha virt. eigenvalues --    0.57903   0.58340   0.59025   0.59889   0.60286
 Alpha virt. eigenvalues --    0.60709   0.60991   0.61175   0.62116   0.62822
 Alpha virt. eigenvalues --    0.63175   0.63946   0.64630   0.65200   0.65660
 Alpha virt. eigenvalues --    0.66586   0.66700   0.67089   0.67801   0.68076
 Alpha virt. eigenvalues --    0.68682   0.69475   0.70064   0.70624   0.71480
 Alpha virt. eigenvalues --    0.72156   0.73039   0.73174   0.73551   0.74106
 Alpha virt. eigenvalues --    0.74630   0.75806   0.76208   0.76598   0.76906
 Alpha virt. eigenvalues --    0.78212   0.78684   0.79914   0.80721   0.81387
 Alpha virt. eigenvalues --    0.81464   0.82363   0.83707   0.83995   0.84513
 Alpha virt. eigenvalues --    0.85515   0.85929   0.86484   0.87051   0.87634
 Alpha virt. eigenvalues --    0.88629   0.89216   0.89647   0.89955   0.90554
 Alpha virt. eigenvalues --    0.91008   0.91301   0.92095   0.92928   0.93884
 Alpha virt. eigenvalues --    0.94205   0.94488   0.95321   0.95769   0.97351
 Alpha virt. eigenvalues --    0.97817   0.98055   0.98379   0.98877   0.99768
 Alpha virt. eigenvalues --    1.00643   1.01022   1.01676   1.02390   1.03370
 Alpha virt. eigenvalues --    1.03577   1.04703   1.05256   1.05741   1.06257
 Alpha virt. eigenvalues --    1.07421   1.07800   1.08035   1.09190   1.09475
 Alpha virt. eigenvalues --    1.10937   1.11725   1.12047   1.13094   1.13613
 Alpha virt. eigenvalues --    1.14483   1.15027   1.15899   1.16949   1.17396
 Alpha virt. eigenvalues --    1.18485   1.19134   1.19450   1.19900   1.20939
 Alpha virt. eigenvalues --    1.21625   1.22221   1.22621   1.23414   1.24191
 Alpha virt. eigenvalues --    1.25130   1.25848   1.26144   1.27910   1.29074
 Alpha virt. eigenvalues --    1.30181   1.30444   1.31037   1.31656   1.32549
 Alpha virt. eigenvalues --    1.33026   1.33547   1.34632   1.34847   1.35174
 Alpha virt. eigenvalues --    1.36889   1.37570   1.39367   1.39893   1.40091
 Alpha virt. eigenvalues --    1.41279   1.42304   1.43151   1.43456   1.45376
 Alpha virt. eigenvalues --    1.45501   1.45963   1.48046   1.48632   1.49731
 Alpha virt. eigenvalues --    1.50640   1.51185   1.51678   1.52503   1.53191
 Alpha virt. eigenvalues --    1.53657   1.54100   1.54582   1.55172   1.55732
 Alpha virt. eigenvalues --    1.56568   1.56899   1.57487   1.58120   1.58229
 Alpha virt. eigenvalues --    1.58689   1.59209   1.59644   1.60241   1.60923
 Alpha virt. eigenvalues --    1.60983   1.61502   1.61893   1.62408   1.62770
 Alpha virt. eigenvalues --    1.63327   1.64305   1.64545   1.65036   1.65814
 Alpha virt. eigenvalues --    1.66008   1.66613   1.67877   1.68362   1.68459
 Alpha virt. eigenvalues --    1.69136   1.69549   1.69642   1.69994   1.71587
 Alpha virt. eigenvalues --    1.72771   1.72959   1.73734   1.74309   1.74414
 Alpha virt. eigenvalues --    1.75587   1.76405   1.77035   1.77632   1.78089
 Alpha virt. eigenvalues --    1.78465   1.79559   1.79880   1.80973   1.81930
 Alpha virt. eigenvalues --    1.83043   1.84042   1.84382   1.84868   1.85134
 Alpha virt. eigenvalues --    1.85616   1.86654   1.86761   1.87377   1.88519
 Alpha virt. eigenvalues --    1.88947   1.90286   1.90584   1.91273   1.92474
 Alpha virt. eigenvalues --    1.93364   1.93904   1.94751   1.95016   1.95784
 Alpha virt. eigenvalues --    1.96777   1.97285   1.98280   1.98877   1.99215
 Alpha virt. eigenvalues --    1.99801   2.00371   2.01121   2.02211   2.02391
 Alpha virt. eigenvalues --    2.03620   2.03847   2.04945   2.05171   2.05814
 Alpha virt. eigenvalues --    2.06949   2.07130   2.08118   2.09443   2.09592
 Alpha virt. eigenvalues --    2.09896   2.11755   2.12256   2.13122   2.13367
 Alpha virt. eigenvalues --    2.15279   2.15634   2.17222   2.17710   2.18468
 Alpha virt. eigenvalues --    2.18849   2.19873   2.20014   2.20367   2.21063
 Alpha virt. eigenvalues --    2.21360   2.22118   2.22796   2.22974   2.23736
 Alpha virt. eigenvalues --    2.24434   2.24890   2.26333   2.26538   2.27308
 Alpha virt. eigenvalues --    2.28531   2.29752   2.30030   2.30530   2.31169
 Alpha virt. eigenvalues --    2.31980   2.32958   2.33578   2.33687   2.34427
 Alpha virt. eigenvalues --    2.34635   2.35925   2.36242   2.36988   2.37207
 Alpha virt. eigenvalues --    2.37721   2.38291   2.38777   2.39781   2.41093
 Alpha virt. eigenvalues --    2.41243   2.42122   2.42656   2.42845   2.44281
 Alpha virt. eigenvalues --    2.44866   2.45061   2.46401   2.47307   2.48329
 Alpha virt. eigenvalues --    2.48579   2.50127   2.50395   2.51402   2.52209
 Alpha virt. eigenvalues --    2.53899   2.55059   2.55789   2.56384   2.56808
 Alpha virt. eigenvalues --    2.57701   2.57962   2.58458   2.58983   2.59325
 Alpha virt. eigenvalues --    2.60180   2.60474   2.60822   2.61480   2.61843
 Alpha virt. eigenvalues --    2.62820   2.62981   2.63983   2.64654   2.64957
 Alpha virt. eigenvalues --    2.65250   2.66228   2.66523   2.68016   2.68668
 Alpha virt. eigenvalues --    2.69317   2.69836   2.70431   2.71355   2.71900
 Alpha virt. eigenvalues --    2.72401   2.73078   2.73968   2.74889   2.75108
 Alpha virt. eigenvalues --    2.75383   2.76366   2.76942   2.78372   2.78999
 Alpha virt. eigenvalues --    2.80760   2.81485   2.81896   2.82196   2.82922
 Alpha virt. eigenvalues --    2.83533   2.84321   2.85325   2.86401   2.86747
 Alpha virt. eigenvalues --    2.87244   2.87921   2.88789   2.89430   2.89644
 Alpha virt. eigenvalues --    2.90933   2.91242   2.91713   2.92624   2.93464
 Alpha virt. eigenvalues --    2.94651   2.95166   2.95377   2.96417   2.97480
 Alpha virt. eigenvalues --    2.98435   2.98790   3.00400   3.01668   3.01737
 Alpha virt. eigenvalues --    3.02249   3.02505   3.03893   3.04407   3.05326
 Alpha virt. eigenvalues --    3.05934   3.06401   3.06563   3.07272   3.07783
 Alpha virt. eigenvalues --    3.08838   3.09181   3.09469   3.09846   3.10225
 Alpha virt. eigenvalues --    3.11391   3.12192   3.12556   3.12802   3.13782
 Alpha virt. eigenvalues --    3.14010   3.15144   3.15963   3.16258   3.17231
 Alpha virt. eigenvalues --    3.17379   3.17898   3.17951   3.18230   3.18820
 Alpha virt. eigenvalues --    3.19018   3.19418   3.20216   3.21011   3.22227
 Alpha virt. eigenvalues --    3.22685   3.23599   3.24739   3.25540   3.25635
 Alpha virt. eigenvalues --    3.26795   3.26947   3.28017   3.28958   3.29153
 Alpha virt. eigenvalues --    3.30064   3.30474   3.31146   3.31885   3.32456
 Alpha virt. eigenvalues --    3.32896   3.33059   3.33934   3.34395   3.34505
 Alpha virt. eigenvalues --    3.35800   3.36220   3.36657   3.36838   3.37258
 Alpha virt. eigenvalues --    3.37744   3.39341   3.39972   3.40389   3.41057
 Alpha virt. eigenvalues --    3.41472   3.42453   3.43152   3.44163   3.44646
 Alpha virt. eigenvalues --    3.44670   3.45395   3.45945   3.46783   3.47769
 Alpha virt. eigenvalues --    3.47928   3.48534   3.48773   3.49983   3.50248
 Alpha virt. eigenvalues --    3.51467   3.52340   3.53640   3.54135   3.54400
 Alpha virt. eigenvalues --    3.55091   3.56109   3.56985   3.57558   3.57617
 Alpha virt. eigenvalues --    3.58576   3.59087   3.59190   3.60520   3.61641
 Alpha virt. eigenvalues --    3.62168   3.63757   3.64227   3.65372   3.65836
 Alpha virt. eigenvalues --    3.66002   3.66597   3.67347   3.68693   3.69529
 Alpha virt. eigenvalues --    3.70653   3.71167   3.72521   3.74472   3.75790
 Alpha virt. eigenvalues --    3.77369   3.77522   3.78862   3.79882   3.80941
 Alpha virt. eigenvalues --    3.81574   3.81839   3.82072   3.83098   3.84442
 Alpha virt. eigenvalues --    3.86364   3.87423   3.89030   3.89820   3.90405
 Alpha virt. eigenvalues --    3.92043   3.93069   3.94131   3.94943   3.95217
 Alpha virt. eigenvalues --    3.97433   3.98044   3.98884   4.00189   4.00789
 Alpha virt. eigenvalues --    4.01285   4.02046   4.04201   4.05343   4.07572
 Alpha virt. eigenvalues --    4.08917   4.10320   4.11441   4.14209   4.15601
 Alpha virt. eigenvalues --    4.16721   4.17597   4.17888   4.18910   4.19357
 Alpha virt. eigenvalues --    4.20069   4.21393   4.22660   4.24155   4.25542
 Alpha virt. eigenvalues --    4.26068   4.27081   4.29261   4.30931   4.31531
 Alpha virt. eigenvalues --    4.32266   4.37165   4.37835   4.38419   4.39062
 Alpha virt. eigenvalues --    4.40742   4.41194   4.42231   4.42844   4.43043
 Alpha virt. eigenvalues --    4.45807   4.48307   4.49931   4.50216   4.51860
 Alpha virt. eigenvalues --    4.52700   4.53894   4.56413   4.58878   4.60919
 Alpha virt. eigenvalues --    4.63958   4.64669   4.65898   4.68149   4.69890
 Alpha virt. eigenvalues --    4.72629   4.73140   4.73530   4.75600   4.76248
 Alpha virt. eigenvalues --    4.77783   4.79427   4.82191   4.83626   4.85135
 Alpha virt. eigenvalues --    4.88009   4.88685   4.89487   4.90952   4.92323
 Alpha virt. eigenvalues --    4.93661   4.94523   4.97414   4.98155   4.99999
 Alpha virt. eigenvalues --    5.01599   5.03268   5.05061   5.05981   5.08867
 Alpha virt. eigenvalues --    5.11942   5.15087   5.16697   5.20167   5.21643
 Alpha virt. eigenvalues --    5.23074   5.24379   5.25350   5.26814   5.28519
 Alpha virt. eigenvalues --    5.28862   5.31493   5.31945   5.35992   5.39132
 Alpha virt. eigenvalues --    5.40658   5.43018   5.44882   5.47893   5.49189
 Alpha virt. eigenvalues --    5.49436   5.50934   5.53465   5.54850   5.56837
 Alpha virt. eigenvalues --    5.64642   5.68846   5.76060   5.76950   5.79762
 Alpha virt. eigenvalues --    5.80248   5.82476   5.83623   5.84488   5.88922
 Alpha virt. eigenvalues --    5.89745   5.91835   5.94161   5.96188   5.97833
 Alpha virt. eigenvalues --    5.99395   6.04898   6.07443   6.17055   6.18852
 Alpha virt. eigenvalues --    6.22122   6.25727   6.28294   6.29805   6.39099
 Alpha virt. eigenvalues --    6.39917   6.43685   6.46930   6.48945   6.54796
 Alpha virt. eigenvalues --    6.61838   6.62697   6.73228   6.76399   6.77416
 Alpha virt. eigenvalues --    6.78228   6.82651   6.85189   6.85879   6.86240
 Alpha virt. eigenvalues --    6.87044   6.97824   7.00659   7.05546   7.09208
 Alpha virt. eigenvalues --    7.11336   7.14817   7.17289   7.18800   7.22621
 Alpha virt. eigenvalues --    7.33363   7.37664   9.02097   9.39479   9.55574
 Alpha virt. eigenvalues --   19.91180  22.33360  22.47402  22.51070  22.54556
 Alpha virt. eigenvalues --   22.65738  22.67369  22.75931  22.78379  22.86018
 Alpha virt. eigenvalues --   22.93590  22.99344  23.01239  23.09617  23.12152
 Alpha virt. eigenvalues --   23.29844  23.52235  32.20721  33.23636  44.16859
[...]
 Dipole        = 8.67927318D-01-5.00906587D-01-1.99426412D+00
 ***** Axes restored to original set *****
 -------------------------------------------------------------------
 Center     Atomic                   Forces (Hartrees/Bohr)
 Number     Number              X              Y              Z
 -------------------------------------------------------------------
      1        6           0.000113541   -0.000041588    0.000096006
      2        1           0.000001222    0.000012388    0.000000850
      3        1          -0.000017819   -0.000038510    0.000005165
      4        6           0.001112449   -0.000664910   -0.000593087
      5        1           0.000033681   -0.000043946    0.000048608
      6        8           0.002151153   -0.000351753    0.000879398
      7        1           0.000106554   -0.000282451    0.000240538
      8        6           0.000499011   -0.000310536    0.000029503
      9        1           0.000086232   -0.000021511    0.000004034
     10        8           0.000417619    0.000093898    0.000228108
     11        1           0.000033639   -0.000034860    0.000051640
     12        6          -0.000824913   -0.000297236   -0.000226206
     13        1           0.000065826   -0.000071243    0.000060222
     14        6           0.000304372    0.000190561   -0.000141275
     15        1           0.000060241   -0.000056392    0.000048104
     16        8           0.001618663   -0.000415525    0.000112222
     17        7           0.001093400    0.000318210    0.002313373
     18        6           0.001523507   -0.000937703   -0.000718029
     19        1           0.000284003   -0.000002459   -0.000301638
     20        6           0.002243746   -0.003540341   -0.000291529
     21        1           0.000720144   -0.000430146   -0.000181636
     22        6          -0.005447395   -0.002236396   -0.008877938
     23        1           0.004109650    0.000204663   -0.003024288
     24        1          -0.002118827   -0.000777404   -0.004670611
     25        6           0.001271841    0.000346700   -0.000146343
     26        6           0.002328075    0.001400422   -0.003419823
     27        1           0.000448278    0.000169763   -0.000783113
     28        6           0.002574377    0.000299456   -0.000976096
     29        8          -0.001394665    0.004196949    0.000612380
     30        7           0.001938643   -0.000150355    0.001380831
     31        1           0.000018324   -0.000085195   -0.000054731
     32        1           0.000348990   -0.000481157   -0.001126708
     33        1          -0.000048459    0.000017969   -0.000007365
     34        6          -0.000272812    0.000076051   -0.000537505
     35        6           0.003388860    0.002070007   -0.000134845
     36        6          -0.003809789    0.001439553    0.001069334
     37        6           0.001193909   -0.000152069   -0.001579617
     38        6          -0.011632079    0.004681590    0.024242547
     39        8          -0.003716168    0.000748147    0.001392713
     40       16          -0.001731666   -0.004513857   -0.001780862
     41        1          -0.000021021    0.000021759   -0.000117975
     42        1          -0.000119301   -0.000034698   -0.000171454
     43        1          -0.001080065   -0.000997510   -0.001104125
     44        1           0.000191564    0.000091251    0.000036760
     45        1           0.001577390    0.000162173   -0.000758463
     46        1           0.000754035    0.000369265   -0.001083459
     47        1          -0.000366374    0.000066204    0.000036881
     48        1          -0.000011588   -0.000007231   -0.000080497
 -------------------------------------------------------------------
 Cartesian Forces:  Max     0.024242547 RMS     0.002761780
 Leave Link  716 at Sat Aug 13 20:21:41 2022, MaxMem=  2684354560 cpu:               0.4 elap:               0.0
 (Enter /storage/apps/GAUSSIAN/G16_RevA03/g16/l103.exe)

 GradGradGradGradGradGradGradGradGradGradGradGradGradGradGradGradGradGrad
 Berny optimization.
 Search for a local minimum.
 Step number   1 out of a maximum of    2
 All quantities printed in internal units (Hartrees-Bohrs-Radians)
 Second derivative matrix not updated -- first step.
 ITU=  0
     Eigenvalues ---    0.00035   0.00100   0.00106   0.00127   0.00183
     Eigenvalues ---    0.00250   0.00332   0.00382   0.00434   0.00477
     Eigenvalues ---    0.00597   0.00722   0.00803   0.00867   0.00932
     Eigenvalues ---    0.00990   0.01115   0.01190   0.01376   0.01505
     Eigenvalues ---    0.01722   0.01965   0.02359   0.02492   0.02638
     Eigenvalues ---    0.03065   0.03149   0.03366   0.03663   0.03878
     Eigenvalues ---    0.04363   0.04626   0.04927   0.05132   0.05252
     Eigenvalues ---    0.05318   0.05530   0.05767   0.05890   0.05919
     Eigenvalues ---    0.06165   0.06211   0.06335   0.06378   0.06813
     Eigenvalues ---    0.06936   0.07378   0.07612   0.07774   0.07955
     Eigenvalues ---    0.08421   0.08786   0.08982   0.09857   0.10282
     Eigenvalues ---    0.10765   0.11714   0.12016   0.12503   0.12691
     Eigenvalues ---    0.12969   0.13080   0.13197   0.13526   0.13706
     Eigenvalues ---    0.13915   0.14042   0.15369   0.15987   0.16124
     Eigenvalues ---    0.16701   0.18501   0.19216   0.19600   0.19634
     Eigenvalues ---    0.19983   0.20331   0.21439   0.21681   0.22238
     Eigenvalues ---    0.24078   0.27016   0.27211   0.28786   0.31292
     Eigenvalues ---    0.32834   0.33091   0.35151   0.35911   0.37375
     Eigenvalues ---    0.38068   0.38068   0.38068   0.38068   0.39564
     Eigenvalues ---    0.43778   0.45570   0.48229   0.56719   0.57362
     Eigenvalues ---    0.61637   0.65651   0.69607   0.71186   0.73840
     Eigenvalues ---    0.78925   0.82297   0.86551   0.87811   0.90147
     Eigenvalues ---    0.91218   0.91712   0.93833   0.94600   0.94725
     Eigenvalues ---    0.97175   0.98290   0.99898   1.02787   1.03279
     Eigenvalues ---    1.05448   1.07557   1.11161   1.11515   1.16625
     Eigenvalues ---    1.17671   1.20214   1.23344   1.26067   1.29948
     Eigenvalues ---    1.34425   1.41579   1.52692   1.57187   1.71362
     Eigenvalues ---    1.79742   2.14868   2.29389
 Quadratic step=1.034D+01 exceeds max=3.000D-01 adjusted using Lamda=-4.330D-02.
 Angle between NR and scaled steps=  61.06 degrees.
 Angle between quadratic step and forces=  45.35 degrees.
 Linear search not attempted -- first point.
 Variable       Old X    -DE/DX   Delta X   Delta X   Delta X     New X
                                 (Linear)    (Quad)   (Total)
    X1        6.80332   0.00011   0.00000  -0.00396  -0.00396   6.79936
    Y1       -6.83296  -0.00004   0.00000   0.00428   0.00428  -6.82868
    Z1       -0.83918   0.00010   0.00000   0.00103   0.00103  -0.83815
    X2        7.08376   0.00000   0.00000  -0.00860  -0.00860   7.07516
    Y2       -7.01299   0.00001   0.00000   0.00699   0.00699  -7.00600
    Z2       -2.87045   0.00000   0.00000   0.00049   0.00049  -2.86996
    X3        8.19112  -0.00002   0.00000  -0.00537  -0.00537   8.18575
    Y3       -8.01064  -0.00004   0.00000   0.00128   0.00128  -8.00936
    Z3        0.12736   0.00001   0.00000  -0.00139  -0.00139   0.12598
    X4        3.54221   0.00111   0.00000   0.00558   0.00558   3.54780
    Y4       -2.73068  -0.00066   0.00000  -0.00482  -0.00482  -2.73550
    Z4        2.33140  -0.00059   0.00000   0.00562   0.00562   2.33702
    X5        2.31067   0.00003   0.00000   0.00120   0.00120   2.31187
    Y5       -4.37610  -0.00004   0.00000  -0.00279  -0.00279  -4.37889
    Z5        2.06374   0.00005   0.00000   0.01067   0.01067   2.07441
    X6        2.80095   0.00215   0.00000   0.01873   0.01873   2.81968
    Y6       -1.29260  -0.00035   0.00000  -0.00794  -0.00794  -1.30054
    Z6        4.40986   0.00088   0.00000   0.01286   0.01286   4.42272
    X7        1.05357   0.00011   0.00000   0.01402   0.01402   1.06758
    Y7       -0.75530  -0.00028   0.00000  -0.01183  -0.01183  -0.76714
    Z7        4.14771   0.00024   0.00000   0.02624   0.02624   4.17396
    X8        6.27900   0.00050   0.00000   0.00529   0.00529   6.28429
    Y8       -3.56657  -0.00031   0.00000  -0.00209  -0.00209  -3.56866
    Z8        2.65769   0.00003   0.00000   0.00343   0.00343   2.66112
    X9        6.45254   0.00009   0.00000   0.00340   0.00340   6.45594
    Y9       -5.24078  -0.00002   0.00000  -0.00257  -0.00257  -5.24335
    Z9        3.85965   0.00000   0.00000   0.00316   0.00316   3.86281
   X10        7.71818   0.00042   0.00000   0.00190   0.00190   7.72008
   Y10       -1.54522   0.00009   0.00000  -0.00031  -0.00031  -1.54553
   Z10        3.61888   0.00023   0.00000   0.00664   0.00664   3.62552
   X11        6.69120   0.00003   0.00000  -0.00016  -0.00016   6.69104
   Y11       -0.72471  -0.00003   0.00000  -0.00518  -0.00518  -0.72989
   Z11        4.88639   0.00005   0.00000   0.00886   0.00886   4.89525
   X12        3.70489  -0.00082   0.00000  -0.00198  -0.00198   3.70291
   Y12       -1.24981  -0.00030   0.00000  -0.00124  -0.00124  -1.25104
   Z12       -0.16306  -0.00023   0.00000   0.00600   0.00600  -0.15706
   X13        4.27720   0.00007   0.00000  -0.00758  -0.00758   4.26962
   Y13        0.69782  -0.00007   0.00000  -0.00061  -0.00061   0.69720
   Z13        0.23591   0.00006   0.00000   0.01291   0.01291   0.24882
   X14        7.09748   0.00030   0.00000   0.00291   0.00291   7.10039
   Y14       -4.09409   0.00019   0.00000   0.00250   0.00250  -4.09158
   Z14       -0.05402  -0.00014   0.00000   0.00318   0.00318  -0.05084
   X15        9.04753   0.00006   0.00000   0.00184   0.00184   9.04937
   Y15       -3.47040  -0.00006   0.00000   0.00244   0.00244  -3.46796
   Z15       -0.29972   0.00005   0.00000   0.00438   0.00438  -0.29534
   X16        5.52115   0.00162   0.00000   0.00599   0.00599   5.52714
   Y16       -2.53023  -0.00042   0.00000   0.00625   0.00625  -2.52398
   Z16       -1.61714   0.00011   0.00000   0.00591   0.00591  -1.61123
   X17        1.37503   0.00109   0.00000   0.00102   0.00102   1.37605
   Y17       -1.12957   0.00032   0.00000  -0.00061  -0.00061  -1.13018
   Z17       -1.58240   0.00231   0.00000   0.00021   0.00021  -1.58219
   X18        0.34735   0.00152   0.00000   0.00284   0.00284   0.35019
   Y18       -3.34978  -0.00094   0.00000  -0.00333  -0.00333  -3.35311
   Z18       -2.54139  -0.00072   0.00000  -0.00220  -0.00220  -2.54359
   X19        1.48077   0.00028   0.00000  -0.00079  -0.00079   1.47998
   Y19       -5.02103  -0.00000   0.00000  -0.00204  -0.00204  -5.02307
   Z19       -2.24648  -0.00030   0.00000   0.01081   0.01081  -2.23567
   X20       -1.80135   0.00224   0.00000   0.00822   0.00822  -1.79312
   Y20       -3.37038  -0.00354   0.00000  -0.01241  -0.01241  -3.38279
   Z20       -3.84419  -0.00029   0.00000  -0.01600  -0.01600  -3.86019
   X21       -2.48749   0.00072   0.00000   0.00944   0.00944  -2.47805
   Y21       -5.13538  -0.00043   0.00000  -0.01708  -0.01708  -5.15246
   Z21       -4.60924  -0.00018   0.00000  -0.00116  -0.00116  -4.61041
   X22       -3.34144  -0.00545   0.00000   0.00431   0.00431  -3.33713
   Y22       -1.05401  -0.00224   0.00000  -0.00867  -0.00867  -1.06268
   Z22       -4.15535  -0.00888   0.00000  -0.06207  -0.06207  -4.21742
   X23       -4.26582   0.00411   0.00000   0.05161   0.05161  -4.21421
   Y23       -0.94877   0.00020   0.00000   0.00010   0.00010  -0.94867
   Z23       -6.00054  -0.00302   0.00000  -0.07940  -0.07940  -6.07994
   X24       -4.96043  -0.00212   0.00000  -0.03068  -0.03068  -4.99111
   Y24       -1.19871  -0.00078   0.00000  -0.00804  -0.00804  -1.20675
   Z24       -2.82289  -0.00467   0.00000  -0.09726  -0.09726  -2.92015
   X25       -1.90282   0.00127   0.00000   0.00712   0.00712  -1.89570
   Y25        1.26231   0.00035   0.00000  -0.00194  -0.00194   1.26037
   Z25       -3.50305  -0.00015   0.00000  -0.02480  -0.02480  -3.52785
   X26        0.27770   0.00233   0.00000   0.00679   0.00679   0.28449
   Y26        1.10411   0.00140   0.00000  -0.00048  -0.00048   1.10363
   Z26       -2.19685  -0.00342   0.00000  -0.01900  -0.01900  -2.21585
   X27        1.24157   0.00045   0.00000  -0.00249  -0.00249   1.23908
   Y27        2.80865   0.00017   0.00000   0.00154   0.00154   2.81019
   Z27       -1.59884  -0.00078   0.00000  -0.00591  -0.00591  -1.60474
   X28       -2.86002   0.00257   0.00000   0.00464   0.00464  -2.85537
   Y28        3.80735   0.00030   0.00000   0.00856   0.00856   3.81591
   Z28       -4.10323  -0.00098   0.00000   0.00024   0.00024  -4.10300
   X29       -1.58753  -0.00139   0.00000  -0.02531  -0.02531  -1.61284
   Y29        5.70185   0.00420   0.00000   0.02768   0.02768   5.72953
   Z29       -3.85735   0.00061   0.00000   0.02517   0.02517  -3.83219
   X30       -5.28372   0.00194   0.00000  -0.00145  -0.00145  -5.28516
   Y30        3.90976  -0.00015   0.00000   0.00237   0.00237   3.91213
   Z30       -5.04781   0.00138   0.00000   0.01960   0.01960  -5.02821
   X31       -6.01095   0.00002   0.00000  -0.01292  -0.01292  -6.02387
   Y31        5.66106  -0.00009   0.00000   0.00030   0.00030   5.66136
   Z31       -5.21944  -0.00005   0.00000   0.03912   0.03912  -5.18033
   X32       -6.50348   0.00035   0.00000   0.00462   0.00462  -6.49887
   Y32        2.50219  -0.00048   0.00000  -0.00650  -0.00650   2.49569
   Z32       -4.66483  -0.00113   0.00000   0.00938   0.00938  -4.65546
   X33        4.92024  -0.00005   0.00000  -0.00523  -0.00523   4.91500
   Y33       -7.54092   0.00002   0.00000   0.00731   0.00731  -7.53362
   Z33       -0.37541  -0.00001   0.00000   0.00326   0.00326  -0.37215
   X34        0.37792  -0.00027   0.00000   0.00740   0.00740   0.38531
   Y34        4.15671   0.00008   0.00000  -0.00477  -0.00477   4.15194
   Z34        5.36368  -0.00054   0.00000  -0.01907  -0.01907   5.34461
   X35       -3.06772   0.00339   0.00000   0.00856   0.00856  -3.05915
   Y35        1.70268   0.00207   0.00000   0.00740   0.00740   1.71008
   Z35        2.36265  -0.00013   0.00000  -0.01458  -0.01458   2.34806
   X36       -5.36177  -0.00381   0.00000  -0.03217  -0.03217  -5.39394
   Y36        1.58926   0.00144   0.00000   0.01932   0.01932   1.60858
   Z36        0.84588   0.00107   0.00000   0.05336   0.05336   0.89924
   X37       -9.05221   0.00119   0.00000  -0.00129  -0.00129  -9.05350
   Y37       -0.79462  -0.00015   0.00000  -0.00566  -0.00566  -0.80029
   Z37       -0.81612  -0.00158   0.00000  -0.00843  -0.00843  -0.82455
   X38       -6.35392  -0.01163   0.00000  -0.06369  -0.06369  -6.41762
   Y38       -0.60774   0.00468   0.00000   0.01015   0.01015  -0.59758
   Z38        0.04280   0.02424   0.00000   0.14583   0.14583   0.18863
   X39       -1.80631  -0.00372   0.00000  -0.02479  -0.02479  -1.83110
   Y39       -0.14340   0.00075   0.00000  -0.00666  -0.00666  -0.15005
   Z39        2.92772   0.00139   0.00000   0.00724   0.00724   2.93497
   X40       -2.31252  -0.00173   0.00000   0.02665   0.02665  -2.28587
   Y40        4.80531  -0.00451   0.00000  -0.00610  -0.00610   4.79921
   Z40        3.39066  -0.00178   0.00000  -0.04712  -0.04712   3.34354
   X41        0.83079  -0.00002   0.00000   0.00180   0.00180   0.83259
   Y41        5.91930   0.00002   0.00000  -0.00543  -0.00543   5.91388
   Z41        6.31890  -0.00012   0.00000  -0.01355  -0.01355   6.30536
   X42        1.98704  -0.00012   0.00000   0.01612   0.01612   2.00316
   Y42        3.54312  -0.00003   0.00000  -0.00555  -0.00555   3.53757
   Z42        4.24362  -0.00017   0.00000  -0.00484  -0.00484   4.23878
   X43      -10.22304  -0.00108   0.00000  -0.06102  -0.06102 -10.28406
   Y43       -1.03277  -0.00100   0.00000  -0.03052  -0.03052  -1.06329
   Z43        0.86899  -0.00110   0.00000  -0.05959  -0.05959   0.80940
   X44       -9.67935   0.00019   0.00000   0.03255   0.03255  -9.64680
   Y44        0.93377   0.00009   0.00000  -0.00193  -0.00193   0.93184
   Z44       -1.74899   0.00004   0.00000  -0.02551  -0.02551  -1.77449
   X45       -9.41341   0.00158   0.00000   0.07411   0.07411  -9.33930
   Y45       -2.40146   0.00016   0.00000   0.00175   0.00175  -2.39971
   Z45       -2.05185  -0.00076   0.00000  -0.04201  -0.04201  -2.09386
   X46       -5.41091   0.00075   0.00000  -0.01710  -0.01710  -5.42801
   Y46       -2.34298   0.00037   0.00000   0.00942   0.00942  -2.33356
   Z46        0.61473  -0.00108   0.00000   0.06613   0.06613   0.68086
   X47       -6.31541  -0.00037   0.00000  -0.00081  -0.00081  -6.31621
   Y47        3.36731   0.00007   0.00000   0.02148   0.02148   3.38879
   Z47        0.48578   0.00004   0.00000  -0.00220  -0.00220   0.48358
   X48       -0.09186  -0.00001   0.00000  -0.00040  -0.00040  -0.09227
   Y48        2.71700  -0.00001   0.00000  -0.00323  -0.00323   2.71377
   Z48        6.75410  -0.00008   0.00000  -0.01874  -0.01874   6.73536
         Item               Value     Threshold  Converged?
 Maximum Force            0.024243     0.000450     NO 
 RMS     Force            0.002762     0.000300     NO 
 Maximum Displacement     0.145829     0.001800     NO 
 RMS     Displacement     0.025024     0.001200     NO 
 Predicted change in Energy=-5.449348D-03
 GradGradGradGradGradGradGradGradGradGradGradGradGradGradGradGradGradGrad

 Leave Link  103 at Sat Aug 13 20:21:42 2022, MaxMem=  2684354560 cpu:               0.9 elap:               0.1
 (Enter /storage/apps/GAUSSIAN/G16_RevA03/g16/l9999.exe)

 Test job not archived.
 1\1\GINC-T066\Force\RM062X\def2TZVP\C16H24N2O5S1\LV87696\13-Aug-2022\0
 \\#P M062X/Def2TZVP scf=(direct,conver=8) EmpiricalDispersion=GD3 Forc
 e Charge Prop=(Field,Read)\\Gaussian run\\0,1\C,3.600162,-3.615845,-0.
 444077\H,3.748565,-3.711113,-1.518976\H,4.334555,-4.239047,0.067398\C,
 1.874459,-1.445011,1.233725\H,1.222754,-2.315731,1.092084\O,1.482199,-
 0.684014,2.333596\H,0.557523,-0.39969,2.194875\C,3.322703,-1.887347,1.
 406388\H,3.414536,-2.773303,2.042438\O,4.084283,-0.817693,1.91503\H,3.
 54083,-0.383499,2.585764\C,1.960545,-0.661369,-0.086288\H,2.263398,0.3
 69269,0.124838\C,3.755826,-2.166498,-0.028586\H,4.787748,-1.836457,-0.
 158605\O,2.921668,-1.338938,-0.855753\N,0.727634,-0.597745,-0.83737\C,
 0.183808,-1.772627,-1.344846\H,0.78359,-2.657017,-1.188786\C,-0.953232
 ,-1.783527,-2.034256\H,-1.316322,-2.717527,-2.439105\C,-1.768214,-0.55
 7757,-2.198918\H,-2.257376,-0.50207,-3.175348\H,-2.624944,-0.634331,-1
 .493809\C,-1.00693,0.667986,-1.853735\C,0.146955,0.58427,-1.162521\H,0
 .657013,1.486276,-0.846068\C,-1.513455,2.014765,-2.171338\O,-0.840085,
 3.01729,-2.041223\N,-2.796023,2.068955,-2.671184\H,-3.180858,2.995704,
 -2.762011\H,-3.441494,1.324104,-2.468524\H,2.603678,-3.990485,-0.19865
 8\C,0.199985,2.199637,2.838339\C,-1.623365,0.901022,1.250259\C,-2.8373
 28,0.841,0.447623\C,-4.790224,-0.420497,-0.431873\C,-3.362351,-0.3216,
 0.022649\O,-0.955858,-0.075882,1.549283\S,-1.223735,2.542859,1.794261\
 H,0.439636,3.132361,3.34382\H,1.051496,1.874938,2.245629\H,-5.409799,-
 0.54652,0.459848\H,-5.12209,0.494128,-0.925525\H,-4.981363,-1.270799,-
 1.085793\H,-2.86333,-1.239852,0.325301\H,-3.341969,1.781904,0.257063\H
 ,-0.048612,1.437774,3.574117\\Version=ES64L-G16RevA.03\State=1-A\HF=-1
 507.9129147\RMSD=2.771e-09\RMSF=2.762e-03\Dipole=-1.7815015,-1.2800661
 ,0.4110693\Quadrupole=7.6238311,-1.5295385,-6.0942925,-2.897224,5.7076
 129,7.9229624\PG=C01 [X(C16H24N2O5S1)]\\@


 SUCCESS-- IF YOU HAVE TRIED TO DO SOMETHING AND FAILED
           YOU ARE BETTER OFF THAN IF YOU HAD TRIED TO DO
           NOTHING AND SUCCEEDED.

                   -- FROM THE BACK OF A SUGAR PACKET
 Job cpu time:       0 days  3 hours 18 minutes 27.6 seconds.
 Elapsed time:       0 days  0 hours 12 minutes 26.2 seconds.
 File lengths (MBytes):  RWF=    435 Int=      0 D2E=      0 Chk=     48 Scr=      1
 Normal termination of Gaussian 16 at Sat Aug 13 20:21:42 2022.
