 Entering Gaussian System, Link 0=g16
 Initial command:
 /storage/apps/GAUSSIAN/G16_RevA03/g16/l1.exe "/scratch/tmp/1019143/Gau-85406.inp" -scrdir="/scratch/tmp/1019143/"
 Entering Link 1 = /storage/apps/GAUSSIAN/G16_RevA03/g16/l1.exe PID=     85410.
  
 Copyright (c) 1988,1990,1992,1993,1995,1998,2003,2009,2016,
            Gaussian, Inc.  All Rights Reserved.
  
 This is part of the Gaussian(R) 16 program.  It is based on
 the Gaussian(R) 09 system (copyright 2009, Gaussian, Inc.),
 the Gaussian(R) 03 system (copyright 2003, Gaussian, Inc.),
 the Gaussian(R) 98 system (copyright 1998, Gaussian, Inc.),
 the Gaussian(R) 94 system (copyright 1995, Gaussian, Inc.),
 the Gaussian 92(TM) system (copyright 1992, Gaussian, Inc.),
 the Gaussian 90(TM) system (copyright 1990, Gaussian, Inc.),
 the Gaussian 88(TM) system (copyright 1988, Gaussian, Inc.),
 the Gaussian 86(TM) system (copyright 1986, Carnegie Mellon
 University), and the Gaussian 82(TM) system (copyright 1983,
 Carnegie Mellon University). Gaussian is a federally registered
 trademark of Gaussian, Inc.
  
 This software contains proprietary and confidential information,
 including trade secrets, belonging to Gaussian, Inc.
  
 This software is provided under written license and may be
 used, copied, transmitted, or stored only in accord with that
 written license.
  
 The following legend is applicable only to US Government
 contracts under FAR:
  
                    RESTRICTED RIGHTS LEGEND
  
 Use, reproduction and disclosure by the US Government is
 subject to restrictions as set forth in subparagraphs (a)
 and (c) of the Commercial Computer Software - Restricted
 Rights clause in FAR 52.227-19.
  
 Gaussian, Inc.
 340 Quinnipiac St., Bldg. 40, Wallingford CT 06492
  
  
 ---------------------------------------------------------------
 Warning -- This program may not be used in any manner that
 competes with the business of Gaussian, Inc. or will provide
 assistance to any competitor of Gaussian, Inc.  The licensee
 of this program is prohibited from giving any competitor of
 Gaussian, Inc. access to this program.  By using this program,
 the user acknowledges that Gaussian, Inc. is engaged in the
 business of creating and licensing software in the field of
 computational chemistry and represents and warrants to the
 licensee that it is not a competitor of Gaussian, Inc. and that
 it will not use this program in any manner prohibited above.
 ---------------------------------------------------------------
  

 Cite this work as:
 Gaussian 16, Revision A.03,
 M. J. Frisch, G. W. Trucks, H. B. Schlegel, G. E. Scuseria, 
 M. A. Robb, J. R. Cheeseman, G. Scalmani, V. Barone, 
 G. A. Petersson, H. Nakatsuji, X. Li, M. Caricato, A. V. Marenich, 
 J. Bloino, B. G. Janesko, R. Gomperts, B. Mennucci, H. P. Hratchian, 
 J. V. Ortiz, A. F. Izmaylov, J. L. Sonnenberg, D. Williams-Young, 
 F. Ding, F. Lipparini, F. Egidi, J. Goings, B. Peng, A. Petrone, 
 T. Henderson, D. Ranasinghe, V. G. Zakrzewski, J. Gao, N. Rega, 
 G. Zheng, W. Liang, M. Hada, M. Ehara, K. Toyota, R. Fukuda, 
 J. Hasegawa, M. Ishida, T. Nakajima, Y. Honda, O. Kitao, H. Nakai, 
 T. Vreven, K. Throssell, J. A. Montgomery, Jr., J. E. Peralta, 
 F. Ogliaro, M. J. Bearpark, J. J. Heyd, E. N. Brothers, K. N. Kudin, 
 V. N. Staroverov, T. A. Keith, R. Kobayashi, J. Normand, 
 K. Raghavachari, A. P. Rendell, J. C. Burant, S. S. Iyengar, 
 J. Tomasi, M. Cossi, J. M. Millam, M. Klene, C. Adamo, R. Cammi, 
 J. W. Ochterski, R. L. Martin, K. Morokuma, O. Farkas, 
 J. B. Foresman, and D. J. Fox, Gaussian, Inc., Wallingford CT, 2016.
 
 ******************************************
 Gaussian 16:  ES64L-G16RevA.03 25-Dec-2016
                13-Aug-2022 
 ******************************************
 %NProcShared=16
 Will use up to   16 processors via shared memory.
 %mem=20GB
 ----------------------------------------------------------------------
 #P M062X/Def2TZVP scf=(direct,conver=8) EmpiricalDispersion=GD3 Force 
 Charge Prop=(Field,Read)
 ----------------------------------------------------------------------
 1/10=7,18=10,28=-2,30=1,38=1,125=101/1,3;
 2/12=2,17=6,18=5,29=2,40=1/2;
 3/5=44,7=101,11=2,25=1,30=1,71=1,74=-55,124=31/1,2,3;
 4//1;
 5/5=2,6=8,38=5/2;
 6/7=2,8=2,9=2,10=2,14=2,15=1,28=1/1,2;
 7/7=1,16=-2,29=1/1,2,3,16;
 1/10=7,18=10,28=-2,30=1/3;
 99/12=1/99;
 Leave Link    1 at Sat Aug 13 20:09:15 2022, MaxMem=  2684354560 cpu:               0.6 elap:               0.0
 (Enter /storage/apps/GAUSSIAN/G16_RevA03/g16/l101.exe)
 ------------
 Gaussian run
 ------------
 Symbolic Z-matrix:
 Charge =  0 Multiplicity = 1
 C                     3.59997  -3.61574  -0.4443 
 H                     3.74875  -3.71145  -1.51909 
 H                     4.33463  -4.2385    0.06721 
 C                     1.87191  -1.44359   1.23571 
 H                     1.22115  -2.31488   1.0909 
 O                     1.47969  -0.68391   2.33206 
 H                     0.55334  -0.39379   2.1902 
 C                     3.32219  -1.88665   1.40622 
 H                     3.41195  -2.77285   2.04217 
 O                     4.08376  -0.81785   1.91465 
 H                     3.53978  -0.38343   2.5852 
 C                     1.96407  -0.66103  -0.08506 
 H                     2.26194   0.37136   0.12276 
 C                     3.75573  -2.16714  -0.02795 
 H                     4.78634  -1.83476  -0.16059 
 O                     2.91917  -1.33798  -0.85614 
 N                     0.72415  -0.59846  -0.843 
 C                     0.18274  -1.76941  -1.34206 
 H                     0.7788   -2.65489  -1.18022 
 C                    -0.96102  -1.77428  -2.03319 
 H                    -1.33275  -2.70527  -2.43574 
 C                    -1.74577  -0.55375  -2.19334 
 H                    -2.36302  -0.51022  -3.09061 
 H                    -2.6083   -0.59633  -1.35674 
 C                    -1.0146    0.66236  -1.85242 
 C                     0.14446   0.57973  -1.15555 
 H                     0.64765   1.48177  -0.82946 
 C                    -1.51946   2.01573  -2.16996 
 O                    -0.83811   3.01154  -2.04197 
 N                    -2.79795   2.06899  -2.6731 
 H                    -3.18155   2.99686  -2.76098 
 H                    -3.44679   1.3334   -2.44692 
 H                     2.60401  -3.99109  -0.19781 
 C                     0.20025   2.19948   2.839 
 C                    -1.63468   0.89838   1.24794 
 C                    -2.82701   0.84628   0.45289 
 C                    -4.79561  -0.42077  -0.42614 
 C                    -3.33945  -0.33753  -0.02879 
 O                    -0.94944  -0.07842   1.5481 
 S                    -1.22237   2.54618   1.79547 
 H                     0.44051   3.13167   3.34562 
 H                     1.05464   1.87552   2.24999 
 H                    -5.39974  -0.52654   0.47776 
 H                    -5.12299   0.49191  -0.92722 
 H                    -5.01091  -1.27194  -1.07206 
 H                    -2.90417  -1.24621   0.38669 
 H                    -3.33403   1.78595   0.26302 
 H                    -0.04748   1.43798   3.57546 
 
 ITRead=  0  0  0  0  0  0  0  0  0  0  0  0  0  0  0  0  0  0  0  0
 ITRead=  0  0  0  0  0  0  0  0  0  0  0  0  0  0  0  0  0  0  0  0
 ITRead=  0  0  0  0  0  0  0  0
 MicOpt= -1 -1 -1 -1 -1 -1 -1 -1 -1 -1 -1 -1 -1 -1 -1 -1 -1 -1 -1 -1
 MicOpt= -1 -1 -1 -1 -1 -1 -1 -1 -1 -1 -1 -1 -1 -1 -1 -1 -1 -1 -1 -1
 MicOpt= -1 -1 -1 -1 -1 -1 -1 -1
 NAtoms=     48 NQM=       48 NQMF=       0 NMMI=      0 NMMIF=      0
                NMic=       0 NMicF=      0.
                    Isotopes and Nuclear Properties:
 (Nuclear quadrupole moments (NQMom) in fm**2, nuclear magnetic moments (NMagM)
  in nuclear magnetons)

  Atom         1           2           3           4           5           6           7           8           9          10
 IAtWgt=          12           1           1          12           1          16           1          12           1          16
 AtmWgt=  12.0000000   1.0078250   1.0078250  12.0000000   1.0078250  15.9949146   1.0078250  12.0000000   1.0078250  15.9949146
 NucSpn=           0           1           1           0           1           0           1           0           1           0
 AtZEff=  -0.0000000  -0.0000000  -0.0000000  -0.0000000  -0.0000000  -0.0000000  -0.0000000  -0.0000000  -0.0000000  -0.0000000
 NQMom=    0.0000000   0.0000000   0.0000000   0.0000000   0.0000000   0.0000000   0.0000000   0.0000000   0.0000000   0.0000000
 NMagM=    0.0000000   2.7928460   2.7928460   0.0000000   2.7928460   0.0000000   2.7928460   0.0000000   2.7928460   0.0000000
 AtZNuc=   6.0000000   1.0000000   1.0000000   6.0000000   1.0000000   8.0000000   1.0000000   6.0000000   1.0000000   8.0000000

  Atom        11          12          13          14          15          16          17          18          19          20
 IAtWgt=           1          12           1          12           1          16          14          12           1          12
 AtmWgt=   1.0078250  12.0000000   1.0078250  12.0000000   1.0078250  15.9949146  14.0030740  12.0000000   1.0078250  12.0000000
 NucSpn=           1           0           1           0           1           0           2           0           1           0
 AtZEff=  -0.0000000  -0.0000000  -0.0000000  -0.0000000  -0.0000000  -0.0000000  -0.0000000  -0.0000000  -0.0000000  -0.0000000
 NQMom=    0.0000000   0.0000000   0.0000000   0.0000000   0.0000000   0.0000000   2.0440000   0.0000000   0.0000000   0.0000000
 NMagM=    2.7928460   0.0000000   2.7928460   0.0000000   2.7928460   0.0000000   0.4037610   0.0000000   2.7928460   0.0000000
 AtZNuc=   1.0000000   6.0000000   1.0000000   6.0000000   1.0000000   8.0000000   7.0000000   6.0000000   1.0000000   6.0000000

  Atom        21          22          23          24          25          26          27          28          29          30
 IAtWgt=           1          12           1           1          12          12           1          12          16          14
 AtmWgt=   1.0078250  12.0000000   1.0078250   1.0078250  12.0000000  12.0000000   1.0078250  12.0000000  15.9949146  14.0030740
 NucSpn=           1           0           1           1           0           0           1           0           0           2
 AtZEff=  -0.0000000  -0.0000000  -0.0000000  -0.0000000  -0.0000000  -0.0000000  -0.0000000  -0.0000000  -0.0000000  -0.0000000
 NQMom=    0.0000000   0.0000000   0.0000000   0.0000000   0.0000000   0.0000000   0.0000000   0.0000000   0.0000000   2.0440000
 NMagM=    2.7928460   0.0000000   2.7928460   2.7928460   0.0000000   0.0000000   2.7928460   0.0000000   0.0000000   0.4037610
 AtZNuc=   1.0000000   6.0000000   1.0000000   1.0000000   6.0000000   6.0000000   1.0000000   6.0000000   8.0000000   7.0000000

  Atom        31          32          33          34          35          36          37          38          39          40
 IAtWgt=           1           1           1          12          12          12          12          12          16          32
 AtmWgt=   1.0078250   1.0078250   1.0078250  12.0000000  12.0000000  12.0000000  12.0000000  12.0000000  15.9949146  31.9720718
 NucSpn=           1           1           1           0           0           0           0           0           0           0
 AtZEff=  -0.0000000  -0.0000000  -0.0000000  -0.0000000  -0.0000000  -0.0000000  -0.0000000  -0.0000000  -0.0000000  -0.0000000
 NQMom=    0.0000000   0.0000000   0.0000000   0.0000000   0.0000000   0.0000000   0.0000000   0.0000000   0.0000000   0.0000000
 NMagM=    2.7928460   2.7928460   2.7928460   0.0000000   0.0000000   0.0000000   0.0000000   0.0000000   0.0000000   0.0000000
 AtZNuc=   1.0000000   1.0000000   1.0000000   6.0000000   6.0000000   6.0000000   6.0000000   6.0000000   8.0000000  16.0000000

  Atom        41          42          43          44          45          46          47          48
 IAtWgt=           1           1           1           1           1           1           1           1
 AtmWgt=   1.0078250   1.0078250   1.0078250   1.0078250   1.0078250   1.0078250   1.0078250   1.0078250
 NucSpn=           1           1           1           1           1           1           1           1
 AtZEff=  -0.0000000  -0.0000000  -0.0000000  -0.0000000  -0.0000000  -0.0000000  -0.0000000  -0.0000000
 NQMom=    0.0000000   0.0000000   0.0000000   0.0000000   0.0000000   0.0000000   0.0000000   0.0000000
 NMagM=    2.7928460   2.7928460   2.7928460   2.7928460   2.7928460   2.7928460   2.7928460   2.7928460
 AtZNuc=   1.0000000   1.0000000   1.0000000   1.0000000   1.0000000   1.0000000   1.0000000   1.0000000
 Background charge distribution read from input stream:
 Leave Link  101 at Sat Aug 13 20:09:15 2022, MaxMem=  2684354560 cpu:               2.0 elap:               0.1
 (Enter /storage/apps/GAUSSIAN/G16_RevA03/g16/l103.exe)

 GradGradGradGradGradGradGradGradGradGradGradGradGradGradGradGradGradGrad
 Berny optimization.
 Initialization pass.
 Trust Radius=3.00D-01 FncErr=1.00D-07 GrdErr=1.00D-07 EigMax=2.50D+02 EigMin=1.00D-04
 Number of steps in this run=      2 maximum allowed number of steps=      2.
 GradGradGradGradGradGradGradGradGradGradGradGradGradGradGradGradGradGrad

 Leave Link  103 at Sat Aug 13 20:09:15 2022, MaxMem=  2684354560 cpu:               0.7 elap:               0.2
 (Enter /storage/apps/GAUSSIAN/G16_RevA03/g16/l202.exe)
 ---------------------------------------------------------------------------------------------------
                            Z-MATRIX (ANGSTROMS AND DEGREES)
   CD    Cent   Atom    N1       Length/X        N2       Alpha/Y        N3        Beta/Z          J
 ---------------------------------------------------------------------------------------------------
      1      1  C        0   3.599966         -3.615744         -0.444298
      2      2  H        0   3.748754         -3.711451         -1.519094
      3      3  H        0   4.334631         -4.238499          0.067207
      4      4  C        0   1.871907         -1.443591          1.235712
      5      5  H        0   1.221153         -2.314881          1.090901
      6      6  O        0   1.479691         -0.683909          2.332057
      7      7  H        0   0.553343         -0.393786          2.190196
      8      8  C        0   3.322191         -1.886646          1.406217
      9      9  H        0   3.411954         -2.772849          2.042172
     10     10  O        0   4.083756         -0.817848          1.914654
     11     11  H        0   3.539775         -0.383426          2.585200
     12     12  C        0   1.964073         -0.661028         -0.085063
     13     13  H        0   2.261940          0.371362          0.122759
     14     14  C        0   3.755725         -2.167139         -0.027954
     15     15  H        0   4.786339         -1.834761         -0.160589
     16     16  O        0   2.919169         -1.337976         -0.856136
     17     17  N        0   0.724149         -0.598461         -0.843001
     18     18  C        0   0.182742         -1.769405         -1.342057
     19     19  H        0   0.778797         -2.654894         -1.180216
     20     20  C        0  -0.961023         -1.774282         -2.033193
     21     21  H        0  -1.332745         -2.705270         -2.435737
     22     22  C        0  -1.745765         -0.553750         -2.193345
     23     23  H        0  -2.363020         -0.510222         -3.090614
     24     24  H        0  -2.608297         -0.596326         -1.356740
     25     25  C        0  -1.014604          0.662359         -1.852418
     26     26  C        0   0.144455          0.579734         -1.155552
     27     27  H        0   0.647647          1.481774         -0.829462
     28     28  C        0  -1.519458          2.015733         -2.169959
     29     29  O        0  -0.838109          3.011536         -2.041967
     30     30  N        0  -2.797946          2.068994         -2.673100
     31     31  H        0  -3.181552          2.996855         -2.760980
     32     32  H        0  -3.446793          1.333395         -2.446919
     33     33  H        0   2.604010         -3.991092         -0.197810
     34     34  C        0   0.200250          2.199484          2.839004
     35     35  C        0  -1.634683          0.898378          1.247943
     36     36  C        0  -2.827005          0.846278          0.452886
     37     37  C        0  -4.795609         -0.420769         -0.426142
     38     38  C        0  -3.339450         -0.337526         -0.028794
     39     39  O        0  -0.949438         -0.078420          1.548097
     40     40  S        0  -1.222368          2.546176          1.795466
     41     41  H        0   0.440505          3.131668          3.345622
     42     42  H        0   1.054637          1.875519          2.249994
     43     43  H        0  -5.399741         -0.526538          0.477764
     44     44  H        0  -5.122989          0.491910         -0.927224
     45     45  H        0  -5.010908         -1.271941         -1.072056
     46     46  H        0  -2.904168         -1.246210          0.386689
     47     47  H        0  -3.334034          1.785945          0.263018
     48     48  H        0  -0.047481          1.437984          3.575457
 ---------------------------------------------------------------------------------------------------
                         Z-Matrix orientation:                         
 ---------------------------------------------------------------------
 Center     Atomic      Atomic             Coordinates (Angstroms)
 Number     Number       Type             X           Y           Z
 ---------------------------------------------------------------------
      1          6           0        3.599966   -3.615744   -0.444298
      2          1           0        3.748754   -3.711451   -1.519094
      3          1           0        4.334631   -4.238499    0.067207
      4          6           0        1.871907   -1.443591    1.235712
      5          1           0        1.221153   -2.314881    1.090901
      6          8           0        1.479691   -0.683909    2.332057
      7          1           0        0.553343   -0.393786    2.190196
      8          6           0        3.322191   -1.886646    1.406217
      9          1           0        3.411954   -2.772849    2.042172
     10          8           0        4.083756   -0.817848    1.914654
     11          1           0        3.539775   -0.383426    2.585200
     12          6           0        1.964073   -0.661028   -0.085063
     13          1           0        2.261940    0.371362    0.122759
     14          6           0        3.755725   -2.167139   -0.027954
     15          1           0        4.786339   -1.834761   -0.160589
     16          8           0        2.919169   -1.337976   -0.856136
     17          7           0        0.724149   -0.598461   -0.843001
     18          6           0        0.182742   -1.769405   -1.342057
     19          1           0        0.778797   -2.654894   -1.180216
     20          6           0       -0.961023   -1.774282   -2.033193
     21          1           0       -1.332745   -2.705270   -2.435737
     22          6           0       -1.745765   -0.553750   -2.193345
     23          1           0       -2.363020   -0.510222   -3.090614
     24          1           0       -2.608297   -0.596326   -1.356740
     25          6           0       -1.014604    0.662359   -1.852418
     26          6           0        0.144455    0.579734   -1.155552
     27          1           0        0.647647    1.481774   -0.829462
     28          6           0       -1.519458    2.015733   -2.169959
     29          8           0       -0.838109    3.011536   -2.041967
     30          7           0       -2.797946    2.068994   -2.673100
     31          1           0       -3.181552    2.996855   -2.760980
     32          1           0       -3.446793    1.333395   -2.446919
     33          1           0        2.604010   -3.991092   -0.197810
     34          6           0        0.200250    2.199484    2.839004
     35          6           0       -1.634683    0.898378    1.247943
     36          6           0       -2.827005    0.846278    0.452886
     37          6           0       -4.795609   -0.420769   -0.426142
     38          6           0       -3.339450   -0.337526   -0.028794
     39          8           0       -0.949438   -0.078420    1.548097
     40         16           0       -1.222368    2.546176    1.795466
     41          1           0        0.440505    3.131668    3.345622
     42          1           0        1.054637    1.875519    2.249994
     43          1           0       -5.399741   -0.526538    0.477764
     44          1           0       -5.122989    0.491910   -0.927224
     45          1           0       -5.010908   -1.271941   -1.072056
     46          1           0       -2.904168   -1.246210    0.386689
     47          1           0       -3.334034    1.785945    0.263018
     48          1           0       -0.047481    1.437984    3.575457
 ---------------------------------------------------------------------
                    Distance matrix (angstroms):
                    1          2          3          4          5
     1  C    0.000000
     2  H    1.089259   0.000000
     3  H    1.090502   1.771266   0.000000
     4  C    3.244514   4.031712   3.904091   0.000000
     5  H    3.115739   3.892460   3.800263   1.097086   0.000000
     6  O    4.560633   5.398706   5.090711   1.390296   2.065764
     7  H    5.157857   5.914084   5.795433   1.936941   2.311931
     8  C    2.547812   3.474092   2.889497   1.526006   2.167296
     9  H    2.632177   3.698246   2.626775   2.188390   2.431925
    10  O    3.691467   4.502865   3.895748   2.396830   3.333793
    11  H    4.430503   5.288161   4.672652   2.393084   3.367411
    12  C    3.396401   3.814002   4.294302   1.537968   2.161030
    13  H    4.243687   4.644961   5.054696   2.164450   3.039151
    14  C    1.515275   2.146729   2.152840   2.380996   2.774476
    15  H    2.158674   2.538520   2.456397   3.255240   3.808844
    16  O    2.412742   2.600213   3.356952   2.341739   2.761984
    17  N    4.187276   4.392726   5.207104   2.520445   2.633076
    18  C    3.986522   4.064397   5.031961   3.099085   2.700949
    19  H    3.069821   3.170457   4.087521   2.915279   2.338645
    20  C    5.168964   5.118488   6.207092   4.338270   3.848909
    21  H    5.396891   5.260634   6.382372   5.034001   4.371724
    22  C    6.404047   6.373024   7.460475   5.063378   4.763450
    23  H    7.225265   7.076109   8.290381   6.125592   5.795529
    24  H    6.963617   7.081134   7.968519   5.245083   4.858916
    25  C    6.448195   6.475407   7.504511   4.722660   4.746124
    26  C    5.481649   5.615817   6.501391   3.577161   3.818982
    27  H    5.903324   6.087860   6.864356   3.784378   4.293168
    28  C    7.803841   7.808862   8.853852   5.921729   6.074403
    29  O    8.134488   8.155444   9.152533   6.159182   6.513535
    30  N    8.844042   8.809345   9.907947   7.030263   7.038410
    31  H    9.751024   9.724854  10.809348   7.824868   7.901604
    32  H    8.840887   8.836698   9.895322   7.040028   6.900421
    33  H    1.092507   1.770432   1.768189   3.013424   2.526411
    34  C    7.493665   8.156228   8.137788   4.317057   4.947484
    35  C    7.116356   7.608443   7.963313   4.216769   4.301801
    36  C    7.875312   8.240279   8.791629   5.285460   5.175671
    37  C    8.982977   9.221132   9.908569   6.947208   6.487720
    38  C    7.686017   7.990432   8.609200   5.475454   5.095365
    39  O    6.097489   6.684279   6.886267   3.149804   3.149961
    40  S    8.138839   8.651951   8.938620   5.079971   5.486081
    41  H    8.359022   9.024314   8.957208   5.237712   5.946266
    42  H    6.625095   7.257997   7.273523   3.565556   4.350940
    43  H    9.559713   9.890706  10.426179   7.368333   6.885517
    44  H    9.653807   9.834957  10.621311   7.573178   7.224890
    45  H    8.946208   9.103995   9.871043   7.261432   6.678674
    46  H    6.972015   7.346482   7.839392   4.854966   4.319288
    47  H    8.818100   9.141289   9.754009   6.203052   6.184811
    48  H    7.416365   8.178174   7.983307   4.178748   4.676157
                    6          7          8          9         10
     6  O    0.000000
     7  H    0.981028   0.000000
     8  C    2.387166   3.241878   0.000000
     9  H    2.860305   3.722030   1.094464   0.000000
    10  O    2.640704   3.566450   1.407416   2.071137   0.000000
    11  H    2.097217   3.012459   1.922762   2.453683   0.966576
    12  C    2.465283   2.690424   2.360199   3.328855   2.918307
    13  H    2.570313   2.789095   2.805351   3.859111   2.818532
    14  C    3.598604   4.280213   1.524295   2.184144   2.387869
    15  H    4.297868   5.051817   2.145065   2.760634   2.415444
    16  O    3.558718   3.970991   2.362564   3.271374   3.050258
    17  N    3.264834   3.044889   3.669908   4.502941   4.351982
    18  C    4.044687   3.808738   4.174074   4.784111   5.170062
    19  H    4.088043   4.064864   3.707923   4.163077   4.886278
    20  C    5.118731   4.694261   5.494369   6.060418   6.476886
    21  H    5.893009   5.504502   6.090910   6.524447   7.199080
    22  C    5.558756   4.952466   6.357487   7.033212   7.136436
    23  H    6.648455   6.033712   7.378188   8.050795   8.167513
    24  H    5.506954   4.755812   6.668549   7.247984   7.452158
    25  C    5.054085   4.462805   5.993657   6.823701   6.509617
    26  C    3.942469   3.508413   4.769035   5.669374   5.186279
    27  H    3.921439   3.555974   4.847443   5.830051   4.962386
    28  C    6.045751   5.395668   7.173504   8.061724   7.490611
    29  O    6.177426   5.607456   7.293165   8.258471   7.385377
    30  N    7.136403   6.399068   8.351287   9.178240   8.760089
    31  H    7.823953   7.068241   9.138533   9.991700   9.444481
    32  H    7.153906   6.362946   8.428195   9.168183   8.964393
    33  H    4.312978   4.780002   2.741784   2.674773   4.089209
    34  C    3.194984   2.696419   5.338151   5.972778   5.004032
    35  C    3.657630   2.710164   5.687883   6.291045   6.007535
    36  C    4.941699   3.997844   6.796346   7.385697   7.257045
    37  C    6.859759   5.954598   8.450149   8.887572   9.191307
    38  C    5.377520   4.481174   6.988311   7.470017   7.688412
    39  O    2.623333   1.664361   4.640757   5.150320   5.100408
    40  S    4.245292   3.457215   6.360381   7.059025   6.283774
    41  H    4.082383   3.711680   6.103186   6.737345   5.560542
    42  H    2.595781   2.324783   4.472991   5.216077   4.067215
    43  H    7.126693   6.195906   8.876036   9.227093   9.596157
    44  H    7.456597   6.536322   9.078741   9.608393   9.723985
    45  H    7.352662   6.509557   8.715517   9.104710   9.583295
    46  H    4.828960   3.991697   6.341699   6.705568   7.165839
    47  H    5.792499   4.855609   7.687663   8.334047   8.033134
    48  H    2.894949   2.373883   5.207058   5.661251   4.991409
                   11         12         13         14         15
    11  H    0.000000
    12  C    3.112909   0.000000
    13  H    2.875097   1.094415   0.000000
    14  C    3.171252   2.341292   2.949253   0.000000
    15  H    3.346588   3.057538   3.364499   1.090978   0.000000
    16  O    3.624791   1.401792   2.076541   1.439869   2.053510
    17  N    4.441458   1.454578   2.058653   3.509345   4.300641
    18  C    5.349201   2.445746   3.324400   3.827697   4.753235
    19  H    5.192391   2.565101   3.613265   3.229197   4.215762
    20  C    6.597061   3.686561   4.431637   5.140334   6.045037
    21  H    7.371718   4.535813   5.378971   5.655045   6.586143
    22  C    7.127442   4.268402   4.720367   6.128485   6.959991
    23  H    8.189868   5.270656   5.700282   7.040192   7.839183
    24  H    7.306368   4.746358   5.181172   6.688341   7.592440
    25  C    6.444260   3.707750   3.836892   5.838730   6.538259
    26  C    5.142869   2.448764   2.482185   4.675260   5.326051
    27  H    4.848019   2.622729   2.178459   4.859746   5.345612
    28  C    7.345974   4.862801   4.717996   7.064854   7.656824
    29  O    7.218193   5.016914   4.611601   7.209593   7.659020
    30  N    8.592485   6.068590   6.025050   8.239674   8.892322
    31  H    9.229527   6.856974   6.696325   9.069844   9.674391
    32  H    8.779626   6.231658   6.333908   8.365488   9.113121
    33  H    4.651457   3.392869   4.387571   2.163817   3.068177
    34  C    4.229452   4.454634   3.869184   6.318880   6.804771
    35  C    5.496025   4.142426   4.089921   6.331019   7.119237
    36  C    6.826040   5.051316   5.121708   7.255634   8.094895
    37  C    8.862742   6.772545   7.123044   8.736915   9.689356
    38  C    7.359267   5.313678   5.648102   7.327277   8.263627
    39  O    4.617537   3.390456   3.542152   5.383794   6.237265
    40  S    5.646614   4.896525   4.434881   7.093773   7.689169
    41  H    4.747589   5.336235   4.617766   7.102750   7.472965
    42  H    3.375071   3.565619   2.871445   5.369172   5.788151
    43  H    9.185680   7.386516   7.722280   9.315035  10.289566
    44  H    9.388654   7.229450   7.460172   9.311863  10.207640
    45  H    9.342332   7.070907   7.551314   8.873860   9.855637
    46  H    6.863108   4.925927   5.419859   6.736038   7.732387
    47  H    7.572843   5.846262   5.773703   8.122575   8.901091
    48  H    4.143253   4.674570   4.288616   6.359706   6.930708
                   16         17         18         19         20
    16  O    0.000000
    17  N    2.316283   0.000000
    18  C    2.812523   1.383217   0.000000
    19  H    2.533869   2.084614   1.079613   0.000000
    20  C    4.078200   2.374640   1.336372   2.128385   0.000000
    21  H    4.737447   3.347576   2.090139   2.457128   1.080258
    22  C    4.915765   2.815298   2.433444   3.437245   1.459852
    23  H    5.794790   3.819707   3.335251   4.256789   2.163696
    24  H    5.599422   3.371814   3.027578   3.967527   2.135107
    25  C    4.524211   2.373152   2.758185   3.830445   2.443925
    26  C    3.386192   1.349769   2.356842   3.296334   2.744763
    27  H    3.620982   2.081685   3.324012   4.153583   3.826054
    28  C    5.716197   3.691693   4.232042   5.298710   3.833376
    29  O    5.868696   4.112207   4.938563   5.955286   4.787404
    30  N    6.898855   4.782231   5.038798   6.110394   4.307498
    31  H    7.722564   5.644417   6.004086   7.079933   5.312643
    32  H    7.084651   4.868406   4.901185   5.946982   4.000985
    33  H    2.751680   3.931933   3.479617   2.466161   4.581740
    34  C    5.793117   4.654044   5.764864   6.328810   6.393565
    35  C    5.492358   3.489507   4.138623   4.934226   4.285182
    36  C    6.285143   4.046886   4.372893   5.284604   4.065687
    37  C    7.781000   5.538328   5.238482   6.052598   4.372489
    38  C    6.391847   4.152572   4.022533   4.863736   3.426193
    39  O    4.725774   2.964572   3.534721   4.131429   3.962540
    40  S    6.266575   4.543036   5.517483   6.317474   5.778693
    41  H    6.616363   5.615949   6.786847   7.354043   7.413790
    42  H    4.842631   3.974471   5.191195   5.689206   5.977426
    43  H    8.464159   6.265111   6.001715   6.741894   5.250142
    44  H    8.248020   5.948531   5.782423   6.693090   4.866288
    45  H    7.933291   5.779007   5.224402   5.953565   4.192577
    46  H    5.955190   3.885409   3.576494   4.243090   3.148095
    47  H    7.079120   4.835030   5.252094   6.222488   4.855819
    48  H    6.012153   4.925981   5.875567   6.328571   6.527646
                   21         22         23         24         25
    21  H    0.000000
    22  C    2.204173   0.000000
    23  H    2.511686   1.089950   0.000000
    24  H    2.690523   1.202365   1.753252   0.000000
    25  C    3.432550   1.459366   2.174006   2.090417   0.000000
    26  C    3.822597   2.436131   3.349612   3.000206   1.354942
    27  H    4.902388   3.425194   4.259692   3.898422   2.116827
    28  C    4.732163   2.579536   2.817739   2.944444   1.478963
    29  O    5.751660   3.682122   3.978416   4.076735   2.363411
    30  N    4.999675   2.866363   2.648742   2.978708   2.415047
    31  H    6.003174   3.871755   3.616385   3.900187   3.312253
    32  H    4.558524   2.553255   2.233345   2.369681   2.592154
    33  H    4.707409   5.892200   6.719833   6.327377   6.122638
    34  C    7.364073   6.057376   7.005229   5.771374   5.084099
    35  C    5.162068   3.736774   4.619275   3.156967   3.170559
    36  C    4.815646   3.183033   3.822534   2.324583   2.938205
    37  C    4.609647   3.527356   3.609003   2.383520   4.183710
    38  C    3.927652   2.696640   3.218382   1.537857   3.119340
    39  O    4.787296   3.854668   4.868501   3.384984   3.480877
    40  S    6.744846   5.078789   5.875069   4.661815   4.110838
    41  H    8.404664   7.003016   7.908745   6.730924   5.935861
    42  H    6.974188   5.786783   6.774528   5.704002   4.752189
    43  H    5.456722   4.526268   4.685644   3.341023   5.106139
    44  H    5.183003   3.755278   3.647184   2.773521   4.214720
    45  H    4.176475   3.526223   3.415568   2.511979   4.507874
    46  H    3.544618   2.911696   3.595296   1.883994   3.496668
    47  H    5.608872   3.745730   4.178768   2.970779   3.334257
    48  H    7.413023   6.334844   7.320774   5.918003   5.567652
                   26         27         28         29         30
    26  C    0.000000
    27  H    1.083150   0.000000
    28  C    2.420686   2.603534   0.000000
    29  O    2.768542   2.453123   1.213360   0.000000
    30  N    3.630230   3.951701   1.374962   2.264437   0.000000
    31  H    4.413864   4.548516   2.018530   2.451310   1.007870
    32  H    3.890077   4.404841   2.063229   3.128158   1.006611
    33  H    5.278175   5.846247   7.548133   8.017849   8.487216
    34  C    4.310821   3.764693   5.299139   5.055838   6.276105
    35  C    3.007267   3.140859   3.597751   3.990423   4.254186
    36  C    3.389350   3.757856   3.155411   3.855949   3.356735
    37  C    5.092865   5.780257   4.439663   5.482099   3.903639
    38  C    3.774724   4.455094   3.665349   4.639589   3.616202
    39  O    2.989897   3.261545   4.305153   4.738015   5.083982
    40  S    3.800475   3.394135   4.011761   3.884599   4.762167
    41  H    5.182719   4.494039   5.958892   5.538538   6.916781
    42  H    3.755693   3.131090   5.116797   4.826381   6.254333
    43  H    5.884698   6.504849   5.341365   6.298849   4.840875
    44  H    5.273122   5.855735   4.105102   5.094248   3.307734
    45  H    5.478452   6.297701   4.919798   6.058148   4.315367
    46  H    3.873846   4.640723   4.369685   5.319339   4.512668
    47  H    3.945526   4.140026   3.043824   3.611741   2.998049
    48  H    4.812056   4.459645   5.959053   5.886987   6.856216
                   31         32         33         34         35
    31  H    0.000000
    32  H    1.713501   0.000000
    33  H    9.427299   8.367847   0.000000
    34  C    6.590312   6.480125   7.302296   0.000000
    35  C    4.782036   4.138235   6.630508   2.755237   0.000000
    36  C    3.883249   3.005044   7.302019   4.085217   1.434037
    37  C    4.442612   2.996654   8.219106   6.518091   3.812370
    38  C    4.313684   2.941229   6.978669   5.214419   2.462468
    39  O    5.745241   4.918349   5.566344   2.859558   1.230361
    40  S    4.980232   4.941329   7.832636   1.798057   1.784663
    41  H    7.101272   7.204055   8.244415   1.087820   3.700574
    42  H    6.656767   6.528228   6.542891   1.087135   3.031724
    43  H    5.274858   3.978332   8.747546   6.660822   4.098686
    44  H    3.661501   2.413960   8.963028   6.740709   4.130962
    45  H    4.941824   3.335338   8.132962   7.382638   4.635901
    46  H    5.290403   3.870160   6.181912   5.246338   2.636780
    47  H    3.260999   2.749777   8.297402   4.392935   2.155376
    48  H    7.238986   6.916305   7.123399   1.087941   2.868398
                   36         37         38         39         40
    36  C    0.000000
    37  C    2.500700   0.000000
    38  C    1.376956   1.511692   0.000000
    39  O    2.362162   4.336802   2.875044   0.000000
    40  S    2.695744   5.148432   4.015682   2.650318   0.000000
    41  H    4.926211   7.366336   6.140851   3.932900   2.347537
    42  H    4.399554   6.830814   5.422033   2.885629   2.416843
    43  H    2.916198   1.092341   2.130053   4.599089   5.350547
    44  H    2.702189   1.091441   2.162441   4.885798   5.181495
    45  H    3.403194   1.089978   2.180665   4.978477   6.095386
    46  H    2.094956   2.218016   1.089864   2.556085   4.381244
    47  H    1.084483   2.735092   2.143435   3.288401   2.717624
    48  H    4.222123   6.481703   5.194239   2.687600   2.403501
                   41         42         43         44         45
    41  H    0.000000
    42  H    1.776364   0.000000
    43  H    7.464285   7.111236   0.000000
    44  H    7.495199   7.083230   1.757219   0.000000
    45  H    8.284054   7.598247   1.763167   1.773333   0.000000
    46  H    6.253634   5.374871   2.598866   3.109758   2.562607
    47  H    5.055745   4.818353   3.108189   2.508299   3.734300
    48  H    1.777504   1.778469   6.488585   6.850546   7.319746
                   46         47         48
    46  H    0.000000
    47  H    3.064970   0.000000
    48  H    5.053098   4.679184   0.000000
 Stoichiometry    C16H24N2O5S
 Framework group  C1[X(C16H24N2O5S)]
 Deg. of freedom   138
 Full point group                 C1      NOp   1
 Largest Abelian subgroup         C1      NOp   1
 Largest concise Abelian subgroup C1      NOp   1
                         Standard orientation:                         
 ---------------------------------------------------------------------
 Center     Atomic      Atomic             Coordinates (Angstroms)
 Number     Number       Type             X           Y           Z
 ---------------------------------------------------------------------
      1          6           0       -4.673821   -1.990874   -0.508324
      2          1           0       -4.625058   -2.928874    0.043275
      3          1           0       -5.699846   -1.835189   -0.843330
      4          6           0       -2.529546    0.437680   -0.684625
      5          1           0       -2.336904   -0.211501   -1.547788
      6          8           0       -2.067743    1.731325   -0.899437
      7          1           0       -1.104716    1.688318   -1.081498
      8          6           0       -4.021513    0.467876   -0.365541
      9          1           0       -4.636557    0.528780   -1.268793
     10          8           0       -4.294200    1.537786    0.507244
     11          1           0       -3.762755    2.286033    0.203991
     12          6           0       -1.978313   -0.236311    0.583139
     13          1           0       -1.804991    0.521768    1.353216
     14          6           0       -4.229663   -0.845768    0.379097
     15          1           0       -4.940748   -0.686784    1.191080
     16          8           0       -2.955682   -1.163764    0.969922
     17          7           0       -0.721780   -0.945281    0.397984
     18          6           0       -0.688185   -2.043275   -0.442593
     19          1           0       -1.642930   -2.334333   -0.854069
     20          6           0        0.440537   -2.724387   -0.661600
     21          1           0        0.417661   -3.597046   -1.297918
     22          6           0        1.711728   -2.267324   -0.108125
     23          1           0        2.449978   -3.048622    0.072294
     24          1           0        2.265529   -1.665899   -0.989756
     25          6           0        1.567383   -1.260601    0.938499
     26          6           0        0.384122   -0.620658    1.100463
     27          1           0        0.295817    0.183899    1.820257
     28          6           0        2.689980   -0.838897    1.804105
     29          8           0        2.531472   -0.133798    2.778760
     30          7           0        3.923122   -1.343084    1.463992
     31          1           0        4.698436   -0.948626    1.973004
     32          1           0        4.099981   -1.608331    0.509198
     33          1           0       -4.035846   -2.074788   -1.391227
     34          6           0        0.256519    3.602148    0.243254
     35          6           0        1.573349    1.406783   -0.775405
     36          6           0        2.743776    0.608937   -0.999019
     37          6           0        4.045181   -0.983958   -2.421176
     38          6           0        2.742859   -0.478933   -1.843143
     39          8           0        0.471146    1.189906   -1.277303
     40         16           0        1.860107    2.791804    0.312948
     41          1           0        0.372158    4.551017    0.762509
     42          1           0       -0.509358    3.009027    0.736714
     43          1           0        4.332778   -0.337747   -3.253587
     44          1           0        4.849999   -0.938513   -1.685345
     45          1           0        3.973811   -2.003397   -2.800256
     46          1           0        1.864227   -0.584387   -2.479294
     47          1           0        3.652190    0.913631   -0.491035
     48          1           0       -0.030281    3.784988   -0.790154
 ---------------------------------------------------------------------
 Rotational constants (GHZ):           0.3351295           0.1649821           0.1404574
 Leave Link  202 at Sat Aug 13 20:09:16 2022, MaxMem=  2684354560 cpu:               0.5 elap:               0.1
 (Enter /storage/apps/GAUSSIAN/G16_RevA03/g16/l301.exe)
 Standard basis: def2TZVP (5D, 7F)
 Ernie: Thresh=  0.10000D-02 Tol=  0.10000D-05 Strict=F.
 There are  1014 symmetry adapted cartesian basis functions of A   symmetry.
 There are   894 symmetry adapted basis functions of A   symmetry.
   894 basis functions,  1434 primitive gaussians,  1014 cartesian basis functions
    95 alpha electrons       95 beta electrons
       nuclear repulsion energy      2501.8857032758 Hartrees.
 IExCor= 4336 DFT=T Ex+Corr=M062X ExCW=0 ScaHFX=  0.540000
 ScaDFX=  1.000000  1.000000  1.000000  1.000000 ScalE2=  1.000000  1.000000
 IRadAn=      5 IRanWt=     -1 IRanGd=            0 ICorTp=0 IEmpDi=131
 NAtoms=   48 NActive=   48 NUniq=   48 SFac= 1.00D+00 NAtFMM=   60 NAOKFM=F Big=F
 Integral buffers will be    131072 words long.
 Raffenetti 2 integral format.
 Two-electron integral symmetry is turned on.
 R6Disp:  Grimme-D3 Dispersion energy=       -0.0042570009 Hartrees.
 Nuclear repulsion after empirical dispersion term =     2501.8814462749 Hartrees.
 Leave Link  301 at Sat Aug 13 20:09:16 2022, MaxMem=  2684354560 cpu:               2.5 elap:               0.2
 (Enter /storage/apps/GAUSSIAN/G16_RevA03/g16/l302.exe)
 NPDir=0 NMtPBC=     1 NCelOv=     1 NCel=       1 NClECP=     1 NCelD=      1
         NCelK=      1 NCelE2=     1 NClLst=     1 CellRange=     0.0.
 One-electron integrals computed using PRISM.
 One-electron integral symmetry used in STVInt
   1 Symmetry operations used in ECPInt.
 ECPInt:  NShTT=   65703 NPrTT=  200010 LenC2=   57004 LenP2D=  121648.
 LDataN:  DoStor=T MaxTD1= 6 Len=  172
 NBasis=   894 RedAO= T EigKep=  2.54D-05  NBF=   894
 NBsUse=   894 1.00D-06 EigRej= -1.00D+00 NBFU=   894
 Precomputing XC quadrature grid using
 IXCGrd= 4 IRadAn=           5 IRanWt=          -1 IRanGd=           0 AccXCQ= 0.00D+00.
 Generated NRdTot=       0 NPtTot=           0 NUsed=           0 NTot=          32
 NSgBfM=   998   997   998   998   998 MxSgAt=    48 MxSgA2=    48.
 Leave Link  302 at Sat Aug 13 20:09:17 2022, MaxMem=  2684354560 cpu:              20.6 elap:               1.4
 (Enter /storage/apps/GAUSSIAN/G16_RevA03/g16/l303.exe)
 DipDrv:  MaxL=1.
 Leave Link  303 at Sat Aug 13 20:09:17 2022, MaxMem=  2684354560 cpu:               2.5 elap:               0.2
 (Enter /storage/apps/GAUSSIAN/G16_RevA03/g16/l401.exe)
 ExpMin= 9.52D-02 ExpMax= 6.07D+04 ExpMxC= 2.07D+03 IAcc=3 IRadAn=         5 AccDes= 0.00D+00
 Harris functional with IExCor= 1009 and IRadAn=       5 diagonalized for initial guess.
 HarFok:  IExCor= 1009 AccDes= 0.00D+00 IRadAn=         5 IDoV= 1 UseB2=F ITyADJ=14
 ICtDFT=  3500011 ScaDFX=  1.000000  1.000000  1.000000  1.000000
 FoFCou: FMM=F IPFlag=           0 FMFlag=      100000 FMFlg1=           0
         NFxFlg=           0 DoJE=T BraDBF=F KetDBF=T FulRan=T
         wScrn=  0.000000 ICntrl=       500 IOpCl=  0 I1Cent=   200000004 NGrid=           0
         NMat0=    1 NMatS0=      1 NMatT0=    0 NMatD0=    1 NMtDS0=    0 NMtDT0=    0
 Petite list used in FoFCou.
 Harris En= -1507.22140922869    
 JPrj=0 DoOrth=F DoCkMO=F.
 Leave Link  401 at Sat Aug 13 20:09:22 2022, MaxMem=  2684354560 cpu:              64.7 elap:               4.1
 (Enter /storage/apps/GAUSSIAN/G16_RevA03/g16/l502.exe)
 Integral symmetry usage will be decided dynamically.
 Closed shell SCF:
 Using DIIS extrapolation, IDIIS=  1040.
 NGot=  2684354560 LenX=  2682272944 LenY=  2681243734
 Requested convergence on RMS density matrix=1.00D-08 within 128 cycles.
 Requested convergence on MAX density matrix=1.00D-06.
 Requested convergence on             energy=1.00D-06.
 No special actions if energy rises.
 Fock matrices will be formed incrementally for  20 cycles.
 Integral accuracy reduced to 1.0D-05 until final iterations.

 Cycle   1  Pass 0  IDiag  1:
 FoFJK:  IHMeth= 1 ICntrl=       0 DoSepK=F KAlg= 0 I1Cent=           0 FoldK=F
 IRaf= 800000000 NMat=       1 IRICut=       1 DoRegI=T DoRafI=F ISym2E= 0 IDoP0=0 IntGTp=1.
 FoFCou: FMM=F IPFlag=           0 FMFlag=      100000 FMFlg1=           0
         NFxFlg=           0 DoJE=F BraDBF=F KetDBF=F FulRan=T
         wScrn=  0.000000 ICntrl=         0 IOpCl=  0 I1Cent=           0 NGrid=           0
         NMat0=    1 NMatS0=      1 NMatT0=    0 NMatD0=    1 NMtDS0=    0 NMtDT0=    0
 Symmetry not used in FoFCou.
 E= -1507.17376696248    
 DIIS: error= 1.50D-02 at cycle   1 NSaved=   1.
 NSaved= 1 IEnMin= 1 EnMin= -1507.17376696248     IErMin= 1 ErrMin= 1.50D-02
 ErrMax= 1.50D-02  0.00D+00 EMaxC= 1.00D-01 BMatC= 9.85D-01 BMatP= 9.85D-01
 IDIUse=3 WtCom= 8.50D-01 WtEn= 1.50D-01
 Coeff-Com:  0.100D+01
 Coeff-En:   0.100D+01
 Coeff:      0.100D+01
 Gap=     0.313 Goal=   None    Shift=    0.000
 GapD=    0.313 DampG=1.000 DampE=0.500 DampFc=0.5000 IDamp=-1.
 Damping current iteration by 5.00D-01
 RMSDP=4.27D-03 MaxDP=1.62D+00              OVMax= 2.69D-01

 Cycle   2  Pass 0  IDiag  1:
 RMSU=  2.13D-03    CP:  1.02D+00
 E= -1507.51164073260     Delta-E=       -0.337873770119 Rises=F Damp=T
 DIIS: error= 3.91D-03 at cycle   2 NSaved=   2.
 NSaved= 2 IEnMin= 2 EnMin= -1507.51164073260     IErMin= 2 ErrMin= 3.91D-03
 ErrMax= 3.91D-03  0.00D+00 EMaxC= 1.00D-01 BMatC= 8.49D-02 BMatP= 9.85D-01
 IDIUse=3 WtCom= 9.61D-01 WtEn= 3.91D-02
 Coeff-Com: -0.192D-01 0.102D+01
 Coeff-En:   0.148D-01 0.985D+00
 Coeff:     -0.178D-01 0.102D+01
 Gap=     0.324 Goal=   None    Shift=    0.000
 RMSDP=1.38D-03 MaxDP=4.68D-01 DE=-3.38D-01 OVMax= 1.64D-01

 Cycle   3  Pass 0  IDiag  1:
 RMSU=  1.16D-03    CP:  1.00D+00  6.53D-01
 E= -1507.86411168953     Delta-E=       -0.352470956933 Rises=F Damp=F
 DIIS: error= 3.42D-03 at cycle   3 NSaved=   3.
 NSaved= 3 IEnMin= 3 EnMin= -1507.86411168953     IErMin= 3 ErrMin= 3.42D-03
 ErrMax= 3.42D-03  0.00D+00 EMaxC= 1.00D-01 BMatC= 4.58D-02 BMatP= 8.49D-02
 IDIUse=3 WtCom= 9.66D-01 WtEn= 3.42D-02
 Coeff-Com: -0.841D-01 0.442D+00 0.642D+00
 Coeff-En:   0.000D+00 0.000D+00 0.100D+01
 Coeff:     -0.812D-01 0.427D+00 0.654D+00
 Gap=     0.209 Goal=   None    Shift=    0.000
 RMSDP=3.79D-04 MaxDP=5.82D-02 DE=-3.52D-01 OVMax= 6.63D-02

 Cycle   4  Pass 0  IDiag  1:
 RMSU=  3.25D-04    CP:  1.00D+00  7.30D-01  9.12D-01
 E= -1507.89454720830     Delta-E=       -0.030435518774 Rises=F Damp=F
 DIIS: error= 1.72D-03 at cycle   4 NSaved=   4.
 NSaved= 4 IEnMin= 4 EnMin= -1507.89454720830     IErMin= 4 ErrMin= 1.72D-03
 ErrMax= 1.72D-03  0.00D+00 EMaxC= 1.00D-01 BMatC= 9.25D-03 BMatP= 4.58D-02
 IDIUse=3 WtCom= 9.83D-01 WtEn= 1.72D-02
 Coeff-Com: -0.368D-01 0.977D-01 0.351D+00 0.588D+00
 Coeff-En:   0.000D+00 0.000D+00 0.137D+00 0.863D+00
 Coeff:     -0.362D-01 0.960D-01 0.347D+00 0.593D+00
 Gap=     0.205 Goal=   None    Shift=    0.000
 RMSDP=1.31D-04 MaxDP=1.79D-02 DE=-3.04D-02 OVMax= 1.64D-02

 Cycle   5  Pass 0  IDiag  1:
 RMSU=  8.44D-05    CP:  1.00D+00  7.16D-01  9.40D-01  7.23D-01
 E= -1507.90174223929     Delta-E=       -0.007195030985 Rises=F Damp=F
 DIIS: error= 2.90D-04 at cycle   5 NSaved=   5.
 NSaved= 5 IEnMin= 5 EnMin= -1507.90174223929     IErMin= 5 ErrMin= 2.90D-04
 ErrMax= 2.90D-04  0.00D+00 EMaxC= 1.00D-01 BMatC= 3.28D-04 BMatP= 9.25D-03
 IDIUse=3 WtCom= 9.97D-01 WtEn= 2.90D-03
 Coeff-Com: -0.101D-01 0.177D-01 0.117D+00 0.252D+00 0.623D+00
 Coeff-En:   0.000D+00 0.000D+00 0.000D+00 0.000D+00 0.100D+01
 Coeff:     -0.100D-01 0.176D-01 0.117D+00 0.252D+00 0.624D+00
 Gap=     0.205 Goal=   None    Shift=    0.000
 RMSDP=4.33D-05 MaxDP=1.23D-02 DE=-7.20D-03 OVMax= 4.86D-03

 Cycle   6  Pass 0  IDiag  1:
 RMSU=  2.99D-05    CP:  1.00D+00  7.03D-01  9.50D-01  7.35D-01  9.48D-01
 E= -1507.90201848515     Delta-E=       -0.000276245860 Rises=F Damp=F
 DIIS: error= 1.22D-04 at cycle   6 NSaved=   6.
 NSaved= 6 IEnMin= 6 EnMin= -1507.90201848515     IErMin= 6 ErrMin= 1.22D-04
 ErrMax= 1.22D-04  0.00D+00 EMaxC= 1.00D-01 BMatC= 4.52D-05 BMatP= 3.28D-04
 IDIUse=3 WtCom= 9.99D-01 WtEn= 1.22D-03
 Coeff-Com:  0.288D-03-0.409D-02 0.112D-01 0.364D-01 0.275D+00 0.681D+00
 Coeff-En:   0.000D+00 0.000D+00 0.000D+00 0.000D+00 0.000D+00 0.100D+01
 Coeff:      0.288D-03-0.409D-02 0.112D-01 0.364D-01 0.275D+00 0.682D+00
 Gap=     0.206 Goal=   None    Shift=    0.000
 RMSDP=2.09D-05 MaxDP=4.16D-03 DE=-2.76D-04 OVMax= 2.92D-03

 Cycle   7  Pass 0  IDiag  1:
 RMSU=  1.73D-05    CP:  1.00D+00  6.99D-01  9.54D-01  7.44D-01  1.02D+00
                    CP:  1.03D+00
 E= -1507.90207254526     Delta-E=       -0.000054060113 Rises=F Damp=F
 DIIS: error= 5.51D-05 at cycle   7 NSaved=   7.
 NSaved= 7 IEnMin= 7 EnMin= -1507.90207254526     IErMin= 7 ErrMin= 5.51D-05
 ErrMax= 5.51D-05  0.00D+00 EMaxC= 1.00D-01 BMatC= 7.77D-06 BMatP= 4.52D-05
 IDIUse=1 WtCom= 1.00D+00 WtEn= 0.00D+00
 Coeff-Com:  0.185D-02-0.491D-02-0.132D-01-0.279D-01 0.708D-02 0.285D+00
 Coeff-Com:  0.752D+00
 Coeff:      0.185D-02-0.491D-02-0.132D-01-0.279D-01 0.708D-02 0.285D+00
 Coeff:      0.752D+00
 Gap=     0.206 Goal=   None    Shift=    0.000
 RMSDP=2.21D-05 MaxDP=6.65D-03 DE=-5.41D-05 OVMax= 1.64D-03

 Cycle   8  Pass 0  IDiag  1:
 RMSU=  1.38D-05    CP:  1.00D+00  6.93D-01  9.54D-01  7.50D-01  1.11D+00
                    CP:  1.27D+00  1.28D+00
 E= -1507.90207991890     Delta-E=       -0.000007373639 Rises=F Damp=F
 DIIS: error= 2.07D-05 at cycle   8 NSaved=   8.
 NSaved= 8 IEnMin= 8 EnMin= -1507.90207991890     IErMin= 8 ErrMin= 2.07D-05
 ErrMax= 2.07D-05  0.00D+00 EMaxC= 1.00D-01 BMatC= 1.96D-06 BMatP= 7.77D-06
 IDIUse=1 WtCom= 1.00D+00 WtEn= 0.00D+00
 Coeff-Com:  0.937D-03-0.175D-02-0.839D-02-0.227D-01-0.464D-01 0.193D-01
 Coeff-Com:  0.383D+00 0.676D+00
 Coeff:      0.937D-03-0.175D-02-0.839D-02-0.227D-01-0.464D-01 0.193D-01
 Coeff:      0.383D+00 0.676D+00
 Gap=     0.206 Goal=   None    Shift=    0.000
 RMSDP=1.95D-05 MaxDP=3.06D-03 DE=-7.37D-06 OVMax= 6.49D-04

 Cycle   9  Pass 0  IDiag  1:
 RMSU=  9.30D-06    CP:  1.00D+00  6.90D-01  9.54D-01  7.51D-01  1.17D+00
                    CP:  1.41D+00  1.79D+00  1.86D+00
 E= -1507.90207153763     Delta-E=        0.000008381269 Rises=F Damp=F
 DIIS: error= 2.61D-05 at cycle   9 NSaved=   9.
 NSaved= 9 IEnMin= 8 EnMin= -1507.90207991890     IErMin= 8 ErrMin= 2.07D-05
 ErrMax= 2.61D-05  0.00D+00 EMaxC= 1.00D-01 BMatC= 5.52D-07 BMatP= 1.96D-06
 IDIUse=1 WtCom= 1.00D+00 WtEn= 0.00D+00
 Coeff-Com:  0.397D-03-0.667D-03-0.355D-02-0.110D-01-0.257D-01-0.924D-02
 Coeff-Com:  0.161D+00 0.378D+00 0.511D+00
 Coeff:      0.397D-03-0.667D-03-0.355D-02-0.110D-01-0.257D-01-0.924D-02
 Coeff:      0.161D+00 0.378D+00 0.511D+00
 Gap=     0.206 Goal=   None    Shift=    0.000
 RMSDP=2.00D-05 MaxDP=2.28D-03 DE= 8.38D-06 OVMax= 2.03D-04

 Cycle  10  Pass 0  IDiag  1:
 RMSU=  5.74D-06    CP:  1.00D+00  6.89D-01  9.54D-01  7.52D-01  1.22D+00
                    CP:  1.51D+00  2.22D+00  2.74D+00  2.22D+00
 E= -1507.90206172749     Delta-E=        0.000009810136 Rises=F Damp=F
 DIIS: error= 3.83D-05 at cycle  10 NSaved=  10.
 NSaved=10 IEnMin= 8 EnMin= -1507.90207991890     IErMin= 8 ErrMin= 2.07D-05
 ErrMax= 3.83D-05  0.00D+00 EMaxC= 1.00D-01 BMatC= 9.34D-07 BMatP= 5.52D-07
 IDIUse=1 WtCom= 1.00D+00 WtEn= 0.00D+00
 Coeff-Com:  0.387D-03-0.547D-03-0.364D-02-0.123D-01-0.328D-01-0.294D-01
 Coeff-Com:  0.159D+00 0.483D+00 0.107D+01-0.635D+00
 Coeff:      0.387D-03-0.547D-03-0.364D-02-0.123D-01-0.328D-01-0.294D-01
 Coeff:      0.159D+00 0.483D+00 0.107D+01-0.635D+00
 Gap=     0.206 Goal=   None    Shift=    0.000
 RMSDP=2.74D-05 MaxDP=3.58D-03 DE= 9.81D-06 OVMax= 6.58D-05

 Problem detected with inexpensive integrals.
 Switching to full accuracy and repeating last cycle.
 Cycle  11  Pass 1  IDiag  1:
 E= -1507.90206596378     Delta-E=       -0.000004236287 Rises=F Damp=F
 DIIS: error= 3.28D-04 at cycle   1 NSaved=   1.
 NSaved= 1 IEnMin= 1 EnMin= -1507.90206596378     IErMin= 1 ErrMin= 3.28D-04
 ErrMax= 3.28D-04  0.00D+00 EMaxC= 1.00D-01 BMatC= 8.90D-05 BMatP= 8.90D-05
 IDIUse=3 WtCom= 9.97D-01 WtEn= 3.28D-03
 Coeff-Com:  0.100D+01
 Coeff-En:   0.100D+01
 Coeff:      0.100D+01
 Gap=     0.206 Goal=   None    Shift=    0.000
 RMSDP=4.41D-04 MaxDP=3.69D-02 DE=-4.24D-06 OVMax= 9.35D-04

 Cycle  12  Pass 1  IDiag  1:
 RMSU=  4.40D-04    CP:  9.94D-01
 E= -1507.90212145795     Delta-E=       -0.000055494173 Rises=F Damp=F
 DIIS: error= 1.03D-05 at cycle   2 NSaved=   2.
 NSaved= 2 IEnMin= 2 EnMin= -1507.90212145795     IErMin= 2 ErrMin= 1.03D-05
 ErrMax= 1.03D-05  0.00D+00 EMaxC= 1.00D-01 BMatC= 6.43D-08 BMatP= 8.90D-05
 IDIUse=1 WtCom= 1.00D+00 WtEn= 0.00D+00
 Coeff-Com: -0.163D-01 0.102D+01
 Coeff:     -0.163D-01 0.102D+01
 Gap=     0.206 Goal=   None    Shift=    0.000
 RMSDP=1.60D-05 MaxDP=1.45D-03 DE=-5.55D-05 OVMax= 7.39D-05

 Cycle  13  Pass 1  IDiag  1:
 RMSU=  5.51D-06    CP:  9.94D-01  1.03D+00
 E= -1507.90212152675     Delta-E=       -0.000000068792 Rises=F Damp=F
 DIIS: error= 2.81D-06 at cycle   3 NSaved=   3.
 NSaved= 3 IEnMin= 3 EnMin= -1507.90212152675     IErMin= 3 ErrMin= 2.81D-06
 ErrMax= 2.81D-06  0.00D+00 EMaxC= 1.00D-01 BMatC= 3.22D-08 BMatP= 6.43D-08
 IDIUse=1 WtCom= 1.00D+00 WtEn= 0.00D+00
 Coeff-Com: -0.785D-02 0.466D+00 0.541D+00
 Coeff:     -0.785D-02 0.466D+00 0.541D+00
 Gap=     0.206 Goal=   None    Shift=    0.000
 RMSDP=5.84D-07 MaxDP=1.59D-04 DE=-6.88D-08 OVMax= 4.71D-05

 Cycle  14  Pass 1  IDiag  1:
 RMSU=  5.09D-07    CP:  9.94D-01  1.03D+00  1.02D+00
 E= -1507.90212154803     Delta-E=       -0.000000021280 Rises=F Damp=F
 DIIS: error= 1.26D-06 at cycle   4 NSaved=   4.
 NSaved= 4 IEnMin= 4 EnMin= -1507.90212154803     IErMin= 4 ErrMin= 1.26D-06
 ErrMax= 1.26D-06  0.00D+00 EMaxC= 1.00D-01 BMatC= 4.95D-09 BMatP= 3.22D-08
 IDIUse=1 WtCom= 1.00D+00 WtEn= 0.00D+00
 Coeff-Com:  0.265D-03-0.272D-01 0.266D+00 0.760D+00
 Coeff:      0.265D-03-0.272D-01 0.266D+00 0.760D+00
 Gap=     0.206 Goal=   None    Shift=    0.000
 RMSDP=3.35D-07 MaxDP=4.98D-05 DE=-2.13D-08 OVMax= 1.67D-05

 Cycle  15  Pass 1  IDiag  1:
 RMSU=  1.44D-07    CP:  9.94D-01  1.04D+00  1.06D+00  9.40D-01
 E= -1507.90212155210     Delta-E=       -0.000000004078 Rises=F Damp=F
 DIIS: error= 2.96D-07 at cycle   5 NSaved=   5.
 NSaved= 5 IEnMin= 5 EnMin= -1507.90212155210     IErMin= 5 ErrMin= 2.96D-07
 ErrMax= 2.96D-07  0.00D+00 EMaxC= 1.00D-01 BMatC= 4.00D-10 BMatP= 4.95D-09
 IDIUse=1 WtCom= 1.00D+00 WtEn= 0.00D+00
 Coeff-Com:  0.537D-03-0.372D-01 0.913D-01 0.354D+00 0.591D+00
 Coeff:      0.537D-03-0.372D-01 0.913D-01 0.354D+00 0.591D+00
 Gap=     0.206 Goal=   None    Shift=    0.000
 RMSDP=4.99D-08 MaxDP=9.24D-06 DE=-4.08D-09 OVMax= 7.84D-06

 Cycle  16  Pass 1  IDiag  1:
 RMSU=  3.60D-08    CP:  9.94D-01  1.04D+00  1.06D+00  9.93D-01  1.09D+00
 E= -1507.90212155251     Delta-E=       -0.000000000402 Rises=F Damp=F
 DIIS: error= 1.65D-07 at cycle   6 NSaved=   6.
 NSaved= 6 IEnMin= 6 EnMin= -1507.90212155251     IErMin= 6 ErrMin= 1.65D-07
 ErrMax= 1.65D-07  0.00D+00 EMaxC= 1.00D-01 BMatC= 4.35D-11 BMatP= 4.00D-10
 IDIUse=1 WtCom= 1.00D+00 WtEn= 0.00D+00
 Coeff-Com:  0.142D-03-0.813D-02-0.196D-01-0.127D-01 0.194D+00 0.846D+00
 Coeff:      0.142D-03-0.813D-02-0.196D-01-0.127D-01 0.194D+00 0.846D+00
 Gap=     0.206 Goal=   None    Shift=    0.000
 RMSDP=2.83D-08 MaxDP=6.34D-06 DE=-4.02D-10 OVMax= 4.96D-06

 Cycle  17  Pass 1  IDiag  1:
 RMSU=  2.03D-08    CP:  9.94D-01  1.04D+00  1.06D+00  1.02D+00  1.17D+00
                    CP:  1.15D+00
 E= -1507.90212155261     Delta-E=       -0.000000000105 Rises=F Damp=F
 DIIS: error= 8.25D-08 at cycle   7 NSaved=   7.
 NSaved= 7 IEnMin= 7 EnMin= -1507.90212155261     IErMin= 7 ErrMin= 8.25D-08
 ErrMax= 8.25D-08  0.00D+00 EMaxC= 1.00D-01 BMatC= 1.85D-11 BMatP= 4.35D-11
 IDIUse=1 WtCom= 1.00D+00 WtEn= 0.00D+00
 Coeff-Com: -0.279D-04 0.291D-02-0.309D-01-0.787D-01-0.120D-01 0.492D+00
 Coeff-Com:  0.627D+00
 Coeff:     -0.279D-04 0.291D-02-0.309D-01-0.787D-01-0.120D-01 0.492D+00
 Coeff:      0.627D+00
 Gap=     0.206 Goal=   None    Shift=    0.000
 RMSDP=1.22D-08 MaxDP=1.54D-06 DE=-1.05D-10 OVMax= 3.08D-06

 Cycle  18  Pass 1  IDiag  1:
 RMSU=  8.24D-09    CP:  9.94D-01  1.04D+00  1.06D+00  1.03D+00  1.19D+00
                    CP:  1.32D+00  9.88D-01
 E= -1507.90212155264     Delta-E=       -0.000000000025 Rises=F Damp=F
 DIIS: error= 2.47D-08 at cycle   8 NSaved=   8.
 NSaved= 8 IEnMin= 8 EnMin= -1507.90212155264     IErMin= 8 ErrMin= 2.47D-08
 ErrMax= 2.47D-08  0.00D+00 EMaxC= 1.00D-01 BMatC= 1.73D-12 BMatP= 1.85D-11
 IDIUse=1 WtCom= 1.00D+00 WtEn= 0.00D+00
 Coeff-Com: -0.307D-04 0.235D-02-0.114D-01-0.335D-01-0.311D-01 0.982D-01
 Coeff-Com:  0.287D+00 0.688D+00
 Coeff:     -0.307D-04 0.235D-02-0.114D-01-0.335D-01-0.311D-01 0.982D-01
 Coeff:      0.287D+00 0.688D+00
 Gap=     0.206 Goal=   None    Shift=    0.000
 RMSDP=4.21D-09 MaxDP=1.08D-06 DE=-2.46D-11 OVMax= 7.67D-07

 Cycle  19  Pass 1  IDiag  1:
 RMSU=  2.70D-09    CP:  9.94D-01  1.04D+00  1.06D+00  1.03D+00  1.18D+00
                    CP:  1.34D+00  1.07D+00  1.14D+00
 E= -1507.90212155264     Delta-E=        0.000000000001 Rises=F Damp=F
 DIIS: error= 7.61D-09 at cycle   9 NSaved=   9.
 NSaved= 9 IEnMin= 8 EnMin= -1507.90212155264     IErMin= 9 ErrMin= 7.61D-09
 ErrMax= 7.61D-09  0.00D+00 EMaxC= 1.00D-01 BMatC= 1.70D-13 BMatP= 1.73D-12
 IDIUse=1 WtCom= 1.00D+00 WtEn= 0.00D+00
 Coeff-Com: -0.817D-05 0.487D-03 0.534D-03-0.325D-03-0.924D-02-0.448D-01
 Coeff-Com:  0.181D-01 0.243D+00 0.792D+00
 Coeff:     -0.817D-05 0.487D-03 0.534D-03-0.325D-03-0.924D-02-0.448D-01
 Coeff:      0.181D-01 0.243D+00 0.792D+00
 Gap=     0.206 Goal=   None    Shift=    0.000
 RMSDP=1.97D-09 MaxDP=1.39D-07 DE= 1.36D-12 OVMax= 3.19D-07

 SCF Done:  E(RM062X) =  -1507.90212155     A.U. after   19 cycles
            NFock= 19  Conv=0.20D-08     -V/T= 2.0037
 KE= 1.502380710915D+03 PE=-8.541747532226D+03 EE= 3.029583253483D+03
 Leave Link  502 at Sat Aug 13 20:18:55 2022, MaxMem=  2684354560 cpu:            9160.3 elap:             573.5
 (Enter /storage/apps/GAUSSIAN/G16_RevA03/g16/l601.exe)
 Copying SCF densities to generalized density rwf, IOpCl= 0 IROHF=0.

 **********************************************************************

            Population analysis using the SCF density.

 **********************************************************************

 Orbital symmetries:
       Occupied  (A) (A) (A) (A) (A) (A) (A) (A) (A) (A) (A) (A)
                 (A) (A) (A) (A) (A) (A) (A) (A) (A) (A) (A) (A)
                 (A) (A) (A) (A) (A) (A) (A) (A) (A) (A) (A) (A)
                 (A) (A) (A) (A) (A) (A) (A) (A) (A) (A) (A) (A)
                 (A) (A) (A) (A) (A) (A) (A) (A) (A) (A) (A) (A)
                 (A) (A) (A) (A) (A) (A) (A) (A) (A) (A) (A) (A)
                 (A) (A) (A) (A) (A) (A) (A) (A) (A) (A) (A) (A)
                 (A) (A) (A) (A) (A) (A) (A) (A) (A) (A) (A)
       Virtual   (A) (A) (A) (A) (A) (A) (A) (A) (A) (A) (A) (A)
                 (A) (A) (A) (A) (A) (A) (A) (A) (A) (A) (A) (A)
                 (A) (A) (A) (A) (A) (A) (A) (A) (A) (A) (A) (A)
                 (A) (A) (A) (A) (A) (A) (A) (A) (A) (A) (A) (A)
                 (A) (A) (A) (A) (A) (A) (A) (A) (A) (A) (A) (A)
                 (A) (A) (A) (A) (A) (A) (A) (A) (A) (A) (A) (A)
                 (A) (A) (A) (A) (A) (A) (A) (A) (A) (A) (A) (A)
                 (A) (A) (A) (A) (A) (A) (A) (A) (A) (A) (A) (A)
                 (A) (A) (A) (A) (A) (A) (A) (A) (A) (A) (A) (A)
                 (A) (A) (A) (A) (A) (A) (A) (A) (A) (A) (A) (A)
                 (A) (A) (A) (A) (A) (A) (A) (A) (A) (A) (A) (A)
                 (A) (A) (A) (A) (A) (A) (A) (A) (A) (A) (A) (A)
                 (A) (A) (A) (A) (A) (A) (A) (A) (A) (A) (A) (A)
                 (A) (A) (A) (A) (A) (A) (A) (A) (A) (A) (A) (A)
                 (A) (A) (A) (A) (A) (A) (A) (A) (A) (A) (A) (A)
                 (A) (A) (A) (A) (A) (A) (A) (A) (A) (A) (A) (A)
                 (A) (A) (A) (A) (A) (A) (A) (A) (A) (A) (A) (A)
                 (A) (A) (A) (A) (A) (A) (A) (A) (A) (A) (A) (A)
                 (A) (A) (A) (A) (A) (A) (A) (A) (A) (A) (A) (A)
                 (A) (A) (A) (A) (A) (A) (A) (A) (A) (A) (A) (A)
                 (A) (A) (A) (A) (A) (A) (A) (A) (A) (A) (A) (A)
                 (A) (A) (A) (A) (A) (A) (A) (A) (A) (A) (A) (A)
                 (A) (A) (A) (A) (A) (A) (A) (A) (A) (A) (A) (A)
                 (A) (A) (A) (A) (A) (A) (A) (A) (A) (A) (A) (A)
                 (A) (A) (A) (A) (A) (A) (A) (A) (A) (A) (A) (A)
                 (A) (A) (A) (A) (A) (A) (A) (A) (A) (A) (A) (A)
                 (A) (A) (A) (A) (A) (A) (A) (A) (A) (A) (A) (A)
                 (A) (A) (A) (A) (A) (A) (A) (A) (A) (A) (A) (A)
                 (A) (A) (A) (A) (A) (A) (A) (A) (A) (A) (A) (A)
                 (A) (A) (A) (A) (A) (A) (A) (A) (A) (A) (A) (A)
                 (A) (A) (A) (A) (A) (A) (A) (A) (A) (A) (A) (A)
                 (A) (A) (A) (A) (A) (A) (A) (A) (A) (A) (A) (A)
                 (A) (A) (A) (A) (A) (A) (A) (A) (A) (A) (A) (A)
                 (A) (A) (A) (A) (A) (A) (A) (A) (A) (A) (A) (A)
                 (A) (A) (A) (A) (A) (A) (A) (A) (A) (A) (A) (A)
                 (A) (A) (A) (A) (A) (A) (A) (A) (A) (A) (A) (A)
                 (A) (A) (A) (A) (A) (A) (A) (A) (A) (A) (A) (A)
                 (A) (A) (A) (A) (A) (A) (A) (A) (A) (A) (A) (A)
                 (A) (A) (A) (A) (A) (A) (A) (A) (A) (A) (A) (A)
                 (A) (A) (A) (A) (A) (A) (A) (A) (A) (A) (A) (A)
                 (A) (A) (A) (A) (A) (A) (A) (A) (A) (A) (A) (A)
                 (A) (A) (A) (A) (A) (A) (A) (A) (A) (A) (A) (A)
                 (A) (A) (A) (A) (A) (A) (A) (A) (A) (A) (A) (A)
                 (A) (A) (A) (A) (A) (A) (A) (A) (A) (A) (A) (A)
                 (A) (A) (A) (A) (A) (A) (A) (A) (A) (A) (A) (A)
                 (A) (A) (A) (A) (A) (A) (A) (A) (A) (A) (A) (A)
                 (A) (A) (A) (A) (A) (A) (A) (A) (A) (A) (A) (A)
                 (A) (A) (A) (A) (A) (A) (A) (A) (A) (A) (A) (A)
                 (A) (A) (A) (A) (A) (A) (A) (A) (A) (A) (A) (A)
                 (A) (A) (A) (A) (A) (A) (A) (A) (A) (A) (A) (A)
                 (A) (A) (A) (A) (A) (A) (A) (A) (A) (A) (A) (A)
                 (A) (A) (A) (A) (A) (A) (A) (A) (A) (A) (A) (A)
                 (A) (A) (A) (A) (A) (A) (A) (A) (A) (A) (A) (A)
                 (A) (A) (A) (A) (A) (A) (A) (A) (A) (A) (A) (A)
                 (A) (A) (A) (A) (A) (A) (A) (A) (A) (A) (A) (A)
                 (A) (A) (A) (A) (A) (A) (A) (A) (A) (A) (A) (A)
                 (A) (A) (A) (A) (A) (A) (A) (A) (A) (A) (A) (A)
                 (A) (A) (A) (A) (A) (A) (A) (A) (A) (A) (A) (A)
                 (A) (A) (A) (A) (A) (A) (A) (A) (A) (A) (A) (A)
                 (A) (A) (A) (A) (A) (A) (A) (A) (A) (A) (A) (A)
                 (A) (A) (A) (A) (A) (A) (A) (A) (A) (A) (A) (A)
                 (A) (A) (A) (A) (A) (A) (A) (A) (A) (A) (A) (A)
                 (A) (A) (A) (A) (A) (A) (A) (A) (A) (A) (A) (A)
                 (A) (A) (A) (A) (A) (A) (A) (A) (A) (A) (A) (A)
                 (A) (A) (A) (A) (A) (A) (A) (A) (A) (A) (A) (A)
                 (A) (A) (A) (A) (A) (A) (A) (A) (A) (A) (A) (A)
                 (A) (A) (A) (A) (A) (A) (A)
 The electronic state is 1-A.
 Alpha  occ. eigenvalues --  -89.90949 -19.64096 -19.62413 -19.62293 -19.62267
 Alpha  occ. eigenvalues --  -19.58473 -14.81051 -14.76502 -10.65007 -10.64099
 Alpha  occ. eigenvalues --  -10.63690 -10.59785 -10.59696 -10.59580 -10.59314
 Alpha  occ. eigenvalues --  -10.58719 -10.57728 -10.56383 -10.56340 -10.55551
 Alpha  occ. eigenvalues --  -10.55069 -10.54580 -10.54301 -10.53699  -8.26852
 Alpha  occ. eigenvalues --   -6.18799  -6.18570  -6.18347  -1.19950  -1.17420
 Alpha  occ. eigenvalues --   -1.16093  -1.15835  -1.13778  -1.10131  -1.01341
 Alpha  occ. eigenvalues --   -0.94093  -0.91900  -0.89248  -0.88989  -0.88833
 Alpha  occ. eigenvalues --   -0.86145  -0.82694  -0.79520  -0.76579  -0.75803
 Alpha  occ. eigenvalues --   -0.74292  -0.71359  -0.68189  -0.68064  -0.67055
 Alpha  occ. eigenvalues --   -0.64203  -0.63627  -0.62094  -0.60455  -0.59067
 Alpha  occ. eigenvalues --   -0.58979  -0.57774  -0.56582  -0.56117  -0.55668
 Alpha  occ. eigenvalues --   -0.55004  -0.53592  -0.53319  -0.51968  -0.51185
 Alpha  occ. eigenvalues --   -0.51098  -0.50331  -0.50024  -0.49868  -0.49817
 Alpha  occ. eigenvalues --   -0.48388  -0.47876  -0.47614  -0.47261  -0.46671
 Alpha  occ. eigenvalues --   -0.45703  -0.45093  -0.44603  -0.44513  -0.44294
 Alpha  occ. eigenvalues --   -0.43953  -0.43206  -0.43047  -0.40895  -0.38040
 Alpha  occ. eigenvalues --   -0.36432  -0.35907  -0.34751  -0.34355  -0.33991
 Alpha  occ. eigenvalues --   -0.33227  -0.32949  -0.31793  -0.29976  -0.24623
 Alpha virt. eigenvalues --   -0.03979  -0.00673   0.04179   0.04852   0.05405
 Alpha virt. eigenvalues --    0.06153   0.07017   0.07482   0.08538   0.08877
 Alpha virt. eigenvalues --    0.09527   0.09695   0.10430   0.10842   0.11092
 Alpha virt. eigenvalues --    0.11854   0.12429   0.12745   0.12882   0.13116
 Alpha virt. eigenvalues --    0.13386   0.13497   0.13969   0.14097   0.14448
 Alpha virt. eigenvalues --    0.14972   0.15502   0.16113   0.17095   0.17279
 Alpha virt. eigenvalues --    0.18041   0.18339   0.18747   0.19397   0.19783
 Alpha virt. eigenvalues --    0.20179   0.20531   0.21798   0.22363   0.22719
 Alpha virt. eigenvalues --    0.23105   0.23472   0.23571   0.24173   0.24732
 Alpha virt. eigenvalues --    0.25040   0.25456   0.26150   0.26361   0.27008
 Alpha virt. eigenvalues --    0.27335   0.27740   0.28096   0.28596   0.28999
 Alpha virt. eigenvalues --    0.29381   0.30000   0.30380   0.30845   0.31205
 Alpha virt. eigenvalues --    0.31739   0.32728   0.33045   0.33502   0.33907
 Alpha virt. eigenvalues --    0.34391   0.35043   0.35116   0.35823   0.36092
 Alpha virt. eigenvalues --    0.36484   0.37682   0.38007   0.38297   0.38672
 Alpha virt. eigenvalues --    0.38957   0.39496   0.39817   0.39932   0.40401
 Alpha virt. eigenvalues --    0.40939   0.41345   0.41569   0.42217   0.42399
 Alpha virt. eigenvalues --    0.42764   0.42968   0.43181   0.43880   0.44081
 Alpha virt. eigenvalues --    0.44565   0.44847   0.45320   0.45676   0.45869
 Alpha virt. eigenvalues --    0.45973   0.46506   0.46867   0.46944   0.47652
 Alpha virt. eigenvalues --    0.48119   0.48282   0.48506   0.49037   0.49186
 Alpha virt. eigenvalues --    0.49943   0.50135   0.50222   0.51197   0.51297
 Alpha virt. eigenvalues --    0.51693   0.52041   0.52109   0.52602   0.52928
 Alpha virt. eigenvalues --    0.53352   0.53845   0.54141   0.54888   0.55040
 Alpha virt. eigenvalues --    0.55576   0.56016   0.56370   0.57213   0.57514
 Alpha virt. eigenvalues --    0.57939   0.58326   0.58911   0.59424   0.60309
 Alpha virt. eigenvalues --    0.60568   0.61255   0.61795   0.62259   0.62798
 Alpha virt. eigenvalues --    0.63150   0.64029   0.64419   0.65275   0.65311
 Alpha virt. eigenvalues --    0.66347   0.66842   0.67129   0.67801   0.68273
 Alpha virt. eigenvalues --    0.68557   0.69231   0.70129   0.70724   0.71545
 Alpha virt. eigenvalues --    0.72371   0.72808   0.73163   0.73814   0.74244
 Alpha virt. eigenvalues --    0.74780   0.75666   0.76211   0.76422   0.76918
 Alpha virt. eigenvalues --    0.78294   0.78953   0.80438   0.80675   0.81446
 Alpha virt. eigenvalues --    0.81501   0.82330   0.83670   0.83944   0.84517
 Alpha virt. eigenvalues --    0.85790   0.86077   0.86690   0.87061   0.87568
 Alpha virt. eigenvalues --    0.88788   0.89314   0.89778   0.90067   0.90673
 Alpha virt. eigenvalues --    0.91047   0.91087   0.92116   0.92732   0.93507
 Alpha virt. eigenvalues --    0.93764   0.94303   0.95222   0.95769   0.97119
 Alpha virt. eigenvalues --    0.97604   0.98255   0.98651   0.98961   0.99722
 Alpha virt. eigenvalues --    1.00754   1.00845   1.01402   1.02193   1.03215
 Alpha virt. eigenvalues --    1.03365   1.04369   1.05422   1.05630   1.05896
 Alpha virt. eigenvalues --    1.07639   1.07813   1.08088   1.08917   1.09420
 Alpha virt. eigenvalues --    1.10766   1.11621   1.12302   1.12953   1.13575
 Alpha virt. eigenvalues --    1.14799   1.15323   1.16044   1.16978   1.17696
 Alpha virt. eigenvalues --    1.18193   1.18965   1.19078   1.19602   1.21131
 Alpha virt. eigenvalues --    1.21654   1.21983   1.22646   1.23722   1.24122
 Alpha virt. eigenvalues --    1.25040   1.25680   1.26148   1.27990   1.28816
 Alpha virt. eigenvalues --    1.30018   1.30581   1.30918   1.31176   1.32433
 Alpha virt. eigenvalues --    1.32714   1.33168   1.34214   1.34848   1.35402
 Alpha virt. eigenvalues --    1.36416   1.37123   1.39684   1.39848   1.40844
 Alpha virt. eigenvalues --    1.41515   1.42381   1.43260   1.43310   1.45015
 Alpha virt. eigenvalues --    1.45498   1.46421   1.48038   1.48624   1.49760
 Alpha virt. eigenvalues --    1.50601   1.51596   1.52087   1.52678   1.53401
 Alpha virt. eigenvalues --    1.53626   1.54462   1.55203   1.55472   1.55886
 Alpha virt. eigenvalues --    1.56302   1.57078   1.57702   1.58138   1.58483
 Alpha virt. eigenvalues --    1.58875   1.59604   1.59714   1.60466   1.60947
 Alpha virt. eigenvalues --    1.61258   1.61405   1.61747   1.62635   1.62799
 Alpha virt. eigenvalues --    1.64022   1.64299   1.64685   1.65297   1.65748
 Alpha virt. eigenvalues --    1.65970   1.66612   1.67356   1.68443   1.68858
 Alpha virt. eigenvalues --    1.69270   1.69467   1.69781   1.70071   1.71794
 Alpha virt. eigenvalues --    1.72790   1.72960   1.73691   1.74059   1.74576
 Alpha virt. eigenvalues --    1.75142   1.76714   1.77022   1.77631   1.78009
 Alpha virt. eigenvalues --    1.78226   1.79911   1.80049   1.80672   1.81580
 Alpha virt. eigenvalues --    1.83284   1.83989   1.84661   1.84727   1.85295
 Alpha virt. eigenvalues --    1.85855   1.86726   1.87293   1.87602   1.88462
 Alpha virt. eigenvalues --    1.88764   1.90273   1.90724   1.91800   1.93111
 Alpha virt. eigenvalues --    1.93309   1.94239   1.94618   1.94857   1.95630
 Alpha virt. eigenvalues --    1.96338   1.97257   1.98308   1.98719   1.99107
 Alpha virt. eigenvalues --    1.99460   2.00462   2.00786   2.01693   2.02599
 Alpha virt. eigenvalues --    2.03408   2.03737   2.05124   2.05387   2.05707
 Alpha virt. eigenvalues --    2.06471   2.07442   2.07634   2.09241   2.09807
 Alpha virt. eigenvalues --    2.10290   2.11707   2.12525   2.13078   2.13805
 Alpha virt. eigenvalues --    2.14984   2.15711   2.17222   2.17609   2.18051
 Alpha virt. eigenvalues --    2.18758   2.19839   2.20388   2.20691   2.21241
 Alpha virt. eigenvalues --    2.21731   2.22502   2.22543   2.22721   2.23087
 Alpha virt. eigenvalues --    2.23750   2.25004   2.26721   2.26909   2.27464
 Alpha virt. eigenvalues --    2.28650   2.29710   2.30407   2.30869   2.31472
 Alpha virt. eigenvalues --    2.31826   2.33213   2.33502   2.34032   2.34319
 Alpha virt. eigenvalues --    2.34657   2.35792   2.36275   2.36990   2.37189
 Alpha virt. eigenvalues --    2.37975   2.38268   2.39092   2.40210   2.40869
 Alpha virt. eigenvalues --    2.41499   2.41989   2.42404   2.43852   2.44383
 Alpha virt. eigenvalues --    2.45110   2.45607   2.46294   2.48048   2.48555
 Alpha virt. eigenvalues --    2.49134   2.49496   2.50497   2.50972   2.51764
 Alpha virt. eigenvalues --    2.53851   2.55548   2.55963   2.56288   2.56891
 Alpha virt. eigenvalues --    2.57795   2.58219   2.58579   2.59207   2.59621
 Alpha virt. eigenvalues --    2.60372   2.60935   2.61791   2.62056   2.62500
 Alpha virt. eigenvalues --    2.63170   2.63707   2.63955   2.65136   2.65231
 Alpha virt. eigenvalues --    2.65540   2.65976   2.66706   2.68661   2.68942
 Alpha virt. eigenvalues --    2.69186   2.70147   2.70891   2.71506   2.71662
 Alpha virt. eigenvalues --    2.72068   2.73622   2.73840   2.74590   2.75111
 Alpha virt. eigenvalues --    2.75793   2.76831   2.77423   2.78512   2.79565
 Alpha virt. eigenvalues --    2.80438   2.81765   2.81997   2.82361   2.82545
 Alpha virt. eigenvalues --    2.83460   2.84184   2.85216   2.85976   2.86693
 Alpha virt. eigenvalues --    2.87276   2.87626   2.88226   2.88985   2.89533
 Alpha virt. eigenvalues --    2.90564   2.91135   2.91333   2.91876   2.93747
 Alpha virt. eigenvalues --    2.94434   2.94783   2.95730   2.96207   2.97653
 Alpha virt. eigenvalues --    2.98493   2.99241   3.00569   3.01055   3.01702
 Alpha virt. eigenvalues --    3.01807   3.02277   3.03490   3.04581   3.05231
 Alpha virt. eigenvalues --    3.05840   3.06367   3.07035   3.07278   3.07796
 Alpha virt. eigenvalues --    3.08369   3.09018   3.09576   3.10038   3.10877
 Alpha virt. eigenvalues --    3.11676   3.11995   3.12105   3.12474   3.13274
 Alpha virt. eigenvalues --    3.13803   3.14560   3.15817   3.16572   3.16772
 Alpha virt. eigenvalues --    3.17475   3.17674   3.18304   3.18537   3.19035
 Alpha virt. eigenvalues --    3.19429   3.20191   3.20752   3.21622   3.22867
 Alpha virt. eigenvalues --    3.23646   3.23810   3.24490   3.24898   3.25936
 Alpha virt. eigenvalues --    3.26627   3.27263   3.28088   3.29053   3.29575
 Alpha virt. eigenvalues --    3.30250   3.30336   3.30694   3.31726   3.32530
 Alpha virt. eigenvalues --    3.33013   3.33441   3.34009   3.34780   3.35276
 Alpha virt. eigenvalues --    3.35845   3.36153   3.36862   3.37861   3.38075
 Alpha virt. eigenvalues --    3.38225   3.39466   3.39770   3.40757   3.41023
 Alpha virt. eigenvalues --    3.41976   3.42288   3.43050   3.43771   3.44206
 Alpha virt. eigenvalues --    3.45077   3.45391   3.45894   3.45935   3.46711
 Alpha virt. eigenvalues --    3.47350   3.48431   3.49360   3.49560   3.50569
 Alpha virt. eigenvalues --    3.51443   3.52340   3.52958   3.54300   3.54589
 Alpha virt. eigenvalues --    3.54693   3.56085   3.57155   3.57541   3.57783
 Alpha virt. eigenvalues --    3.58198   3.59077   3.59944   3.60118   3.60915
 Alpha virt. eigenvalues --    3.61699   3.62809   3.63905   3.65023   3.65434
 Alpha virt. eigenvalues --    3.65979   3.66503   3.66887   3.67901   3.69585
 Alpha virt. eigenvalues --    3.71001   3.72159   3.72776   3.74324   3.76012
 Alpha virt. eigenvalues --    3.77012   3.77913   3.78750   3.79680   3.80842
 Alpha virt. eigenvalues --    3.81187   3.81648   3.82433   3.83937   3.84866
 Alpha virt. eigenvalues --    3.86723   3.87810   3.88717   3.89276   3.90990
 Alpha virt. eigenvalues --    3.91742   3.93087   3.93638   3.94888   3.96671
 Alpha virt. eigenvalues --    3.96844   3.97885   3.98307   4.00121   4.00197
 Alpha virt. eigenvalues --    4.00790   4.01800   4.03174   4.05877   4.07343
 Alpha virt. eigenvalues --    4.08284   4.10207   4.11680   4.13774   4.14335
 Alpha virt. eigenvalues --    4.15322   4.16449   4.17401   4.18716   4.19805
 Alpha virt. eigenvalues --    4.20658   4.21939   4.22774   4.24869   4.25950
 Alpha virt. eigenvalues --    4.26369   4.28322   4.28904   4.29650   4.30748
 Alpha virt. eigenvalues --    4.31591   4.35499   4.36432   4.37606   4.38029
 Alpha virt. eigenvalues --    4.40488   4.41149   4.42427   4.42594   4.43102
 Alpha virt. eigenvalues --    4.45485   4.47923   4.49590   4.49733   4.51150
 Alpha virt. eigenvalues --    4.52102   4.52994   4.56097   4.58680   4.60128
 Alpha virt. eigenvalues --    4.62220   4.63549   4.65557   4.68213   4.69718
 Alpha virt. eigenvalues --    4.71915   4.73508   4.74138   4.75445   4.76121
 Alpha virt. eigenvalues --    4.78167   4.81037   4.82032   4.83962   4.85375
 Alpha virt. eigenvalues --    4.87614   4.88946   4.89143   4.89668   4.92521
 Alpha virt. eigenvalues --    4.93164   4.93643   4.95874   4.97959   4.98850
 Alpha virt. eigenvalues --    5.00643   5.02970   5.04916   5.06352   5.08469
 Alpha virt. eigenvalues --    5.11568   5.15183   5.16400   5.20759   5.22675
 Alpha virt. eigenvalues --    5.23852   5.24397   5.25393   5.26411   5.28121
 Alpha virt. eigenvalues --    5.28820   5.31357   5.31834   5.36041   5.38965
 Alpha virt. eigenvalues --    5.40466   5.43007   5.44764   5.47639   5.48855
 Alpha virt. eigenvalues --    5.49419   5.50849   5.53175   5.54467   5.56936
 Alpha virt. eigenvalues --    5.64197   5.68733   5.75643   5.76356   5.79566
 Alpha virt. eigenvalues --    5.80282   5.82341   5.83817   5.84587   5.88621
 Alpha virt. eigenvalues --    5.89838   5.91679   5.94074   5.95591   5.97658
 Alpha virt. eigenvalues --    5.98823   6.04672   6.06790   6.16814   6.18563
 Alpha virt. eigenvalues --    6.21847   6.25228   6.28042   6.28435   6.39190
 Alpha virt. eigenvalues --    6.40725   6.43473   6.47068   6.48909   6.54834
 Alpha virt. eigenvalues --    6.61731   6.63381   6.73232   6.76181   6.77229
 Alpha virt. eigenvalues --    6.78602   6.82304   6.85516   6.85993   6.86194
 Alpha virt. eigenvalues --    6.86890   6.97389   7.00556   7.05718   7.09178
 Alpha virt. eigenvalues --    7.11133   7.14542   7.17400   7.19184   7.22072
 Alpha virt. eigenvalues --    7.33303   7.38033   9.02918   9.40010   9.56235
 Alpha virt. eigenvalues --   19.88570  22.33925  22.46697  22.50954  22.57272
 Alpha virt. eigenvalues --   22.66015  22.68705  22.75945  22.77929  22.86310
 Alpha virt. eigenvalues --   22.91158  22.94327  23.00064  23.09386  23.13463
 Alpha virt. eigenvalues --   23.29840  23.52652  32.20559  33.22762  44.16589
 Alpha virt. eigenvalues --   44.20742  44.26397  44.32073  44.53762
          Condensed to atoms (all electrons):
               1          2          3          4          5          6
     1  C    5.155312   0.427441   0.411192   0.010093  -0.007667  -0.000252
     2  H    0.427441   0.497072  -0.014853  -0.002384   0.000437  -0.000005
     3  H    0.411192  -0.014853   0.515087  -0.000634   0.000306  -0.000010
     4  C    0.010093  -0.002384  -0.000634   5.609859   0.539577   0.193170
     5  H   -0.007667   0.000437   0.000306   0.539577   0.522260  -0.036588
     6  O   -0.000252  -0.000005  -0.000010   0.193170  -0.036588   8.158274
     7  H    0.000016  -0.000003  -0.000002  -0.057326  -0.008149   0.322385
     8  C   -0.009350   0.011064  -0.001247  -0.017232  -0.101371  -0.054062
     9  H    0.005361  -0.000338  -0.001751  -0.073094   0.002332   0.001098
    10  O    0.005389  -0.000189  -0.000024   0.056265   0.005746  -0.021783
[...]
 (Enter /storage/apps/GAUSSIAN/G16_RevA03/g16/l716.exe)
 Dipole        = 6.50281898D-01-8.64886951D-01-1.83594939D+00
 ***** Axes restored to original set *****
 -------------------------------------------------------------------
 Center     Atomic                   Forces (Hartrees/Bohr)
 Number     Number              X              Y              Z
 -------------------------------------------------------------------
      1        6           0.000116638   -0.000074180    0.000132629
      2        1          -0.000031582    0.000034449   -0.000001189
      3        1           0.000001360   -0.000038743    0.000003078
      4        6           0.001596170   -0.000848644   -0.001586873
      5        1           0.000029331   -0.000014580    0.000068967
      6        8           0.001214321    0.000246146    0.001281744
      7        1           0.000427437   -0.000330597    0.000251895
      8        6          -0.000019500   -0.000457754    0.000204996
      9        1           0.000154224   -0.000023459    0.000030460
     10        8           0.000310330    0.000208111    0.000278043
     11        1           0.000055463   -0.000005253    0.000025745
     12        6          -0.003055915   -0.000056145   -0.001156071
     13        1           0.000128911   -0.000097447    0.000097065
     14        6          -0.000210809    0.000595839   -0.000502532
     15        1           0.000070602   -0.000091718    0.000112790
     16        8           0.001921260   -0.000912110    0.000399220
     17        7           0.003972189    0.000560600    0.005036134
     18        6          -0.001542917   -0.002583869   -0.002915887
     19        1           0.000039106   -0.000149476   -0.000467039
     20        6           0.007103915   -0.006832839   -0.000144459
     21        1           0.000687032   -0.000561404   -0.000093067
     22        6          -0.024417699   -0.001976093    0.008415788
     23        1           0.005296608    0.000499236   -0.004694906
     24        1           0.006402101   -0.002824205   -0.012970032
     25        6           0.007953923    0.006754080   -0.000793260
     26        6          -0.000884503    0.003437499   -0.004539276
     27        1           0.000326399    0.000210841   -0.000709274
     28        6           0.003906380   -0.001924802   -0.000391653
     29        8          -0.001271018    0.003949918    0.000494267
     30        7           0.000285990    0.000184313    0.000868600
     31        1           0.000045252   -0.000000249   -0.000062337
     32        1           0.000149245   -0.000345203   -0.000885407
     33        1          -0.000058549    0.000026943   -0.000041246
     34        6          -0.000103597    0.000046005   -0.000210447
     35        6           0.009684735   -0.000126693    0.003577459
     36        6          -0.008824885   -0.009145213   -0.007771998
     37        6           0.004501022    0.000276096   -0.004909167
     38        6          -0.011646405    0.014454138    0.031322084
     39        8          -0.005911852    0.003632285   -0.000013368
     40       16          -0.001949323   -0.004533923   -0.001475727
     41        1          -0.000069705    0.000025426   -0.000093433
     42        1          -0.000203462   -0.000044458   -0.000280562
     43        1           0.000402825   -0.000788451   -0.000415040
     44        1          -0.000136215    0.000071407    0.000137225
     45        1           0.000895734   -0.000024903   -0.000439384
     46        1           0.002953878    0.000037598   -0.004558746
     47        1          -0.000213981   -0.000410293   -0.000515428
     48        1          -0.000080468   -0.000028227   -0.000100380
 -------------------------------------------------------------------
 Cartesian Forces:  Max     0.031322084 RMS     0.004646439
 Leave Link  716 at Sat Aug 13 20:22:22 2022, MaxMem=  2684354560 cpu:               0.8 elap:               0.1
 (Enter /storage/apps/GAUSSIAN/G16_RevA03/g16/l103.exe)

 GradGradGradGradGradGradGradGradGradGradGradGradGradGradGradGradGradGrad
 Berny optimization.
 Search for a local minimum.
 Step number   1 out of a maximum of    2
 All quantities printed in internal units (Hartrees-Bohrs-Radians)
 Second derivative matrix not updated -- first step.
 ITU=  0
     Eigenvalues ---    0.00032   0.00100   0.00109   0.00126   0.00179
     Eigenvalues ---    0.00245   0.00324   0.00362   0.00441   0.00488
     Eigenvalues ---    0.00605   0.00694   0.00777   0.00880   0.00914
     Eigenvalues ---    0.00988   0.01119   0.01181   0.01371   0.01507
     Eigenvalues ---    0.01721   0.02014   0.02339   0.02485   0.02639
     Eigenvalues ---    0.03032   0.03086   0.03331   0.03591   0.03856
     Eigenvalues ---    0.04359   0.04624   0.04850   0.04928   0.05103
     Eigenvalues ---    0.05257   0.05527   0.05755   0.05868   0.05887
     Eigenvalues ---    0.06172   0.06268   0.06323   0.06537   0.06833
     Eigenvalues ---    0.07015   0.07342   0.07468   0.07777   0.07960
     Eigenvalues ---    0.08438   0.08756   0.08909   0.09850   0.10241
     Eigenvalues ---    0.10909   0.11514   0.11789   0.12418   0.12577
     Eigenvalues ---    0.12890   0.13021   0.13169   0.13533   0.13702
     Eigenvalues ---    0.13777   0.14041   0.15213   0.15744   0.16036
     Eigenvalues ---    0.16677   0.18419   0.18859   0.19300   0.19527
     Eigenvalues ---    0.19934   0.20157   0.21259   0.21596   0.22229
     Eigenvalues ---    0.24036   0.26419   0.27133   0.28718   0.31364
     Eigenvalues ---    0.31955   0.33245   0.35058   0.36217   0.37361
     Eigenvalues ---    0.37847   0.37847   0.37847   0.37847   0.39125
     Eigenvalues ---    0.43935   0.44785   0.48303   0.56082   0.57389
     Eigenvalues ---    0.61481   0.64876   0.69235   0.71589   0.73110
     Eigenvalues ---    0.74305   0.80299   0.82443   0.87603   0.90021
     Eigenvalues ---    0.91184   0.91674   0.93713   0.93968   0.94538
     Eigenvalues ---    0.96918   0.99535   0.99730   1.02985   1.04408
     Eigenvalues ---    1.05028   1.08026   1.11527   1.11882   1.15530
     Eigenvalues ---    1.19479   1.20635   1.23104   1.26352   1.30014
     Eigenvalues ---    1.35166   1.42158   1.45487   1.52474   1.72359
     Eigenvalues ---    1.79044   2.07893   2.30685
 Quadratic step=7.910D+00 exceeds max=3.000D-01 adjusted using Lamda=-3.595D-02.
 Angle between NR and scaled steps=  64.48 degrees.
 Angle between quadratic step and forces=  55.70 degrees.
 Linear search not attempted -- first point.
 Variable       Old X    -DE/DX   Delta X   Delta X   Delta X     New X
                                 (Linear)    (Quad)   (Total)
    X1        6.80295   0.00012   0.00000  -0.00223  -0.00223   6.80072
    Y1       -6.83277  -0.00007   0.00000   0.00609   0.00609  -6.82668
    Z1       -0.83960   0.00013   0.00000   0.00027   0.00027  -0.83933
    X2        7.08412  -0.00003   0.00000  -0.00676  -0.00676   7.07736
    Y2       -7.01363   0.00003   0.00000   0.00929   0.00929  -7.00434
    Z2       -2.87067  -0.00000   0.00000  -0.00020  -0.00020  -2.87087
    X3        8.19127   0.00000   0.00000  -0.00450  -0.00450   8.18677
    Y3       -8.00960  -0.00004   0.00000   0.00232   0.00232  -8.00728
    Z3        0.12700   0.00000   0.00000  -0.00171  -0.00171   0.12530
    X4        3.53739   0.00160   0.00000   0.00455   0.00455   3.54195
    Y4       -2.72799  -0.00085   0.00000  -0.00554  -0.00554  -2.73353
    Z4        2.33516  -0.00159   0.00000   0.00280   0.00280   2.33796
    X5        2.30764   0.00003   0.00000   0.00082   0.00082   2.30846
    Y5       -4.37449  -0.00001   0.00000  -0.00392  -0.00392  -4.37842
    Z5        2.06150   0.00007   0.00000   0.00821   0.00821   2.06971
    X6        2.79621   0.00121   0.00000   0.01539   0.01539   2.81160
    Y6       -1.29240   0.00025   0.00000  -0.00946  -0.00946  -1.30186
    Z6        4.40695   0.00128   0.00000   0.01151   0.01151   4.41846
    X7        1.04567   0.00043   0.00000   0.01136   0.01136   1.05702
    Y7       -0.74415  -0.00033   0.00000  -0.01367  -0.01367  -0.75782
    Z7        4.13887   0.00025   0.00000   0.02591   0.02591   4.16478
    X8        6.27803  -0.00002   0.00000   0.00342   0.00342   6.28145
    Y8       -3.56524  -0.00046   0.00000  -0.00248  -0.00248  -3.56773
    Z8        2.65737   0.00020   0.00000   0.00358   0.00358   2.66094
    X9        6.44766   0.00015   0.00000   0.00206   0.00206   6.44972
    Y9       -5.23993  -0.00002   0.00000  -0.00350  -0.00350  -5.24343
    Z9        3.85915   0.00003   0.00000   0.00284   0.00284   3.86199
   X10        7.71718   0.00031   0.00000  -0.00089  -0.00089   7.71629
   Y10       -1.54551   0.00021   0.00000  -0.00064  -0.00064  -1.54615
   Z10        3.61817   0.00028   0.00000   0.00891   0.00891   3.62709
   X11        6.68921   0.00006   0.00000  -0.00300  -0.00300   6.68620
   Y11       -0.72457  -0.00001   0.00000  -0.00670  -0.00670  -0.73127
   Z11        4.88532   0.00003   0.00000   0.01173   0.01173   4.89705
   X12        3.71156  -0.00306   0.00000  -0.00417  -0.00417   3.70739
   Y12       -1.24916  -0.00006   0.00000  -0.00079  -0.00079  -1.24995
   Z12       -0.16075  -0.00116   0.00000   0.00454   0.00454  -0.15620
   X13        4.27445   0.00013   0.00000  -0.00893  -0.00893   4.26552
   Y13        0.70177  -0.00010   0.00000  -0.00097  -0.00097   0.70080
   Z13        0.23198   0.00010   0.00000   0.01444   0.01444   0.24642
   X14        7.09729  -0.00021   0.00000   0.00307   0.00307   7.10036
   Y14       -4.09530   0.00060   0.00000   0.00435   0.00435  -4.09095
   Z14       -0.05283  -0.00050   0.00000   0.00339   0.00339  -0.04944
   X15        9.04487   0.00007   0.00000   0.00257   0.00257   9.04744
   Y15       -3.46720  -0.00009   0.00000   0.00374   0.00374  -3.46346
   Z15       -0.30347   0.00011   0.00000   0.00744   0.00744  -0.29603
   X16        5.51643   0.00192   0.00000   0.00720   0.00720   5.52363
   Y16       -2.52841  -0.00091   0.00000   0.00773   0.00773  -2.52068
   Z16       -1.61786   0.00040   0.00000   0.00605   0.00605  -1.61182
   X17        1.36844   0.00397   0.00000   0.00170   0.00170   1.37015
   Y17       -1.13093   0.00056   0.00000   0.00120   0.00120  -1.12972
   Z17       -1.59304   0.00504   0.00000   0.00214   0.00214  -1.59090
   X18        0.34533  -0.00154   0.00000   0.00394   0.00394   0.34927
   Y18       -3.34369  -0.00258   0.00000  -0.00432  -0.00432  -3.34801
   Z18       -2.53612  -0.00292   0.00000  -0.00782  -0.00782  -2.54394
   X19        1.47171   0.00004   0.00000   0.00209   0.00209   1.47381
   Y19       -5.01702  -0.00015   0.00000  -0.00280  -0.00280  -5.01982
   Z19       -2.23029  -0.00047   0.00000  -0.00090  -0.00090  -2.23119
   X20       -1.81607   0.00710   0.00000   0.00976   0.00976  -1.80631
   Y20       -3.35291  -0.00683   0.00000  -0.01500  -0.01500  -3.36791
   Z20       -3.84218  -0.00014   0.00000  -0.01459  -0.01459  -3.85677
   X21       -2.51852   0.00069   0.00000   0.01702   0.01702  -2.50151
   Y21       -5.11222  -0.00056   0.00000  -0.01812  -0.01812  -5.13034
   Z21       -4.60288  -0.00009   0.00000  -0.00979  -0.00979  -4.61267
   X22       -3.29902  -0.02442   0.00000  -0.01909  -0.01909  -3.31811
   Y22       -1.04644  -0.00198   0.00000  -0.00962  -0.00962  -1.05605
   Z22       -4.14482   0.00842   0.00000  -0.02298  -0.02298  -4.16780
   X23       -4.46546   0.00530   0.00000   0.05283   0.05283  -4.41263
   Y23       -0.96418   0.00050   0.00000   0.00274   0.00274  -0.96144
   Z23       -5.84041  -0.00469   0.00000  -0.07010  -0.07010  -5.91052
   X24       -4.92897   0.00640   0.00000  -0.03358  -0.03358  -4.96254
   Y24       -1.12689  -0.00282   0.00000  -0.03757  -0.03757  -1.16446
   Z24       -2.56387  -0.01297   0.00000  -0.10326  -0.10326  -2.66713
   X25       -1.91732   0.00795   0.00000   0.01121   0.01121  -1.90611
   Y25        1.25168   0.00675   0.00000   0.00537   0.00537   1.25704
   Z25       -3.50056  -0.00079   0.00000  -0.02159  -0.02159  -3.52216
   X26        0.27298  -0.00088   0.00000   0.00795   0.00795   0.28093
   Y26        1.09554   0.00344   0.00000   0.00559   0.00559   1.10113
   Z26       -2.18368  -0.00454   0.00000  -0.01933  -0.01933  -2.20300
   X27        1.22388   0.00033   0.00000   0.00134   0.00134   1.22522
   Y27        2.80015   0.00021   0.00000   0.00667   0.00667   2.80682
   Z27       -1.56746  -0.00071   0.00000  -0.00975  -0.00975  -1.57720
   X28       -2.87136   0.00391   0.00000   0.01068   0.01068  -2.86068
   Y28        3.80918  -0.00192   0.00000   0.00836   0.00836   3.81755
   Z28       -4.10063  -0.00039   0.00000  -0.00712  -0.00712  -4.10774
   X29       -1.58380  -0.00127   0.00000  -0.01887  -0.01887  -1.60266
   Y29        5.69098   0.00395   0.00000   0.02783   0.02783   5.71881
   Z29       -3.85876   0.00049   0.00000   0.01499   0.01499  -3.84377
   X30       -5.28735   0.00029   0.00000  -0.00030  -0.00030  -5.28765
   Y30        3.90983   0.00018   0.00000   0.00397   0.00397   3.91380
   Z30       -5.05143   0.00087   0.00000   0.01630   0.01630  -5.03513
   X31       -6.01226   0.00005   0.00000  -0.00987  -0.00987  -6.02213
   Y31        5.66324  -0.00000   0.00000   0.00298   0.00298   5.66622
   Z31       -5.21750  -0.00006   0.00000   0.03863   0.03863  -5.17886
   X32       -6.51349   0.00015   0.00000   0.00506   0.00506  -6.50844
   Y32        2.51975  -0.00035   0.00000  -0.00314  -0.00314   2.51661
   Z32       -4.62401  -0.00089   0.00000   0.01139   0.01139  -4.61262
   X33        4.92087  -0.00006   0.00000  -0.00392  -0.00392   4.91695
   Y33       -7.54207   0.00003   0.00000   0.00902   0.00902  -7.53305
   Z33       -0.37381  -0.00004   0.00000   0.00140   0.00140  -0.37241
   X34        0.37842  -0.00010   0.00000   0.00573   0.00573   0.38415
   Y34        4.15642   0.00005   0.00000  -0.00453  -0.00453   4.15189
   Z34        5.36494  -0.00021   0.00000  -0.01698  -0.01698   5.34796
   X35       -3.08910   0.00968   0.00000   0.01717   0.01717  -3.07193
   Y35        1.69769  -0.00013   0.00000   0.00501   0.00501   1.70270
   Z35        2.35827   0.00358   0.00000  -0.01848  -0.01848   2.33979
   X36       -5.34227  -0.00882   0.00000  -0.03026  -0.03026  -5.37253
   Y36        1.59923  -0.00915   0.00000   0.01252   0.01252   1.61176
   Z36        0.85583  -0.00777   0.00000   0.04208   0.04208   0.89791
   X37       -9.06239   0.00450   0.00000  -0.00176  -0.00176  -9.06415
   Y37       -0.79514   0.00028   0.00000  -0.00199  -0.00199  -0.79713
   Z37       -0.80529  -0.00491   0.00000  -0.01186  -0.01186  -0.81716
   X38       -6.31065  -0.01165   0.00000  -0.07344  -0.07344  -6.38408
   Y38       -0.63783   0.01445   0.00000   0.01796   0.01796  -0.61987
   Z38       -0.05441   0.03132   0.00000   0.16972   0.16972   0.11531
   X39       -1.79418  -0.00591   0.00000  -0.02377  -0.02377  -1.81794
   Y39       -0.14819   0.00363   0.00000  -0.00869  -0.00869  -0.15689
   Z39        2.92548  -0.00001   0.00000   0.00524   0.00524   2.93072
   X40       -2.30994  -0.00195   0.00000   0.02609   0.02609  -2.28385
   Y40        4.81158  -0.00453   0.00000  -0.00924  -0.00924   4.80233
   Z40        3.39294  -0.00148   0.00000  -0.04747  -0.04747   3.34547
   X41        0.83243  -0.00007   0.00000  -0.00095  -0.00095   0.83149
   Y41        5.91799   0.00003   0.00000  -0.00409  -0.00409   5.91390
   Z41        6.32231  -0.00009   0.00000  -0.01271  -0.01271   6.30960
   X42        1.99298  -0.00020   0.00000   0.01418   0.01418   2.00716
   Y42        3.54422  -0.00004   0.00000  -0.00506  -0.00506   3.53915
   Z42        4.25187  -0.00028   0.00000  -0.00319  -0.00319   4.24868
   X43      -10.20403   0.00040   0.00000  -0.05625  -0.05625 -10.26029
   Y43       -0.99501  -0.00079   0.00000  -0.02739  -0.02739  -1.02240
   Z43        0.90284  -0.00042   0.00000  -0.05582  -0.05582   0.84702
   X44       -9.68105  -0.00014   0.00000   0.02649   0.02649  -9.65456
   Y44        0.92958   0.00007   0.00000   0.00273   0.00273   0.93231
   Z44       -1.75220   0.00014   0.00000  -0.02194  -0.02194  -1.77414
   X45       -9.46924   0.00090   0.00000   0.06972   0.06972  -9.39952
   Y45       -2.40362  -0.00002   0.00000   0.00104   0.00104  -2.40258
   Z45       -2.02589  -0.00044   0.00000  -0.04041  -0.04041  -2.06631
   X46       -5.48808   0.00295   0.00000   0.00836   0.00836  -5.47972
   Y46       -2.35500   0.00004   0.00000  -0.00135  -0.00135  -2.35635
   Z46        0.73074  -0.00456   0.00000   0.03317   0.03317   0.76391
   X47       -6.30041  -0.00021   0.00000  -0.00149  -0.00149  -6.30190
   Y47        3.37495  -0.00041   0.00000   0.01446   0.01446   3.38941
   Z47        0.49703  -0.00052   0.00000  -0.00981  -0.00981   0.48722
   X48       -0.08973  -0.00008   0.00000  -0.00256  -0.00256  -0.09229
   Y48        2.71740  -0.00003   0.00000  -0.00226  -0.00226   2.71513
   Z48        6.75663  -0.00010   0.00000  -0.01634  -0.01634   6.74030
         Item               Value     Threshold  Converged?
 Maximum Force            0.031322     0.000450     NO 
 RMS     Force            0.004646     0.000300     NO 
 Maximum Displacement     0.169720     0.001800     NO 
 RMS     Displacement     0.025004     0.001200     NO 
 Predicted change in Energy=-6.332047D-03
 GradGradGradGradGradGradGradGradGradGradGradGradGradGradGradGradGradGrad

 Leave Link  103 at Sat Aug 13 20:22:22 2022, MaxMem=  2684354560 cpu:               1.0 elap:               0.1
 (Enter /storage/apps/GAUSSIAN/G16_RevA03/g16/l9999.exe)

 Test job not archived.
 1\1\GINC-T003\Force\RM062X\def2TZVP\C16H24N2O5S1\LV87696\13-Aug-2022\0
 \\#P M062X/Def2TZVP scf=(direct,conver=8) EmpiricalDispersion=GD3 Forc
 e Charge Prop=(Field,Read)\\Gaussian run\\0,1\C,3.599966,-3.615744,-0.
 444298\H,3.748754,-3.711451,-1.519094\H,4.334631,-4.238499,0.067207\C,
 1.871907,-1.443591,1.235712\H,1.221153,-2.314881,1.090901\O,1.479691,-
 0.683909,2.332057\H,0.553343,-0.393786,2.190196\C,3.322191,-1.886646,1
 .406217\H,3.411954,-2.772849,2.042172\O,4.083756,-0.817848,1.914654\H,
 3.539775,-0.383426,2.5852\C,1.964073,-0.661028,-0.085063\H,2.26194,0.3
 71362,0.122759\C,3.755725,-2.167139,-0.027954\H,4.786339,-1.834761,-0.
 160589\O,2.919169,-1.337976,-0.856136\N,0.724149,-0.598461,-0.843001\C
 ,0.182742,-1.769405,-1.342057\H,0.778797,-2.654894,-1.180216\C,-0.9610
 23,-1.774282,-2.033193\H,-1.332745,-2.70527,-2.435737\C,-1.745765,-0.5
 5375,-2.193345\H,-2.36302,-0.510222,-3.090614\H,-2.608297,-0.596326,-1
 .35674\C,-1.014604,0.662359,-1.852418\C,0.144455,0.579734,-1.155552\H,
 0.647647,1.481774,-0.829462\C,-1.519458,2.015733,-2.169959\O,-0.838109
 ,3.011536,-2.041967\N,-2.797946,2.068994,-2.6731\H,-3.181552,2.996855,
 -2.76098\H,-3.446793,1.333395,-2.446919\H,2.60401,-3.991092,-0.19781\C
 ,0.20025,2.199484,2.839004\C,-1.634683,0.898378,1.247943\C,-2.827005,0
 .846278,0.452886\C,-4.795609,-0.420769,-0.426142\C,-3.33945,-0.337526,
 -0.028794\O,-0.949438,-0.07842,1.548097\S,-1.222368,2.546176,1.795466\
 H,0.440505,3.131668,3.345622\H,1.054637,1.875519,2.249994\H,-5.399741,
 -0.526538,0.477764\H,-5.122989,0.49191,-0.927224\H,-5.010908,-1.271941
 ,-1.072056\H,-2.904168,-1.24621,0.386689\H,-3.334034,1.785945,0.263018
 \H,-0.047481,1.437984,3.575457\\Version=ES64L-G16RevA.03\State=1-A\HF=
 -1507.9021216\RMSD=1.969e-09\RMSF=4.646e-03\Dipole=-1.5468768,-1.46399
 48,0.0741456\Quadrupole=7.1812688,-1.2460885,-5.9351802,-2.962733,6.41
 4301,7.286946\PG=C01 [X(C16H24N2O5S1)]\\@


 FIREWORKS ENDED
 AND SPECTATORS GONE AWAY....
 AH, HOW VAST AND DARK
                     SHIKI
 Job cpu time:       0 days  3 hours 29 minutes  5.8 seconds.
 Elapsed time:       0 days  0 hours 13 minutes  6.3 seconds.
 File lengths (MBytes):  RWF=    435 Int=      0 D2E=      0 Chk=     48 Scr=      1
 Normal termination of Gaussian 16 at Sat Aug 13 20:22:22 2022.
