 Entering Gaussian System, Link 0=g16
 Initial command:
 /storage/apps/GAUSSIAN/G16_RevA03/g16/l1.exe "/scratch/tmp/1019142/Gau-59570.inp" -scrdir="/scratch/tmp/1019142/"
 Entering Link 1 = /storage/apps/GAUSSIAN/G16_RevA03/g16/l1.exe PID=     59571.
  
 Copyright (c) 1988,1990,1992,1993,1995,1998,2003,2009,2016,
            Gaussian, Inc.  All Rights Reserved.
  
 This is part of the Gaussian(R) 16 program.  It is based on
 the Gaussian(R) 09 system (copyright 2009, Gaussian, Inc.),
 the Gaussian(R) 03 system (copyright 2003, Gaussian, Inc.),
 the Gaussian(R) 98 system (copyright 1998, Gaussian, Inc.),
 the Gaussian(R) 94 system (copyright 1995, Gaussian, Inc.),
 the Gaussian 92(TM) system (copyright 1992, Gaussian, Inc.),
 the Gaussian 90(TM) system (copyright 1990, Gaussian, Inc.),
 the Gaussian 88(TM) system (copyright 1988, Gaussian, Inc.),
 the Gaussian 86(TM) system (copyright 1986, Carnegie Mellon
 University), and the Gaussian 82(TM) system (copyright 1983,
 Carnegie Mellon University). Gaussian is a federally registered
 trademark of Gaussian, Inc.
  
 This software contains proprietary and confidential information,
 including trade secrets, belonging to Gaussian, Inc.
  
 This software is provided under written license and may be
 used, copied, transmitted, or stored only in accord with that
 written license.
  
 The following legend is applicable only to US Government
 contracts under FAR:
  
                    RESTRICTED RIGHTS LEGEND
  
 Use, reproduction and disclosure by the US Government is
 subject to restrictions as set forth in subparagraphs (a)
 and (c) of the Commercial Computer Software - Restricted
 Rights clause in FAR 52.227-19.
  
 Gaussian, Inc.
 340 Quinnipiac St., Bldg. 40, Wallingford CT 06492
  
  
 ---------------------------------------------------------------
 Warning -- This program may not be used in any manner that
 competes with the business of Gaussian, Inc. or will provide
 assistance to any competitor of Gaussian, Inc.  The licensee
 of this program is prohibited from giving any competitor of
 Gaussian, Inc. access to this program.  By using this program,
 the user acknowledges that Gaussian, Inc. is engaged in the
 business of creating and licensing software in the field of
 computational chemistry and represents and warrants to the
 licensee that it is not a competitor of Gaussian, Inc. and that
 it will not use this program in any manner prohibited above.
 ---------------------------------------------------------------
  

 Cite this work as:
 Gaussian 16, Revision A.03,
 M. J. Frisch, G. W. Trucks, H. B. Schlegel, G. E. Scuseria, 
 M. A. Robb, J. R. Cheeseman, G. Scalmani, V. Barone, 
 G. A. Petersson, H. Nakatsuji, X. Li, M. Caricato, A. V. Marenich, 
 J. Bloino, B. G. Janesko, R. Gomperts, B. Mennucci, H. P. Hratchian, 
 J. V. Ortiz, A. F. Izmaylov, J. L. Sonnenberg, D. Williams-Young, 
 F. Ding, F. Lipparini, F. Egidi, J. Goings, B. Peng, A. Petrone, 
 T. Henderson, D. Ranasinghe, V. G. Zakrzewski, J. Gao, N. Rega, 
 G. Zheng, W. Liang, M. Hada, M. Ehara, K. Toyota, R. Fukuda, 
 J. Hasegawa, M. Ishida, T. Nakajima, Y. Honda, O. Kitao, H. Nakai, 
 T. Vreven, K. Throssell, J. A. Montgomery, Jr., J. E. Peralta, 
 F. Ogliaro, M. J. Bearpark, J. J. Heyd, E. N. Brothers, K. N. Kudin, 
 V. N. Staroverov, T. A. Keith, R. Kobayashi, J. Normand, 
 K. Raghavachari, A. P. Rendell, J. C. Burant, S. S. Iyengar, 
 J. Tomasi, M. Cossi, J. M. Millam, M. Klene, C. Adamo, R. Cammi, 
 J. W. Ochterski, R. L. Martin, K. Morokuma, O. Farkas, 
 J. B. Foresman, and D. J. Fox, Gaussian, Inc., Wallingford CT, 2016.
 
 ******************************************
 Gaussian 16:  ES64L-G16RevA.03 25-Dec-2016
                13-Aug-2022 
 ******************************************
 %NProcShared=16
 Will use up to   16 processors via shared memory.
 %mem=20GB
 ----------------------------------------------------------------------
 #P M062X/Def2TZVP scf=(direct,conver=8) EmpiricalDispersion=GD3 Force 
 Charge Prop=(Field,Read)
 ----------------------------------------------------------------------
 1/10=7,18=10,28=-2,30=1,38=1,125=101/1,3;
 2/12=2,17=6,18=5,29=2,40=1/2;
 3/5=44,7=101,11=2,25=1,30=1,71=1,74=-55,124=31/1,2,3;
 4//1;
 5/5=2,6=8,38=5/2;
 6/7=2,8=2,9=2,10=2,14=2,15=1,28=1/1,2;
 7/7=1,16=-2,29=1/1,2,3,16;
 1/10=7,18=10,28=-2,30=1/3;
 99/12=1/99;
 Leave Link    1 at Sat Aug 13 20:09:15 2022, MaxMem=  2684354560 cpu:               0.6 elap:               0.0
 (Enter /storage/apps/GAUSSIAN/G16_RevA03/g16/l101.exe)
 ------------
 Gaussian run
 ------------
 Symbolic Z-matrix:
 Charge =  0 Multiplicity = 1
 C                     3.59995  -3.61574  -0.44431 
 H                     3.74879  -3.71149  -1.5191 
 H                     4.33462  -4.23846   0.0672 
 C                     1.87172  -1.44349   1.2359 
 H                     1.22106  -2.31486   1.09081 
 O                     1.47959  -0.68393   2.33195 
 H                     0.5527   -0.39336   2.18989 
 C                     3.32219  -1.88659   1.4062 
 H                     3.41174  -2.77282   2.04213 
 O                     4.08373  -0.81786   1.91463 
 H                     3.53969  -0.38344   2.58519 
 C                     1.96443  -0.66102  -0.08493 
 H                     2.26178   0.3715    0.1226 
 C                     3.75575  -2.1672   -0.02789 
 H                     4.78624  -1.83463  -0.16075 
 O                     2.919    -1.3379   -0.85617 
 N                     0.72375  -0.59852  -0.84351 
 C                     0.18294  -1.76911  -1.34171 
 H                     0.77871  -2.65468  -1.17956 
 C                    -0.96186  -1.77348  -2.03319 
 H                    -1.33367  -2.70449  -2.43559 
 C                    -1.74279  -0.55352  -2.1945 
 H                    -2.37018  -0.51093  -3.08403 
 H                    -2.61906  -0.59251  -1.33697 
 C                    -1.01553   0.66157  -1.85234 
 C                     0.14457   0.57933  -1.15502 
 H                     0.64721   1.48151  -0.8285 
 C                    -1.51991   2.01596  -2.16992 
 O                    -0.838     3.0112   -2.04201 
 N                    -2.79797   2.06898  -2.67319 
 H                    -3.18159   2.99687  -2.76089 
 H                    -3.44702   1.33386  -2.44579 
 H                     2.60404  -3.99114  -0.19773 
 C                     0.20026   2.19948   2.83903 
 C                    -1.63583   0.8984    1.24753 
 C                    -2.82596   0.84737   0.45379 
 C                    -4.79614  -0.4208   -0.42557 
 C                    -3.33812  -0.33924  -0.03241 
 O                    -0.94891  -0.07874   1.5481 
 S                    -1.22228   2.54638   1.79553 
 H                     0.44061   3.13162   3.34572 
 H                     1.05489   1.87556   2.25035 
 H                    -5.40031  -0.52545   0.47829 
 H                    -5.12281   0.4918   -0.9274 
 H                    -5.0121   -1.2719   -1.07144 
 H                    -2.90835  -1.24618   0.39303 
 H                    -3.33376   1.7865    0.2638 
 H                    -0.04736   1.43801   3.57555 
 
 ITRead=  0  0  0  0  0  0  0  0  0  0  0  0  0  0  0  0  0  0  0  0
 ITRead=  0  0  0  0  0  0  0  0  0  0  0  0  0  0  0  0  0  0  0  0
 ITRead=  0  0  0  0  0  0  0  0
 MicOpt= -1 -1 -1 -1 -1 -1 -1 -1 -1 -1 -1 -1 -1 -1 -1 -1 -1 -1 -1 -1
 MicOpt= -1 -1 -1 -1 -1 -1 -1 -1 -1 -1 -1 -1 -1 -1 -1 -1 -1 -1 -1 -1
 MicOpt= -1 -1 -1 -1 -1 -1 -1 -1
 NAtoms=     48 NQM=       48 NQMF=       0 NMMI=      0 NMMIF=      0
                NMic=       0 NMicF=      0.
                    Isotopes and Nuclear Properties:
 (Nuclear quadrupole moments (NQMom) in fm**2, nuclear magnetic moments (NMagM)
  in nuclear magnetons)

  Atom         1           2           3           4           5           6           7           8           9          10
 IAtWgt=          12           1           1          12           1          16           1          12           1          16
 AtmWgt=  12.0000000   1.0078250   1.0078250  12.0000000   1.0078250  15.9949146   1.0078250  12.0000000   1.0078250  15.9949146
 NucSpn=           0           1           1           0           1           0           1           0           1           0
 AtZEff=  -0.0000000  -0.0000000  -0.0000000  -0.0000000  -0.0000000  -0.0000000  -0.0000000  -0.0000000  -0.0000000  -0.0000000
 NQMom=    0.0000000   0.0000000   0.0000000   0.0000000   0.0000000   0.0000000   0.0000000   0.0000000   0.0000000   0.0000000
 NMagM=    0.0000000   2.7928460   2.7928460   0.0000000   2.7928460   0.0000000   2.7928460   0.0000000   2.7928460   0.0000000
 AtZNuc=   6.0000000   1.0000000   1.0000000   6.0000000   1.0000000   8.0000000   1.0000000   6.0000000   1.0000000   8.0000000

  Atom        11          12          13          14          15          16          17          18          19          20
 IAtWgt=           1          12           1          12           1          16          14          12           1          12
 AtmWgt=   1.0078250  12.0000000   1.0078250  12.0000000   1.0078250  15.9949146  14.0030740  12.0000000   1.0078250  12.0000000
 NucSpn=           1           0           1           0           1           0           2           0           1           0
 AtZEff=  -0.0000000  -0.0000000  -0.0000000  -0.0000000  -0.0000000  -0.0000000  -0.0000000  -0.0000000  -0.0000000  -0.0000000
 NQMom=    0.0000000   0.0000000   0.0000000   0.0000000   0.0000000   0.0000000   2.0440000   0.0000000   0.0000000   0.0000000
 NMagM=    2.7928460   0.0000000   2.7928460   0.0000000   2.7928460   0.0000000   0.4037610   0.0000000   2.7928460   0.0000000
 AtZNuc=   1.0000000   6.0000000   1.0000000   6.0000000   1.0000000   8.0000000   7.0000000   6.0000000   1.0000000   6.0000000

  Atom        21          22          23          24          25          26          27          28          29          30
 IAtWgt=           1          12           1           1          12          12           1          12          16          14
 AtmWgt=   1.0078250  12.0000000   1.0078250   1.0078250  12.0000000  12.0000000   1.0078250  12.0000000  15.9949146  14.0030740
 NucSpn=           1           0           1           1           0           0           1           0           0           2
 AtZEff=  -0.0000000  -0.0000000  -0.0000000  -0.0000000  -0.0000000  -0.0000000  -0.0000000  -0.0000000  -0.0000000  -0.0000000
 NQMom=    0.0000000   0.0000000   0.0000000   0.0000000   0.0000000   0.0000000   0.0000000   0.0000000   0.0000000   2.0440000
 NMagM=    2.7928460   0.0000000   2.7928460   2.7928460   0.0000000   0.0000000   2.7928460   0.0000000   0.0000000   0.4037610
 AtZNuc=   1.0000000   6.0000000   1.0000000   1.0000000   6.0000000   6.0000000   1.0000000   6.0000000   8.0000000   7.0000000

  Atom        31          32          33          34          35          36          37          38          39          40
 IAtWgt=           1           1           1          12          12          12          12          12          16          32
 AtmWgt=   1.0078250   1.0078250   1.0078250  12.0000000  12.0000000  12.0000000  12.0000000  12.0000000  15.9949146  31.9720718
 NucSpn=           1           1           1           0           0           0           0           0           0           0
 AtZEff=  -0.0000000  -0.0000000  -0.0000000  -0.0000000  -0.0000000  -0.0000000  -0.0000000  -0.0000000  -0.0000000  -0.0000000
 NQMom=    0.0000000   0.0000000   0.0000000   0.0000000   0.0000000   0.0000000   0.0000000   0.0000000   0.0000000   0.0000000
 NMagM=    2.7928460   2.7928460   2.7928460   0.0000000   0.0000000   0.0000000   0.0000000   0.0000000   0.0000000   0.0000000
 AtZNuc=   1.0000000   1.0000000   1.0000000   6.0000000   6.0000000   6.0000000   6.0000000   6.0000000   8.0000000  16.0000000

  Atom        41          42          43          44          45          46          47          48
 IAtWgt=           1           1           1           1           1           1           1           1
 AtmWgt=   1.0078250   1.0078250   1.0078250   1.0078250   1.0078250   1.0078250   1.0078250   1.0078250
 NucSpn=           1           1           1           1           1           1           1           1
 AtZEff=  -0.0000000  -0.0000000  -0.0000000  -0.0000000  -0.0000000  -0.0000000  -0.0000000  -0.0000000
 NQMom=    0.0000000   0.0000000   0.0000000   0.0000000   0.0000000   0.0000000   0.0000000   0.0000000
 NMagM=    2.7928460   2.7928460   2.7928460   2.7928460   2.7928460   2.7928460   2.7928460   2.7928460
 AtZNuc=   1.0000000   1.0000000   1.0000000   1.0000000   1.0000000   1.0000000   1.0000000   1.0000000
 Background charge distribution read from input stream:
 Leave Link  101 at Sat Aug 13 20:09:15 2022, MaxMem=  2684354560 cpu:               1.8 elap:               0.1
 (Enter /storage/apps/GAUSSIAN/G16_RevA03/g16/l103.exe)

 GradGradGradGradGradGradGradGradGradGradGradGradGradGradGradGradGradGrad
 Berny optimization.
 Initialization pass.
 Trust Radius=3.00D-01 FncErr=1.00D-07 GrdErr=1.00D-07 EigMax=2.50D+02 EigMin=1.00D-04
 Number of steps in this run=      2 maximum allowed number of steps=      2.
 GradGradGradGradGradGradGradGradGradGradGradGradGradGradGradGradGradGrad

 Leave Link  103 at Sat Aug 13 20:09:15 2022, MaxMem=  2684354560 cpu:               0.7 elap:               0.2
 (Enter /storage/apps/GAUSSIAN/G16_RevA03/g16/l202.exe)
 ---------------------------------------------------------------------------------------------------
                            Z-MATRIX (ANGSTROMS AND DEGREES)
   CD    Cent   Atom    N1       Length/X        N2       Alpha/Y        N3        Beta/Z          J
 ---------------------------------------------------------------------------------------------------
      1      1  C        0   3.599953         -3.615735         -0.444313
      2      2  H        0   3.748791         -3.711488         -1.519101
      3      3  H        0   4.334619         -4.238463          0.067195
      4      4  C        0   1.871719         -1.443492          1.235895
      5      5  H        0   1.221058         -2.314860          1.090810
      6      6  O        0   1.479590         -0.683932          2.331945
      7      7  H        0   0.552704         -0.393355          2.189892
      8      8  C        0   3.322191         -1.886594          1.406195
      9      9  H        0   3.411736         -2.772817          2.042134
     10     10  O        0   4.083727         -0.817863          1.914628
     11     11  H        0   3.539692         -0.383437          2.585194
     12     12  C        0   1.964430         -0.661023         -0.084928
     13     13  H        0   2.261783          0.371499          0.122600
     14     14  C        0   3.755748         -2.167202         -0.027893
     15     15  H        0   4.786239         -1.834629         -0.160753
     16     16  O        0   2.919003         -1.337896         -0.856174
     17     17  N        0   0.723751         -0.598520         -0.843505
     18     18  C        0   0.182943         -1.769105         -1.341711
     19     19  H        0   0.778712         -2.654682         -1.179560
     20     20  C        0  -0.961858         -1.773484         -2.033185
     21     21  H        0  -1.333667         -2.704485         -2.435590
     22     22  C        0  -1.742786         -0.553521         -2.194497
     23     23  H        0  -2.370179         -0.510934         -3.084030
     24     24  H        0  -2.619055         -0.592505         -1.336966
     25     25  C        0  -1.015531          0.661566         -1.852336
     26     26  C        0   0.144573          0.579333         -1.155020
     27     27  H        0   0.647207          1.481505         -0.828498
     28     28  C        0  -1.519909          2.015962         -2.169918
     29     29  O        0  -0.837997          3.011196         -2.042009
     30     30  N        0  -2.797971          2.068976         -2.673185
     31     31  H        0  -3.181590          2.996872         -2.760892
     32     32  H        0  -3.447015          1.333855         -2.445788
     33     33  H        0   2.604036         -3.991139         -0.197732
     34     34  C        0   0.200255          2.199478          2.839026
     35     35  C        0  -1.635825          0.898403          1.247525
     36     36  C        0  -2.825955          0.847370          0.453794
     37     37  C        0  -4.796136         -0.420799         -0.425565
     38     38  C        0  -3.338118         -0.339242         -0.032411
     39     39  O        0  -0.948914         -0.078743          1.548098
     40     40  S        0  -1.222281          2.546375          1.795532
     41     41  H        0   0.440609          3.131620          3.345721
     42     42  H        0   1.054892          1.875561          2.250346
     43     43  H        0  -5.400315         -0.525448          0.478294
     44     44  H        0  -5.122812          0.491802         -0.927403
     45     45  H        0  -5.012097         -1.271901         -1.071440
     46     46  H        0  -2.908350         -1.246182          0.393029
     47     47  H        0  -3.333761          1.786499          0.263804
     48     48  H        0  -0.047358          1.438013          3.575554
 ---------------------------------------------------------------------------------------------------
                         Z-Matrix orientation:                         
 ---------------------------------------------------------------------
 Center     Atomic      Atomic             Coordinates (Angstroms)
 Number     Number       Type             X           Y           Z
 ---------------------------------------------------------------------
      1          6           0        3.599953   -3.615735   -0.444313
      2          1           0        3.748791   -3.711488   -1.519101
      3          1           0        4.334619   -4.238463    0.067195
      4          6           0        1.871719   -1.443492    1.235895
      5          1           0        1.221058   -2.314860    1.090810
      6          8           0        1.479590   -0.683932    2.331945
      7          1           0        0.552704   -0.393355    2.189892
      8          6           0        3.322191   -1.886594    1.406195
      9          1           0        3.411736   -2.772817    2.042134
     10          8           0        4.083727   -0.817863    1.914628
     11          1           0        3.539692   -0.383437    2.585194
     12          6           0        1.964430   -0.661023   -0.084928
     13          1           0        2.261783    0.371499    0.122600
     14          6           0        3.755748   -2.167202   -0.027893
     15          1           0        4.786239   -1.834629   -0.160753
     16          8           0        2.919003   -1.337896   -0.856174
     17          7           0        0.723751   -0.598520   -0.843505
     18          6           0        0.182943   -1.769105   -1.341711
     19          1           0        0.778712   -2.654682   -1.179560
     20          6           0       -0.961858   -1.773484   -2.033185
     21          1           0       -1.333667   -2.704485   -2.435590
     22          6           0       -1.742786   -0.553521   -2.194497
     23          1           0       -2.370179   -0.510934   -3.084030
     24          1           0       -2.619055   -0.592505   -1.336966
     25          6           0       -1.015531    0.661566   -1.852336
     26          6           0        0.144573    0.579333   -1.155020
     27          1           0        0.647207    1.481505   -0.828498
     28          6           0       -1.519909    2.015962   -2.169918
     29          8           0       -0.837997    3.011196   -2.042009
     30          7           0       -2.797971    2.068976   -2.673185
     31          1           0       -3.181590    2.996872   -2.760892
     32          1           0       -3.447015    1.333855   -2.445788
     33          1           0        2.604036   -3.991139   -0.197732
     34          6           0        0.200255    2.199478    2.839026
     35          6           0       -1.635825    0.898403    1.247525
     36          6           0       -2.825955    0.847370    0.453794
     37          6           0       -4.796136   -0.420799   -0.425565
     38          6           0       -3.338118   -0.339242   -0.032411
     39          8           0       -0.948914   -0.078743    1.548098
     40         16           0       -1.222281    2.546375    1.795532
     41          1           0        0.440609    3.131620    3.345721
     42          1           0        1.054892    1.875561    2.250346
     43          1           0       -5.400315   -0.525448    0.478294
     44          1           0       -5.122812    0.491802   -0.927403
     45          1           0       -5.012097   -1.271901   -1.071440
     46          1           0       -2.908350   -1.246182    0.393029
     47          1           0       -3.333761    1.786499    0.263804
     48          1           0       -0.047358    1.438013    3.575554
 ---------------------------------------------------------------------
                    Distance matrix (angstroms):
                    1          2          3          4          5
     1  C    0.000000
     2  H    1.089262   0.000000
     3  H    1.090488   1.771223   0.000000
     4  C    3.244770   4.032023   3.904305   0.000000
     5  H    3.115770   3.892511   3.800302   1.097129   0.000000
     6  O    4.560594   5.398696   5.090675   1.389972   2.065716
     7  H    5.158342   5.914525   5.795997   1.937188   2.312328
     8  C    2.547834   3.474130   2.889502   1.526175   2.167404
     9  H    2.632177   3.698257   2.626826   2.188328   2.431833
    10  O    3.691440   4.502859   3.895698   2.396887   3.333849
    11  H    4.430496   5.288183   4.672628   2.393002   3.367438
    12  C    3.396236   3.813939   4.294067   1.537994   2.161050
    13  H    4.243834   4.645122   5.054846   2.164663   3.039254
    14  C    1.515231   2.146758   2.152732   2.381277   2.774518
    15  H    2.158708   2.538505   2.456489   3.255463   3.808877
    16  O    2.412856   2.600377   3.357062   2.341945   2.761924
    17  N    4.187538   4.392934   5.207392   2.521054   2.633384
    18  C    3.986392   4.064430   5.031815   3.098716   2.700498
    19  H    3.069790   3.170725   4.087448   2.914802   2.337890
    20  C    5.169963   5.119605   6.208090   4.338771   3.849358
    21  H    5.397793   5.261690   6.383298   5.034323   4.371947
    22  C    6.401965   6.370740   7.458478   5.062043   4.762345
    23  H    7.228442   7.080561   8.293311   6.125775   5.794862
    24  H    6.972289   7.093003   7.976106   5.245078   4.858711
    25  C    6.448296   6.475601   7.504598   4.722780   4.745898
    26  C    5.481182   5.615522   6.500881   3.576497   3.818236
    27  H    5.903233   6.088015   6.864205   3.783749   4.292486
    28  C    7.804275   7.809382   8.854265   5.922037   6.074641
    29  O    8.134141   8.155154   9.152172   6.158852   6.513151
    30  N    8.844051   8.809414   9.907942   7.030245   7.038343
    31  H    9.751022   9.724933  10.809327   7.824773   7.901482
    32  H    8.841046   8.837073   9.895435   7.039700   6.900112
    33  H    1.092511   1.770504   1.768127   3.013649   2.526436
    34  C    7.493662   8.156280   8.137757   4.316833   4.947479
    35  C    7.117101   7.609166   7.964093   4.217520   4.302488
    36  C    7.875163   8.240315   8.791415   5.284683   5.175307
    37  C    8.983445   9.221726   9.908989   6.947420   6.487949
    38  C    7.683873   7.987901   8.607249   5.474520   5.094191
    39  O    6.096901   6.683785   6.885642   3.148965   3.149303
    40  S    8.138946   8.652121   8.938698   5.079869   5.486178
    41  H    8.358984   9.024339   8.957130   5.237470   5.946248
    42  H    6.625168   7.258164   7.273517   3.565449   4.351065
    43  H    9.560643   9.891743  10.427100   7.368802   6.886200
    44  H    9.653593   9.834790  10.621094   7.572891   7.224626
    45  H    8.947304   9.105226   9.872086   7.262242   6.679469
    46  H    6.976670   7.351973   7.843501   4.857820   4.322150
    47  H    8.818274   9.141617   9.754121   6.202808   6.184777
    48  H    7.416372   8.178240   7.983275   4.178508   4.676204
                    6          7          8          9         10
     6  O    0.000000
     7  H    0.981698   0.000000
     8  C    2.387171   3.242530   0.000000
     9  H    2.860178   3.722598   1.094453   0.000000
    10  O    2.640761   3.567086   1.407348   2.071153   0.000000
    11  H    2.097249   3.013048   1.922713   2.453655   0.966622
    12  C    2.465131   2.690617   2.359870   3.328477   2.917918
    13  H    2.570402   2.789202   2.805542   3.859239   2.818763
    14  C    3.598586   4.280724   1.524244   2.184062   2.387818
    15  H    4.297857   5.052289   2.145102   2.760827   2.415480
    16  O    3.558607   3.971152   2.362614   3.271387   3.050305
    17  N    3.265283   3.045135   3.670446   4.503304   4.352568
    18  C    4.044087   3.808101   4.173688   4.783613   5.169596
    19  H    4.087267   4.064220   3.707475   4.162461   4.885799
    20  C    5.118804   4.693936   5.495016   6.060958   6.477373
    21  H    5.892914   5.504071   6.091410   6.524840   7.199437
    22  C    5.557823   4.951545   6.355789   7.031601   7.134637
    23  H    6.647062   6.030864   7.379542   8.051349   8.169069
    24  H    5.501650   4.747467   6.670682   7.248622   7.453250
    25  C    5.054127   4.462267   5.993912   6.823678   6.510081
    26  C    3.941704   3.507297   4.768425   5.668603   5.185733
    27  H    3.920507   3.554534   4.847008   5.829443   4.962006
    28  C    6.045924   5.395227   7.173873   8.061942   7.490982
    29  O    6.177107   5.606604   7.292847   8.258042   7.385123
    30  N    7.136341   6.398407   8.351303   9.178107   8.760116
    31  H    7.823804   7.067450   9.138491   9.991512   9.444444
    32  H    7.153295   6.361646   8.428002   9.167806   8.964106
    33  H    4.312918   4.780456   2.741795   2.674638   4.089160
    34  C    3.194978   2.695993   5.338115   5.972635   5.004020
    35  C    3.658628   2.710416   5.688876   6.291831   6.008650
    36  C    4.940653   3.996095   6.795684   7.384942   7.256083
    37  C    6.859872   5.954113   8.450511   8.887671   9.191634
    38  C    5.377667   4.481077   6.987389   7.469040   7.687901
    39  O    2.622652   1.663050   4.640129   5.149502   5.099815
    40  S    4.245318   3.456603   6.360426   7.058947   6.283789
    41  H    4.082360   3.711328   6.103093   6.737159   5.560463
    42  H    2.595772   2.324613   4.472924   5.215888   4.067073
    43  H    7.127007   6.195599   8.876702   9.227595   9.596646
    44  H    7.456367   6.535481   9.078575   9.608038   9.723822
    45  H    7.353281   6.509619   8.716472   9.105386   9.584194
    46  H    4.830066   3.991857   6.344783   6.707731   7.168533
    47  H    5.792114   4.854502   7.687546   8.333760   8.032873
    48  H    2.894958   2.373614   5.207014   5.661077   4.991344
                   11         12         13         14         15
    11  H    0.000000
    12  C    3.112564   0.000000
    13  H    2.875300   1.094344   0.000000
    14  C    3.171233   2.341078   2.949505   0.000000
    15  H    3.346649   3.057075   3.364546   1.090948   0.000000
    16  O    3.624812   1.401495   2.076528   1.440118   2.053515
    17  N    4.442045   1.455551   2.059087   3.509842   4.300921
    18  C    5.348684   2.445618   3.323848   3.827471   4.752819
    19  H    5.191814   2.564922   3.612879   3.229043   4.215534
    20  C    6.597394   3.687335   4.431729   5.141208   6.045689
    21  H    7.371917   4.536385   5.378966   5.655778   6.586713
    22  C    7.125935   4.266766   4.718175   6.126338   6.957408
    23  H    8.190417   5.273137   5.702301   7.043449   7.842961
    24  H    7.304602   4.751908   5.184806   6.695630   7.600311
    25  C    6.444669   3.708523   3.837356   5.839146   6.538576
    26  C    5.142272   2.448563   2.481549   4.674875   5.325490
    27  H    4.847450   2.622670   2.177971   4.859738   5.345485
    28  C    7.346276   4.863543   4.718166   7.065387   7.657108
    29  O    7.217943   5.016867   4.611092   7.209366   7.658536
    30  N    8.592488   6.068973   6.024861   8.239782   8.892170
    31  H    9.229450   6.857295   6.696075   9.069928   9.674214
    32  H    8.779177   6.231929   6.333492   8.365609   9.113021
    33  H    4.651413   3.392859   4.387751   2.163800   3.068210
    34  C    4.229388   4.454693   3.869157   6.318912   6.804700
    35  C    5.497131   4.143558   4.090774   6.331957   7.120085
    36  C    6.824897   5.051065   5.120666   7.255238   8.094213
    37  C    8.862962   6.773403   7.123373   8.737436   9.689734
    38  C    7.359217   5.312562   5.646952   7.325598   8.261830
    39  O    4.616924   3.390191   3.541657   5.383238   6.236609
    40  S    5.646570   4.896801   4.434804   7.093903   7.689120
    41  H    4.747456   5.336246   4.617732   7.102741   7.472850
    42  H    3.374822   3.565813   2.871601   5.369258   5.788079
    43  H    9.186018   7.387494   7.722615   9.315851  10.290200
    44  H    9.388469   7.229645   7.459841   9.311726  10.207317
    45  H    9.343096   7.072362   7.552207   8.875002   9.856643
    46  H    6.864923   4.931008   5.424048   6.740598   7.736901
    47  H    7.572439   5.846606   5.773411   8.122683   8.900967
    48  H    4.143117   4.674652   4.288645   6.359719   6.930645
                   16         17         18         19         20
    16  O    0.000000
    17  N    2.316456   0.000000
    18  C    2.812065   1.382372   0.000000
    19  H    2.533644   2.084168   1.079574   0.000000
    20  C    4.078747   2.374270   1.337432   2.129500   0.000000
    21  H    4.737861   3.347057   2.090840   2.458096   1.080247
    22  C    4.913108   2.812652   2.431732   3.435539   1.457457
    23  H    5.798505   3.820998   3.337230   4.258894   2.163718
    24  H    5.608641   3.379037   3.039013   3.977709   2.150752
    25  C    4.524461   2.372901   2.757760   3.830070   2.442346
    26  C    3.385637   1.349009   2.356159   3.295692   2.744287
    27  H    3.620890   2.081487   3.323461   4.153141   3.825613
    28  C    5.716487   3.691734   4.232300   5.298998   3.832756
    29  O    5.868207   4.111632   4.938017   5.954808   4.786291
    30  N    6.898703   4.781819   5.038803   6.110362   4.306438
    31  H    7.722396   5.644015   6.004056   7.079878   5.311597
    32  H    7.084583   4.867923   4.901422   5.947145   4.000225
    33  H    2.751808   3.932221   3.479628   2.466153   4.582846
    34  C    5.793022   4.654447   5.764418   6.328232   6.393229
    35  C    5.492999   3.490098   4.138558   4.934080   4.284422
    36  C    6.284580   4.046479   4.373013   5.284490   4.065562
    37  C    7.781379   5.538539   5.239130   6.052906   4.372172
    38  C    6.389637   4.150166   4.019533   4.860607   3.421514
    39  O    4.725121   2.964412   3.534037   4.130408   3.962058
    40  S    6.266525   4.543338   5.517274   6.317131   5.778242
    41  H    6.616263   5.616380   6.786421   7.353487   7.413473
    42  H    4.842694   3.975254   5.191027   5.688904   5.977579
    43  H    8.464746   6.265515   6.002655   6.742588   5.250240
    44  H    8.247646   5.947953   5.782248   6.692677   4.864958
    45  H    7.934295   5.779736   5.225773   5.954598   4.192967
    46  H    5.960450   3.891098   3.583136   4.248686   3.154900
    47  H    7.079071   4.835065   5.252352   6.222525   4.855467
    48  H    6.012086   4.926475   5.875214   6.328005   6.527479
                   21         22         23         24         25
    21  H    0.000000
    22  C    2.202760   0.000000
    23  H    2.511274   1.089360   0.000000
    24  H    2.705486   1.226673   1.766586   0.000000
    25  C    3.430990   1.456849   2.174143   2.099902   0.000000
    26  C    3.822109   2.434337   3.351677   3.007316   1.356043
    27  H    4.901951   3.423354   4.261673   3.902374   2.117839
    28  C    4.731584   2.579248   2.818468   2.950598   1.479745
    29  O    5.750618   3.680911   3.979798   4.081166   2.363949
    30  N    4.998657   2.867063   2.647213   2.983450   2.414889
    31  H    6.002176   3.872499   3.614901   3.902261   3.312241
    32  H    4.557909   2.555334   2.229389   2.371891   2.591577
    33  H    4.708396   5.890598   6.722005   6.334765   6.122634
    34  C    7.363650   6.057290   7.002575   5.760433   5.084505
    35  C    5.161147   3.737250   4.613879   3.141519   3.170173
    36  C    4.815718   3.185780   3.816925   2.307134   2.937753
    37  C    4.609134   3.531244   3.600115   2.366393   4.183320
    38  C    3.922686   2.695481   3.206051   1.510979   3.115791
    39  O    4.786682   3.855213   4.864503   3.372969   3.480725
    40  S    6.744355   5.079430   5.871536   4.649311   4.111227
    41  H    8.404269   7.002963   7.906354   6.719986   5.936439
    42  H    6.974241   5.786542   6.773628   5.697196   4.753150
    43  H    5.456789   4.530134   4.676760   3.321908   5.105602
    44  H    5.181554   3.758032   3.637789   2.759033   4.213559
    45  H    4.176607   3.530683   3.407245   2.501746   4.507841
    46  H    3.550684   2.921234   3.594462   1.871862   3.501989
    47  H    5.608569   3.748351   4.173090   2.955153   3.334323
    48  H    7.412741   6.335154   7.317373   5.905039   5.567964
                   26         27         28         29         30
    26  C    0.000000
    27  H    1.083131   0.000000
    28  C    2.421657   2.604121   0.000000
    29  O    2.768781   2.453242   1.213200   0.000000
    30  N    3.630761   3.951866   1.374602   2.264434   0.000000
    31  H    4.414372   4.548645   2.018073   2.451413   1.007892
    32  H    3.890359   4.404552   2.062792   3.127856   1.006663
    33  H    5.277743   5.846099   7.548623   8.017583   8.487316
    34  C    4.310496   3.763773   5.299261   5.055824   6.276214
    35  C    3.007299   3.140400   3.597401   3.990170   4.253562
    36  C    3.388829   3.756229   3.155191   3.855276   3.357246
    37  C    5.093425   5.780233   4.440071   5.482549   3.904285
    38  C    3.772687   4.453279   3.663578   4.638375   3.614548
    39  O    2.989252   3.260396   4.305516   4.738026   5.084382
    40  S    3.800434   3.393297   4.011822   3.884643   4.762367
    41  H    5.182516   4.493291   5.959077   5.538679   6.916997
    42  H    3.755716   3.130618   5.117426   4.826697   6.254848
    43  H    5.885069   6.504467   5.341287   6.298772   4.840976
    44  H    5.273027   5.855119   4.104609   5.094049   3.307585
    45  H    5.479535   6.298253   4.920577   6.058881   4.316179
    46  H    3.879343   4.644824   4.374706   5.323630   4.517092
    47  H    3.945772   4.139354   3.043964   3.611855   2.998795
    48  H    4.811704   4.458698   5.959268   5.887022   6.856437
                   31         32         33         34         35
    31  H    0.000000
    32  H    1.713291   0.000000
    33  H    9.427383   8.368066   0.000000
    34  C    6.590280   6.479286   7.302315   0.000000
    35  C    4.781252   4.136495   6.631200   2.756240   0.000000
    36  C    3.883432   3.004989   7.302086   4.083562   1.431441
    37  C    4.443083   2.996705   8.219597   6.518231   3.811442
    38  C    4.312629   2.938622   6.976595   5.216352   2.463291
    39  O    5.745576   4.918035   5.565808   2.859611   1.231668
    40  S    4.980245   4.940490   7.832809   1.798006   1.785257
    41  H    7.101352   7.203274   8.244402   1.087841   3.701522
    42  H    6.657148   6.527962   6.543019   1.087139   3.033224
    43  H    5.274638   3.977769   8.748580   6.660680   4.097616
    44  H    3.661339   2.413057   8.962888   6.740711   4.129735
    45  H    4.942411   3.335907   8.134070   7.383145   4.635411
    46  H    5.293901   3.873710   6.186290   5.245846   2.636044
    47  H    3.261433   2.749473   8.297683   4.392219   2.153929
    48  H    7.239061   6.915568   7.123431   1.087941   2.869517
                   36         37         38         39         40
    36  C    0.000000
    37  C    2.502626   0.000000
    38  C    1.380853   1.512296   0.000000
    39  O    2.361878   4.337449   2.876485   0.000000
    40  S    2.694188   5.148770   4.018075   2.650886   0.000000
    41  H    4.924579   7.366531   6.143080   3.933021   2.347509
    42  H    4.398380   6.831420   5.423548   2.885775   2.417098
    43  H    2.917629   1.092220   2.132639   4.599891   5.350437
    44  H    2.703643   1.091512   2.162586   4.886210   5.181678
    45  H    3.405417   1.090031   2.179826   4.979464   6.096020
    46  H    2.096054   2.217000   1.090064   2.556656   4.381020
    47  H    1.084401   2.736044   2.146284   3.288774   2.716974
    48  H    4.220764   6.481900   5.196648   2.687737   2.403620
                   41         42         43         44         45
    41  H    0.000000
    42  H    1.776197   0.000000
    43  H    7.464093   7.111590   0.000000
    44  H    7.495324   7.083566   1.757211   0.000000
    45  H    8.284583   7.599285   1.763400   1.773035   0.000000
    46  H    6.252925   5.376076   2.595499   3.109336   2.563412
    47  H    5.055040   4.818149   3.108336   2.509167   3.735438
    48  H    1.777425   1.778364   6.488632   6.850706   7.320302
                   46         47         48
    46  H    0.000000
    47  H    3.065098   0.000000
    48  H    5.051598   4.678630   0.000000
 Stoichiometry    C16H24N2O5S
 Framework group  C1[X(C16H24N2O5S)]
 Deg. of freedom   138
 Full point group                 C1      NOp   1
 Largest Abelian subgroup         C1      NOp   1
 Largest concise Abelian subgroup C1      NOp   1
                         Standard orientation:                         
 ---------------------------------------------------------------------
 Center     Atomic      Atomic             Coordinates (Angstroms)
 Number     Number       Type             X           Y           Z
 ---------------------------------------------------------------------
      1          6           0       -4.673851   -1.990960   -0.508256
      2          1           0       -4.625182   -2.928934    0.043401
      3          1           0       -5.699852   -1.835273   -0.843290
      4          6           0       -2.529394    0.437759   -0.684788
      5          1           0       -2.336790   -0.211751   -1.547766
      6          8           0       -2.067643    1.731079   -0.899572
      7          1           0       -1.103897    1.688087   -1.081446
      8          6           0       -4.021514    0.467813   -0.365592
      9          1           0       -4.636345    0.528612   -1.268983
     10          8           0       -4.294225    1.537747    0.507046
     11          1           0       -3.762718    2.285981    0.203721
     12          6           0       -1.978715   -0.236187    0.583272
     13          1           0       -1.804847    0.521728    1.353287
     14          6           0       -4.229792   -0.845765    0.379024
     15          1           0       -4.940660   -0.686809    1.191162
     16          8           0       -2.955584   -1.163752    0.969973
     17          7           0       -0.721428   -0.945819    0.398117
     18          6           0       -0.688343   -2.042917   -0.442260
     19          1           0       -1.642934   -2.333809   -0.854107
     20          6           0        0.441573   -2.724160   -0.661169
     21          1           0        0.418750   -3.596764   -1.297546
     22          6           0        1.709430   -2.268013   -0.105609
     23          1           0        2.454406   -3.044229    0.065283
     24          1           0        2.272482   -1.648411   -1.002154
     25          6           0        1.567714   -1.261074    0.937655
     26          6           0        0.383638   -0.620427    1.100098
     27          1           0        0.295770    0.184567    1.819428
     28          6           0        2.690352   -0.838757    1.804245
     29          8           0        2.531087   -0.133912    2.778762
     30          7           0        3.923044   -1.343182    1.464311
     31          1           0        4.698337   -0.948532    1.973250
     32          1           0        4.100072   -1.607242    0.509165
     33          1           0       -4.035925   -2.074894   -1.391199
     34          6           0        0.256488    3.602094    0.243055
     35          6           0        1.574427    1.406190   -0.775720
     36          6           0        2.743175    0.610194   -0.998072
     37          6           0        4.045530   -0.983839   -2.421472
     38          6           0        2.741676   -0.483017   -1.841660
     39          8           0        0.470553    1.189595   -1.277273
     40         16           0        1.860080    2.791895    0.313025
     41          1           0        0.371998    4.551051    0.762225
     42          1           0       -0.509674    3.009341    0.736523
     43          1           0        4.333725   -0.337130   -3.253130
     44          1           0        4.849835   -0.938962   -1.684940
     45          1           0        3.974759   -2.003294   -2.800777
     46          1           0        1.866581   -0.579719   -2.484386
     47          1           0        3.652025    0.914456   -0.490782
     48          1           0       -0.030378    3.784953   -0.790330
 ---------------------------------------------------------------------
 Rotational constants (GHZ):           0.3351462           0.1649879           0.1404611
 Leave Link  202 at Sat Aug 13 20:09:16 2022, MaxMem=  2684354560 cpu:               0.5 elap:               0.1
 (Enter /storage/apps/GAUSSIAN/G16_RevA03/g16/l301.exe)
 Standard basis: def2TZVP (5D, 7F)
 Ernie: Thresh=  0.10000D-02 Tol=  0.10000D-05 Strict=F.
 There are  1014 symmetry adapted cartesian basis functions of A   symmetry.
 There are   894 symmetry adapted basis functions of A   symmetry.
   894 basis functions,  1434 primitive gaussians,  1014 cartesian basis functions
    95 alpha electrons       95 beta electrons
       nuclear repulsion energy      2501.9052822813 Hartrees.
 IExCor= 4336 DFT=T Ex+Corr=M062X ExCW=0 ScaHFX=  0.540000
 ScaDFX=  1.000000  1.000000  1.000000  1.000000 ScalE2=  1.000000  1.000000
 IRadAn=      5 IRanWt=     -1 IRanGd=            0 ICorTp=0 IEmpDi=131
 NAtoms=   48 NActive=   48 NUniq=   48 SFac= 1.00D+00 NAtFMM=   60 NAOKFM=F Big=F
 Integral buffers will be    131072 words long.
 Raffenetti 2 integral format.
 Two-electron integral symmetry is turned on.
 R6Disp:  Grimme-D3 Dispersion energy=       -0.0042542818 Hartrees.
 Nuclear repulsion after empirical dispersion term =     2501.9010279995 Hartrees.
 Leave Link  301 at Sat Aug 13 20:09:16 2022, MaxMem=  2684354560 cpu:               1.2 elap:               0.2
 (Enter /storage/apps/GAUSSIAN/G16_RevA03/g16/l302.exe)
 NPDir=0 NMtPBC=     1 NCelOv=     1 NCel=       1 NClECP=     1 NCelD=      1
         NCelK=      1 NCelE2=     1 NClLst=     1 CellRange=     0.0.
 One-electron integrals computed using PRISM.
 One-electron integral symmetry used in STVInt
   1 Symmetry operations used in ECPInt.
 ECPInt:  NShTT=   65703 NPrTT=  200010 LenC2=   57005 LenP2D=  121653.
 LDataN:  DoStor=T MaxTD1= 6 Len=  172
 NBasis=   894 RedAO= T EigKep=  2.53D-05  NBF=   894
 NBsUse=   894 1.00D-06 EigRej= -1.00D+00 NBFU=   894
 Precomputing XC quadrature grid using
 IXCGrd= 4 IRadAn=           5 IRanWt=          -1 IRanGd=           0 AccXCQ= 0.00D+00.
 Generated NRdTot=       0 NPtTot=           0 NUsed=           0 NTot=          32
 NSgBfM=   998   997   998   998   998 MxSgAt=    48 MxSgA2=    48.
 Leave Link  302 at Sat Aug 13 20:09:17 2022, MaxMem=  2684354560 cpu:              19.2 elap:               1.2
 (Enter /storage/apps/GAUSSIAN/G16_RevA03/g16/l303.exe)
 DipDrv:  MaxL=1.
 Leave Link  303 at Sat Aug 13 20:09:17 2022, MaxMem=  2684354560 cpu:               2.2 elap:               0.2
 (Enter /storage/apps/GAUSSIAN/G16_RevA03/g16/l401.exe)
 ExpMin= 9.52D-02 ExpMax= 6.07D+04 ExpMxC= 2.07D+03 IAcc=3 IRadAn=         5 AccDes= 0.00D+00
 Harris functional with IExCor= 1009 and IRadAn=       5 diagonalized for initial guess.
 HarFok:  IExCor= 1009 AccDes= 0.00D+00 IRadAn=         5 IDoV= 1 UseB2=F ITyADJ=14
 ICtDFT=  3500011 ScaDFX=  1.000000  1.000000  1.000000  1.000000
 FoFCou: FMM=F IPFlag=           0 FMFlag=      100000 FMFlg1=           0
         NFxFlg=           0 DoJE=T BraDBF=F KetDBF=T FulRan=T
         wScrn=  0.000000 ICntrl=       500 IOpCl=  0 I1Cent=   200000004 NGrid=           0
         NMat0=    1 NMatS0=      1 NMatT0=    0 NMatD0=    1 NMtDS0=    0 NMtDT0=    0
 Petite list used in FoFCou.
 Harris En= -1507.21959912132    
 JPrj=0 DoOrth=F DoCkMO=F.
 Leave Link  401 at Sat Aug 13 20:09:22 2022, MaxMem=  2684354560 cpu:              64.9 elap:               4.2
 (Enter /storage/apps/GAUSSIAN/G16_RevA03/g16/l502.exe)
 Integral symmetry usage will be decided dynamically.
 Closed shell SCF:
 Using DIIS extrapolation, IDIIS=  1040.
 NGot=  2684354560 LenX=  2682272944 LenY=  2681243734
 Requested convergence on RMS density matrix=1.00D-08 within 128 cycles.
 Requested convergence on MAX density matrix=1.00D-06.
 Requested convergence on             energy=1.00D-06.
 No special actions if energy rises.
 Fock matrices will be formed incrementally for  20 cycles.
 Integral accuracy reduced to 1.0D-05 until final iterations.

 Cycle   1  Pass 0  IDiag  1:
 FoFJK:  IHMeth= 1 ICntrl=       0 DoSepK=F KAlg= 0 I1Cent=           0 FoldK=F
 IRaf= 800000000 NMat=       1 IRICut=       1 DoRegI=T DoRafI=F ISym2E= 0 IDoP0=0 IntGTp=1.
 FoFCou: FMM=F IPFlag=           0 FMFlag=      100000 FMFlg1=           0
         NFxFlg=           0 DoJE=F BraDBF=F KetDBF=F FulRan=T
         wScrn=  0.000000 ICntrl=         0 IOpCl=  0 I1Cent=           0 NGrid=           0
         NMat0=    1 NMatS0=      1 NMatT0=    0 NMatD0=    1 NMtDS0=    0 NMtDT0=    0
 Symmetry not used in FoFCou.
 E= -1507.17422911552    
 DIIS: error= 1.44D-02 at cycle   1 NSaved=   1.
 NSaved= 1 IEnMin= 1 EnMin= -1507.17422911552     IErMin= 1 ErrMin= 1.44D-02
 ErrMax= 1.44D-02  0.00D+00 EMaxC= 1.00D-01 BMatC= 9.83D-01 BMatP= 9.83D-01
 IDIUse=3 WtCom= 8.56D-01 WtEn= 1.44D-01
 Coeff-Com:  0.100D+01
 Coeff-En:   0.100D+01
 Coeff:      0.100D+01
 Gap=     0.312 Goal=   None    Shift=    0.000
 GapD=    0.312 DampG=1.000 DampE=0.500 DampFc=0.5000 IDamp=-1.
 Damping current iteration by 5.00D-01
 RMSDP=4.25D-03 MaxDP=1.61D+00              OVMax= 2.53D-01

 Cycle   2  Pass 0  IDiag  1:
 RMSU=  2.12D-03    CP:  1.02D+00
 E= -1507.51137219406     Delta-E=       -0.337143078541 Rises=F Damp=T
 DIIS: error= 3.79D-03 at cycle   2 NSaved=   2.
 NSaved= 2 IEnMin= 2 EnMin= -1507.51137219406     IErMin= 2 ErrMin= 3.79D-03
 ErrMax= 3.79D-03  0.00D+00 EMaxC= 1.00D-01 BMatC= 8.47D-02 BMatP= 9.83D-01
 IDIUse=3 WtCom= 9.62D-01 WtEn= 3.79D-02
 Coeff-Com: -0.195D-01 0.102D+01
 Coeff-En:   0.142D-01 0.986D+00
 Coeff:     -0.182D-01 0.102D+01
 Gap=     0.314 Goal=   None    Shift=    0.000
 RMSDP=1.38D-03 MaxDP=4.62D-01 DE=-3.37D-01 OVMax= 1.65D-01

 Cycle   3  Pass 0  IDiag  1:
 RMSU=  1.16D-03    CP:  1.00D+00  6.56D-01
 E= -1507.86302649116     Delta-E=       -0.351654297092 Rises=F Damp=F
 DIIS: error= 3.28D-03 at cycle   3 NSaved=   3.
 NSaved= 3 IEnMin= 3 EnMin= -1507.86302649116     IErMin= 3 ErrMin= 3.28D-03
 ErrMax= 3.28D-03  0.00D+00 EMaxC= 1.00D-01 BMatC= 4.52D-02 BMatP= 8.47D-02
 IDIUse=3 WtCom= 9.67D-01 WtEn= 3.28D-02
 Coeff-Com: -0.842D-01 0.441D+00 0.644D+00
 Coeff-En:   0.000D+00 0.000D+00 0.100D+01
 Coeff:     -0.814D-01 0.426D+00 0.655D+00
 Gap=     0.208 Goal=   None    Shift=    0.000
 RMSDP=3.79D-04 MaxDP=5.88D-02 DE=-3.52D-01 OVMax= 6.71D-02

 Cycle   4  Pass 0  IDiag  1:
 RMSU=  3.25D-04    CP:  1.00D+00  7.34D-01  9.12D-01
 E= -1507.89317418236     Delta-E=       -0.030147691204 Rises=F Damp=F
 DIIS: error= 1.64D-03 at cycle   4 NSaved=   4.
 NSaved= 4 IEnMin= 4 EnMin= -1507.89317418236     IErMin= 4 ErrMin= 1.64D-03
 ErrMax= 1.64D-03  0.00D+00 EMaxC= 1.00D-01 BMatC= 9.05D-03 BMatP= 4.52D-02
 IDIUse=3 WtCom= 9.84D-01 WtEn= 1.64D-02
 Coeff-Com: -0.368D-01 0.972D-01 0.350D+00 0.589D+00
 Coeff-En:   0.000D+00 0.000D+00 0.136D+00 0.864D+00
 Coeff:     -0.362D-01 0.956D-01 0.347D+00 0.594D+00
 Gap=     0.204 Goal=   None    Shift=    0.000
 RMSDP=1.32D-04 MaxDP=1.87D-02 DE=-3.01D-02 OVMax= 1.42D-02

 Cycle   5  Pass 0  IDiag  1:
 RMSU=  8.43D-05    CP:  1.00D+00  7.20D-01  9.39D-01  7.22D-01
 E= -1507.90025726831     Delta-E=       -0.007083085954 Rises=F Damp=F
 DIIS: error= 2.97D-04 at cycle   5 NSaved=   5.
 NSaved= 5 IEnMin= 5 EnMin= -1507.90025726831     IErMin= 5 ErrMin= 2.97D-04
 ErrMax= 2.97D-04  0.00D+00 EMaxC= 1.00D-01 BMatC= 3.15D-04 BMatP= 9.05D-03
 IDIUse=3 WtCom= 9.97D-01 WtEn= 2.97D-03
 Coeff-Com: -0.999D-02 0.175D-01 0.116D+00 0.250D+00 0.626D+00
 Coeff-En:   0.000D+00 0.000D+00 0.000D+00 0.000D+00 0.100D+01
 Coeff:     -0.996D-02 0.175D-01 0.116D+00 0.250D+00 0.627D+00
 Gap=     0.205 Goal=   None    Shift=    0.000
 RMSDP=4.27D-05 MaxDP=1.20D-02 DE=-7.08D-03 OVMax= 4.88D-03

 Cycle   6  Pass 0  IDiag  1:
 RMSU=  2.96D-05    CP:  1.00D+00  7.07D-01  9.50D-01  7.34D-01  9.50D-01
 E= -1507.90052473433     Delta-E=       -0.000267466016 Rises=F Damp=F
 DIIS: error= 1.18D-04 at cycle   6 NSaved=   6.
 NSaved= 6 IEnMin= 6 EnMin= -1507.90052473433     IErMin= 6 ErrMin= 1.18D-04
 ErrMax= 1.18D-04  0.00D+00 EMaxC= 1.00D-01 BMatC= 4.43D-05 BMatP= 3.15D-04
 IDIUse=3 WtCom= 9.99D-01 WtEn= 1.18D-03
 Coeff-Com:  0.298D-03-0.406D-02 0.111D-01 0.358D-01 0.277D+00 0.680D+00
 Coeff-En:   0.000D+00 0.000D+00 0.000D+00 0.000D+00 0.000D+00 0.100D+01
 Coeff:      0.297D-03-0.405D-02 0.110D-01 0.357D-01 0.276D+00 0.681D+00
 Gap=     0.206 Goal=   None    Shift=    0.000
 RMSDP=2.07D-05 MaxDP=3.82D-03 DE=-2.67D-04 OVMax= 2.94D-03

 Cycle   7  Pass 0  IDiag  1:
 RMSU=  1.73D-05    CP:  1.00D+00  7.03D-01  9.53D-01  7.43D-01  1.02D+00
                    CP:  1.04D+00
 E= -1507.90057813179     Delta-E=       -0.000053397457 Rises=F Damp=F
 DIIS: error= 5.59D-05 at cycle   7 NSaved=   7.
 NSaved= 7 IEnMin= 7 EnMin= -1507.90057813179     IErMin= 7 ErrMin= 5.59D-05
 ErrMax= 5.59D-05  0.00D+00 EMaxC= 1.00D-01 BMatC= 7.56D-06 BMatP= 4.43D-05
 IDIUse=1 WtCom= 1.00D+00 WtEn= 0.00D+00
 Coeff-Com:  0.185D-02-0.489D-02-0.132D-01-0.282D-01 0.736D-02 0.284D+00
 Coeff-Com:  0.753D+00
 Coeff:      0.185D-02-0.489D-02-0.132D-01-0.282D-01 0.736D-02 0.284D+00
 Coeff:      0.753D+00
 Gap=     0.206 Goal=   None    Shift=    0.000
 RMSDP=2.14D-05 MaxDP=6.61D-03 DE=-5.34D-05 OVMax= 1.67D-03

 Cycle   8  Pass 0  IDiag  1:
 RMSU=  1.36D-05    CP:  1.00D+00  6.97D-01  9.55D-01  7.49D-01  1.11D+00
                    CP:  1.27D+00  1.27D+00
 E= -1507.90058523246     Delta-E=       -0.000007100673 Rises=F Damp=F
 DIIS: error= 2.07D-05 at cycle   8 NSaved=   8.
 NSaved= 8 IEnMin= 8 EnMin= -1507.90058523246     IErMin= 8 ErrMin= 2.07D-05
 ErrMax= 2.07D-05  0.00D+00 EMaxC= 1.00D-01 BMatC= 1.89D-06 BMatP= 7.56D-06
 IDIUse=1 WtCom= 1.00D+00 WtEn= 0.00D+00
 Coeff-Com:  0.930D-03-0.174D-02-0.832D-02-0.226D-01-0.460D-01 0.189D-01
 Coeff-Com:  0.382D+00 0.677D+00
 Coeff:      0.930D-03-0.174D-02-0.832D-02-0.226D-01-0.460D-01 0.189D-01
 Coeff:      0.382D+00 0.677D+00
 Gap=     0.206 Goal=   None    Shift=    0.000
 RMSDP=1.87D-05 MaxDP=2.84D-03 DE=-7.10D-06 OVMax= 6.54D-04

 Cycle   9  Pass 0  IDiag  1:
 RMSU=  9.33D-06    CP:  1.00D+00  6.95D-01  9.55D-01  7.50D-01  1.17D+00
                    CP:  1.41D+00  1.76D+00  1.81D+00
 E= -1507.90057600803     Delta-E=        0.000009224426 Rises=F Damp=F
 DIIS: error= 2.52D-05 at cycle   9 NSaved=   9.
 NSaved= 9 IEnMin= 8 EnMin= -1507.90058523246     IErMin= 8 ErrMin= 2.07D-05
 ErrMax= 2.52D-05  0.00D+00 EMaxC= 1.00D-01 BMatC= 5.31D-07 BMatP= 1.89D-06
 IDIUse=1 WtCom= 1.00D+00 WtEn= 0.00D+00
 Coeff-Com:  0.390D-03-0.654D-03-0.348D-02-0.109D-01-0.254D-01-0.945D-02
 Coeff-Com:  0.158D+00 0.376D+00 0.515D+00
 Coeff:      0.390D-03-0.654D-03-0.348D-02-0.109D-01-0.254D-01-0.945D-02
 Coeff:      0.158D+00 0.376D+00 0.515D+00
 Gap=     0.206 Goal=   None    Shift=    0.000
 RMSDP=1.98D-05 MaxDP=2.23D-03 DE= 9.22D-06 OVMax= 1.94D-04

 Cycle  10  Pass 0  IDiag  1:
 RMSU=  5.83D-06    CP:  1.00D+00  6.94D-01  9.55D-01  7.52D-01  1.22D+00
                    CP:  1.50D+00  2.18D+00  2.68D+00  2.22D+00
 E= -1507.90056514336     Delta-E=        0.000010864671 Rises=F Damp=F
 DIIS: error= 3.73D-05 at cycle  10 NSaved=  10.
 NSaved=10 IEnMin= 8 EnMin= -1507.90058523246     IErMin= 8 ErrMin= 2.07D-05
 ErrMax= 3.73D-05  0.00D+00 EMaxC= 1.00D-01 BMatC= 9.01D-07 BMatP= 5.31D-07
 IDIUse=1 WtCom= 1.00D+00 WtEn= 0.00D+00
 Coeff-Com:  0.376D-03-0.526D-03-0.355D-02-0.121D-01-0.326D-01-0.304D-01
 Coeff-Com:  0.154D+00 0.482D+00 0.110D+01-0.657D+00
 Coeff:      0.376D-03-0.526D-03-0.355D-02-0.121D-01-0.326D-01-0.304D-01
 Coeff:      0.154D+00 0.482D+00 0.110D+01-0.657D+00
 Gap=     0.206 Goal=   None    Shift=    0.000
 RMSDP=2.76D-05 MaxDP=3.49D-03 DE= 1.09D-05 OVMax= 6.48D-05

 Problem detected with inexpensive integrals.
 Switching to full accuracy and repeating last cycle.
 Cycle  11  Pass 1  IDiag  1:
 E= -1507.90057455650     Delta-E=       -0.000009413137 Rises=F Damp=F
 DIIS: error= 3.23D-04 at cycle   1 NSaved=   1.
 NSaved= 1 IEnMin= 1 EnMin= -1507.90057455650     IErMin= 1 ErrMin= 3.23D-04
 ErrMax= 3.23D-04  0.00D+00 EMaxC= 1.00D-01 BMatC= 8.92D-05 BMatP= 8.92D-05
 IDIUse=3 WtCom= 9.97D-01 WtEn= 3.23D-03
 Coeff-Com:  0.100D+01
 Coeff-En:   0.100D+01
 Coeff:      0.100D+01
 Gap=     0.206 Goal=   None    Shift=    0.000
 RMSDP=4.42D-04 MaxDP=3.63D-02 DE=-9.41D-06 OVMax= 9.32D-04

 Cycle  12  Pass 1  IDiag  1:
 RMSU=  4.41D-04    CP:  9.94D-01
 E= -1507.90063014969     Delta-E=       -0.000055593188 Rises=F Damp=F
 DIIS: error= 1.06D-05 at cycle   2 NSaved=   2.
 NSaved= 2 IEnMin= 2 EnMin= -1507.90063014969     IErMin= 2 ErrMin= 1.06D-05
 ErrMax= 1.06D-05  0.00D+00 EMaxC= 1.00D-01 BMatC= 6.38D-08 BMatP= 8.92D-05
 IDIUse=1 WtCom= 1.00D+00 WtEn= 0.00D+00
 Coeff-Com: -0.164D-01 0.102D+01
 Coeff:     -0.164D-01 0.102D+01
 Gap=     0.206 Goal=   None    Shift=    0.000
 RMSDP=1.61D-05 MaxDP=1.42D-03 DE=-5.56D-05 OVMax= 7.34D-05

 Cycle  13  Pass 1  IDiag  1:
 RMSU=  5.50D-06    CP:  9.94D-01  1.03D+00
 E= -1507.90063022131     Delta-E=       -0.000000071617 Rises=F Damp=F
 DIIS: error= 2.70D-06 at cycle   3 NSaved=   3.
 NSaved= 3 IEnMin= 3 EnMin= -1507.90063022131     IErMin= 3 ErrMin= 2.70D-06
 ErrMax= 2.70D-06  0.00D+00 EMaxC= 1.00D-01 BMatC= 2.90D-08 BMatP= 6.38D-08
 IDIUse=1 WtCom= 1.00D+00 WtEn= 0.00D+00
 Coeff-Com: -0.759D-02 0.450D+00 0.558D+00
 Coeff:     -0.759D-02 0.450D+00 0.558D+00
 Gap=     0.206 Goal=   None    Shift=    0.000
 RMSDP=5.66D-07 MaxDP=1.46D-04 DE=-7.16D-08 OVMax= 4.51D-05

 Cycle  14  Pass 1  IDiag  1:
 RMSU=  4.80D-07    CP:  9.94D-01  1.03D+00  1.02D+00
 E= -1507.90063024027     Delta-E=       -0.000000018969 Rises=F Damp=F
 DIIS: error= 1.26D-06 at cycle   4 NSaved=   4.
 NSaved= 4 IEnMin= 4 EnMin= -1507.90063024027     IErMin= 4 ErrMin= 1.26D-06
 ErrMax= 1.26D-06  0.00D+00 EMaxC= 1.00D-01 BMatC= 5.09D-09 BMatP= 2.90D-08
 IDIUse=1 WtCom= 1.00D+00 WtEn= 0.00D+00
 Coeff-Com:  0.299D-03-0.293D-01 0.281D+00 0.748D+00
 Coeff:      0.299D-03-0.293D-01 0.281D+00 0.748D+00
 Gap=     0.206 Goal=   None    Shift=    0.000
 RMSDP=3.33D-07 MaxDP=5.60D-05 DE=-1.90D-08 OVMax= 1.74D-05

 Cycle  15  Pass 1  IDiag  1:
 RMSU=  1.52D-07    CP:  9.94D-01  1.04D+00  1.06D+00  9.23D-01
 E= -1507.90063024451     Delta-E=       -0.000000004236 Rises=F Damp=F
 DIIS: error= 3.22D-07 at cycle   5 NSaved=   5.
 NSaved= 5 IEnMin= 5 EnMin= -1507.90063024451     IErMin= 5 ErrMin= 3.22D-07
 ErrMax= 3.22D-07  0.00D+00 EMaxC= 1.00D-01 BMatC= 3.95D-10 BMatP= 5.09D-09
 IDIUse=1 WtCom= 1.00D+00 WtEn= 0.00D+00
 Coeff-Com:  0.544D-03-0.375D-01 0.950D-01 0.347D+00 0.595D+00
 Coeff:      0.544D-03-0.375D-01 0.950D-01 0.347D+00 0.595D+00
 Gap=     0.206 Goal=   None    Shift=    0.000
 RMSDP=5.28D-08 MaxDP=1.06D-05 DE=-4.24D-09 OVMax= 8.07D-06

 Cycle  16  Pass 1  IDiag  1:
 RMSU=  3.67D-08    CP:  9.94D-01  1.04D+00  1.06D+00  9.87D-01  1.09D+00
 E= -1507.90063024490     Delta-E=       -0.000000000391 Rises=F Damp=F
 DIIS: error= 1.59D-07 at cycle   6 NSaved=   6.
 NSaved= 6 IEnMin= 6 EnMin= -1507.90063024490     IErMin= 6 ErrMin= 1.59D-07
 ErrMax= 1.59D-07  0.00D+00 EMaxC= 1.00D-01 BMatC= 4.26D-11 BMatP= 3.95D-10
 IDIUse=1 WtCom= 1.00D+00 WtEn= 0.00D+00
 Coeff-Com:  0.129D-03-0.712D-02-0.249D-01-0.222D-01 0.186D+00 0.868D+00
 Coeff:      0.129D-03-0.712D-02-0.249D-01-0.222D-01 0.186D+00 0.868D+00
 Gap=     0.206 Goal=   None    Shift=    0.000
 RMSDP=2.92D-08 MaxDP=4.31D-06 DE=-3.91D-10 OVMax= 4.94D-06

 Cycle  17  Pass 1  IDiag  1:
 RMSU=  2.07D-08    CP:  9.94D-01  1.04D+00  1.06D+00  1.01D+00  1.18D+00
                    CP:  1.19D+00
 E= -1507.90063024505     Delta-E=       -0.000000000145 Rises=F Damp=F
 DIIS: error= 8.00D-08 at cycle   7 NSaved=   7.
 NSaved= 7 IEnMin= 7 EnMin= -1507.90063024505     IErMin= 7 ErrMin= 8.00D-08
 ErrMax= 8.00D-08  0.00D+00 EMaxC= 1.00D-01 BMatC= 1.68D-11 BMatP= 4.26D-11
 IDIUse=1 WtCom= 1.00D+00 WtEn= 0.00D+00
 Coeff-Com: -0.287D-04 0.295D-02-0.326D-01-0.751D-01-0.690D-02 0.489D+00
 Coeff-Com:  0.623D+00
 Coeff:     -0.287D-04 0.295D-02-0.326D-01-0.751D-01-0.690D-02 0.489D+00
 Coeff:      0.623D+00
 Gap=     0.206 Goal=   None    Shift=    0.000
 RMSDP=1.23D-08 MaxDP=1.68D-06 DE=-1.45D-10 OVMax= 3.30D-06

 Cycle  18  Pass 1  IDiag  1:
 RMSU=  8.45D-09    CP:  9.94D-01  1.04D+00  1.06D+00  1.02D+00  1.20D+00
                    CP:  1.36D+00  9.95D-01
 E= -1507.90063024504     Delta-E=        0.000000000005 Rises=F Damp=F
 DIIS: error= 3.16D-08 at cycle   8 NSaved=   8.
 NSaved= 8 IEnMin= 7 EnMin= -1507.90063024505     IErMin= 8 ErrMin= 3.16D-08
 ErrMax= 3.16D-08  0.00D+00 EMaxC= 1.00D-01 BMatC= 2.11D-12 BMatP= 1.68D-11
 IDIUse=1 WtCom= 1.00D+00 WtEn= 0.00D+00
 Coeff-Com: -0.313D-04 0.238D-02-0.121D-01-0.323D-01-0.298D-01 0.953D-01
 Coeff-Com:  0.309D+00 0.667D+00
 Coeff:     -0.313D-04 0.238D-02-0.121D-01-0.323D-01-0.298D-01 0.953D-01
 Coeff:      0.309D+00 0.667D+00
 Gap=     0.206 Goal=   None    Shift=    0.000
 RMSDP=4.21D-09 MaxDP=9.14D-07 DE= 4.55D-12 OVMax= 8.81D-07

 SCF Done:  E(RM062X) =  -1507.90063025     A.U. after   18 cycles
            NFock= 18  Conv=0.42D-08     -V/T= 2.0037
 KE= 1.502358260821D+03 PE=-8.541744739685D+03 EE= 3.029584820619D+03
 Leave Link  502 at Sat Aug 13 20:18:22 2022, MaxMem=  2684354560 cpu:            8632.0 elap:             540.5
 (Enter /storage/apps/GAUSSIAN/G16_RevA03/g16/l601.exe)
 Copying SCF densities to generalized density rwf, IOpCl= 0 IROHF=0.

 **********************************************************************

            Population analysis using the SCF density.

 **********************************************************************

 Orbital symmetries:
       Occupied  (A) (A) (A) (A) (A) (A) (A) (A) (A) (A) (A) (A)
                 (A) (A) (A) (A) (A) (A) (A) (A) (A) (A) (A) (A)
                 (A) (A) (A) (A) (A) (A) (A) (A) (A) (A) (A) (A)
                 (A) (A) (A) (A) (A) (A) (A) (A) (A) (A) (A) (A)
                 (A) (A) (A) (A) (A) (A) (A) (A) (A) (A) (A) (A)
                 (A) (A) (A) (A) (A) (A) (A) (A) (A) (A) (A) (A)
                 (A) (A) (A) (A) (A) (A) (A) (A) (A) (A) (A) (A)
                 (A) (A) (A) (A) (A) (A) (A) (A) (A) (A) (A)
       Virtual   (A) (A) (A) (A) (A) (A) (A) (A) (A) (A) (A) (A)
                 (A) (A) (A) (A) (A) (A) (A) (A) (A) (A) (A) (A)
                 (A) (A) (A) (A) (A) (A) (A) (A) (A) (A) (A) (A)
                 (A) (A) (A) (A) (A) (A) (A) (A) (A) (A) (A) (A)
                 (A) (A) (A) (A) (A) (A) (A) (A) (A) (A) (A) (A)
                 (A) (A) (A) (A) (A) (A) (A) (A) (A) (A) (A) (A)
                 (A) (A) (A) (A) (A) (A) (A) (A) (A) (A) (A) (A)
                 (A) (A) (A) (A) (A) (A) (A) (A) (A) (A) (A) (A)
                 (A) (A) (A) (A) (A) (A) (A) (A) (A) (A) (A) (A)
                 (A) (A) (A) (A) (A) (A) (A) (A) (A) (A) (A) (A)
                 (A) (A) (A) (A) (A) (A) (A) (A) (A) (A) (A) (A)
                 (A) (A) (A) (A) (A) (A) (A) (A) (A) (A) (A) (A)
                 (A) (A) (A) (A) (A) (A) (A) (A) (A) (A) (A) (A)
                 (A) (A) (A) (A) (A) (A) (A) (A) (A) (A) (A) (A)
                 (A) (A) (A) (A) (A) (A) (A) (A) (A) (A) (A) (A)
                 (A) (A) (A) (A) (A) (A) (A) (A) (A) (A) (A) (A)
                 (A) (A) (A) (A) (A) (A) (A) (A) (A) (A) (A) (A)
                 (A) (A) (A) (A) (A) (A) (A) (A) (A) (A) (A) (A)
                 (A) (A) (A) (A) (A) (A) (A) (A) (A) (A) (A) (A)
                 (A) (A) (A) (A) (A) (A) (A) (A) (A) (A) (A) (A)
                 (A) (A) (A) (A) (A) (A) (A) (A) (A) (A) (A) (A)
                 (A) (A) (A) (A) (A) (A) (A) (A) (A) (A) (A) (A)
                 (A) (A) (A) (A) (A) (A) (A) (A) (A) (A) (A) (A)
                 (A) (A) (A) (A) (A) (A) (A) (A) (A) (A) (A) (A)
                 (A) (A) (A) (A) (A) (A) (A) (A) (A) (A) (A) (A)
                 (A) (A) (A) (A) (A) (A) (A) (A) (A) (A) (A) (A)
                 (A) (A) (A) (A) (A) (A) (A) (A) (A) (A) (A) (A)
                 (A) (A) (A) (A) (A) (A) (A) (A) (A) (A) (A) (A)
                 (A) (A) (A) (A) (A) (A) (A) (A) (A) (A) (A) (A)
                 (A) (A) (A) (A) (A) (A) (A) (A) (A) (A) (A) (A)
                 (A) (A) (A) (A) (A) (A) (A) (A) (A) (A) (A) (A)
                 (A) (A) (A) (A) (A) (A) (A) (A) (A) (A) (A) (A)
                 (A) (A) (A) (A) (A) (A) (A) (A) (A) (A) (A) (A)
                 (A) (A) (A) (A) (A) (A) (A) (A) (A) (A) (A) (A)
                 (A) (A) (A) (A) (A) (A) (A) (A) (A) (A) (A) (A)
                 (A) (A) (A) (A) (A) (A) (A) (A) (A) (A) (A) (A)
                 (A) (A) (A) (A) (A) (A) (A) (A) (A) (A) (A) (A)
                 (A) (A) (A) (A) (A) (A) (A) (A) (A) (A) (A) (A)
                 (A) (A) (A) (A) (A) (A) (A) (A) (A) (A) (A) (A)
                 (A) (A) (A) (A) (A) (A) (A) (A) (A) (A) (A) (A)
                 (A) (A) (A) (A) (A) (A) (A) (A) (A) (A) (A) (A)
                 (A) (A) (A) (A) (A) (A) (A) (A) (A) (A) (A) (A)
                 (A) (A) (A) (A) (A) (A) (A) (A) (A) (A) (A) (A)
                 (A) (A) (A) (A) (A) (A) (A) (A) (A) (A) (A) (A)
                 (A) (A) (A) (A) (A) (A) (A) (A) (A) (A) (A) (A)
                 (A) (A) (A) (A) (A) (A) (A) (A) (A) (A) (A) (A)
                 (A) (A) (A) (A) (A) (A) (A) (A) (A) (A) (A) (A)
                 (A) (A) (A) (A) (A) (A) (A) (A) (A) (A) (A) (A)
                 (A) (A) (A) (A) (A) (A) (A) (A) (A) (A) (A) (A)
                 (A) (A) (A) (A) (A) (A) (A) (A) (A) (A) (A) (A)
                 (A) (A) (A) (A) (A) (A) (A) (A) (A) (A) (A) (A)
                 (A) (A) (A) (A) (A) (A) (A) (A) (A) (A) (A) (A)
                 (A) (A) (A) (A) (A) (A) (A) (A) (A) (A) (A) (A)
                 (A) (A) (A) (A) (A) (A) (A) (A) (A) (A) (A) (A)
                 (A) (A) (A) (A) (A) (A) (A) (A) (A) (A) (A) (A)
                 (A) (A) (A) (A) (A) (A) (A) (A) (A) (A) (A) (A)
                 (A) (A) (A) (A) (A) (A) (A) (A) (A) (A) (A) (A)
                 (A) (A) (A) (A) (A) (A) (A) (A) (A) (A) (A) (A)
                 (A) (A) (A) (A) (A) (A) (A) (A) (A) (A) (A) (A)
                 (A) (A) (A) (A) (A) (A) (A) (A) (A) (A) (A) (A)
                 (A) (A) (A) (A) (A) (A) (A) (A) (A) (A) (A) (A)
                 (A) (A) (A) (A) (A) (A) (A) (A) (A) (A) (A) (A)
                 (A) (A) (A) (A) (A) (A) (A) (A) (A) (A) (A) (A)
                 (A) (A) (A) (A) (A) (A) (A) (A) (A) (A) (A) (A)
                 (A) (A) (A) (A) (A) (A) (A) (A) (A) (A) (A) (A)
                 (A) (A) (A) (A) (A) (A) (A) (A) (A) (A) (A) (A)
                 (A) (A) (A) (A) (A) (A) (A)
 The electronic state is 1-A.
 Alpha  occ. eigenvalues --  -89.90772 -19.64190 -19.62446 -19.62258 -19.62071
 Alpha  occ. eigenvalues --  -19.58564 -14.81310 -14.76553 -10.64782 -10.64191
 Alpha  occ. eigenvalues --  -10.63792 -10.59876 -10.59840 -10.59642 -10.59360
 Alpha  occ. eigenvalues --  -10.58895 -10.57628 -10.56698 -10.56228 -10.55452
 Alpha  occ. eigenvalues --  -10.55251 -10.54769 -10.54099 -10.53754  -8.26676
 Alpha  occ. eigenvalues --   -6.18624  -6.18396  -6.18170  -1.20032  -1.17204
 Alpha  occ. eigenvalues --   -1.16097  -1.15916  -1.13786  -1.10325  -1.01411
 Alpha  occ. eigenvalues --   -0.94184  -0.91798  -0.89164  -0.89034  -0.88942
 Alpha  occ. eigenvalues --   -0.86209  -0.82573  -0.79579  -0.76685  -0.75706
 Alpha  occ. eigenvalues --   -0.74355  -0.71426  -0.68252  -0.68001  -0.67138
 Alpha  occ. eigenvalues --   -0.64313  -0.63585  -0.62104  -0.60443  -0.59133
 Alpha  occ. eigenvalues --   -0.59016  -0.57896  -0.56630  -0.55982  -0.55686
 Alpha  occ. eigenvalues --   -0.54976  -0.53683  -0.53345  -0.52067  -0.51206
 Alpha  occ. eigenvalues --   -0.51017  -0.50341  -0.50042  -0.49944  -0.49763
 Alpha  occ. eigenvalues --   -0.48453  -0.47771  -0.47498  -0.47269  -0.46610
 Alpha  occ. eigenvalues --   -0.45736  -0.45127  -0.44654  -0.44489  -0.44340
 Alpha  occ. eigenvalues --   -0.43933  -0.43187  -0.43144  -0.40771  -0.38075
 Alpha  occ. eigenvalues --   -0.36473  -0.35951  -0.34804  -0.34414  -0.34049
 Alpha  occ. eigenvalues --   -0.33094  -0.33030  -0.31650  -0.29918  -0.24569
 Alpha virt. eigenvalues --   -0.04010  -0.00795   0.04170   0.04922   0.05385
 Alpha virt. eigenvalues --    0.06099   0.07007   0.07480   0.08535   0.08859
 Alpha virt. eigenvalues --    0.09515   0.09697   0.10425   0.10843   0.11118
 Alpha virt. eigenvalues --    0.11859   0.12465   0.12739   0.12889   0.13165
 Alpha virt. eigenvalues --    0.13389   0.13496   0.13942   0.14071   0.14501
 Alpha virt. eigenvalues --    0.15006   0.15451   0.16117   0.17075   0.17232
 Alpha virt. eigenvalues --    0.18039   0.18301   0.18688   0.19405   0.19826
 Alpha virt. eigenvalues --    0.20157   0.20527   0.21790   0.22357   0.22669
 Alpha virt. eigenvalues --    0.23098   0.23476   0.23571   0.24160   0.24725
 Alpha virt. eigenvalues --    0.25029   0.25445   0.26134   0.26319   0.26985
 Alpha virt. eigenvalues --    0.27307   0.27736   0.28073   0.28565   0.28987
 Alpha virt. eigenvalues --    0.29312   0.30017   0.30348   0.30809   0.31219
 Alpha virt. eigenvalues --    0.31733   0.32693   0.33040   0.33457   0.33851
 Alpha virt. eigenvalues --    0.34396   0.35024   0.35113   0.35829   0.36103
 Alpha virt. eigenvalues --    0.36455   0.37646   0.37978   0.38265   0.38674
 Alpha virt. eigenvalues --    0.38985   0.39510   0.39790   0.39892   0.40374
 Alpha virt. eigenvalues --    0.40909   0.41355   0.41564   0.42170   0.42371
 Alpha virt. eigenvalues --    0.42718   0.42926   0.43186   0.43898   0.44085
 Alpha virt. eigenvalues --    0.44519   0.44832   0.45302   0.45647   0.45859
 Alpha virt. eigenvalues --    0.45969   0.46495   0.46844   0.46936   0.47614
 Alpha virt. eigenvalues --    0.48098   0.48280   0.48477   0.49027   0.49213
 Alpha virt. eigenvalues --    0.49929   0.50092   0.50196   0.51138   0.51261
 Alpha virt. eigenvalues --    0.51663   0.51999   0.52150   0.52590   0.52938
 Alpha virt. eigenvalues --    0.53377   0.53821   0.54124   0.54873   0.55035
 Alpha virt. eigenvalues --    0.55564   0.55939   0.56392   0.57196   0.57473
 Alpha virt. eigenvalues --    0.57935   0.58318   0.58882   0.59378   0.60274
 Alpha virt. eigenvalues --    0.60557   0.61242   0.61856   0.62258   0.62789
 Alpha virt. eigenvalues --    0.63141   0.64011   0.64373   0.65275   0.65302
 Alpha virt. eigenvalues --    0.66300   0.66852   0.67089   0.67780   0.68277
 Alpha virt. eigenvalues --    0.68523   0.69184   0.70092   0.70704   0.71527
 Alpha virt. eigenvalues --    0.72302   0.72743   0.73113   0.73819   0.74261
 Alpha virt. eigenvalues --    0.74839   0.75619   0.76200   0.76415   0.76900
 Alpha virt. eigenvalues --    0.78315   0.78949   0.80390   0.80688   0.81439
 Alpha virt. eigenvalues --    0.81506   0.82343   0.83646   0.83940   0.84497
 Alpha virt. eigenvalues --    0.85795   0.86109   0.86711   0.87065   0.87548
 Alpha virt. eigenvalues --    0.88781   0.89331   0.89781   0.90082   0.90688
 Alpha virt. eigenvalues --    0.91016   0.91090   0.92105   0.92694   0.93462
 Alpha virt. eigenvalues --    0.93685   0.94292   0.95183   0.95747   0.97089
 Alpha virt. eigenvalues --    0.97557   0.98272   0.98623   0.99021   0.99701
 Alpha virt. eigenvalues --    1.00751   1.00822   1.01340   1.02215   1.03186
 Alpha virt. eigenvalues --    1.03327   1.04275   1.05391   1.05629   1.05918
 Alpha virt. eigenvalues --    1.07627   1.07822   1.08108   1.08894   1.09461
 Alpha virt. eigenvalues --    1.10721   1.11576   1.12295   1.12938   1.13516
 Alpha virt. eigenvalues --    1.14789   1.15365   1.16045   1.16974   1.17694
 Alpha virt. eigenvalues --    1.18132   1.18891   1.19052   1.19535   1.21132
 Alpha virt. eigenvalues --    1.21620   1.21939   1.22674   1.23682   1.24176
 Alpha virt. eigenvalues --    1.25035   1.25640   1.26141   1.27967   1.28777
 Alpha virt. eigenvalues --    1.29948   1.30552   1.30864   1.31091   1.32368
 Alpha virt. eigenvalues --    1.32721   1.33120   1.34162   1.34805   1.35431
 Alpha virt. eigenvalues --    1.36366   1.37059   1.39629   1.39833   1.40882
 Alpha virt. eigenvalues --    1.41521   1.42353   1.43247   1.43283   1.44943
 Alpha virt. eigenvalues --    1.45470   1.46409   1.47983   1.48603   1.49776
 Alpha virt. eigenvalues --    1.50617   1.51626   1.52131   1.52720   1.53426
 Alpha virt. eigenvalues --    1.53625   1.54467   1.55194   1.55554   1.55918
 Alpha virt. eigenvalues --    1.56260   1.57079   1.57721   1.58167   1.58460
 Alpha virt. eigenvalues --    1.58888   1.59652   1.59734   1.60491   1.60970
 Alpha virt. eigenvalues --    1.61284   1.61399   1.61740   1.62618   1.62813
 Alpha virt. eigenvalues --    1.64069   1.64255   1.64676   1.65360   1.65695
 Alpha virt. eigenvalues --    1.65949   1.66592   1.67325   1.68398   1.68941
 Alpha virt. eigenvalues --    1.69231   1.69428   1.69774   1.70125   1.71791
 Alpha virt. eigenvalues --    1.72743   1.72987   1.73606   1.74064   1.74609
 Alpha virt. eigenvalues --    1.75141   1.76696   1.77005   1.77641   1.77988
 Alpha virt. eigenvalues --    1.78192   1.79920   1.80037   1.80641   1.81545
 Alpha virt. eigenvalues --    1.83278   1.83975   1.84596   1.84741   1.85285
 Alpha virt. eigenvalues --    1.85936   1.86747   1.87329   1.87618   1.88461
 Alpha virt. eigenvalues --    1.88707   1.90238   1.90724   1.91840   1.93023
 Alpha virt. eigenvalues --    1.93278   1.94248   1.94576   1.94790   1.95595
 Alpha virt. eigenvalues --    1.96302   1.97217   1.98273   1.98675   1.99036
 Alpha virt. eigenvalues --    1.99444   2.00493   2.00670   2.01610   2.02598
 Alpha virt. eigenvalues --    2.03404   2.03699   2.05077   2.05365   2.05735
 Alpha virt. eigenvalues --    2.06400   2.07362   2.07635   2.09244   2.09793
 Alpha virt. eigenvalues --    2.10326   2.11695   2.12569   2.13061   2.13851
 Alpha virt. eigenvalues --    2.14934   2.15643   2.17203   2.17546   2.18069
 Alpha virt. eigenvalues --    2.18784   2.19802   2.20440   2.20723   2.21234
 Alpha virt. eigenvalues --    2.21769   2.22430   2.22508   2.22774   2.23009
 Alpha virt. eigenvalues --    2.23704   2.25032   2.26746   2.26923   2.27475
 Alpha virt. eigenvalues --    2.28655   2.29660   2.30421   2.30762   2.31440
 Alpha virt. eigenvalues --    2.31786   2.33171   2.33542   2.34063   2.34306
 Alpha virt. eigenvalues --    2.34666   2.35706   2.36269   2.36978   2.37204
 Alpha virt. eigenvalues --    2.37930   2.38255   2.39076   2.40188   2.40858
 Alpha virt. eigenvalues --    2.41478   2.41948   2.42321   2.43873   2.44344
 Alpha virt. eigenvalues --    2.45081   2.45659   2.46241   2.47969   2.48562
 Alpha virt. eigenvalues --    2.49063   2.49584   2.50489   2.50940   2.51691
 Alpha virt. eigenvalues --    2.53809   2.55588   2.55892   2.56272   2.56878
 Alpha virt. eigenvalues --    2.57720   2.58190   2.58596   2.59178   2.59609
 Alpha virt. eigenvalues --    2.60383   2.60938   2.61793   2.62037   2.62467
 Alpha virt. eigenvalues --    2.63370   2.63771   2.63964   2.65116   2.65281
 Alpha virt. eigenvalues --    2.65524   2.65946   2.66711   2.68677   2.68916
 Alpha virt. eigenvalues --    2.69154   2.70159   2.70909   2.71591   2.71679
 Alpha virt. eigenvalues --    2.72033   2.73704   2.73809   2.74549   2.75105
 Alpha virt. eigenvalues --    2.75787   2.76780   2.77568   2.78534   2.79532
 Alpha virt. eigenvalues --    2.80499   2.81699   2.82019   2.82371   2.82498
 Alpha virt. eigenvalues --    2.83545   2.84217   2.85139   2.85866   2.86605
 Alpha virt. eigenvalues --    2.87245   2.87570   2.88150   2.88850   2.89541
 Alpha virt. eigenvalues --    2.90507   2.91075   2.91324   2.91841   2.93628
 Alpha virt. eigenvalues --    2.94359   2.94715   2.95807   2.96285   2.97621
 Alpha virt. eigenvalues --    2.98460   2.99220   3.00597   3.00917   3.01713
 Alpha virt. eigenvalues --    3.01797   3.02223   3.03410   3.04478   3.05164
 Alpha virt. eigenvalues --    3.05810   3.06360   3.07021   3.07358   3.07849
 Alpha virt. eigenvalues --    3.08271   3.09003   3.09570   3.10031   3.10897
 Alpha virt. eigenvalues --    3.11667   3.11953   3.12082   3.12529   3.13251
 Alpha virt. eigenvalues --    3.13786   3.14447   3.15766   3.16524   3.16731
 Alpha virt. eigenvalues --    3.17439   3.17630   3.18298   3.18488   3.18986
 Alpha virt. eigenvalues --    3.19396   3.20237   3.20742   3.21656   3.22864
 Alpha virt. eigenvalues --    3.23702   3.23815   3.24441   3.24861   3.25940
 Alpha virt. eigenvalues --    3.26536   3.27253   3.28064   3.29013   3.29563
 Alpha virt. eigenvalues --    3.30174   3.30362   3.30664   3.31671   3.32480
 Alpha virt. eigenvalues --    3.32925   3.33425   3.34010   3.34799   3.35280
 Alpha virt. eigenvalues --    3.35903   3.36136   3.36861   3.37835   3.38203
 Alpha virt. eigenvalues --    3.38362   3.39477   3.39741   3.40754   3.40981
 Alpha virt. eigenvalues --    3.41993   3.42263   3.43006   3.43697   3.44146
 Alpha virt. eigenvalues --    3.45095   3.45331   3.45819   3.45870   3.46656
 Alpha virt. eigenvalues --    3.47263   3.48311   3.49417   3.49493   3.50524
 Alpha virt. eigenvalues --    3.51346   3.52306   3.52935   3.54204   3.54630
 Alpha virt. eigenvalues --    3.54778   3.56052   3.57041   3.57468   3.57620
 Alpha virt. eigenvalues --    3.58203   3.59118   3.59871   3.60166   3.60859
 Alpha virt. eigenvalues --    3.61710   3.62716   3.63825   3.65005   3.65404
 Alpha virt. eigenvalues --    3.65954   3.66505   3.66841   3.67884   3.69561
 Alpha virt. eigenvalues --    3.70894   3.72109   3.72924   3.74307   3.76005
 Alpha virt. eigenvalues --    3.76864   3.77924   3.78665   3.79650   3.80797
 Alpha virt. eigenvalues --    3.81091   3.81632   3.82380   3.84078   3.84798
 Alpha virt. eigenvalues --    3.86739   3.87770   3.88627   3.89205   3.91036
 Alpha virt. eigenvalues --    3.91632   3.93024   3.93624   3.94895   3.96631
 Alpha virt. eigenvalues --    3.96778   3.97851   3.98181   4.00007   4.00148
 Alpha virt. eigenvalues --    4.00723   4.01663   4.03015   4.05888   4.07143
 Alpha virt. eigenvalues --    4.08208   4.10159   4.11603   4.13478   4.14328
 Alpha virt. eigenvalues --    4.15224   4.16315   4.17310   4.18636   4.19820
 Alpha virt. eigenvalues --    4.20706   4.22027   4.22782   4.24762   4.25910
 Alpha virt. eigenvalues --    4.26368   4.28308   4.28857   4.29506   4.30485
 Alpha virt. eigenvalues --    4.31532   4.35227   4.36117   4.37495   4.37862
 Alpha virt. eigenvalues --    4.40403   4.41169   4.42475   4.42492   4.43104
 Alpha virt. eigenvalues --    4.45395   4.47861   4.49475   4.49648   4.50905
 Alpha virt. eigenvalues --    4.51996   4.52904   4.56070   4.58623   4.59879
 Alpha virt. eigenvalues --    4.61871   4.63449   4.65476   4.68159   4.69680
 Alpha virt. eigenvalues --    4.71727   4.73453   4.74157   4.75391   4.76052
 Alpha virt. eigenvalues --    4.78041   4.81109   4.81992   4.83961   4.85384
 Alpha virt. eigenvalues --    4.87471   4.88854   4.89118   4.89542   4.92478
 Alpha virt. eigenvalues --    4.93181   4.93614   4.95707   4.97910   4.98720
 Alpha virt. eigenvalues --    5.00562   5.02868   5.04896   5.06349   5.08413
 Alpha virt. eigenvalues --    5.11456   5.15103   5.16310   5.20791   5.22827
 Alpha virt. eigenvalues --    5.23975   5.24360   5.25304   5.26362   5.28033
 Alpha virt. eigenvalues --    5.28787   5.31327   5.31810   5.36007   5.38910
 Alpha virt. eigenvalues --    5.40407   5.42988   5.44685   5.47522   5.48768
 Alpha virt. eigenvalues --    5.49333   5.50781   5.53090   5.54404   5.56983
 Alpha virt. eigenvalues --    5.64202   5.68678   5.75527   5.76260   5.79487
 Alpha virt. eigenvalues --    5.80258   5.82298   5.83805   5.84546   5.88520
 Alpha virt. eigenvalues --    5.89823   5.91620   5.94023   5.95491   5.97599
 Alpha virt. eigenvalues --    5.98732   6.04604   6.06767   6.16743   6.18487
 Alpha virt. eigenvalues --    6.21762   6.25149   6.27994   6.28327   6.39167
 Alpha virt. eigenvalues --    6.40883   6.43399   6.47106   6.48892   6.54839
 Alpha virt. eigenvalues --    6.61663   6.63514   6.73224   6.76134   6.77185
 Alpha virt. eigenvalues --    6.78602   6.82237   6.85512   6.85980   6.86257
 Alpha virt. eigenvalues --    6.86863   6.97304   7.00531   7.05791   7.09188
 Alpha virt. eigenvalues --    7.11075   7.14469   7.17390   7.19236   7.21978
 Alpha virt. eigenvalues --    7.33260   7.38065   9.03087   9.40149   9.56396
 Alpha virt. eigenvalues --   19.88511  22.34037  22.46732  22.50908  22.57424
 Alpha virt. eigenvalues --   22.65976  22.68968  22.75879  22.77597  22.86301
 Alpha virt. eigenvalues --   22.90372  22.94226  22.99899  23.09243  23.13630
 Alpha virt. eigenvalues --   23.29690  23.52626  32.20518  33.22531  44.16515
 Alpha virt. eigenvalues --   44.20870  44.26380  44.32179  44.53659
          Condensed to atoms (all electrons):
               1          2          3          4          5          6
     1  C    5.154983   0.427512   0.411270   0.010002  -0.007625  -0.000252
     2  H    0.427512   0.497037  -0.014804  -0.002385   0.000438  -0.000005
     3  H    0.411270  -0.014804   0.514659  -0.000636   0.000303  -0.000010
     4  C    0.010002  -0.002385  -0.000636   5.608865   0.539657   0.194612
     5  H   -0.007625   0.000438   0.000303   0.539657   0.522361  -0.036508
     6  O   -0.000252  -0.000005  -0.000010   0.194612  -0.036508   8.158507
     7  H    0.000015  -0.000003  -0.000002  -0.057173  -0.008093   0.321959
     8  C   -0.009239   0.011069  -0.001235  -0.018395  -0.101605  -0.054388
     9  H    0.005427  -0.000336  -0.001763  -0.073139   0.002325   0.001108
    10  O    0.005381  -0.000190  -0.000024   0.056017   0.005742  -0.021809
    11  H   -0.001201   0.000043   0.000015   0.002306   0.001873   0.018007
    12  C    0.003934   0.001819   0.000166  -0.216361  -0.124425  -0.010455
    13  H   -0.001174   0.000002   0.000064  -0.029435   0.006967  -0.004786
    14  C    0.193328  -0.053312  -0.039337   0.059787   0.018552   0.009255
    15  H   -0.065482  -0.006727  -0.002071   0.002263  -0.000562   0.000028
    16  O   -0.051356   0.001586   0.005722  -0.075639   0.006007   0.005938
    17  N    0.002817  -0.000148  -0.000096   0.035454  -0.007242  -0.001259
    18  C   -0.003399   0.000362   0.000034   0.006578   0.007426   0.000446
    19  H   -0.000469  -0.000884   0.000212  -0.010576  -0.002054   0.000198
    20  C    0.000208  -0.000091  -0.000001   0.007987   0.004641  -0.000176
[...]
 (Enter /storage/apps/GAUSSIAN/G16_RevA03/g16/l716.exe)
 Dipole        = 6.01365480D-01-9.40617652D-01-1.79593686D+00
 ***** Axes restored to original set *****
 -------------------------------------------------------------------
 Center     Atomic                   Forces (Hartrees/Bohr)
 Number     Number              X              Y              Z
 -------------------------------------------------------------------
      1        6           0.000110035   -0.000070182    0.000121703
      2        1          -0.000030537    0.000032980   -0.000000621
      3        1           0.000002083   -0.000037246    0.000003240
      4        6           0.001492480   -0.000788290   -0.001502029
      5        1           0.000025074   -0.000011117    0.000065166
      6        8           0.001058092    0.000253227    0.001190952
      7        1           0.000443384   -0.000318240    0.000240536
      8        6          -0.000035729   -0.000428215    0.000196617
      9        1           0.000145992   -0.000022588    0.000029914
     10        8           0.000284257    0.000198417    0.000259473
     11        1           0.000051822   -0.000005499    0.000021512
     12        6          -0.002898989   -0.000048321   -0.001097560
     13        1           0.000125548   -0.000088100    0.000090069
     14        6          -0.000210150    0.000565845   -0.000474650
     15        1           0.000066762   -0.000085624    0.000105023
     16        8           0.001778695   -0.000852691    0.000377521
     17        7           0.003817424    0.000544148    0.004803700
     18        6          -0.001696609   -0.002438474   -0.002866207
     19        1           0.000023158   -0.000137938   -0.000445189
     20        6           0.006802332   -0.006466339   -0.000003016
     21        1           0.000625057   -0.000506069   -0.000088832
     22        6          -0.024755202   -0.001808642    0.010114817
     23        1           0.004829112    0.000465826   -0.004396541
     24        1           0.007659269   -0.002635810   -0.013681221
     25        6           0.007651345    0.006534101   -0.000706472
     26        6          -0.001067465    0.003224771   -0.004307915
     27        1           0.000291618    0.000191755   -0.000659052
     28        6           0.003655681   -0.001912247   -0.000344354
     29        8          -0.001159199    0.003650199    0.000457849
     30        7           0.000200441    0.000181212    0.000772922
     31        1           0.000041260    0.000001868   -0.000058460
     32        1           0.000138878   -0.000318994   -0.000808847
     33        1          -0.000057300    0.000025084   -0.000038405
     34        6          -0.000093057    0.000036744   -0.000189077
     35        6           0.009243114   -0.000311829    0.003481688
     36        6          -0.008445656   -0.009008691   -0.007567239
     37        6           0.004301358    0.000227286   -0.004726727
     38        6          -0.010426493    0.013946900    0.028934957
     39        8          -0.005609388    0.003536385   -0.000074540
     40       16          -0.001806947   -0.004167798   -0.001336493
     41        1          -0.000068305    0.000023001   -0.000088347
     42        1          -0.000191770   -0.000041327   -0.000264022
     43        1           0.000454429   -0.000724127   -0.000342485
     44        1          -0.000130356    0.000059483    0.000131818
     45        1           0.000785460   -0.000025401   -0.000399121
     46        1           0.002827209   -0.000023311   -0.004329457
     47        1          -0.000172747   -0.000388870   -0.000507405
     48        1          -0.000075471   -0.000027253   -0.000095194
 -------------------------------------------------------------------
 Cartesian Forces:  Max     0.028934957 RMS     0.004511456
 Leave Link  716 at Sat Aug 13 20:21:51 2022, MaxMem=  2684354560 cpu:               0.4 elap:               0.0
 (Enter /storage/apps/GAUSSIAN/G16_RevA03/g16/l103.exe)

 GradGradGradGradGradGradGradGradGradGradGradGradGradGradGradGradGradGrad
 Berny optimization.
 Search for a local minimum.
 Step number   1 out of a maximum of    2
 All quantities printed in internal units (Hartrees-Bohrs-Radians)
 Second derivative matrix not updated -- first step.
 ITU=  0
     Eigenvalues ---    0.00032   0.00100   0.00109   0.00126   0.00178
     Eigenvalues ---    0.00245   0.00322   0.00361   0.00441   0.00488
     Eigenvalues ---    0.00606   0.00690   0.00776   0.00882   0.00912
     Eigenvalues ---    0.00989   0.01120   0.01180   0.01369   0.01506
     Eigenvalues ---    0.01720   0.02015   0.02332   0.02483   0.02637
     Eigenvalues ---    0.03016   0.03081   0.03327   0.03572   0.03844
     Eigenvalues ---    0.04354   0.04623   0.04796   0.04927   0.05054
     Eigenvalues ---    0.05253   0.05521   0.05752   0.05864   0.05882
     Eigenvalues ---    0.06172   0.06262   0.06323   0.06564   0.06832
     Eigenvalues ---    0.07023   0.07334   0.07458   0.07772   0.07959
     Eigenvalues ---    0.08438   0.08747   0.08899   0.09842   0.10227
     Eigenvalues ---    0.10911   0.11476   0.11762   0.12353   0.12563
     Eigenvalues ---    0.12882   0.13015   0.13166   0.13516   0.13696
     Eigenvalues ---    0.13768   0.14041   0.15178   0.15741   0.16024
     Eigenvalues ---    0.16671   0.18370   0.18736   0.19275   0.19520
     Eigenvalues ---    0.19928   0.20130   0.21241   0.21580   0.22224
     Eigenvalues ---    0.24009   0.26358   0.27109   0.28656   0.31359
     Eigenvalues ---    0.31904   0.33249   0.35050   0.36208   0.37333
     Eigenvalues ---    0.37808   0.37808   0.37808   0.37808   0.39097
     Eigenvalues ---    0.43917   0.44452   0.48306   0.55757   0.57355
     Eigenvalues ---    0.61433   0.64782   0.68886   0.71152   0.73031
     Eigenvalues ---    0.73341   0.80104   0.82462   0.87594   0.90039
     Eigenvalues ---    0.91182   0.91673   0.93698   0.93896   0.94524
     Eigenvalues ---    0.96865   0.99589   0.99743   1.02977   1.04497
     Eigenvalues ---    1.04970   1.08058   1.11529   1.11924   1.15385
     Eigenvalues ---    1.19685   1.20737   1.23130   1.26385   1.30035
     Eigenvalues ---    1.35225   1.42249   1.44300   1.52369   1.72425
     Eigenvalues ---    1.78918   2.07046   2.30847
 Quadratic step=6.998D+00 exceeds max=3.000D-01 adjusted using Lamda=-3.075D-02.
 Angle between NR and scaled steps=  63.78 degrees.
 Angle between quadratic step and forces=  57.66 degrees.
 Linear search not attempted -- first point.
 Variable       Old X    -DE/DX   Delta X   Delta X   Delta X     New X
                                 (Linear)    (Quad)   (Total)
    X1        6.80293   0.00011   0.00000  -0.00241  -0.00241   6.80051
    Y1       -6.83275  -0.00007   0.00000   0.00654   0.00654  -6.82621
    Z1       -0.83963   0.00012   0.00000   0.00023   0.00023  -0.83940
    X2        7.08419  -0.00003   0.00000  -0.00704  -0.00704   7.07715
    Y2       -7.01370   0.00003   0.00000   0.00965   0.00965  -7.00405
    Z2       -2.87068  -0.00000   0.00000  -0.00020  -0.00020  -2.87089
    X3        8.19124   0.00000   0.00000  -0.00494  -0.00494   8.18630
    Y3       -8.00953  -0.00004   0.00000   0.00252   0.00252  -8.00702
    Z3        0.12698   0.00000   0.00000  -0.00163  -0.00163   0.12535
    X4        3.53704   0.00149   0.00000   0.00450   0.00450   3.54153
    Y4       -2.72780  -0.00079   0.00000  -0.00562  -0.00562  -2.73343
    Z4        2.33550  -0.00150   0.00000   0.00296   0.00296   2.33846
    X5        2.30747   0.00003   0.00000   0.00094   0.00094   2.30840
    Y5       -4.37445  -0.00001   0.00000  -0.00415  -0.00415  -4.37860
    Z5        2.06133   0.00007   0.00000   0.00853   0.00853   2.06987
    X6        2.79602   0.00106   0.00000   0.01576   0.01576   2.81178
    Y6       -1.29244   0.00025   0.00000  -0.00993  -0.00993  -1.30237
    Z6        4.40674   0.00119   0.00000   0.01193   0.01193   4.41867
    X7        1.04446   0.00044   0.00000   0.01173   0.01173   1.05619
    Y7       -0.74333  -0.00032   0.00000  -0.01418  -0.01418  -0.75751
    Z7        4.13830   0.00024   0.00000   0.02738   0.02738   4.16568
    X8        6.27803  -0.00004   0.00000   0.00346   0.00346   6.28149
    Y8       -3.56515  -0.00043   0.00000  -0.00246  -0.00246  -3.56760
    Z8        2.65732   0.00020   0.00000   0.00355   0.00355   2.66087
    X9        6.44725   0.00015   0.00000   0.00223   0.00223   6.44948
    Y9       -5.23986  -0.00002   0.00000  -0.00357  -0.00357  -5.24344
    Z9        3.85907   0.00003   0.00000   0.00275   0.00275   3.86182
   X10        7.71713   0.00028   0.00000  -0.00096  -0.00096   7.71617
   Y10       -1.54554   0.00020   0.00000  -0.00073  -0.00073  -1.54627
   Z10        3.61812   0.00026   0.00000   0.00916   0.00916   3.62728
   X11        6.68905   0.00005   0.00000  -0.00298  -0.00298   6.68607
   Y11       -0.72459  -0.00001   0.00000  -0.00736  -0.00736  -0.73195
   Z11        4.88531   0.00002   0.00000   0.01245   0.01245   4.89776
   X12        3.71223  -0.00290   0.00000  -0.00433  -0.00433   3.70790
   Y12       -1.24915  -0.00005   0.00000  -0.00064  -0.00064  -1.24980
   Z12       -0.16049  -0.00110   0.00000   0.00465   0.00465  -0.15584
   X13        4.27415   0.00013   0.00000  -0.00940  -0.00940   4.26475
   Y13        0.70203  -0.00009   0.00000  -0.00084  -0.00084   0.70120
   Z13        0.23168   0.00009   0.00000   0.01497   0.01497   0.24665
   X14        7.09734  -0.00021   0.00000   0.00319   0.00319   7.10053
   Y14       -4.09542   0.00057   0.00000   0.00474   0.00474  -4.09068
   Z14       -0.05271  -0.00047   0.00000   0.00336   0.00336  -0.04935
   X15        9.04468   0.00007   0.00000   0.00288   0.00288   9.04757
   Y15       -3.46695  -0.00009   0.00000   0.00390   0.00390  -3.46305
   Z15       -0.30378   0.00011   0.00000   0.00784   0.00784  -0.29594
   X16        5.51612   0.00178   0.00000   0.00721   0.00721   5.52332
   Y16       -2.52826  -0.00085   0.00000   0.00841   0.00841  -2.51985
   Z16       -1.61793   0.00038   0.00000   0.00608   0.00608  -1.61186
   X17        1.36769   0.00382   0.00000   0.00126   0.00126   1.36895
   Y17       -1.13104   0.00054   0.00000   0.00116   0.00116  -1.12988
   Z17       -1.59399   0.00480   0.00000   0.00189   0.00189  -1.59210
   X18        0.34571  -0.00170   0.00000   0.00321   0.00321   0.34892
   Y18       -3.34312  -0.00244   0.00000  -0.00404  -0.00404  -3.34717
   Z18       -2.53547  -0.00287   0.00000  -0.00778  -0.00778  -2.54325
   X19        1.47155   0.00002   0.00000   0.00171   0.00171   1.47326
   Y19       -5.01662  -0.00014   0.00000  -0.00254  -0.00254  -5.01916
   Z19       -2.22905  -0.00045   0.00000  -0.00146  -0.00146  -2.23051
   X20       -1.81765   0.00680   0.00000   0.00891   0.00891  -1.80874
   Y20       -3.35140  -0.00647   0.00000  -0.01432  -0.01432  -3.36572
   Z20       -3.84216  -0.00000   0.00000  -0.01407  -0.01407  -3.85623
   X21       -2.52027   0.00063   0.00000   0.01725   0.01725  -2.50301
   Y21       -5.11074  -0.00051   0.00000  -0.01741  -0.01741  -5.12815
   Z21       -4.60260  -0.00009   0.00000  -0.01080  -0.01080  -4.61340
   X22       -3.29339  -0.02476   0.00000  -0.01925  -0.01925  -3.31264
   Y22       -1.04600  -0.00181   0.00000  -0.00934  -0.00934  -1.05534
   Z22       -4.14700   0.01011   0.00000  -0.02111  -0.02111  -4.16810
   X23       -4.47899   0.00483   0.00000   0.05160   0.05160  -4.42739
   Y23       -0.96553   0.00047   0.00000   0.00263   0.00263  -0.96289
   Z23       -5.82797  -0.00440   0.00000  -0.06925  -0.06925  -5.89722
   X24       -4.94930   0.00766   0.00000  -0.02878  -0.02878  -4.97808
   Y24       -1.11967  -0.00264   0.00000  -0.03841  -0.03841  -1.15808
   Z24       -2.52650  -0.01368   0.00000  -0.10977  -0.10977  -2.63627
   X25       -1.91908   0.00765   0.00000   0.01002   0.01002  -1.90906
   Y25        1.25018   0.00653   0.00000   0.00505   0.00505   1.25523
   Z25       -3.50041  -0.00071   0.00000  -0.02069  -0.02069  -3.52110
   X26        0.27320  -0.00107   0.00000   0.00695   0.00695   0.28015
   Y26        1.09478   0.00322   0.00000   0.00523   0.00523   1.10001
   Z26       -2.18267  -0.00431   0.00000  -0.01891  -0.01891  -2.20159
   X27        1.22304   0.00029   0.00000   0.00096   0.00096   1.22401
   Y27        2.79964   0.00019   0.00000   0.00643   0.00643   2.80607
   Z27       -1.56563  -0.00066   0.00000  -0.01050  -0.01050  -1.57613
   X28       -2.87221   0.00366   0.00000   0.00990   0.00990  -2.86231
   Y28        3.80962  -0.00191   0.00000   0.00795   0.00795   3.81757
   Z28       -4.10055  -0.00034   0.00000  -0.00704  -0.00704  -4.10759
   X29       -1.58358  -0.00116   0.00000  -0.01843  -0.01843  -1.60202
   Y29        5.69034   0.00365   0.00000   0.02656   0.02656   5.71689
   Z29       -3.85884   0.00046   0.00000   0.01474   0.01474  -3.84410
   X30       -5.28740   0.00020   0.00000  -0.00102  -0.00102  -5.28842
   Y30        3.90980   0.00018   0.00000   0.00426   0.00426   3.91406
   Z30       -5.05159   0.00077   0.00000   0.01664   0.01664  -5.03495
   X31       -6.01233   0.00004   0.00000  -0.01030  -0.01030  -6.02264
   Y31        5.66327   0.00000   0.00000   0.00350   0.00350   5.66677
   Z31       -5.21733  -0.00006   0.00000   0.04064   0.04064  -5.17669
   X32       -6.51391   0.00014   0.00000   0.00484   0.00484  -6.50907
   Y32        2.52062  -0.00032   0.00000  -0.00296  -0.00296   2.51766
   Z32       -4.62187  -0.00081   0.00000   0.01237   0.01237  -4.60950
   X33        4.92091  -0.00006   0.00000  -0.00420  -0.00420   4.91671
   Y33       -7.54216   0.00003   0.00000   0.00989   0.00989  -7.53227
   Z33       -0.37366  -0.00004   0.00000   0.00158   0.00158  -0.37208
   X34        0.37843  -0.00009   0.00000   0.00655   0.00655   0.38498
   Y34        4.15641   0.00004   0.00000  -0.00446  -0.00446   4.15195
   Z34        5.36498  -0.00019   0.00000  -0.01751  -0.01751   5.34747
   X35       -3.09126   0.00924   0.00000   0.01578   0.01578  -3.07549
   Y35        1.69774  -0.00031   0.00000   0.00461   0.00461   1.70234
   Z35        2.35748   0.00348   0.00000  -0.01657  -0.01657   2.34091
   X36       -5.34028  -0.00845   0.00000  -0.03023  -0.03023  -5.37052
   Y36        1.60130  -0.00901   0.00000   0.01226   0.01226   1.61355
   Z36        0.85755  -0.00757   0.00000   0.04256   0.04256   0.90011
   X37       -9.06338   0.00430   0.00000  -0.00179  -0.00179  -9.06518
   Y37       -0.79519   0.00023   0.00000  -0.00228  -0.00228  -0.79747
   Z37       -0.80420  -0.00473   0.00000  -0.01229  -0.01229  -0.81649
   X38       -6.30813  -0.01043   0.00000  -0.07065  -0.07065  -6.37878
   Y38       -0.64107   0.01395   0.00000   0.01762   0.01762  -0.62345
   Z38       -0.06125   0.02893   0.00000   0.16517   0.16517   0.10392
   X39       -1.79319  -0.00561   0.00000  -0.02435  -0.02435  -1.81754
   Y39       -0.14880   0.00354   0.00000  -0.00904  -0.00904  -0.15785
   Z39        2.92548  -0.00007   0.00000   0.00626   0.00626   2.93175
   X40       -2.30978  -0.00181   0.00000   0.02818   0.02818  -2.28160
   Y40        4.81195  -0.00417   0.00000  -0.00824  -0.00824   4.80371
   Z40        3.39306  -0.00134   0.00000  -0.04907  -0.04907   3.34399
   X41        0.83263  -0.00007   0.00000  -0.00059  -0.00059   0.83204
   Y41        5.91790   0.00002   0.00000  -0.00399  -0.00399   5.91392
   Z41        6.32250  -0.00009   0.00000  -0.01320  -0.01320   6.30929
   X42        1.99346  -0.00019   0.00000   0.01548   0.01548   2.00894
   Y42        3.54430  -0.00004   0.00000  -0.00527  -0.00527   3.53903
   Z42        4.25254  -0.00026   0.00000  -0.00288  -0.00288   4.24966
   X43      -10.20512   0.00045   0.00000  -0.05825  -0.05825 -10.26337
   Y43       -0.99295  -0.00072   0.00000  -0.02848  -0.02848  -1.02143
   Z43        0.90384  -0.00034   0.00000  -0.05716  -0.05716   0.84668
   X44       -9.68071  -0.00013   0.00000   0.02663   0.02663  -9.65409
   Y44        0.92937   0.00006   0.00000   0.00285   0.00285   0.93222
   Z44       -1.75254   0.00013   0.00000  -0.02174  -0.02174  -1.77428
   X45       -9.47149   0.00079   0.00000   0.07053   0.07053  -9.40096
   Y45       -2.40354  -0.00003   0.00000   0.00147   0.00147  -2.40207
   Z45       -2.02473  -0.00040   0.00000  -0.04189  -0.04189  -2.06662
   X46       -5.49598   0.00283   0.00000   0.00781   0.00781  -5.48817
   Y46       -2.35494  -0.00002   0.00000  -0.00185  -0.00185  -2.35679
   Z46        0.74272  -0.00433   0.00000   0.03629   0.03629   0.77901
   X47       -6.29990  -0.00017   0.00000  -0.00202  -0.00202  -6.30192
   Y47        3.37599  -0.00039   0.00000   0.01457   0.01457   3.39057
   Z47        0.49852  -0.00051   0.00000  -0.00801  -0.00801   0.49051
   X48       -0.08949  -0.00008   0.00000  -0.00300  -0.00300  -0.09249
   Y48        2.71745  -0.00003   0.00000  -0.00203  -0.00203   2.71542
   Z48        6.75682  -0.00010   0.00000  -0.01720  -0.01720   6.73962
         Item               Value     Threshold  Converged?
 Maximum Force            0.028935     0.000450     NO 
 RMS     Force            0.004511     0.000300     NO 
 Maximum Displacement     0.165171     0.001800     NO 
 RMS     Displacement     0.025043     0.001200     NO 
 Predicted change in Energy=-5.739685D-03
 GradGradGradGradGradGradGradGradGradGradGradGradGradGradGradGradGradGrad

 Leave Link  103 at Sat Aug 13 20:21:52 2022, MaxMem=  2684354560 cpu:               1.0 elap:               0.1
 (Enter /storage/apps/GAUSSIAN/G16_RevA03/g16/l9999.exe)

 Test job not archived.
 1\1\GINC-T002\Force\RM062X\def2TZVP\C16H24N2O5S1\LV87696\13-Aug-2022\0
 \\#P M062X/Def2TZVP scf=(direct,conver=8) EmpiricalDispersion=GD3 Forc
 e Charge Prop=(Field,Read)\\Gaussian run\\0,1\C,3.599953,-3.615735,-0.
 444313\H,3.748791,-3.711488,-1.519101\H,4.334619,-4.238463,0.067195\C,
 1.871719,-1.443492,1.235895\H,1.221058,-2.31486,1.09081\O,1.47959,-0.6
 83932,2.331945\H,0.552704,-0.393355,2.189892\C,3.322191,-1.886594,1.40
 6195\H,3.411736,-2.772817,2.042134\O,4.083727,-0.817863,1.914628\H,3.5
 39692,-0.383437,2.585194\C,1.96443,-0.661023,-0.084928\H,2.261783,0.37
 1499,0.1226\C,3.755748,-2.167202,-0.027893\H,4.786239,-1.834629,-0.160
 753\O,2.919003,-1.337896,-0.856174\N,0.723751,-0.59852,-0.843505\C,0.1
 82943,-1.769105,-1.341711\H,0.778712,-2.654682,-1.17956\C,-0.961858,-1
 .773484,-2.033185\H,-1.333667,-2.704485,-2.43559\C,-1.742786,-0.553521
 ,-2.194497\H,-2.370179,-0.510934,-3.08403\H,-2.619055,-0.592505,-1.336
 966\C,-1.015531,0.661566,-1.852336\C,0.144573,0.579333,-1.15502\H,0.64
 7207,1.481505,-0.828498\C,-1.519909,2.015962,-2.169918\O,-0.837997,3.0
 11196,-2.042009\N,-2.797971,2.068976,-2.673185\H,-3.18159,2.996872,-2.
 760892\H,-3.447015,1.333855,-2.445788\H,2.604036,-3.991139,-0.197732\C
 ,0.200255,2.199478,2.839026\C,-1.635825,0.898403,1.247525\C,-2.825955,
 0.84737,0.453794\C,-4.796136,-0.420799,-0.425565\C,-3.338118,-0.339242
 ,-0.032411\O,-0.948914,-0.078743,1.548098\S,-1.222281,2.546375,1.79553
 2\H,0.440609,3.13162,3.345721\H,1.054892,1.875561,2.250346\H,-5.400315
 ,-0.525448,0.478294\H,-5.122812,0.491802,-0.927403\H,-5.012097,-1.2719
 01,-1.07144\H,-2.90835,-1.246182,0.393029\H,-3.333761,1.786499,0.26380
 4\H,-0.047358,1.438013,3.575554\\Version=ES64L-G16RevA.03\State=1-A\HF
 =-1507.9006302\RMSD=4.215e-09\RMSF=4.511e-03\Dipole=-1.4914044,-1.4991
 676,0.0007177\Quadrupole=7.0112222,-1.1737794,-5.8374427,-2.9830181,6.
 5691004,7.1725176\PG=C01 [X(C16H24N2O5S1)]\\@


 Sometimes the fool who rushes in gets the job done.
                                    -- Al Bernstein
 Job cpu time:       0 days  3 hours 21 minutes  6.6 seconds.
 Elapsed time:       0 days  0 hours 12 minutes 36.3 seconds.
 File lengths (MBytes):  RWF=    435 Int=      0 D2E=      0 Chk=     48 Scr=      1
 Normal termination of Gaussian 16 at Sat Aug 13 20:21:52 2022.
