 Entering Gaussian System, Link 0=g16
 Initial command:
 /storage/apps/GAUSSIAN/G16_RevA03/g16/l1.exe "/scratch/tmp/1019294/Gau-156291.inp" -scrdir="/scratch/tmp/1019294/"
 Entering Link 1 = /storage/apps/GAUSSIAN/G16_RevA03/g16/l1.exe PID=    156292.
  
 Copyright (c) 1988,1990,1992,1993,1995,1998,2003,2009,2016,
            Gaussian, Inc.  All Rights Reserved.
  
 This is part of the Gaussian(R) 16 program.  It is based on
 the Gaussian(R) 09 system (copyright 2009, Gaussian, Inc.),
 the Gaussian(R) 03 system (copyright 2003, Gaussian, Inc.),
 the Gaussian(R) 98 system (copyright 1998, Gaussian, Inc.),
 the Gaussian(R) 94 system (copyright 1995, Gaussian, Inc.),
 the Gaussian 92(TM) system (copyright 1992, Gaussian, Inc.),
 the Gaussian 90(TM) system (copyright 1990, Gaussian, Inc.),
 the Gaussian 88(TM) system (copyright 1988, Gaussian, Inc.),
 the Gaussian 86(TM) system (copyright 1986, Carnegie Mellon
 University), and the Gaussian 82(TM) system (copyright 1983,
 Carnegie Mellon University). Gaussian is a federally registered
 trademark of Gaussian, Inc.
  
 This software contains proprietary and confidential information,
 including trade secrets, belonging to Gaussian, Inc.
  
 This software is provided under written license and may be
 used, copied, transmitted, or stored only in accord with that
 written license.
  
 The following legend is applicable only to US Government
 contracts under FAR:
  
                    RESTRICTED RIGHTS LEGEND
  
 Use, reproduction and disclosure by the US Government is
 subject to restrictions as set forth in subparagraphs (a)
 and (c) of the Commercial Computer Software - Restricted
 Rights clause in FAR 52.227-19.
  
 Gaussian, Inc.
 340 Quinnipiac St., Bldg. 40, Wallingford CT 06492
  
  
 ---------------------------------------------------------------
 Warning -- This program may not be used in any manner that
 competes with the business of Gaussian, Inc. or will provide
 assistance to any competitor of Gaussian, Inc.  The licensee
 of this program is prohibited from giving any competitor of
 Gaussian, Inc. access to this program.  By using this program,
 the user acknowledges that Gaussian, Inc. is engaged in the
 business of creating and licensing software in the field of
 computational chemistry and represents and warrants to the
 licensee that it is not a competitor of Gaussian, Inc. and that
 it will not use this program in any manner prohibited above.
 ---------------------------------------------------------------
  

 Cite this work as:
 Gaussian 16, Revision A.03,
 M. J. Frisch, G. W. Trucks, H. B. Schlegel, G. E. Scuseria, 
 M. A. Robb, J. R. Cheeseman, G. Scalmani, V. Barone, 
 G. A. Petersson, H. Nakatsuji, X. Li, M. Caricato, A. V. Marenich, 
 J. Bloino, B. G. Janesko, R. Gomperts, B. Mennucci, H. P. Hratchian, 
 J. V. Ortiz, A. F. Izmaylov, J. L. Sonnenberg, D. Williams-Young, 
 F. Ding, F. Lipparini, F. Egidi, J. Goings, B. Peng, A. Petrone, 
 T. Henderson, D. Ranasinghe, V. G. Zakrzewski, J. Gao, N. Rega, 
 G. Zheng, W. Liang, M. Hada, M. Ehara, K. Toyota, R. Fukuda, 
 J. Hasegawa, M. Ishida, T. Nakajima, Y. Honda, O. Kitao, H. Nakai, 
 T. Vreven, K. Throssell, J. A. Montgomery, Jr., J. E. Peralta, 
 F. Ogliaro, M. J. Bearpark, J. J. Heyd, E. N. Brothers, K. N. Kudin, 
 V. N. Staroverov, T. A. Keith, R. Kobayashi, J. Normand, 
 K. Raghavachari, A. P. Rendell, J. C. Burant, S. S. Iyengar, 
 J. Tomasi, M. Cossi, J. M. Millam, M. Klene, C. Adamo, R. Cammi, 
 J. W. Ochterski, R. L. Martin, K. Morokuma, O. Farkas, 
 J. B. Foresman, and D. J. Fox, Gaussian, Inc., Wallingford CT, 2016.
 
 ******************************************
 Gaussian 16:  ES64L-G16RevA.03 25-Dec-2016
                13-Aug-2022 
 ******************************************
 %NProcShared=16
 Will use up to   16 processors via shared memory.
 %mem=20GB
 ----------------------------------------------------------------------
 #P M062X/Def2TZVP scf=(direct,conver=8) EmpiricalDispersion=GD3 Force 
 Charge Prop=(Field,Read)
 ----------------------------------------------------------------------
 1/10=7,18=10,28=-2,30=1,38=1,125=101/1,3;
 2/12=2,17=6,18=5,29=2,40=1/2;
 3/5=44,7=101,11=2,25=1,30=1,71=1,74=-55,124=31/1,2,3;
 4//1;
 5/5=2,6=8,38=5/2;
 6/7=2,8=2,9=2,10=2,14=2,15=1,28=1/1,2;
 7/7=1,16=-2,29=1/1,2,3,16;
 1/10=7,18=10,28=-2,30=1/3;
 99/12=1/99;
 Leave Link    1 at Sat Aug 13 20:34:15 2022, MaxMem=  2684354560 cpu:               0.6 elap:               0.0
 (Enter /storage/apps/GAUSSIAN/G16_RevA03/g16/l101.exe)
 ------------
 Gaussian run
 ------------
 Symbolic Z-matrix:
 Charge =  0 Multiplicity = 1
 C                     3.59957  -3.61561  -0.44473 
 H                     3.74963  -3.71209  -1.51931 
 H                     4.33478  -4.23716   0.06694 
 C                     1.86537  -1.44009   1.24038 
 H                     1.21705  -2.31318   1.08872 
 O                     1.47204  -0.6825    2.32794 
 H                     0.53357  -0.37948   2.17606 
 C                     3.32018  -1.88494   1.40611 
 H                     3.40485  -2.77148   2.042 
 O                     4.0819   -0.81801   1.91389 
 H                     3.53595  -0.38157   2.583 
 C                     1.97256  -0.66017  -0.08224 
 H                     2.25853   0.37557   0.11838 
 C                     3.75506  -2.16867  -0.02624 
 H                     4.78286  -1.83139  -0.16351 
 O                     2.91437  -1.33632  -0.85688 
 N                     0.71882  -0.60085  -0.85886 
 C                     0.19073  -1.76487  -1.3304 
 H                     0.7672   -2.65494  -1.13354 
 C                    -0.96488  -1.75857  -2.0451 
 H                    -1.35911  -2.69108  -2.42145 
 C                    -1.62962  -0.54502  -2.28679 
 H                    -2.45975  -0.52042  -2.9803 
 H                    -2.83787  -0.63446  -1.02564 
 C                    -1.02853   0.64789  -1.85176 
 C                     0.14474   0.5711   -1.13335 
 H                     0.62455   1.47168  -0.77116 
 C                    -1.53414   2.01954  -2.16566 
 O                    -0.83333   2.99776  -2.04349 
 N                    -2.80327   2.06891  -2.67518 
 H                    -3.18157   3.00003  -2.76119 
 H                    -3.45948   1.35693  -2.39419 
 H                     2.60484  -3.99317  -0.19627 
 C                     0.20171   2.20001   2.84204 
 C                    -1.65868   0.89894   1.24154 
 C                    -2.80796   0.86672   0.46952 
 C                    -4.82964  -0.41231  -0.3944 
 C                    -3.34715  -0.38448  -0.05746 
 O                    -0.9312   -0.08454   1.54166 
 S                    -1.21762   2.55378   1.79752 
 H                     0.44404   3.13031   3.35217 
 H                     1.06228   1.87669   2.26116 
 H                    -5.44557  -0.46264   0.50364 
 H                    -5.12702   0.49043  -0.93575 
 H                    -5.07237  -1.27358  -1.01956 
 H                    -3.04821  -1.23139   0.56776 
 H                    -3.33862   1.79666   0.30053 
 H                    -0.04558   1.43827   3.57849 
 
 ITRead=  0  0  0  0  0  0  0  0  0  0  0  0  0  0  0  0  0  0  0  0
 ITRead=  0  0  0  0  0  0  0  0  0  0  0  0  0  0  0  0  0  0  0  0
 ITRead=  0  0  0  0  0  0  0  0
 MicOpt= -1 -1 -1 -1 -1 -1 -1 -1 -1 -1 -1 -1 -1 -1 -1 -1 -1 -1 -1 -1
 MicOpt= -1 -1 -1 -1 -1 -1 -1 -1 -1 -1 -1 -1 -1 -1 -1 -1 -1 -1 -1 -1
 MicOpt= -1 -1 -1 -1 -1 -1 -1 -1
 NAtoms=     48 NQM=       48 NQMF=       0 NMMI=      0 NMMIF=      0
                NMic=       0 NMicF=      0.
                    Isotopes and Nuclear Properties:
 (Nuclear quadrupole moments (NQMom) in fm**2, nuclear magnetic moments (NMagM)
  in nuclear magnetons)

  Atom         1           2           3           4           5           6           7           8           9          10
 IAtWgt=          12           1           1          12           1          16           1          12           1          16
 AtmWgt=  12.0000000   1.0078250   1.0078250  12.0000000   1.0078250  15.9949146   1.0078250  12.0000000   1.0078250  15.9949146
 NucSpn=           0           1           1           0           1           0           1           0           1           0
 AtZEff=  -0.0000000  -0.0000000  -0.0000000  -0.0000000  -0.0000000  -0.0000000  -0.0000000  -0.0000000  -0.0000000  -0.0000000
 NQMom=    0.0000000   0.0000000   0.0000000   0.0000000   0.0000000   0.0000000   0.0000000   0.0000000   0.0000000   0.0000000
 NMagM=    0.0000000   2.7928460   2.7928460   0.0000000   2.7928460   0.0000000   2.7928460   0.0000000   2.7928460   0.0000000
 AtZNuc=   6.0000000   1.0000000   1.0000000   6.0000000   1.0000000   8.0000000   1.0000000   6.0000000   1.0000000   8.0000000

  Atom        11          12          13          14          15          16          17          18          19          20
 IAtWgt=           1          12           1          12           1          16          14          12           1          12
 AtmWgt=   1.0078250  12.0000000   1.0078250  12.0000000   1.0078250  15.9949146  14.0030740  12.0000000   1.0078250  12.0000000
 NucSpn=           1           0           1           0           1           0           2           0           1           0
 AtZEff=  -0.0000000  -0.0000000  -0.0000000  -0.0000000  -0.0000000  -0.0000000  -0.0000000  -0.0000000  -0.0000000  -0.0000000
 NQMom=    0.0000000   0.0000000   0.0000000   0.0000000   0.0000000   0.0000000   2.0440000   0.0000000   0.0000000   0.0000000
 NMagM=    2.7928460   0.0000000   2.7928460   0.0000000   2.7928460   0.0000000   0.4037610   0.0000000   2.7928460   0.0000000
 AtZNuc=   1.0000000   6.0000000   1.0000000   6.0000000   1.0000000   8.0000000   7.0000000   6.0000000   1.0000000   6.0000000

  Atom        21          22          23          24          25          26          27          28          29          30
 IAtWgt=           1          12           1           1          12          12           1          12          16          14
 AtmWgt=   1.0078250  12.0000000   1.0078250   1.0078250  12.0000000  12.0000000   1.0078250  12.0000000  15.9949146  14.0030740
 NucSpn=           1           0           1           1           0           0           1           0           0           2
 AtZEff=  -0.0000000  -0.0000000  -0.0000000  -0.0000000  -0.0000000  -0.0000000  -0.0000000  -0.0000000  -0.0000000  -0.0000000
 NQMom=    0.0000000   0.0000000   0.0000000   0.0000000   0.0000000   0.0000000   0.0000000   0.0000000   0.0000000   2.0440000
 NMagM=    2.7928460   0.0000000   2.7928460   2.7928460   0.0000000   0.0000000   2.7928460   0.0000000   0.0000000   0.4037610
 AtZNuc=   1.0000000   6.0000000   1.0000000   1.0000000   6.0000000   6.0000000   1.0000000   6.0000000   8.0000000   7.0000000

  Atom        31          32          33          34          35          36          37          38          39          40
 IAtWgt=           1           1           1          12          12          12          12          12          16          32
 AtmWgt=   1.0078250   1.0078250   1.0078250  12.0000000  12.0000000  12.0000000  12.0000000  12.0000000  15.9949146  31.9720718
 NucSpn=           1           1           1           0           0           0           0           0           0           0
 AtZEff=  -0.0000000  -0.0000000  -0.0000000  -0.0000000  -0.0000000  -0.0000000  -0.0000000  -0.0000000  -0.0000000  -0.0000000
 NQMom=    0.0000000   0.0000000   0.0000000   0.0000000   0.0000000   0.0000000   0.0000000   0.0000000   0.0000000   0.0000000
 NMagM=    2.7928460   2.7928460   2.7928460   0.0000000   0.0000000   0.0000000   0.0000000   0.0000000   0.0000000   0.0000000
 AtZNuc=   1.0000000   1.0000000   1.0000000   6.0000000   6.0000000   6.0000000   6.0000000   6.0000000   8.0000000  16.0000000

  Atom        41          42          43          44          45          46          47          48
 IAtWgt=           1           1           1           1           1           1           1           1
 AtmWgt=   1.0078250   1.0078250   1.0078250   1.0078250   1.0078250   1.0078250   1.0078250   1.0078250
 NucSpn=           1           1           1           1           1           1           1           1
 AtZEff=  -0.0000000  -0.0000000  -0.0000000  -0.0000000  -0.0000000  -0.0000000  -0.0000000  -0.0000000
 NQMom=    0.0000000   0.0000000   0.0000000   0.0000000   0.0000000   0.0000000   0.0000000   0.0000000
 NMagM=    2.7928460   2.7928460   2.7928460   2.7928460   2.7928460   2.7928460   2.7928460   2.7928460
 AtZNuc=   1.0000000   1.0000000   1.0000000   1.0000000   1.0000000   1.0000000   1.0000000   1.0000000
 Background charge distribution read from input stream:
 Leave Link  101 at Sat Aug 13 20:34:15 2022, MaxMem=  2684354560 cpu:               1.5 elap:               0.1
 (Enter /storage/apps/GAUSSIAN/G16_RevA03/g16/l103.exe)

 GradGradGradGradGradGradGradGradGradGradGradGradGradGradGradGradGradGrad
 Berny optimization.
 Initialization pass.
 Trust Radius=3.00D-01 FncErr=1.00D-07 GrdErr=1.00D-07 EigMax=2.50D+02 EigMin=1.00D-04
 Number of steps in this run=      2 maximum allowed number of steps=      2.
 GradGradGradGradGradGradGradGradGradGradGradGradGradGradGradGradGradGrad

 Leave Link  103 at Sat Aug 13 20:34:15 2022, MaxMem=  2684354560 cpu:               0.3 elap:               0.0
 (Enter /storage/apps/GAUSSIAN/G16_RevA03/g16/l202.exe)
 ---------------------------------------------------------------------------------------------------
                            Z-MATRIX (ANGSTROMS AND DEGREES)
   CD    Cent   Atom    N1       Length/X        N2       Alpha/Y        N3        Beta/Z          J
 ---------------------------------------------------------------------------------------------------
      1      1  C        0   3.599573         -3.615611         -0.444733
      2      2  H        0   3.749631         -3.712094         -1.519306
      3      3  H        0   4.334784         -4.237163          0.066943
      4      4  C        0   1.865373         -1.440086          1.240382
      5      5  H        0   1.217046         -2.313184          1.088720
      6      6  O        0   1.472043         -0.682503          2.327937
      7      7  H        0   0.533566         -0.379478          2.176060
      8      8  C        0   3.320176         -1.884935          1.406113
      9      9  H        0   3.404853         -2.771476          2.042003
     10     10  O        0   4.081900         -0.818005          1.913887
     11     11  H        0   3.535951         -0.381566          2.582998
     12     12  C        0   1.972562         -0.660173         -0.082242
     13     13  H        0   2.258528          0.375568          0.118383
     14     14  C        0   3.755064         -2.168671         -0.026239
     15     15  H        0   4.782861         -1.831391         -0.163511
     16     16  O        0   2.914372         -1.336322         -0.856877
     17     17  N        0   0.718822         -0.600853         -0.858861
     18     18  C        0   0.190727         -1.764866         -1.330401
     19     19  H        0   0.767202         -2.654936         -1.133537
     20     20  C        0  -0.964879         -1.758567         -2.045104
     21     21  H        0  -1.359110         -2.691078         -2.421448
     22     22  C        0  -1.629615         -0.545020         -2.286788
     23     23  H        0  -2.459751         -0.520420         -2.980300
     24     24  H        0  -2.837872         -0.634455         -1.025644
     25     25  C        0  -1.028529          0.647894         -1.851757
     26     26  C        0   0.144737          0.571103         -1.133348
     27     27  H        0   0.624554          1.471683         -0.771157
     28     28  C        0  -1.534136          2.019537         -2.165664
     29     29  O        0  -0.833326          2.997757         -2.043489
     30     30  N        0  -2.803270          2.068912         -2.675183
     31     31  H        0  -3.181566          3.000028         -2.761193
     32     32  H        0  -3.459484          1.356927         -2.394192
     33     33  H        0   2.604839         -3.993167         -0.196270
     34     34  C        0   0.201709          2.200014          2.842036
     35     35  C        0  -1.658680          0.898941          1.241535
     36     36  C        0  -2.807961          0.866720          0.469523
     37     37  C        0  -4.829638         -0.412309         -0.394403
     38     38  C        0  -3.347146         -0.384481         -0.057464
     39     39  O        0  -0.931197         -0.084541          1.541655
     40     40  S        0  -1.217621          2.553775          1.797520
     41     41  H        0   0.444043          3.130311          3.352172
     42     42  H        0   1.062276          1.876689          2.261161
     43     43  H        0  -5.445565         -0.462644          0.503638
     44     44  H        0  -5.127020          0.490425         -0.935747
     45     45  H        0  -5.072371         -1.273582         -1.019558
     46     46  H        0  -3.048208         -1.231392          0.567757
     47     47  H        0  -3.338620          1.796663          0.300532
     48     48  H        0  -0.045579          1.438270          3.578493
 ---------------------------------------------------------------------------------------------------
                         Z-Matrix orientation:                         
 ---------------------------------------------------------------------
 Center     Atomic      Atomic             Coordinates (Angstroms)
 Number     Number       Type             X           Y           Z
 ---------------------------------------------------------------------
      1          6           0        3.599573   -3.615611   -0.444733
      2          1           0        3.749631   -3.712094   -1.519306
      3          1           0        4.334784   -4.237163    0.066943
      4          6           0        1.865373   -1.440086    1.240382
      5          1           0        1.217046   -2.313184    1.088720
      6          8           0        1.472043   -0.682503    2.327937
      7          1           0        0.533566   -0.379478    2.176060
      8          6           0        3.320176   -1.884935    1.406113
      9          1           0        3.404853   -2.771476    2.042003
     10          8           0        4.081900   -0.818005    1.913887
     11          1           0        3.535951   -0.381566    2.582998
     12          6           0        1.972562   -0.660173   -0.082242
     13          1           0        2.258528    0.375568    0.118383
     14          6           0        3.755064   -2.168671   -0.026239
     15          1           0        4.782861   -1.831391   -0.163511
     16          8           0        2.914372   -1.336322   -0.856877
     17          7           0        0.718822   -0.600853   -0.858861
     18          6           0        0.190727   -1.764866   -1.330401
     19          1           0        0.767202   -2.654936   -1.133537
     20          6           0       -0.964879   -1.758567   -2.045104
     21          1           0       -1.359110   -2.691078   -2.421448
     22          6           0       -1.629615   -0.545020   -2.286788
     23          1           0       -2.459751   -0.520420   -2.980300
     24          1           0       -2.837872   -0.634455   -1.025644
     25          6           0       -1.028529    0.647894   -1.851757
     26          6           0        0.144737    0.571103   -1.133348
     27          1           0        0.624554    1.471683   -0.771157
     28          6           0       -1.534136    2.019537   -2.165664
     29          8           0       -0.833326    2.997757   -2.043489
     30          7           0       -2.803270    2.068912   -2.675183
     31          1           0       -3.181566    3.000028   -2.761193
     32          1           0       -3.459484    1.356927   -2.394192
     33          1           0        2.604839   -3.993167   -0.196270
     34          6           0        0.201709    2.200014    2.842036
     35          6           0       -1.658680    0.898941    1.241535
     36          6           0       -2.807961    0.866720    0.469523
     37          6           0       -4.829638   -0.412309   -0.394403
     38          6           0       -3.347146   -0.384481   -0.057464
     39          8           0       -0.931197   -0.084541    1.541655
     40         16           0       -1.217621    2.553775    1.797520
     41          1           0        0.444043    3.130311    3.352172
     42          1           0        1.062276    1.876689    2.261161
     43          1           0       -5.445565   -0.462644    0.503638
     44          1           0       -5.127020    0.490425   -0.935747
     45          1           0       -5.072371   -1.273582   -1.019558
     46          1           0       -3.048208   -1.231392    0.567757
     47          1           0       -3.338620    1.796663    0.300532
     48          1           0       -0.045579    1.438270    3.578493
 ---------------------------------------------------------------------
                    Distance matrix (angstroms):
                    1          2          3          4          5
     1  C    0.000000
     2  H    1.089281   0.000000
     3  H    1.090263   1.770392   0.000000
     4  C    3.252687   4.040832   3.911341   0.000000
     5  H    3.118370   3.895220   3.803421   1.098012   0.000000
     6  O    4.562588   5.400658   5.093426   1.382540   2.063929
     7  H    5.171220   5.924959   5.812002   1.942702   2.321351
     8  C    2.549300   3.475776   2.890637   1.530297   2.169629
     9  H    2.633313   3.699535   2.629424   2.187509   2.430078
    10  O    3.690844   4.502551   3.894328   2.398663   3.335244
    11  H    4.430604   5.288381   4.672718   2.390379   3.367690
    12  C    3.393107   3.812788   4.289196   1.539184   2.162036
    13  H    4.247942   4.649128   5.058732   2.170265   3.042306
    14  C    1.514249   2.147425   2.150213   2.388744   2.775888
    15  H    2.159328   2.538265   2.457971   3.261253   3.809888
    16  O    2.415475   2.603990   3.359448   2.347267   2.760529
    17  N    4.190345   4.393383   5.211050   2.534899   2.640715
    18  C    3.978680   4.061180   5.023747   3.085263   2.684424
    19  H    3.069149   3.187677   4.083165   2.883978   2.292941
    20  C    5.181122   5.130237   6.220178   4.348123   3.858659
    21  H    5.417629   5.287303   6.403350   5.036990   4.370431
    22  C    6.337673   6.289330   7.399056   5.045494   4.756463
    23  H    7.261179   7.132861   8.322594   6.112826   5.769728
    24  H    7.117966   7.287713   8.100632   5.282464   4.871450
    25  C    6.447986   6.476946   7.504020   4.721827   4.738881
    26  C    5.471623   5.611595   6.489731   3.555287   3.795595
    27  H    5.902360   6.098965   6.859967   3.750243   4.258569
    28  C    7.814823   7.822248   8.864257   5.926787   6.077211
    29  O    8.120545   8.142503   9.138236   6.145017   6.497758
    30  N    8.847887   8.814567   9.911491   7.031425   7.037945
    31  H    9.752769   9.728122  10.810680   7.822967   7.899357
    32  H    8.851938   8.856170   9.904627   7.027625   6.889871
    33  H    1.092602   1.771997   1.766784   3.021424   2.529726
    34  C    7.494653   8.158558   8.137610   4.310847   4.947119
    35  C    7.132594   7.624547   7.980028   4.229657   4.314035
    36  C    7.872969   8.241541   8.788088   5.268361   5.166805
    37  C    9.017498   9.260553   9.941277   6.967928   6.509636
    38  C    7.671185   7.973345   8.594806   5.474400   5.085812
    39  O    6.077999   6.666241   6.866557   3.122350   3.128410
    40  S    8.142136   8.656561   8.940970   5.076040   5.487922
    41  H    8.359505   9.026445   8.956019   5.231478   5.945787
    42  H    6.627601   7.262803   7.273451   3.562015   4.353574
    43  H    9.625753   9.960063  10.492517   7.412692   6.939539
    44  H    9.656814   9.838528  10.624557   7.573372   7.225363
    45  H    9.001008   9.166450   9.922594   7.298448   6.714341
    46  H    7.134608   7.531290   7.987117   4.963794   4.431035
    47  H    8.831005   9.159777   9.764361   6.200113   6.185966
    48  H    7.417223   8.180307   7.983051   4.171742   4.676173
                    6          7          8          9         10
     6  O    0.000000
     7  H    0.997813   0.000000
     8  C    2.389811   3.259511   0.000000
     9  H    2.860301   3.739507   1.094295   0.000000
    10  O    2.645969   3.584929   1.405844   2.071438   0.000000
    11  H    2.101270   3.029838   1.921389   2.453881   0.967600
    12  C    2.461703   2.692476   2.351873   3.319861   2.908393
    13  H    2.572975   2.789198   2.809843   3.862416   2.823674
    14  C    3.600420   4.292946   1.523570   2.182578   2.386464
    15  H    4.299857   5.063413   2.146167   2.765313   2.415343
    16  O    3.556801   3.972719   2.363636   3.271658   3.051050
    17  N    3.275621   3.048618   3.680491   4.510142   4.364124
    18  C    4.024515   3.785777   4.158891   4.766233   5.153948
    19  H    4.045874   4.023149   3.682445   4.129750   4.862955
    20  C    5.120546   4.686731   5.503505   6.068359   6.482919
    21  H    5.882725   5.482955   6.098837   6.528721   7.204729
    22  C    5.561913   4.962234   6.319282   7.002957   7.095181
    23  H    6.607772   5.963880   7.383094   8.042659   8.175257
    24  H    5.461152   4.656449   6.737856   7.276602   7.520491
    25  C    5.049025   4.440602   5.995012   6.819702   6.515015
    26  C    3.913280   3.465108   4.750200   5.646596   5.168802
    27  H    3.868222   3.481546   4.824289   5.800718   4.940180
    28  C    6.044053   5.374126   7.181005   8.065475   7.498949
    29  O    6.161851   5.574828   7.279561   8.242418   7.374301
    30  N    7.133007   6.376805   8.353830   9.177254   8.763528
    31  H    7.817695   7.042708   9.137940   9.988086   9.444135
    32  H    7.125850   6.312429   8.421151   9.156564   8.953343
    33  H    4.314550   4.793419   2.742988   2.672530   4.088536
    34  C    3.191700   2.684666   5.336058   5.967906   5.002577
    35  C    3.671874   2.704373   5.706668   6.304925   6.029446
    36  C    4.916526   3.953616   6.782541   7.369411   7.238416
    37  C    6.869885   5.947463   8.475255   8.905537   9.214570
    38  C    5.385493   4.477564   6.989034   7.462908   7.698369
    39  O    2.598338   1.623265   4.618870   5.125553   5.080125
    40  S    4.241359   3.437139   6.359791   7.055872   6.282306
    41  H    4.079631   3.702685   6.100162   6.731570   5.558045
    42  H    2.592650   2.318850   4.469791   5.209715   4.062032
    43  H    7.157493   6.209180   8.926118   9.275083   9.637825
    44  H    7.454866   6.517845   9.081947   9.607281   9.728135
    45  H    7.374581   6.514440   8.757424   9.136748   9.623582
    46  H    4.881822   4.017649   6.456491   6.796121   7.267833
    47  H    5.779197   4.821516   7.688695   8.329168   8.031408
    48  H    2.892187   2.367791   5.204924   5.655815   4.989767
                   11         12         13         14         15
    11  H    0.000000
    12  C    3.102469   0.000000
    13  H    2.877393   1.093063   0.000000
    14  C    3.170153   2.335812   2.955281   0.000000
    15  H    3.346653   3.045675   3.364876   1.090398   0.000000
    16  O    3.623625   1.394361   2.076495   1.445520   2.053558
    17  N    4.453167   1.475981   2.068598   3.517112   4.302807
    18  C    5.330922   2.439915   3.310020   3.816857   4.738539
    19  H    5.162055   2.556794   3.602126   3.223334   4.212445
    20  C    6.600980   3.699710   4.430075   5.149938   6.048323
    21  H    7.371563   4.549340   5.379811   5.671394   6.600087
    22  C    7.101028   4.224803   4.663688   6.061443   6.876257
    23  H    8.180343   5.297515   5.715487   7.075813   7.880887
    24  H    7.328838   4.902137   5.319985   6.842473   7.762184
    25  C    6.446807   3.721394   3.841921   5.843656   6.539823
    26  C    5.120463   2.441682   2.464382   4.665460   5.312698
    27  H    4.812600   2.614678   2.159310   4.858721   5.345189
    28  C    7.349889   4.880412   4.722690   7.077702   7.664380
    29  O    7.205192   5.009985   4.594467   7.198236   7.641763
    30  N    8.592964   6.081103   6.024386   8.245348   8.892145
    31  H    9.226082   6.865776   6.691365   9.072610   9.670711
    32  H    8.759617   6.238664   6.322322   8.371783   9.114689
    33  H    4.651340   3.394352   4.393721   2.163496   3.068897
    34  C    4.224787   4.457353   3.870064   6.319711   6.802389
    35  C    5.515742   4.167630   4.108517   6.350285   7.135987
    36  C    6.802221   5.048688   5.102337   7.247943   8.080910
    37  C    8.879693   6.813869   7.150231   8.770260   9.719426
    38  C    7.372182   5.326905   5.659698   7.322957   8.258439
    39  O    4.596524   3.376420   3.523031   5.363108   6.213657
    40  S    5.641777   4.903084   4.432572   7.096139   7.686424
    41  H    4.741814   5.338477   4.619346   7.103220   7.470198
    42  H    3.364872   3.571530   2.876783   5.371056   5.785468
    43  H    9.219433   7.443849   7.759128   9.372453  10.341144
    44  H    9.390900   7.242680   7.461280   9.316084  10.207493
    45  H    9.374290   7.133436   7.599782   8.928128   9.908056
    46  H    6.937907   5.094794   5.562886   6.893173   7.887990
    47  H    7.563998   5.864402   5.777608   8.133327   8.907108
    48  H    4.138861   4.677322   4.290758   6.359953   6.928716
                   16         17         18         19         20
    16  O    0.000000
    17  N    2.315461   0.000000
    18  C    2.797520   1.362410   0.000000
    19  H    2.534881   2.072931   1.078565   0.000000
    20  C    4.079064   2.362694   1.358773   2.152797   0.000000
    21  H    4.748252   3.335944   2.109561   2.486207   1.080106
    22  C    4.828936   2.749045   2.390888   3.395065   1.404629
    23  H    5.835736   3.822342   3.360929   4.287181   2.154586
    24  H    5.797362   3.560761   3.247017   4.134071   2.410608
    25  C    4.524751   2.366104   2.753145   3.827424   2.415055
    26  C    3.374253   1.333566   2.344717   3.285543   2.736770
    27  H    3.624294   2.076532   3.313036   4.144955   3.818868
    28  C    5.723979   3.694590   4.241995   5.311510   3.822651
    29  O    5.851284   4.094203   4.923389   5.944968   4.758143
    30  N    6.898789   4.778264   5.046812   6.118797   4.292584
    31  H    7.719508   5.638993   6.010303   7.086653   5.298180
    32  H    7.088227   4.862961   4.919480   5.962312   4.006397
    33  H    2.755184   3.937497   3.475560   2.458911   4.599403
    34  C    5.791906   4.670000   5.755834   6.300437   6.396517
    35  C    5.505682   3.509068   4.138965   4.914866   4.283189
    36  C    6.273582   4.044326   4.376883   5.268174   4.075835
    37  C    7.812642   5.571057   5.282951   6.074563   4.412889
    38  C    6.383703   4.149837   4.005294   4.820867   3.393232
    39  O    4.701948   2.958313   3.511540   4.080213   3.958325
    40  S    6.265145   4.556078   5.515251   6.297721   5.781516
    41  H    6.615847   5.632929   6.778895   7.327694   7.417330
    42  H    4.845189   3.998839   5.188433   5.669803   5.989020
    43  H    8.514861   6.314679   6.068547   6.788590   5.315266
    44  H    8.246648   5.947324   5.789691   6.683881   4.859224
    45  H    7.988646   5.832350   5.295109   6.001812   4.261273
    46  H    6.131309   4.077172   3.791873   4.413415   3.383078
    47  H    7.089083   4.853361   5.272639   6.223428   4.876096
    48  H    6.011005   4.942918   5.866273   6.294297   6.533737
                   21         22         23         24         25
    21  H    0.000000
    22  C    2.167227   0.000000
    23  H    2.497095   1.081984   0.000000
    24  H    2.892180   1.748819   1.994156   0.000000
    25  C    3.403317   1.404849   2.164940   2.366559   0.000000
    26  C    3.816095   2.392588   3.374317   3.218839   1.377883
    27  H    4.897649   3.383121   4.285058   4.060662   2.139862
    28  C    4.720800   2.569191   2.823433   3.169077   1.495186
    29  O    5.725569   3.639305   3.987536   4.271671   2.365739
    30  N    4.980711   2.891532   2.629780   3.167076   2.418063
    31  H    5.985437   3.898843   3.600358   4.042242   3.315898
    32  H    4.560555   2.641469   2.206223   2.494980   2.589692
    33  H    4.728609   5.847271   6.742467   6.449179   6.122209
    34  C    7.352768   6.098672   6.955841   5.677342   5.094532
    35  C    5.137648   3.812471   4.525505   2.980251   3.166792
    36  C    4.807786   3.313421   3.734526   2.118949   2.933020
    37  C    4.620202   3.720065   3.509261   2.101177   4.206702
    38  C    3.855009   2.818789   3.057600   1.122150   3.108258
    39  O    4.762702   3.918776   4.793177   3.244817   3.472921
    40  S    6.732622   5.143330   5.815593   4.556345   4.121330
    41  H    8.394916   7.043152   7.865117   6.641514   5.950776
    42  H    6.975273   5.813329   6.754533   5.685076   4.774672
    43  H    5.497378   4.728080   4.588709   3.027918   5.127513
    44  H    5.150380   3.889640   3.509463   2.552182   4.202559
    45  H    4.214605   3.740220   3.352245   2.324114   4.553821
    46  H    3.730829   3.260666   3.666125   1.714498   3.669451
    47  H    5.609586   3.885666   4.111586   2.814219   3.359842
    48  H    7.401093   6.390941   7.258268   5.769850   5.574809
                   26         27         28         29         30
    26  C    0.000000
    27  H    1.082798   0.000000
    28  C    2.445864   2.627686   0.000000
    29  O    2.770129   2.464375   1.209535   0.000000
    30  N    3.648484   3.966355   1.368484   2.267701   0.000000
    31  H    4.428752   4.558797   2.007497   2.455470   1.008703
    32  H    3.898417   4.396223   2.048961   3.116412   1.008214
    33  H    5.269040   5.840942   7.560571   8.006636   8.493613
    34  C    4.296542   3.710044   5.303092   5.057277   6.283852
    35  C    2.999977   3.097115   3.588907   3.984673   4.244950
    36  C    3.372686   3.699652   3.145763   3.841319   3.366669
    37  C    5.124212   5.782697   4.462239   5.506228   3.932503
    38  C    3.776760   4.441746   3.675706   4.658661   3.628690
    39  O    2.956881   3.192381   4.305217   4.728995   5.091536
    40  S    3.791701   3.341053   4.011536   3.885634   4.770162
    41  H    5.172912   4.448086   5.966031   5.546386   6.928248
    42  H    3.750883   3.090402   5.134057   4.835299   6.272710
    43  H    5.916066   6.497158   5.346557   6.303569   4.847206
    44  H    5.276076   5.836999   4.093861   5.094076   3.304099
    45  H    5.534801   6.328755   4.967625   6.104283   4.366026
    46  H    4.041985   4.752735   4.509162   5.441508   4.633429
    47  H    3.961286   4.118359   3.063977   3.635046   3.035720
    48  H    4.794752   4.401096   5.962299   5.887209   6.863748
                   31         32         33         34         35
    31  H    0.000000
    32  H    1.706373   0.000000
    33  H    9.432184   8.380357   0.000000
    34  C    6.594145   6.444627   7.304918   0.000000
    35  C    4.770281   4.083033   6.646623   2.777668   0.000000
    36  C    3.889487   2.977524   7.304806   4.057660   1.384878
    37  C    4.467872   3.001112   8.254287   6.527880   3.801400
    38  C    4.335028   2.916405   6.961897   5.261282   2.487064
    39  O    5.752671   4.894993   5.549891   2.862457   1.259579
    40  S    4.983782   4.901923   7.838932   1.797403   1.800591
    41  H    7.108815   7.169596   8.246479   1.088309   3.722263
    42  H    6.670542   6.510666   6.547799   1.087442   3.065816
    43  H    5.270191   3.956359   8.818360   6.667050   4.091321
    44  H    3.662670   2.378774   8.968337   6.752014   4.115437
    45  H    4.987201   3.377958   8.186177   7.402276   4.635265
    46  H    5.385593   3.954957   6.337829   5.244888   2.631175
    47  H    3.293465   2.733041   8.312259   4.376741   2.124521
    48  H    7.243281   6.879995   7.125592   1.088014   2.890388
                   36         37         38         39         40
    36  C    0.000000
    37  C    2.543514   0.000000
    38  C    1.460801   1.520554   0.000000
    39  O    2.361484   4.365042   2.912723   0.000000
    40  S    2.671874   5.162252   4.075437   2.666124   0.000000
    41  H    4.899902   7.375547   6.192939   3.937579   2.347438
    42  H    4.382777   6.856105   5.471007   2.887568   2.423085
    43  H    2.953867   1.090127   2.173547   4.647576   5.352422
    44  H    2.737593   1.093809   2.169053   4.906428   5.197265
    45  H    3.453376   1.091572   2.166224   5.012280   6.119125
    46  H    2.114106   2.184065   1.094314   2.597206   4.380737
    47  H    1.083952   2.754202   2.210345   3.297727   2.704224
    48  H    4.197990   6.488125   5.238602   2.692950   2.406221
                   41         42         43         44         45
    41  H    0.000000
    42  H    1.773157   0.000000
    43  H    7.463977   7.135360   0.000000
    44  H    7.509460   7.102769   1.755460   0.000000
    45  H    8.302838   7.636833   1.765508   1.766842   0.000000
    46  H    6.242855   5.424377   2.518413   3.089763   2.572661
    47  H    5.039808   4.818543   3.095955   2.536339   3.764961
    48  H    1.775937   1.776209   6.498312   6.862785   7.332452
                   46         47         48
    46  H    0.000000
    47  H    3.053664   0.000000
    48  H    5.020698   4.660214   0.000000
 Stoichiometry    C16H24N2O5S
 Framework group  C1[X(C16H24N2O5S)]
 Deg. of freedom   138
 Full point group                 C1      NOp   1
 Largest Abelian subgroup         C1      NOp   1
 Largest concise Abelian subgroup C1      NOp   1
                         Standard orientation:                         
 ---------------------------------------------------------------------
 Center     Atomic      Atomic             Coordinates (Angstroms)
 Number     Number       Type             X           Y           Z
 ---------------------------------------------------------------------
      1          6           0       -4.676423   -1.984698   -0.521619
      2          1           0       -4.631764   -2.924352    0.027553
      3          1           0       -5.701445   -1.825730   -0.857377
      4          6           0       -2.522286    0.446615   -0.690090
      5          1           0       -2.330305   -0.207068   -1.551177
      6          8           0       -2.056277    1.731527   -0.898061
      7          1           0       -1.074483    1.685025   -1.069959
      8          6           0       -4.018649    0.473656   -0.370754
      9          1           0       -4.627398    0.537208   -1.277874
     10          8           0       -4.292453    1.540111    0.503376
     11          1           0       -3.756308    2.288062    0.204436
     12          6           0       -1.988637   -0.233235    0.583532
     13          1           0       -1.802528    0.517261    1.356129
     14          6           0       -4.233412   -0.841744    0.367396
     15          1           0       -4.940373   -0.685335    1.182694
     16          8           0       -2.955648   -1.163947    0.961561
     17          7           0       -0.718511   -0.962235    0.399521
     18          6           0       -0.698714   -2.030080   -0.446337
     19          1           0       -1.645294   -2.293413   -0.891248
     20          6           0        0.449607   -2.727102   -0.650749
     21          1           0        0.440227   -3.578859   -1.314866
     22          6           0        1.629844   -2.335039    0.002174
     23          1           0        2.500596   -2.975939   -0.039386
     24          1           0        2.377748   -1.431691   -1.295119
     25          6           0        1.567553   -1.275859    0.922966
     26          6           0        0.370909   -0.612109    1.084336
     27          1           0        0.294484    0.218100    1.775251
     28          6           0        2.697203   -0.845348    1.802815
     29          8           0        2.513956   -0.155231    2.779101
     30          7           0        3.921733   -1.357119    1.469102
     31          1           0        4.693062   -0.961407    1.984801
     32          1           0        4.106278   -1.562089    0.499346
     33          1           0       -4.039150   -2.066662   -1.405329
     34          6           0        0.258612    3.602105    0.254840
     35          6           0        1.598272    1.397330   -0.774587
     36          6           0        2.735140    0.632091   -0.974155
     37          6           0        4.074555   -0.957431   -2.440051
     38          6           0        2.735885   -0.530119   -1.859145
     39          8           0        0.457221    1.183534   -1.263293
     40         16           0        1.861411    2.792418    0.332940
     41          1           0        0.371188    4.551532    0.774774
     42          1           0       -0.515930    3.016544    0.744466
     43          1           0        4.401708   -0.285575   -3.233750
     44          1           0        4.855538   -0.951638   -1.674251
     45          1           0        4.017347   -1.966185   -2.853175
     46          1           0        1.962053   -0.435422   -2.627090
     47          1           0        3.654665    0.944258   -0.492514
     48          1           0       -0.026186    3.788033   -0.778647
 ---------------------------------------------------------------------
 Rotational constants (GHZ):           0.3341399           0.1648918           0.1403477
 Leave Link  202 at Sat Aug 13 20:34:15 2022, MaxMem=  2684354560 cpu:               0.2 elap:               0.0
 (Enter /storage/apps/GAUSSIAN/G16_RevA03/g16/l301.exe)
 Standard basis: def2TZVP (5D, 7F)
 Ernie: Thresh=  0.10000D-02 Tol=  0.10000D-05 Strict=F.
 There are  1014 symmetry adapted cartesian basis functions of A   symmetry.
 There are   894 symmetry adapted basis functions of A   symmetry.
   894 basis functions,  1434 primitive gaussians,  1014 cartesian basis functions
    95 alpha electrons       95 beta electrons
       nuclear repulsion energy      2500.2552021203 Hartrees.
 IExCor= 4336 DFT=T Ex+Corr=M062X ExCW=0 ScaHFX=  0.540000
 ScaDFX=  1.000000  1.000000  1.000000  1.000000 ScalE2=  1.000000  1.000000
 IRadAn=      5 IRanWt=     -1 IRanGd=            0 ICorTp=0 IEmpDi=131
 NAtoms=   48 NActive=   48 NUniq=   48 SFac= 1.00D+00 NAtFMM=   60 NAOKFM=F Big=F
 Integral buffers will be    131072 words long.
 Raffenetti 2 integral format.
 Two-electron integral symmetry is turned on.
 R6Disp:  Grimme-D3 Dispersion energy=       -0.0042626576 Hartrees.
 Nuclear repulsion after empirical dispersion term =     2500.2509394627 Hartrees.
 Leave Link  301 at Sat Aug 13 20:34:15 2022, MaxMem=  2684354560 cpu:               0.9 elap:               0.1
 (Enter /storage/apps/GAUSSIAN/G16_RevA03/g16/l302.exe)
 NPDir=0 NMtPBC=     1 NCelOv=     1 NCel=       1 NClECP=     1 NCelD=      1
         NCelK=      1 NCelE2=     1 NClLst=     1 CellRange=     0.0.
 One-electron integrals computed using PRISM.
 One-electron integral symmetry used in STVInt
   1 Symmetry operations used in ECPInt.
 ECPInt:  NShTT=   65703 NPrTT=  200010 LenC2=   56981 LenP2D=  121581.
 LDataN:  DoStor=T MaxTD1= 6 Len=  172
 NBasis=   894 RedAO= T EigKep=  1.71D-05  NBF=   894
 NBsUse=   894 1.00D-06 EigRej= -1.00D+00 NBFU=   894
 Precomputing XC quadrature grid using
 IXCGrd= 4 IRadAn=           5 IRanWt=          -1 IRanGd=           0 AccXCQ= 0.00D+00.
 Generated NRdTot=       0 NPtTot=           0 NUsed=           0 NTot=          32
 NSgBfM=   998   997   997   998   998 MxSgAt=    48 MxSgA2=    48.
 Leave Link  302 at Sat Aug 13 20:34:16 2022, MaxMem=  2684354560 cpu:              18.5 elap:               1.2
 (Enter /storage/apps/GAUSSIAN/G16_RevA03/g16/l303.exe)
 DipDrv:  MaxL=1.
 Leave Link  303 at Sat Aug 13 20:34:17 2022, MaxMem=  2684354560 cpu:               2.0 elap:               0.2
 (Enter /storage/apps/GAUSSIAN/G16_RevA03/g16/l401.exe)
 ExpMin= 9.52D-02 ExpMax= 6.07D+04 ExpMxC= 2.07D+03 IAcc=3 IRadAn=         5 AccDes= 0.00D+00
 Harris functional with IExCor= 1009 and IRadAn=       5 diagonalized for initial guess.
 HarFok:  IExCor= 1009 AccDes= 0.00D+00 IRadAn=         5 IDoV= 1 UseB2=F ITyADJ=14
 ICtDFT=  3500011 ScaDFX=  1.000000  1.000000  1.000000  1.000000
 FoFCou: FMM=F IPFlag=           0 FMFlag=      100000 FMFlg1=           0
         NFxFlg=           0 DoJE=T BraDBF=F KetDBF=T FulRan=T
         wScrn=  0.000000 ICntrl=       500 IOpCl=  0 I1Cent=   200000004 NGrid=           0
         NMat0=    1 NMatS0=      1 NMatT0=    0 NMatD0=    1 NMtDS0=    0 NMtDT0=    0
 Petite list used in FoFCou.
 Harris En= -1507.23566712522    
 JPrj=0 DoOrth=F DoCkMO=F.
 Leave Link  401 at Sat Aug 13 20:34:20 2022, MaxMem=  2684354560 cpu:              60.2 elap:               3.8
 (Enter /storage/apps/GAUSSIAN/G16_RevA03/g16/l502.exe)
 Integral symmetry usage will be decided dynamically.
 Closed shell SCF:
 Using DIIS extrapolation, IDIIS=  1040.
 NGot=  2684354560 LenX=  2682272944 LenY=  2681243734
 Requested convergence on RMS density matrix=1.00D-08 within 128 cycles.
 Requested convergence on MAX density matrix=1.00D-06.
 Requested convergence on             energy=1.00D-06.
 No special actions if energy rises.
 Fock matrices will be formed incrementally for  20 cycles.
 Integral accuracy reduced to 1.0D-05 until final iterations.

 Cycle   1  Pass 0  IDiag  1:
 FoFJK:  IHMeth= 1 ICntrl=       0 DoSepK=F KAlg= 0 I1Cent=           0 FoldK=F
 IRaf= 800000000 NMat=       1 IRICut=       1 DoRegI=T DoRafI=F ISym2E= 0 IDoP0=0 IntGTp=1.
 FoFCou: FMM=F IPFlag=           0 FMFlag=      100000 FMFlg1=           0
         NFxFlg=           0 DoJE=F BraDBF=F KetDBF=F FulRan=T
         wScrn=  0.000000 ICntrl=         0 IOpCl=  0 I1Cent=           0 NGrid=           0
         NMat0=    1 NMatS0=      1 NMatT0=    0 NMatD0=    1 NMtDS0=    0 NMtDT0=    0
 Symmetry not used in FoFCou.
 E= -1507.15358866402    
 DIIS: error= 1.74D-02 at cycle   1 NSaved=   1.
 NSaved= 1 IEnMin= 1 EnMin= -1507.15358866402     IErMin= 1 ErrMin= 1.74D-02
 ErrMax= 1.74D-02  0.00D+00 EMaxC= 1.00D-01 BMatC= 9.96D-01 BMatP= 9.96D-01
 IDIUse=3 WtCom= 8.26D-01 WtEn= 1.74D-01
 Coeff-Com:  0.100D+01
 Coeff-En:   0.100D+01
 Coeff:      0.100D+01
 Gap=     0.187 Goal=   None    Shift=    0.000
 GapD=    0.187 DampG=1.000 DampE=0.500 DampFc=0.5000 IDamp=-1.
 Damping current iteration by 5.00D-01
 RMSDP=4.12D-03 MaxDP=1.24D+00              OVMax= 5.05D-01

 Cycle   2  Pass 0  IDiag  1:
 RMSU=  2.06D-03    CP:  1.02D+00
 E= -1507.46472150084     Delta-E=       -0.311132836820 Rises=F Damp=T
 DIIS: error= 6.29D-03 at cycle   2 NSaved=   2.
 NSaved= 2 IEnMin= 2 EnMin= -1507.46472150084     IErMin= 2 ErrMin= 6.29D-03
 ErrMax= 6.29D-03  0.00D+00 EMaxC= 1.00D-01 BMatC= 9.79D-02 BMatP= 9.96D-01
 IDIUse=3 WtCom= 9.37D-01 WtEn= 6.29D-02
 Coeff-Com:  0.137D-01 0.986D+00
 Coeff-En:   0.120D+00 0.880D+00
 Coeff:      0.204D-01 0.980D+00
 Gap=     0.180 Goal=   None    Shift=    0.000
 RMSDP=1.40D-03 MaxDP=3.26D-01 DE=-3.11D-01 OVMax= 4.11D-01

 Cycle   3  Pass 0  IDiag  1:
 RMSU=  1.20D-03    CP:  1.00D+00  6.50D-01
 E= -1507.82621527343     Delta-E=       -0.361493772594 Rises=F Damp=F
 DIIS: error= 6.65D-03 at cycle   3 NSaved=   3.
 NSaved= 3 IEnMin= 3 EnMin= -1507.82621527343     IErMin= 2 ErrMin= 6.29D-03
 ErrMax= 6.65D-03  0.00D+00 EMaxC= 1.00D-01 BMatC= 7.08D-02 BMatP= 9.79D-02
 IDIUse=3 WtCom= 9.34D-01 WtEn= 6.65D-02
 Coeff-Com: -0.737D-01 0.483D+00 0.590D+00
 Coeff-En:   0.000D+00 0.000D+00 0.100D+01
 Coeff:     -0.688D-01 0.451D+00 0.618D+00
 Gap=     0.137 Goal=   None    Shift=    0.000
 RMSDP=5.96D-04 MaxDP=3.31D-02 DE=-3.61D-01 OVMax= 1.72D-01

 Cycle   4  Pass 0  IDiag  1:
 RMSU=  4.90D-04    CP:  1.00D+00  7.85D-01  8.38D-01
 E= -1507.88739685425     Delta-E=       -0.061181580822 Rises=F Damp=F
 DIIS: error= 3.68D-03 at cycle   4 NSaved=   4.
 NSaved= 4 IEnMin= 4 EnMin= -1507.88739685425     IErMin= 4 ErrMin= 3.68D-03
 ErrMax= 3.68D-03  0.00D+00 EMaxC= 1.00D-01 BMatC= 1.07D-02 BMatP= 7.08D-02
 IDIUse=3 WtCom= 9.63D-01 WtEn= 3.68D-02
 Coeff-Com: -0.371D-01 0.106D+00 0.313D+00 0.618D+00
 Coeff-En:   0.000D+00 0.000D+00 0.976D-01 0.902D+00
 Coeff:     -0.357D-01 0.102D+00 0.305D+00 0.628D+00
 Gap=     0.157 Goal=   None    Shift=    0.000
 RMSDP=2.06D-04 MaxDP=1.32D-02 DE=-6.12D-02 OVMax= 6.69D-02

 Cycle   5  Pass 0  IDiag  1:
 RMSU=  1.42D-04    CP:  1.00D+00  7.58D-01  9.06D-01  7.74D-01
 E= -1507.89737285138     Delta-E=       -0.009975997130 Rises=F Damp=F
 DIIS: error= 9.95D-04 at cycle   5 NSaved=   5.
 NSaved= 5 IEnMin= 5 EnMin= -1507.89737285138     IErMin= 5 ErrMin= 9.95D-04
 ErrMax= 9.95D-04  0.00D+00 EMaxC= 1.00D-01 BMatC= 9.30D-04 BMatP= 1.07D-02
 IDIUse=3 WtCom= 9.90D-01 WtEn= 9.95D-03
 Coeff-Com: -0.122D-01 0.231D-01 0.110D+00 0.321D+00 0.558D+00
 Coeff-En:   0.000D+00 0.000D+00 0.000D+00 0.000D+00 0.100D+01
 Coeff:     -0.121D-01 0.229D-01 0.108D+00 0.318D+00 0.563D+00
 Gap=     0.155 Goal=   None    Shift=    0.000
 RMSDP=7.01D-05 MaxDP=6.86D-03 DE=-9.98D-03 OVMax= 1.12D-02

 Cycle   6  Pass 0  IDiag  1:
 RMSU=  5.88D-05    CP:  1.00D+00  7.56D-01  9.00D-01  8.46D-01  9.05D-01
 E= -1507.89822619064     Delta-E=       -0.000853339255 Rises=F Damp=F
 DIIS: error= 1.96D-04 at cycle   6 NSaved=   6.
 NSaved= 6 IEnMin= 6 EnMin= -1507.89822619064     IErMin= 6 ErrMin= 1.96D-04
 ErrMax= 1.96D-04  0.00D+00 EMaxC= 1.00D-01 BMatC= 9.80D-05 BMatP= 9.30D-04
 IDIUse=3 WtCom= 9.98D-01 WtEn= 1.96D-03
 Coeff-Com: -0.321D-03-0.374D-02 0.255D-02 0.624D-01 0.274D+00 0.665D+00
 Coeff-En:   0.000D+00 0.000D+00 0.000D+00 0.000D+00 0.000D+00 0.100D+01
 Coeff:     -0.320D-03-0.373D-02 0.255D-02 0.623D-01 0.273D+00 0.666D+00
 Gap=     0.157 Goal=   None    Shift=    0.000
 RMSDP=3.56D-05 MaxDP=3.63D-03 DE=-8.53D-04 OVMax= 5.35D-03

 Cycle   7  Pass 0  IDiag  1:
 RMSU=  2.44D-05    CP:  1.00D+00  7.56D-01  9.07D-01  8.64D-01  1.06D+00
                    CP:  1.07D+00
 E= -1507.89832023354     Delta-E=       -0.000094042904 Rises=F Damp=F
 DIIS: error= 7.19D-05 at cycle   7 NSaved=   7.
 NSaved= 7 IEnMin= 7 EnMin= -1507.89832023354     IErMin= 7 ErrMin= 7.19D-05
 ErrMax= 7.19D-05  0.00D+00 EMaxC= 1.00D-01 BMatC= 1.25D-05 BMatP= 9.80D-05
 IDIUse=1 WtCom= 1.00D+00 WtEn= 0.00D+00
 Coeff-Com:  0.137D-02-0.432D-02-0.136D-01-0.123D-01 0.499D-01 0.308D+00
 Coeff-Com:  0.671D+00
 Coeff:      0.137D-02-0.432D-02-0.136D-01-0.123D-01 0.499D-01 0.308D+00
 Coeff:      0.671D+00
 Gap=     0.157 Goal=   None    Shift=    0.000
 RMSDP=2.04D-05 MaxDP=2.18D-03 DE=-9.40D-05 OVMax= 1.88D-03

 Cycle   8  Pass 0  IDiag  1:
 RMSU=  1.33D-05    CP:  1.00D+00  7.54D-01  9.08D-01  8.77D-01  1.13D+00
                    CP:  1.20D+00  1.24D+00
 E= -1507.89832460707     Delta-E=       -0.000004373531 Rises=F Damp=F
 DIIS: error= 2.72D-05 at cycle   8 NSaved=   8.
 NSaved= 8 IEnMin= 8 EnMin= -1507.89832460707     IErMin= 8 ErrMin= 2.72D-05
 ErrMax= 2.72D-05  0.00D+00 EMaxC= 1.00D-01 BMatC= 2.00D-06 BMatP= 1.25D-05
 IDIUse=1 WtCom= 1.00D+00 WtEn= 0.00D+00
 Coeff-Com:  0.736D-03-0.149D-02-0.789D-02-0.165D-01-0.248D-01 0.421D-01
 Coeff-Com:  0.311D+00 0.697D+00
 Coeff:      0.736D-03-0.149D-02-0.789D-02-0.165D-01-0.248D-01 0.421D-01
 Coeff:      0.311D+00 0.697D+00
 Gap=     0.157 Goal=   None    Shift=    0.000
 RMSDP=1.66D-05 MaxDP=1.78D-03 DE=-4.37D-06 OVMax= 1.10D-03

 Cycle   9  Pass 0  IDiag  1:
 RMSU=  1.17D-05    CP:  1.00D+00  7.52D-01  9.07D-01  8.81D-01  1.16D+00
                    CP:  1.29D+00  1.42D+00  1.53D+00
 E= -1507.89831446146     Delta-E=        0.000010145608 Rises=F Damp=F
 DIIS: error= 1.81D-05 at cycle   9 NSaved=   9.
 NSaved= 9 IEnMin= 8 EnMin= -1507.89832460707     IErMin= 9 ErrMin= 1.81D-05
 ErrMax= 1.81D-05  0.00D+00 EMaxC= 1.00D-01 BMatC= 4.77D-07 BMatP= 2.00D-06
 IDIUse=1 WtCom= 1.00D+00 WtEn= 0.00D+00
 Coeff-Com:  0.243D-03-0.345D-03-0.320D-02-0.740D-02-0.190D-01-0.189D-02
 Coeff-Com:  0.940D-01 0.353D+00 0.584D+00
 Coeff:      0.243D-03-0.345D-03-0.320D-02-0.740D-02-0.190D-01-0.189D-02
 Coeff:      0.940D-01 0.353D+00 0.584D+00
 Gap=     0.157 Goal=   None    Shift=    0.000
 RMSDP=1.74D-05 MaxDP=1.83D-03 DE= 1.01D-05 OVMax= 4.29D-04

 Cycle  10  Pass 0  IDiag  1:
 RMSU=  8.55D-06    CP:  1.00D+00  7.50D-01  9.06D-01  8.83D-01  1.17D+00
                    CP:  1.34D+00  1.52D+00  2.10D+00  2.02D+00
 E= -1507.89830656737     Delta-E=        0.000007894094 Rises=F Damp=F
 DIIS: error= 2.89D-05 at cycle  10 NSaved=  10.
 NSaved=10 IEnMin= 8 EnMin= -1507.89832460707     IErMin= 9 ErrMin= 1.81D-05
 ErrMax= 2.89D-05  0.00D+00 EMaxC= 1.00D-01 BMatC= 4.54D-07 BMatP= 4.77D-07
 IDIUse=1 WtCom= 1.00D+00 WtEn= 0.00D+00
 Coeff-Com:  0.275D-03-0.387D-03-0.354D-02-0.834D-02-0.212D-01-0.248D-02
 Coeff-Com:  0.107D+00 0.401D+00 0.663D+00-0.134D+00
 Coeff:      0.275D-03-0.387D-03-0.354D-02-0.834D-02-0.212D-01-0.248D-02
 Coeff:      0.107D+00 0.401D+00 0.663D+00-0.134D+00
 Gap=     0.157 Goal=   None    Shift=    0.000
 RMSDP=5.80D-06 MaxDP=5.52D-04 DE= 7.89D-06 OVMax= 2.75D-05

 Initial convergence to 1.0D-05 achieved.  Increase integral accuracy.
 Cycle  11  Pass 1  IDiag  1:
 E= -1507.89825245272     Delta-E=        0.000054114648 Rises=F Damp=F
 DIIS: error= 3.13D-04 at cycle   1 NSaved=   1.
 NSaved= 1 IEnMin= 1 EnMin= -1507.89825245272     IErMin= 1 ErrMin= 3.13D-04
 ErrMax= 3.13D-04  0.00D+00 EMaxC= 1.00D-01 BMatC= 9.61D-05 BMatP= 9.61D-05
 IDIUse=3 WtCom= 9.97D-01 WtEn= 3.13D-03
 Coeff-Com:  0.100D+01
 Coeff-En:   0.100D+01
 Coeff:      0.100D+01
 Gap=     0.157 Goal=   None    Shift=    0.000
 RMSDP=5.80D-06 MaxDP=5.52D-04 DE= 5.41D-05 OVMax= 1.02D-03

 Cycle  12  Pass 1  IDiag  1:
 RMSU=  5.64D-04    CP:  9.92D-01
 E= -1507.89831263850     Delta-E=       -0.000060185781 Rises=F Damp=F
 DIIS: error= 1.57D-05 at cycle   2 NSaved=   2.
 NSaved= 2 IEnMin= 2 EnMin= -1507.89831263850     IErMin= 2 ErrMin= 1.57D-05
 ErrMax= 1.57D-05  0.00D+00 EMaxC= 1.00D-01 BMatC= 1.90D-07 BMatP= 9.61D-05
 IDIUse=1 WtCom= 1.00D+00 WtEn= 0.00D+00
 Coeff-Com: -0.140D-01 0.101D+01
 Coeff:     -0.140D-01 0.101D+01
 Gap=     0.157 Goal=   None    Shift=    0.000
 RMSDP=2.15D-05 MaxDP=1.93D-03 DE=-6.02D-05 OVMax= 6.04D-04

 Cycle  13  Pass 1  IDiag  1:
 RMSU=  8.32D-06    CP:  9.91D-01  1.04D+00
 E= -1507.89831244390     Delta-E=        0.000000194604 Rises=F Damp=F
 DIIS: error= 2.08D-05 at cycle   3 NSaved=   3.
 NSaved= 3 IEnMin= 2 EnMin= -1507.89831263850     IErMin= 2 ErrMin= 1.57D-05
 ErrMax= 2.08D-05  0.00D+00 EMaxC= 1.00D-01 BMatC= 4.18D-07 BMatP= 1.90D-07
 IDIUse=1 WtCom= 1.00D+00 WtEn= 0.00D+00
 Coeff-Com: -0.104D-01 0.624D+00 0.386D+00
 Coeff:     -0.104D-01 0.624D+00 0.386D+00
 Gap=     0.157 Goal=   None    Shift=    0.000
 RMSDP=1.24D-06 MaxDP=9.58D-05 DE= 1.95D-07 OVMax= 2.89D-04

 Cycle  14  Pass 1  IDiag  1:
 RMSU=  1.20D-06    CP:  9.91D-01  1.04D+00  9.97D-01
 E= -1507.89831288746     Delta-E=       -0.000000443558 Rises=F Damp=F
 DIIS: error= 1.19D-06 at cycle   4 NSaved=   4.
 NSaved= 4 IEnMin= 4 EnMin= -1507.89831288746     IErMin= 4 ErrMin= 1.19D-06
 ErrMax= 1.19D-06  0.00D+00 EMaxC= 1.00D-01 BMatC= 1.00D-09 BMatP= 1.90D-07
 IDIUse=1 WtCom= 1.00D+00 WtEn= 0.00D+00
 Coeff-Com: -0.271D-03 0.592D-02 0.160D-01 0.978D+00
 Coeff:     -0.271D-03 0.592D-02 0.160D-01 0.978D+00
 Gap=     0.157 Goal=   None    Shift=    0.000
 RMSDP=5.61D-07 MaxDP=4.69D-05 DE=-4.44D-07 OVMax= 5.22D-05

 Cycle  15  Pass 1  IDiag  1:
 RMSU=  2.45D-07    CP:  9.91D-01  1.04D+00  1.03D+00  1.04D+00
 E= -1507.89831288947     Delta-E=       -0.000000002010 Rises=F Damp=F
 DIIS: error= 5.62D-07 at cycle   5 NSaved=   5.
 NSaved= 5 IEnMin= 5 EnMin= -1507.89831288947     IErMin= 5 ErrMin= 5.62D-07
 ErrMax= 5.62D-07  0.00D+00 EMaxC= 1.00D-01 BMatC= 1.00D-09 BMatP= 1.00D-09
 IDIUse=1 WtCom= 1.00D+00 WtEn= 0.00D+00
 Coeff-Com:  0.571D-03-0.399D-01-0.257D-01 0.522D+00 0.543D+00
 Coeff:      0.571D-03-0.399D-01-0.257D-01 0.522D+00 0.543D+00
 Gap=     0.157 Goal=   None    Shift=    0.000
 RMSDP=9.41D-08 MaxDP=1.17D-05 DE=-2.01D-09 OVMax= 1.52D-05

 Cycle  16  Pass 1  IDiag  1:
 RMSU=  6.20D-08    CP:  9.91D-01  1.04D+00  1.04D+00  1.05D+00  1.12D+00
 E= -1507.89831289054     Delta-E=       -0.000000001072 Rises=F Damp=F
 DIIS: error= 2.80D-07 at cycle   6 NSaved=   6.
 NSaved= 6 IEnMin= 6 EnMin= -1507.89831289054     IErMin= 6 ErrMin= 2.80D-07
 ErrMax= 2.80D-07  0.00D+00 EMaxC= 1.00D-01 BMatC= 1.00D-10 BMatP= 1.00D-09
 IDIUse=1 WtCom= 1.00D+00 WtEn= 0.00D+00
 Coeff-Com:  0.209D-03-0.125D-01-0.174D-01 0.377D-02 0.145D+00 0.881D+00
 Coeff:      0.209D-03-0.125D-01-0.174D-01 0.377D-02 0.145D+00 0.881D+00
 Gap=     0.157 Goal=   None    Shift=    0.000
 RMSDP=5.84D-08 MaxDP=5.56D-06 DE=-1.07D-09 OVMax= 1.19D-05

 Cycle  17  Pass 1  IDiag  1:
 RMSU=  3.24D-08    CP:  9.91D-01  1.04D+00  1.04D+00  1.06D+00  1.30D+00
                    CP:  1.19D+00
 E= -1507.89831289074     Delta-E=       -0.000000000201 Rises=F Damp=F
 DIIS: error= 1.05D-07 at cycle   7 NSaved=   7.
 NSaved= 7 IEnMin= 7 EnMin= -1507.89831289074     IErMin= 7 ErrMin= 1.05D-07
 ErrMax= 1.05D-07  0.00D+00 EMaxC= 1.00D-01 BMatC= 3.75D-11 BMatP= 1.00D-10
 IDIUse=1 WtCom= 1.00D+00 WtEn= 0.00D+00
 Coeff-Com: -0.489D-04 0.463D-02-0.541D-02-0.145D+00-0.633D-01 0.531D+00
 Coeff-Com:  0.678D+00
 Coeff:     -0.489D-04 0.463D-02-0.541D-02-0.145D+00-0.633D-01 0.531D+00
 Coeff:      0.678D+00
 Gap=     0.157 Goal=   None    Shift=    0.000
 RMSDP=3.03D-08 MaxDP=3.57D-06 DE=-2.01D-10 OVMax= 8.42D-06

 Cycle  18  Pass 1  IDiag  1:
 RMSU=  1.46D-08    CP:  9.91D-01  1.04D+00  1.04D+00  1.06D+00  1.38D+00
                    CP:  1.39D+00  1.31D+00
 E= -1507.89831289081     Delta-E=       -0.000000000068 Rises=F Damp=F
 DIIS: error= 3.61D-08 at cycle   8 NSaved=   8.
 NSaved= 8 IEnMin= 8 EnMin= -1507.89831289081     IErMin= 8 ErrMin= 3.61D-08
 ErrMax= 3.61D-08  0.00D+00 EMaxC= 1.00D-01 BMatC= 3.13D-12 BMatP= 3.75D-11
 IDIUse=1 WtCom= 1.00D+00 WtEn= 0.00D+00
 Coeff-Com: -0.398D-04 0.304D-02-0.101D-02-0.568D-01-0.400D-01 0.101D+00
 Coeff-Com:  0.282D+00 0.712D+00
 Coeff:     -0.398D-04 0.304D-02-0.101D-02-0.568D-01-0.400D-01 0.101D+00
 Coeff:      0.282D+00 0.712D+00
 Gap=     0.157 Goal=   None    Shift=    0.000
 RMSDP=9.28D-09 MaxDP=7.71D-07 DE=-6.82D-11 OVMax= 1.79D-06

 SCF Done:  E(RM062X) =  -1507.89831289     A.U. after   18 cycles
            NFock= 18  Conv=0.93D-08     -V/T= 2.0037
 KE= 1.502318318485D+03 PE=-8.537958770354D+03 EE= 3.027491199516D+03
 Leave Link  502 at Sat Aug 13 20:42:52 2022, MaxMem=  2684354560 cpu:            8174.0 elap:             511.5
 (Enter /storage/apps/GAUSSIAN/G16_RevA03/g16/l601.exe)
 Copying SCF densities to generalized density rwf, IOpCl= 0 IROHF=0.

 **********************************************************************

            Population analysis using the SCF density.

 **********************************************************************

 Orbital symmetries:
       Occupied  (A) (A) (A) (A) (A) (A) (A) (A) (A) (A) (A) (A)
                 (A) (A) (A) (A) (A) (A) (A) (A) (A) (A) (A) (A)
                 (A) (A) (A) (A) (A) (A) (A) (A) (A) (A) (A) (A)
                 (A) (A) (A) (A) (A) (A) (A) (A) (A) (A) (A) (A)
                 (A) (A) (A) (A) (A) (A) (A) (A) (A) (A) (A) (A)
                 (A) (A) (A) (A) (A) (A) (A) (A) (A) (A) (A) (A)
                 (A) (A) (A) (A) (A) (A) (A) (A) (A) (A) (A) (A)
                 (A) (A) (A) (A) (A) (A) (A) (A) (A) (A) (A)
       Virtual   (A) (A) (A) (A) (A) (A) (A) (A) (A) (A) (A) (A)
                 (A) (A) (A) (A) (A) (A) (A) (A) (A) (A) (A) (A)
                 (A) (A) (A) (A) (A) (A) (A) (A) (A) (A) (A) (A)
                 (A) (A) (A) (A) (A) (A) (A) (A) (A) (A) (A) (A)
                 (A) (A) (A) (A) (A) (A) (A) (A) (A) (A) (A) (A)
                 (A) (A) (A) (A) (A) (A) (A) (A) (A) (A) (A) (A)
                 (A) (A) (A) (A) (A) (A) (A) (A) (A) (A) (A) (A)
                 (A) (A) (A) (A) (A) (A) (A) (A) (A) (A) (A) (A)
                 (A) (A) (A) (A) (A) (A) (A) (A) (A) (A) (A) (A)
                 (A) (A) (A) (A) (A) (A) (A) (A) (A) (A) (A) (A)
                 (A) (A) (A) (A) (A) (A) (A) (A) (A) (A) (A) (A)
                 (A) (A) (A) (A) (A) (A) (A) (A) (A) (A) (A) (A)
                 (A) (A) (A) (A) (A) (A) (A) (A) (A) (A) (A) (A)
                 (A) (A) (A) (A) (A) (A) (A) (A) (A) (A) (A) (A)
                 (A) (A) (A) (A) (A) (A) (A) (A) (A) (A) (A) (A)
                 (A) (A) (A) (A) (A) (A) (A) (A) (A) (A) (A) (A)
                 (A) (A) (A) (A) (A) (A) (A) (A) (A) (A) (A) (A)
                 (A) (A) (A) (A) (A) (A) (A) (A) (A) (A) (A) (A)
                 (A) (A) (A) (A) (A) (A) (A) (A) (A) (A) (A) (A)
                 (A) (A) (A) (A) (A) (A) (A) (A) (A) (A) (A) (A)
                 (A) (A) (A) (A) (A) (A) (A) (A) (A) (A) (A) (A)
                 (A) (A) (A) (A) (A) (A) (A) (A) (A) (A) (A) (A)
                 (A) (A) (A) (A) (A) (A) (A) (A) (A) (A) (A) (A)
                 (A) (A) (A) (A) (A) (A) (A) (A) (A) (A) (A) (A)
                 (A) (A) (A) (A) (A) (A) (A) (A) (A) (A) (A) (A)
                 (A) (A) (A) (A) (A) (A) (A) (A) (A) (A) (A) (A)
                 (A) (A) (A) (A) (A) (A) (A) (A) (A) (A) (A) (A)
                 (A) (A) (A) (A) (A) (A) (A) (A) (A) (A) (A) (A)
                 (A) (A) (A) (A) (A) (A) (A) (A) (A) (A) (A) (A)
                 (A) (A) (A) (A) (A) (A) (A) (A) (A) (A) (A) (A)
                 (A) (A) (A) (A) (A) (A) (A) (A) (A) (A) (A) (A)
                 (A) (A) (A) (A) (A) (A) (A) (A) (A) (A) (A) (A)
                 (A) (A) (A) (A) (A) (A) (A) (A) (A) (A) (A) (A)
                 (A) (A) (A) (A) (A) (A) (A) (A) (A) (A) (A) (A)
                 (A) (A) (A) (A) (A) (A) (A) (A) (A) (A) (A) (A)
                 (A) (A) (A) (A) (A) (A) (A) (A) (A) (A) (A) (A)
                 (A) (A) (A) (A) (A) (A) (A) (A) (A) (A) (A) (A)
                 (A) (A) (A) (A) (A) (A) (A) (A) (A) (A) (A) (A)
                 (A) (A) (A) (A) (A) (A) (A) (A) (A) (A) (A) (A)
                 (A) (A) (A) (A) (A) (A) (A) (A) (A) (A) (A) (A)
                 (A) (A) (A) (A) (A) (A) (A) (A) (A) (A) (A) (A)
                 (A) (A) (A) (A) (A) (A) (A) (A) (A) (A) (A) (A)
                 (A) (A) (A) (A) (A) (A) (A) (A) (A) (A) (A) (A)
                 (A) (A) (A) (A) (A) (A) (A) (A) (A) (A) (A) (A)
                 (A) (A) (A) (A) (A) (A) (A) (A) (A) (A) (A) (A)
                 (A) (A) (A) (A) (A) (A) (A) (A) (A) (A) (A) (A)
                 (A) (A) (A) (A) (A) (A) (A) (A) (A) (A) (A) (A)
                 (A) (A) (A) (A) (A) (A) (A) (A) (A) (A) (A) (A)
                 (A) (A) (A) (A) (A) (A) (A) (A) (A) (A) (A) (A)
                 (A) (A) (A) (A) (A) (A) (A) (A) (A) (A) (A) (A)
                 (A) (A) (A) (A) (A) (A) (A) (A) (A) (A) (A) (A)
                 (A) (A) (A) (A) (A) (A) (A) (A) (A) (A) (A) (A)
                 (A) (A) (A) (A) (A) (A) (A) (A) (A) (A) (A) (A)
                 (A) (A) (A) (A) (A) (A) (A) (A) (A) (A) (A) (A)
                 (A) (A) (A) (A) (A) (A) (A) (A) (A) (A) (A) (A)
                 (A) (A) (A) (A) (A) (A) (A) (A) (A) (A) (A) (A)
                 (A) (A) (A) (A) (A) (A) (A) (A) (A) (A) (A) (A)
                 (A) (A) (A) (A) (A) (A) (A) (A) (A) (A) (A) (A)
                 (A) (A) (A) (A) (A) (A) (A) (A) (A) (A) (A) (A)
                 (A) (A) (A) (A) (A) (A) (A) (A) (A) (A) (A) (A)
                 (A) (A) (A) (A) (A) (A) (A) (A) (A) (A) (A) (A)
                 (A) (A) (A) (A) (A) (A) (A) (A) (A) (A) (A) (A)
                 (A) (A) (A) (A) (A) (A) (A) (A) (A) (A) (A) (A)
                 (A) (A) (A) (A) (A) (A) (A) (A) (A) (A) (A) (A)
                 (A) (A) (A) (A) (A) (A) (A) (A) (A) (A) (A) (A)
                 (A) (A) (A) (A) (A) (A) (A) (A) (A) (A) (A) (A)
                 (A) (A) (A) (A) (A) (A) (A)
 The electronic state is 1-A.
 Alpha  occ. eigenvalues --  -89.87358 -19.66163 -19.63162 -19.62028 -19.60697
 Alpha  occ. eigenvalues --  -19.57734 -14.86880 -14.77710 -10.66220 -10.65942
 Alpha  occ. eigenvalues --  -10.63596 -10.62611 -10.60997 -10.60965 -10.60379
 Alpha  occ. eigenvalues --  -10.60347 -10.60020 -10.58992 -10.58852 -10.54919
 Alpha  occ. eigenvalues --  -10.54039 -10.52925 -10.52843 -10.49991  -8.23276
 Alpha  occ. eigenvalues --   -6.15242  -6.15014  -6.14754  -1.22015  -1.18024
 Alpha  occ. eigenvalues --   -1.16961  -1.15001  -1.13852  -1.11441  -1.02964
 Alpha  occ. eigenvalues --   -0.97165  -0.92522  -0.90453  -0.88834  -0.87604
 Alpha  occ. eigenvalues --   -0.86089  -0.81245  -0.80088  -0.79573  -0.76565
 Alpha  occ. eigenvalues --   -0.73007  -0.72566  -0.69690  -0.68945  -0.66932
 Alpha  occ. eigenvalues --   -0.66324  -0.63971  -0.62756  -0.61698  -0.60870
 Alpha  occ. eigenvalues --   -0.59931  -0.58125  -0.57976  -0.57205  -0.55992
 Alpha  occ. eigenvalues --   -0.55442  -0.54228  -0.52990  -0.52711  -0.52087
 Alpha  occ. eigenvalues --   -0.51639  -0.51299  -0.50429  -0.50054  -0.48707
 Alpha  occ. eigenvalues --   -0.48410  -0.48135  -0.47689  -0.47079  -0.46399
 Alpha  occ. eigenvalues --   -0.45618  -0.45499  -0.45115  -0.44554  -0.43636
 Alpha  occ. eigenvalues --   -0.43575  -0.41202  -0.40032  -0.39032  -0.37961
 Alpha  occ. eigenvalues --   -0.37439  -0.36774  -0.36542  -0.36283  -0.35795
 Alpha  occ. eigenvalues --   -0.34681  -0.33760  -0.29853  -0.28489  -0.21685
 Alpha virt. eigenvalues --   -0.06029  -0.03569   0.03724   0.04797   0.05386
 Alpha virt. eigenvalues --    0.06210   0.07062   0.07324   0.08221   0.08783
 Alpha virt. eigenvalues --    0.09320   0.10038   0.10302   0.10669   0.11424
 Alpha virt. eigenvalues --    0.11533   0.12031   0.12598   0.12821   0.13243
 Alpha virt. eigenvalues --    0.13906   0.13988   0.14347   0.14488   0.15017
 Alpha virt. eigenvalues --    0.15443   0.15698   0.16088   0.16413   0.16788
 Alpha virt. eigenvalues --    0.17616   0.17764   0.18373   0.19069   0.19558
 Alpha virt. eigenvalues --    0.20642   0.21114   0.21331   0.21675   0.22121
 Alpha virt. eigenvalues --    0.22904   0.23286   0.23646   0.23832   0.24070
 Alpha virt. eigenvalues --    0.24784   0.25411   0.25785   0.25981   0.26409
 Alpha virt. eigenvalues --    0.26660   0.26926   0.27945   0.28267   0.28616
 Alpha virt. eigenvalues --    0.29190   0.29521   0.30016   0.30746   0.31423
 Alpha virt. eigenvalues --    0.31855   0.31946   0.32534   0.32991   0.33395
 Alpha virt. eigenvalues --    0.34133   0.34560   0.35027   0.35694   0.36267
 Alpha virt. eigenvalues --    0.36916   0.36962   0.37240   0.37736   0.38164
 Alpha virt. eigenvalues --    0.38848   0.39238   0.39597   0.39753   0.39993
 Alpha virt. eigenvalues --    0.40422   0.40638   0.41120   0.41679   0.42067
 Alpha virt. eigenvalues --    0.42629   0.42910   0.43291   0.43653   0.44172
 Alpha virt. eigenvalues --    0.44455   0.44525   0.45108   0.45306   0.45619
 Alpha virt. eigenvalues --    0.45712   0.46300   0.46535   0.46997   0.47425
 Alpha virt. eigenvalues --    0.47749   0.48196   0.48443   0.48871   0.49223
 Alpha virt. eigenvalues --    0.49433   0.49907   0.49921   0.50671   0.50904
 Alpha virt. eigenvalues --    0.51028   0.51481   0.52119   0.52976   0.53427
 Alpha virt. eigenvalues --    0.53732   0.54047   0.54278   0.54752   0.55091
 Alpha virt. eigenvalues --    0.55602   0.55860   0.56073   0.56570   0.57760
 Alpha virt. eigenvalues --    0.58300   0.58574   0.59254   0.59610   0.60081
 Alpha virt. eigenvalues --    0.60690   0.61335   0.61820   0.62080   0.63049
 Alpha virt. eigenvalues --    0.63212   0.64047   0.64393   0.65024   0.65634
 Alpha virt. eigenvalues --    0.66022   0.66081   0.66958   0.67483   0.67583
 Alpha virt. eigenvalues --    0.68225   0.68722   0.69183   0.69379   0.71103
 Alpha virt. eigenvalues --    0.71466   0.71888   0.72626   0.73558   0.73885
 Alpha virt. eigenvalues --    0.74222   0.74818   0.75797   0.75906   0.77173
 Alpha virt. eigenvalues --    0.78168   0.78252   0.79747   0.80308   0.81216
 Alpha virt. eigenvalues --    0.82106   0.82586   0.82769   0.83180   0.84001
 Alpha virt. eigenvalues --    0.85673   0.86113   0.86677   0.87234   0.87735
 Alpha virt. eigenvalues --    0.88356   0.88769   0.89593   0.89819   0.90116
 Alpha virt. eigenvalues --    0.90636   0.91292   0.91715   0.92580   0.93060
 Alpha virt. eigenvalues --    0.93472   0.94427   0.94739   0.95023   0.95712
 Alpha virt. eigenvalues --    0.96772   0.97880   0.98282   0.99035   0.99623
 Alpha virt. eigenvalues --    1.00302   1.01167   1.01569   1.02179   1.02776
 Alpha virt. eigenvalues --    1.03295   1.03528   1.04417   1.05794   1.06474
 Alpha virt. eigenvalues --    1.07399   1.08154   1.08686   1.08884   1.09554
 Alpha virt. eigenvalues --    1.09653   1.10946   1.11755   1.12357   1.12941
 Alpha virt. eigenvalues --    1.14292   1.15088   1.16162   1.16972   1.17592
 Alpha virt. eigenvalues --    1.17889   1.18239   1.18669   1.19290   1.20124
 Alpha virt. eigenvalues --    1.21178   1.22139   1.22491   1.23258   1.24225
 Alpha virt. eigenvalues --    1.24587   1.25970   1.26136   1.27369   1.28284
 Alpha virt. eigenvalues --    1.28647   1.29016   1.29495   1.30012   1.31704
 Alpha virt. eigenvalues --    1.32000   1.32583   1.33599   1.34170   1.34853
 Alpha virt. eigenvalues --    1.35721   1.36607   1.38001   1.39195   1.40217
 Alpha virt. eigenvalues --    1.40840   1.41254   1.42562   1.42875   1.44337
 Alpha virt. eigenvalues --    1.44973   1.45577   1.45997   1.47695   1.50508
 Alpha virt. eigenvalues --    1.51116   1.51950   1.52950   1.53270   1.53334
 Alpha virt. eigenvalues --    1.54139   1.54417   1.54733   1.55466   1.56160
 Alpha virt. eigenvalues --    1.56737   1.56936   1.57422   1.57951   1.59010
 Alpha virt. eigenvalues --    1.59533   1.60205   1.60343   1.60794   1.61051
 Alpha virt. eigenvalues --    1.61349   1.61558   1.62600   1.62871   1.63442
 Alpha virt. eigenvalues --    1.63563   1.64335   1.64556   1.64754   1.65618
 Alpha virt. eigenvalues --    1.66188   1.67116   1.67452   1.68458   1.68645
 Alpha virt. eigenvalues --    1.69703   1.69998   1.70338   1.71128   1.71499
 Alpha virt. eigenvalues --    1.72027   1.72773   1.73079   1.74154   1.75093
 Alpha virt. eigenvalues --    1.75872   1.76604   1.77365   1.78043   1.78259
 Alpha virt. eigenvalues --    1.78513   1.79167   1.80186   1.80834   1.81648
 Alpha virt. eigenvalues --    1.82954   1.83382   1.84110   1.84407   1.84919
 Alpha virt. eigenvalues --    1.86468   1.86992   1.87085   1.88301   1.89093
 Alpha virt. eigenvalues --    1.89329   1.89588   1.90181   1.91416   1.91838
 Alpha virt. eigenvalues --    1.93015   1.93382   1.94353   1.94514   1.94830
 Alpha virt. eigenvalues --    1.95039   1.96476   1.97346   1.97835   1.98335
 Alpha virt. eigenvalues --    1.99736   2.00259   2.00757   2.01642   2.02795
 Alpha virt. eigenvalues --    2.03253   2.03633   2.04074   2.04706   2.05045
 Alpha virt. eigenvalues --    2.06044   2.06629   2.07307   2.09065   2.09975
 Alpha virt. eigenvalues --    2.10545   2.11124   2.11903   2.12838   2.13806
 Alpha virt. eigenvalues --    2.14155   2.14825   2.16861   2.16971   2.17865
 Alpha virt. eigenvalues --    2.18256   2.18699   2.19390   2.20292   2.20588
 Alpha virt. eigenvalues --    2.21362   2.21993   2.22746   2.22844   2.23803
 Alpha virt. eigenvalues --    2.24181   2.24574   2.25803   2.26757   2.27320
 Alpha virt. eigenvalues --    2.28026   2.28314   2.29167   2.30140   2.30621
 Alpha virt. eigenvalues --    2.31294   2.32259   2.33434   2.34292   2.34596
 Alpha virt. eigenvalues --    2.35031   2.35792   2.36335   2.36483   2.37388
 Alpha virt. eigenvalues --    2.37670   2.38597   2.39284   2.39666   2.39794
 Alpha virt. eigenvalues --    2.40620   2.41642   2.42798   2.43094   2.43917
 Alpha virt. eigenvalues --    2.44779   2.45732   2.45980   2.46612   2.47772
 Alpha virt. eigenvalues --    2.48651   2.50082   2.50707   2.51689   2.52567
 Alpha virt. eigenvalues --    2.54079   2.54494   2.54892   2.55599   2.56439
 Alpha virt. eigenvalues --    2.56958   2.57840   2.58214   2.58679   2.58911
 Alpha virt. eigenvalues --    2.59959   2.60696   2.61188   2.61540   2.61944
 Alpha virt. eigenvalues --    2.62058   2.63701   2.64127   2.64601   2.65681
 Alpha virt. eigenvalues --    2.66272   2.66781   2.67056   2.68057   2.68597
 Alpha virt. eigenvalues --    2.69586   2.69788   2.70394   2.70509   2.71306
 Alpha virt. eigenvalues --    2.72189   2.72493   2.73046   2.74674   2.74977
 Alpha virt. eigenvalues --    2.75272   2.76395   2.76903   2.77977   2.78923
 Alpha virt. eigenvalues --    2.79800   2.80221   2.80774   2.81291   2.81956
 Alpha virt. eigenvalues --    2.82795   2.83087   2.83840   2.84495   2.84687
 Alpha virt. eigenvalues --    2.85577   2.86201   2.87158   2.88220   2.88503
 Alpha virt. eigenvalues --    2.89167   2.90049   2.90144   2.91027   2.91528
 Alpha virt. eigenvalues --    2.92624   2.93999   2.94682   2.95786   2.96127
 Alpha virt. eigenvalues --    2.97571   2.98335   2.99050   2.99751   2.99863
 Alpha virt. eigenvalues --    3.00754   3.01755   3.02451   3.03274   3.03889
 Alpha virt. eigenvalues --    3.04454   3.04815   3.05469   3.06400   3.06710
 Alpha virt. eigenvalues --    3.08438   3.08765   3.09266   3.09874   3.10119
 Alpha virt. eigenvalues --    3.10529   3.11069   3.11619   3.12703   3.13141
 Alpha virt. eigenvalues --    3.13773   3.14426   3.14635   3.15135   3.16174
 Alpha virt. eigenvalues --    3.16449   3.16808   3.17306   3.17654   3.18387
 Alpha virt. eigenvalues --    3.19713   3.20009   3.20677   3.21293   3.21653
 Alpha virt. eigenvalues --    3.22056   3.23115   3.23577   3.24403   3.25076
 Alpha virt. eigenvalues --    3.26128   3.26943   3.27295   3.28032   3.28669
 Alpha virt. eigenvalues --    3.29548   3.30232   3.30917   3.31351   3.31829
 Alpha virt. eigenvalues --    3.32269   3.33112   3.33322   3.34047   3.34913
 Alpha virt. eigenvalues --    3.35601   3.35993   3.36518   3.36820   3.37151
 Alpha virt. eigenvalues --    3.38445   3.39011   3.39789   3.40229   3.40937
 Alpha virt. eigenvalues --    3.41073   3.41787   3.42341   3.43366   3.43892
 Alpha virt. eigenvalues --    3.44202   3.44867   3.45157   3.45519   3.45891
 Alpha virt. eigenvalues --    3.46746   3.47440   3.48694   3.49303   3.49958
 Alpha virt. eigenvalues --    3.50548   3.51632   3.52749   3.53112   3.54586
 Alpha virt. eigenvalues --    3.54658   3.55856   3.56207   3.56431   3.57487
 Alpha virt. eigenvalues --    3.58100   3.58786   3.59712   3.60044   3.60560
 Alpha virt. eigenvalues --    3.60790   3.61152   3.62609   3.63626   3.64281
 Alpha virt. eigenvalues --    3.66321   3.66925   3.68140   3.68797   3.69618
 Alpha virt. eigenvalues --    3.70806   3.71189   3.73487   3.73745   3.74722
 Alpha virt. eigenvalues --    3.76063   3.76596   3.78096   3.78955   3.79648
 Alpha virt. eigenvalues --    3.80720   3.80996   3.82449   3.83235   3.85567
 Alpha virt. eigenvalues --    3.86365   3.87059   3.88226   3.89120   3.89825
 Alpha virt. eigenvalues --    3.92024   3.92736   3.93845   3.94220   3.95610
 Alpha virt. eigenvalues --    3.97177   3.97722   3.97959   3.98537   3.99623
 Alpha virt. eigenvalues --    4.01171   4.01510   4.05114   4.06305   4.07408
 Alpha virt. eigenvalues --    4.09271   4.09813   4.11739   4.12978   4.13667
 Alpha virt. eigenvalues --    4.14106   4.15772   4.16402   4.17814   4.19338
 Alpha virt. eigenvalues --    4.20770   4.21158   4.22223   4.23625   4.25620
 Alpha virt. eigenvalues --    4.27238   4.27367   4.28175   4.29468   4.30944
 Alpha virt. eigenvalues --    4.31384   4.32635   4.35362   4.36171   4.37341
 Alpha virt. eigenvalues --    4.39388   4.39913   4.41468   4.43393   4.43889
 Alpha virt. eigenvalues --    4.45419   4.46734   4.46921   4.47954   4.50154
 Alpha virt. eigenvalues --    4.50993   4.52252   4.55610   4.57423   4.58222
 Alpha virt. eigenvalues --    4.60116   4.61718   4.63598   4.65564   4.67548
 Alpha virt. eigenvalues --    4.68219   4.73583   4.73854   4.75358   4.75700
 Alpha virt. eigenvalues --    4.77900   4.80318   4.80934   4.83449   4.84175
 Alpha virt. eigenvalues --    4.85506   4.87417   4.89031   4.90844   4.92060
 Alpha virt. eigenvalues --    4.92920   4.93653   4.95183   4.97561   4.98420
 Alpha virt. eigenvalues --    4.99958   5.03188   5.04612   5.05957   5.07551
 Alpha virt. eigenvalues --    5.09468   5.13489   5.16075   5.19622   5.21218
 Alpha virt. eigenvalues --    5.22166   5.25585   5.26251   5.27098   5.27563
 Alpha virt. eigenvalues --    5.30709   5.31427   5.31954   5.35605   5.38167
 Alpha virt. eigenvalues --    5.39786   5.42510   5.43340   5.45428   5.47537
 Alpha virt. eigenvalues --    5.48592   5.49493   5.51213   5.53381   5.57998
 Alpha virt. eigenvalues --    5.64384   5.67370   5.72815   5.74782   5.77941
 Alpha virt. eigenvalues --    5.79959   5.81166   5.83512   5.84213   5.86812
 Alpha virt. eigenvalues --    5.89536   5.90719   5.92095   5.94207   5.95952
 Alpha virt. eigenvalues --    5.97506   6.03843   6.06245   6.15348   6.17148
 Alpha virt. eigenvalues --    6.20240   6.23158   6.26296   6.27004   6.38518
 Alpha virt. eigenvalues --    6.41798   6.43816   6.47742   6.48759   6.55032
 Alpha virt. eigenvalues --    6.59691   6.66540   6.73028   6.75199   6.76329
 Alpha virt. eigenvalues --    6.78291   6.80818   6.84174   6.85260   6.86871
 Alpha virt. eigenvalues --    6.88671   6.95607   6.99947   7.07333   7.09347
 Alpha virt. eigenvalues --    7.09624   7.12650   7.16904   7.19523   7.21356
 Alpha virt. eigenvalues --    7.32344   7.39444   9.06222   9.42647   9.59181
 Alpha virt. eigenvalues --   19.85446  22.36189  22.47357  22.49805  22.60829
 Alpha virt. eigenvalues --   22.65070  22.72644  22.75147  22.77245  22.82363
 Alpha virt. eigenvalues --   22.86450  22.95246  22.97474  23.07558  23.18133
 Alpha virt. eigenvalues --   23.29175  23.52605  32.19424  33.17463  44.14559
 Alpha virt. eigenvalues --   44.22680  44.26061  44.34812  44.51643
          Condensed to atoms (all electrons):
               1          2          3          4          5          6
     1  C    5.148261   0.428862   0.412711   0.007935  -0.006778  -0.000254
     2  H    0.428862   0.496394  -0.013922  -0.002338   0.000462  -0.000005
     3  H    0.412711  -0.013922   0.506366  -0.000719   0.000220  -0.000009
     4  C    0.007935  -0.002338  -0.000719   5.599341   0.541990   0.226694
     5  H   -0.006778   0.000462   0.000220   0.541990   0.526123  -0.035126
     6  O   -0.000254  -0.000005  -0.000009   0.226694  -0.035126   8.166802
     7  H    0.000004  -0.000003  -0.000003  -0.055633  -0.006995   0.310201
     8  C   -0.007062   0.011045  -0.000896  -0.049567  -0.105945  -0.061026
     9  H    0.006813  -0.000300  -0.002012  -0.074274   0.002155   0.001286
    10  O    0.005249  -0.000190  -0.000016   0.050653   0.005623  -0.022222
    11  H   -0.001088   0.000042   0.000011   0.003749   0.001901   0.018947
    12  C    0.005656   0.001938   0.000079  -0.243009  -0.129070  -0.025109
    13  H   -0.001027   0.000006   0.000049  -0.023711   0.006741  -0.004381
    14  C    0.191350  -0.055006  -0.039024   0.076457   0.017465   0.009841
    15  H   -0.062656  -0.006905  -0.002399   0.002672  -0.000608   0.000017
    16  O   -0.049398   0.001469   0.005473  -0.064582   0.006348   0.005799
    17  N    0.002581  -0.000125  -0.000083   0.040825  -0.003829  -0.000941
    18  C   -0.004469   0.000431   0.000084   0.010174   0.006150   0.001213
    19  H    0.001053  -0.001008   0.000112  -0.009655  -0.001874   0.000185
    20  C    0.000083  -0.000120   0.000003   0.006430   0.005656  -0.000293
    21  H    0.000002   0.000003  -0.000000  -0.000051   0.000051  -0.000002
[...]
 Dipole        =-4.63163514D-01-2.44512748D+00-9.04307172D-01
 ***** Axes restored to original set *****
 -------------------------------------------------------------------
 Center     Atomic                   Forces (Hartrees/Bohr)
 Number     Number              X              Y              Z
 -------------------------------------------------------------------
      1        6          -0.000037013    0.000001126    0.000000763
      2        1          -0.000008059    0.000014689   -0.000005196
      3        1          -0.000002339   -0.000006483   -0.000009173
      4        6          -0.000422688    0.000236022    0.000103202
      5        1          -0.000061813    0.000013396   -0.000002185
      6        8          -0.001046770    0.000393093   -0.000385302
      7        1          -0.000081237    0.000037119   -0.000063074
      8        6          -0.000373438    0.000089768    0.000106863
      9        1          -0.000042219    0.000010986    0.000019345
     10        8          -0.000358121    0.000106832   -0.000054852
     11        1          -0.000030889    0.000009870    0.000008448
     12        6           0.000223879    0.000092321    0.000106313
     13        1           0.000019349    0.000021372   -0.000029832
     14        6          -0.000214148    0.000009222    0.000153115
     15        1          -0.000018706    0.000009962    0.000011639
     16        8          -0.000236797   -0.000020699    0.000008321
     17        7           0.000253812   -0.000082008   -0.000451371
     18        6           0.000647967   -0.000093591    0.000455435
     19        1          -0.000110415   -0.000031800    0.000308695
     20        6           0.001896579    0.000243605   -0.002130631
     21        1           0.000060723    0.000034670   -0.000041654
     22        6           0.005632687    0.000568448   -0.006283834
     23        1           0.000242367    0.000058468   -0.000268160
     24        1          -0.000304400   -0.000671866    0.000387477
     25        6           0.000549701   -0.000157284   -0.000514787
     26        6          -0.000321800   -0.000215114    0.001694111
     27        1          -0.000163381   -0.000036019    0.000409390
     28        6          -0.000525988   -0.000146555    0.000243017
     29        8           0.000409083   -0.001085672   -0.000114607
     30        7          -0.000688866   -0.000127670    0.000230019
     31        1           0.000028584    0.000030307    0.000021101
     32        1          -0.000086595    0.000127787    0.000351098
     33        1          -0.000038024   -0.000020258    0.000016452
     34        6           0.000092423    0.000055390    0.000371793
     35        6          -0.000396667   -0.000076447   -0.000191895
     36        6           0.000067240   -0.000558145   -0.000033680
     37        6          -0.003180805    0.001501020    0.003026616
     38        6          -0.002454619   -0.002323282    0.002002799
     39        8           0.001527617    0.000216050   -0.001382243
     40       16           0.001065708    0.001253038    0.000239624
     41        1           0.000011801   -0.000014260    0.000030456
     42        1           0.000016833   -0.000001004    0.000045304
     43        1          -0.000215405    0.000645097    0.000273496
     44        1          -0.000051610   -0.000014004   -0.000066441
     45        1          -0.000540647   -0.000014125    0.000586842
     46        1          -0.000652498    0.000007039    0.000671528
     47        1          -0.000081624   -0.000082657    0.000154016
     48        1           0.000001230   -0.000007756   -0.000008361
 -------------------------------------------------------------------
 Cartesian Forces:  Max     0.006283834 RMS     0.000974523
 Leave Link  716 at Sat Aug 13 20:46:12 2022, MaxMem=  2684354560 cpu:               0.4 elap:               0.0
 (Enter /storage/apps/GAUSSIAN/G16_RevA03/g16/l103.exe)

 GradGradGradGradGradGradGradGradGradGradGradGradGradGradGradGradGradGrad
 Berny optimization.
 Search for a local minimum.
 Step number   1 out of a maximum of    2
 All quantities printed in internal units (Hartrees-Bohrs-Radians)
 Second derivative matrix not updated -- first step.
 ITU=  0
     Eigenvalues ---    0.00026   0.00093   0.00110   0.00128   0.00189
     Eigenvalues ---    0.00224   0.00342   0.00389   0.00454   0.00509
     Eigenvalues ---    0.00601   0.00642   0.00807   0.00927   0.00964
     Eigenvalues ---    0.00988   0.01115   0.01177   0.01384   0.01512
     Eigenvalues ---    0.01719   0.02140   0.02372   0.02448   0.02666
     Eigenvalues ---    0.03074   0.03128   0.03317   0.03750   0.04299
     Eigenvalues ---    0.04405   0.04606   0.04839   0.05016   0.05264
     Eigenvalues ---    0.05339   0.05609   0.05744   0.05829   0.05982
     Eigenvalues ---    0.06169   0.06302   0.06480   0.06931   0.07006
     Eigenvalues ---    0.07048   0.07154   0.07634   0.08027   0.08316
     Eigenvalues ---    0.08557   0.08740   0.09338   0.09501   0.10104
     Eigenvalues ---    0.10809   0.10906   0.11186   0.12296   0.12576
     Eigenvalues ---    0.12808   0.13095   0.13222   0.13318   0.13779
     Eigenvalues ---    0.13835   0.14044   0.15407   0.16029   0.16554
     Eigenvalues ---    0.17270   0.18152   0.18706   0.19318   0.19810
     Eigenvalues ---    0.20300   0.20786   0.21348   0.21937   0.22476
     Eigenvalues ---    0.25091   0.26416   0.27480   0.27839   0.30579
     Eigenvalues ---    0.32868   0.33306   0.33682   0.34869   0.37671
     Eigenvalues ---    0.37885   0.37885   0.37885   0.37885   0.40513
     Eigenvalues ---    0.43536   0.48042   0.48500   0.57077   0.59784
     Eigenvalues ---    0.60167   0.61813   0.69611   0.72392   0.73393
     Eigenvalues ---    0.79318   0.79342   0.82839   0.87509   0.90922
     Eigenvalues ---    0.91314   0.92469   0.93363   0.93671   0.95577
     Eigenvalues ---    0.96103   0.99969   1.01691   1.02383   1.04078
     Eigenvalues ---    1.05772   1.08480   1.11566   1.12448   1.14046
     Eigenvalues ---    1.20579   1.21289   1.27091   1.27329   1.31619
     Eigenvalues ---    1.32044   1.36743   1.44150   1.53657   1.72808
     Eigenvalues ---    1.81424   1.92093   2.34396
 Quadratic step=8.501D+00 exceeds max=3.000D-01 adjusted using Lamda=-1.308D-02.
 Angle between NR and scaled steps=  49.41 degrees.
 Angle between quadratic step and forces=  54.33 degrees.
 Linear search not attempted -- first point.
 Variable       Old X    -DE/DX   Delta X   Delta X   Delta X     New X
                                 (Linear)    (Quad)   (Total)
    X1        6.80221  -0.00004   0.00000  -0.02056  -0.02056   6.78164
    Y1       -6.83251   0.00000   0.00000  -0.01047  -0.01047  -6.84298
    Z1       -0.84042   0.00000   0.00000   0.00615   0.00615  -0.83427
    X2        7.08578  -0.00001   0.00000  -0.02445  -0.02445   7.06132
    Y2       -7.01484   0.00001   0.00000  -0.01308  -0.01308  -7.02793
    Z2       -2.87107  -0.00001   0.00000   0.00546   0.00546  -2.86562
    X3        8.19155  -0.00000   0.00000  -0.01514  -0.01514   8.17642
    Y3       -8.00708  -0.00001   0.00000  -0.00753  -0.00753  -8.01460
    Z3        0.12650  -0.00001   0.00000   0.00247   0.00247   0.12897
    X4        3.52504  -0.00042   0.00000  -0.00703  -0.00703   3.51802
    Y4       -2.72137   0.00024   0.00000   0.01075   0.01075  -2.71062
    Z4        2.34398   0.00010   0.00000   0.01184   0.01184   2.35583
    X5        2.29988  -0.00006   0.00000  -0.00899  -0.00899   2.29089
    Y5       -4.37128   0.00001   0.00000   0.01171   0.01171  -4.35957
    Z5        2.05738  -0.00000   0.00000   0.01741   0.01741   2.07479
    X6        2.78176  -0.00105   0.00000  -0.00402  -0.00402   2.77774
    Y6       -1.28974   0.00039   0.00000   0.02340   0.02340  -1.26635
    Z6        4.39916  -0.00039   0.00000   0.00449   0.00449   4.40365
    X7        1.00829  -0.00008   0.00000  -0.00124  -0.00124   1.00705
    Y7       -0.71711   0.00004   0.00000   0.02716   0.02716  -0.68995
    Z7        4.11216  -0.00006   0.00000  -0.00080  -0.00080   4.11136
    X8        6.27422  -0.00037   0.00000  -0.00677  -0.00677   6.26745
    Y8       -3.56201   0.00009   0.00000   0.00521   0.00521  -3.55680
    Z8        2.65717   0.00011   0.00000   0.00168   0.00168   2.65885
    X9        6.43424  -0.00004   0.00000   0.00017   0.00017   6.43441
    Y9       -5.23733   0.00001   0.00000   0.01006   0.01006  -5.22727
    Z9        3.85883   0.00002   0.00000   0.00736   0.00736   3.86619
   X10        7.71367  -0.00036   0.00000   0.00308   0.00308   7.71675
   Y10       -1.54581   0.00011   0.00000   0.00793   0.00793  -1.53788
   Z10        3.61672  -0.00005   0.00000  -0.01975  -0.01975   3.59697
   X11        6.68198  -0.00003   0.00000   0.01625   0.01625   6.69823
   Y11       -0.72106   0.00001   0.00000   0.01487   0.01487  -0.70619
   Z11        4.88116   0.00001   0.00000  -0.01400  -0.01400   4.86716
   X12        3.72760   0.00022   0.00000  -0.00772  -0.00772   3.71988
   Y12       -1.24755   0.00009   0.00000   0.00110   0.00110  -1.24645
   Z12       -0.15541   0.00011   0.00000   0.00896   0.00896  -0.14645
   X13        4.26800   0.00002   0.00000   0.00328   0.00328   4.27127
   Y13        0.70972   0.00002   0.00000   0.00063   0.00063   0.71035
   Z13        0.22371  -0.00003   0.00000  -0.00338  -0.00338   0.22033
   X14        7.09604  -0.00021   0.00000  -0.01884  -0.01884   7.07720
   Y14       -4.09819   0.00001   0.00000  -0.00860  -0.00860  -4.10679
   Z14       -0.04958   0.00015   0.00000  -0.00008  -0.00008  -0.04966
   X15        9.03830  -0.00002   0.00000  -0.01855  -0.01855   9.01974
   Y15       -3.46083   0.00001   0.00000  -0.01109  -0.01109  -3.47192
   Z15       -0.30899   0.00001   0.00000  -0.01141  -0.01141  -0.32040
   X16        5.50736  -0.00024   0.00000  -0.02373  -0.02373   5.48363
   Y16       -2.52528  -0.00002   0.00000  -0.01239  -0.01239  -2.53767
   Z16       -1.61926   0.00001   0.00000   0.00278   0.00278  -1.61649
   X17        1.35838   0.00025   0.00000  -0.00654  -0.00654   1.35184
   Y17       -1.13545  -0.00008   0.00000  -0.00181  -0.00181  -1.13726
   Z17       -1.62301  -0.00045   0.00000   0.01358   0.01358  -1.60944
   X18        0.36042   0.00065   0.00000   0.01078   0.01078   0.37121
   Y18       -3.33511  -0.00009   0.00000  -0.00382  -0.00382  -3.33893
   Z18       -2.51409   0.00046   0.00000   0.00129   0.00129  -2.51280
   X19        1.44980  -0.00011   0.00000   0.00022   0.00022   1.45002
   Y19       -5.01710  -0.00003   0.00000  -0.00400  -0.00400  -5.02110
   Z19       -2.14207   0.00031   0.00000   0.02994   0.02994  -2.11213
   X20       -1.82336   0.00190   0.00000   0.04665   0.04665  -1.77670
   Y20       -3.32321   0.00024   0.00000  -0.00286  -0.00286  -3.32607
   Z20       -3.86469  -0.00213   0.00000  -0.05508  -0.05508  -3.91976
   X21       -2.56835   0.00006   0.00000   0.04504   0.04504  -2.52331
   Y21       -5.08540   0.00003   0.00000  -0.00403  -0.00403  -5.08943
   Z21       -4.57587  -0.00004   0.00000  -0.04879  -0.04879  -4.62466
   X22       -3.07953   0.00563   0.00000   0.06760   0.06760  -3.01193
   Y22       -1.02994   0.00057   0.00000  -0.00099  -0.00099  -1.03093
   Z22       -4.32140  -0.00628   0.00000  -0.09526  -0.09526  -4.41667
   X23       -4.64826   0.00024   0.00000   0.07784   0.07784  -4.57042
   Y23       -0.98345   0.00006   0.00000   0.00282   0.00282  -0.98063
   Z23       -5.63195  -0.00027   0.00000  -0.10625  -0.10625  -5.73820
   X24       -5.36280  -0.00030   0.00000  -0.01561  -0.01561  -5.37841
   Y24       -1.19895  -0.00067   0.00000  -0.04909  -0.04909  -1.24804
   Z24       -1.93819   0.00039   0.00000   0.03885   0.03885  -1.89933
   X25       -1.94364   0.00055   0.00000   0.01295   0.01295  -1.93069
   Y25        1.22434  -0.00016   0.00000  -0.00467  -0.00467   1.21967
   Z25       -3.49931  -0.00051   0.00000  -0.01796  -0.01796  -3.51727
   X26        0.27351  -0.00032   0.00000  -0.01256  -0.01256   0.26096
   Y26        1.07923  -0.00022   0.00000  -0.00333  -0.00333   1.07590
   Z26       -2.14172   0.00169   0.00000   0.02360   0.02360  -2.11812
   X27        1.18024  -0.00016   0.00000  -0.02800  -0.02800   1.15224
   Y27        2.78108  -0.00004   0.00000  -0.00485  -0.00485   2.77623
   Z27       -1.45728   0.00041   0.00000   0.04914   0.04914  -1.40814
   X28       -2.89910  -0.00053   0.00000  -0.01642  -0.01642  -2.91552
   Y28        3.81637  -0.00015   0.00000  -0.00753  -0.00753   3.80884
   Z28       -4.09251   0.00024   0.00000   0.02343   0.02343  -4.06909
   X29       -1.57476   0.00041   0.00000  -0.01868  -0.01868  -1.59344
   Y29        5.66494  -0.00109   0.00000  -0.00768  -0.00768   5.65726
   Z29       -3.86163  -0.00011   0.00000   0.02844   0.02844  -3.83319
   X30       -5.29741  -0.00069   0.00000  -0.02567  -0.02567  -5.32308
   Y30        3.90968  -0.00013   0.00000  -0.00318  -0.00318   3.90650
   Z30       -5.05536   0.00023   0.00000   0.04522   0.04522  -5.01015
   X31       -6.01229   0.00003   0.00000  -0.01958  -0.01958  -6.03187
   Y31        5.66923   0.00003   0.00000  -0.00057  -0.00057   5.66867
   Z31       -5.21790   0.00002   0.00000   0.04568   0.04568  -5.17222
   X32       -6.53748  -0.00009   0.00000  -0.02366  -0.02366  -6.56114
   Y32        2.56422   0.00013   0.00000  -0.00135  -0.00135   2.56287
   Z32       -4.52437   0.00035   0.00000   0.05080   0.05080  -4.47356
   X33        4.92243  -0.00004   0.00000  -0.01816  -0.01816   4.90428
   Y33       -7.54599  -0.00002   0.00000  -0.01099  -0.01099  -7.55699
   Z33       -0.37090   0.00002   0.00000   0.01239   0.01239  -0.35850
   X34        0.38117   0.00009   0.00000  -0.00027  -0.00027   0.38091
   Y34        4.15742   0.00006   0.00000   0.00852   0.00852   4.16595
   Z34        5.37067   0.00037   0.00000   0.00860   0.00860   5.37927
   X35       -3.13445  -0.00040   0.00000   0.02286   0.02286  -3.11159
   Y35        1.69875  -0.00008   0.00000   0.00167   0.00167   1.70043
   Z35        2.34616  -0.00019   0.00000  -0.01715  -0.01715   2.32902
   X36       -5.30628   0.00007   0.00000   0.00654   0.00654  -5.29974
   Y36        1.63786  -0.00056   0.00000  -0.01758  -0.01758   1.62028
   Z36        0.88727  -0.00003   0.00000   0.00314   0.00314   0.89041
   X37       -9.12669  -0.00318   0.00000  -0.01889  -0.01889  -9.14558
   Y37       -0.77915   0.00150   0.00000   0.01288   0.01288  -0.76627
   Z37       -0.74531   0.00303   0.00000   0.00896   0.00896  -0.73635
   X38       -6.32519  -0.00245   0.00000  -0.02136  -0.02136  -6.34655
   Y38       -0.72656  -0.00232   0.00000  -0.02337  -0.02337  -0.74993
   Z38       -0.10859   0.00200   0.00000   0.03359   0.03359  -0.07500
   X39       -1.75971   0.00153   0.00000   0.05389   0.05389  -1.70581
   Y39       -0.15976   0.00022   0.00000   0.01575   0.01575  -0.14401
   Z39        2.91331  -0.00138   0.00000  -0.04455  -0.04455   2.86876
   X40       -2.30097   0.00107   0.00000   0.01596   0.01596  -2.28501
   Y40        4.82594   0.00125   0.00000   0.00904   0.00904   4.83497
   Z40        3.39682   0.00024   0.00000  -0.01271  -0.01271   3.38411
   X41        0.83912   0.00001   0.00000  -0.00913  -0.00913   0.82999
   Y41        5.91543  -0.00001   0.00000   0.00808   0.00808   5.92351
   Z41        6.33469   0.00003   0.00000   0.01263   0.01263   6.34732
   X42        2.00741   0.00002   0.00000   0.00788   0.00788   2.01529
   Y42        3.54643  -0.00000   0.00000   0.00909   0.00909   3.55551
   Z42        4.27298   0.00005   0.00000   0.02006   0.02006   4.29304
   X43      -10.29063  -0.00022   0.00000  -0.04185  -0.04185 -10.33247
   Y43       -0.87427   0.00065   0.00000   0.04932   0.04932  -0.82495
   Z43        0.95174   0.00027   0.00000  -0.00944  -0.00944   0.94230
   X44       -9.68866  -0.00005   0.00000   0.02708   0.02708  -9.66158
   Y44        0.92677  -0.00001   0.00000   0.00360   0.00360   0.93037
   Z44       -1.76831  -0.00007   0.00000  -0.03311  -0.03311  -1.80142
   X45       -9.58539  -0.00054   0.00000  -0.01600  -0.01600  -9.60139
   Y45       -2.40672  -0.00001   0.00000   0.00563   0.00563  -2.40109
   Z45       -1.92669   0.00059   0.00000   0.01498   0.01498  -1.91171
   X46       -5.76028  -0.00065   0.00000  -0.03815  -0.03815  -5.79842
   Y46       -2.32699   0.00001   0.00000  -0.01976  -0.01976  -2.34676
   Z46        1.07291   0.00067   0.00000   0.04400   0.04400   1.11690
   X47       -6.30908  -0.00008   0.00000   0.01440   0.01440  -6.29468
   Y47        3.39520  -0.00008   0.00000  -0.01661  -0.01661   3.37859
   Z47        0.56792   0.00015   0.00000  -0.01660  -0.01660   0.55132
   X48       -0.08613   0.00000   0.00000  -0.01262  -0.01262  -0.09875
   Y48        2.71794  -0.00001   0.00000   0.00617   0.00617   2.72411
   Z48        6.76237  -0.00001   0.00000   0.00171   0.00171   6.76408
         Item               Value     Threshold  Converged?
 Maximum Force            0.006284     0.000450     NO 
 RMS     Force            0.000975     0.000300     NO 
 Maximum Displacement     0.106251     0.001800     NO 
 RMS     Displacement     0.025081     0.001200     NO 
 Predicted change in Energy=-1.618721D-03
 GradGradGradGradGradGradGradGradGradGradGradGradGradGradGradGradGradGrad

 Leave Link  103 at Sat Aug 13 20:46:13 2022, MaxMem=  2684354560 cpu:               0.9 elap:               0.1
 (Enter /storage/apps/GAUSSIAN/G16_RevA03/g16/l9999.exe)

 Test job not archived.
 1\1\GINC-T042\Force\RM062X\def2TZVP\C16H24N2O5S1\LV87696\13-Aug-2022\0
 \\#P M062X/Def2TZVP scf=(direct,conver=8) EmpiricalDispersion=GD3 Forc
 e Charge Prop=(Field,Read)\\Gaussian run\\0,1\C,3.599573,-3.615611,-0.
 444733\H,3.749631,-3.712094,-1.519306\H,4.334784,-4.237163,0.066943\C,
 1.865373,-1.440086,1.240382\H,1.217046,-2.313184,1.08872\O,1.472043,-0
 .682503,2.327937\H,0.533566,-0.379478,2.17606\C,3.320176,-1.884935,1.4
 06113\H,3.404853,-2.771476,2.042003\O,4.0819,-0.818005,1.913887\H,3.53
 5951,-0.381566,2.582998\C,1.972562,-0.660173,-0.082242\H,2.258528,0.37
 5568,0.118383\C,3.755064,-2.168671,-0.026239\H,4.782861,-1.831391,-0.1
 63511\O,2.914372,-1.336322,-0.856877\N,0.718822,-0.600853,-0.858861\C,
 0.190727,-1.764866,-1.330401\H,0.767202,-2.654936,-1.133537\C,-0.96487
 9,-1.758567,-2.045104\H,-1.35911,-2.691078,-2.421448\C,-1.629615,-0.54
 502,-2.286788\H,-2.459751,-0.52042,-2.9803\H,-2.837872,-0.634455,-1.02
 5644\C,-1.028529,0.647894,-1.851757\C,0.144737,0.571103,-1.133348\H,0.
 624554,1.471683,-0.771157\C,-1.534136,2.019537,-2.165664\O,-0.833326,2
 .997757,-2.043489\N,-2.80327,2.068912,-2.675183\H,-3.181566,3.000028,-
 2.761193\H,-3.459484,1.356927,-2.394192\H,2.604839,-3.993167,-0.19627\
 C,0.201709,2.200014,2.842036\C,-1.65868,0.898941,1.241535\C,-2.807961,
 0.86672,0.469523\C,-4.829638,-0.412309,-0.394403\C,-3.347146,-0.384481
 ,-0.057464\O,-0.931197,-0.084541,1.541655\S,-1.217621,2.553775,1.79752
 \H,0.444043,3.130311,3.352172\H,1.062276,1.876689,2.261161\H,-5.445565
 ,-0.462644,0.503638\H,-5.12702,0.490425,-0.935747\H,-5.072371,-1.27358
 2,-1.019558\H,-3.048208,-1.231392,0.567757\H,-3.33862,1.796663,0.30053
 2\H,-0.045579,1.43827,3.578493\\Version=ES64L-G16RevA.03\State=1-A\HF=
 -1507.8983129\RMSD=9.281e-09\RMSF=9.745e-04\Dipole=-0.259664,-2.167586
 ,-1.498361\Quadrupole=2.6913913,0.8950445,-3.5864358,-3.7124257,9.4954
 721,4.9181325\PG=C01 [X(C16H24N2O5S1)]\\@


 THERE IS NO SUBJECT, HOWEVER COMPLEX,
 WHICH, IF STUDIED WITH PATIENCE AND INTELLIGIENCE
 WILL NOT BECOME
 MORE COMPLEX
                        QUOTED BY D. GORDON ROHMAN
 Job cpu time:       0 days  3 hours 11 minutes  1.1 seconds.
 Elapsed time:       0 days  0 hours 11 minutes 57.6 seconds.
 File lengths (MBytes):  RWF=    435 Int=      0 D2E=      0 Chk=     48 Scr=      1
 Normal termination of Gaussian 16 at Sat Aug 13 20:46:13 2022.
