 Entering Gaussian System, Link 0=g16
 Initial command:
 /storage/apps/GAUSSIAN/G16_RevA03/g16/l1.exe "/scratch/tmp/1019302/Gau-180214.inp" -scrdir="/scratch/tmp/1019302/"
 Entering Link 1 = /storage/apps/GAUSSIAN/G16_RevA03/g16/l1.exe PID=    180216.
  
 Copyright (c) 1988,1990,1992,1993,1995,1998,2003,2009,2016,
            Gaussian, Inc.  All Rights Reserved.
  
 This is part of the Gaussian(R) 16 program.  It is based on
 the Gaussian(R) 09 system (copyright 2009, Gaussian, Inc.),
 the Gaussian(R) 03 system (copyright 2003, Gaussian, Inc.),
 the Gaussian(R) 98 system (copyright 1998, Gaussian, Inc.),
 the Gaussian(R) 94 system (copyright 1995, Gaussian, Inc.),
 the Gaussian 92(TM) system (copyright 1992, Gaussian, Inc.),
 the Gaussian 90(TM) system (copyright 1990, Gaussian, Inc.),
 the Gaussian 88(TM) system (copyright 1988, Gaussian, Inc.),
 the Gaussian 86(TM) system (copyright 1986, Carnegie Mellon
 University), and the Gaussian 82(TM) system (copyright 1983,
 Carnegie Mellon University). Gaussian is a federally registered
 trademark of Gaussian, Inc.
  
 This software contains proprietary and confidential information,
 including trade secrets, belonging to Gaussian, Inc.
  
 This software is provided under written license and may be
 used, copied, transmitted, or stored only in accord with that
 written license.
  
 The following legend is applicable only to US Government
 contracts under FAR:
  
                    RESTRICTED RIGHTS LEGEND
  
 Use, reproduction and disclosure by the US Government is
 subject to restrictions as set forth in subparagraphs (a)
 and (c) of the Commercial Computer Software - Restricted
 Rights clause in FAR 52.227-19.
  
 Gaussian, Inc.
 340 Quinnipiac St., Bldg. 40, Wallingford CT 06492
  
  
 ---------------------------------------------------------------
 Warning -- This program may not be used in any manner that
 competes with the business of Gaussian, Inc. or will provide
 assistance to any competitor of Gaussian, Inc.  The licensee
 of this program is prohibited from giving any competitor of
 Gaussian, Inc. access to this program.  By using this program,
 the user acknowledges that Gaussian, Inc. is engaged in the
 business of creating and licensing software in the field of
 computational chemistry and represents and warrants to the
 licensee that it is not a competitor of Gaussian, Inc. and that
 it will not use this program in any manner prohibited above.
 ---------------------------------------------------------------
  

 Cite this work as:
 Gaussian 16, Revision A.03,
 M. J. Frisch, G. W. Trucks, H. B. Schlegel, G. E. Scuseria, 
 M. A. Robb, J. R. Cheeseman, G. Scalmani, V. Barone, 
 G. A. Petersson, H. Nakatsuji, X. Li, M. Caricato, A. V. Marenich, 
 J. Bloino, B. G. Janesko, R. Gomperts, B. Mennucci, H. P. Hratchian, 
 J. V. Ortiz, A. F. Izmaylov, J. L. Sonnenberg, D. Williams-Young, 
 F. Ding, F. Lipparini, F. Egidi, J. Goings, B. Peng, A. Petrone, 
 T. Henderson, D. Ranasinghe, V. G. Zakrzewski, J. Gao, N. Rega, 
 G. Zheng, W. Liang, M. Hada, M. Ehara, K. Toyota, R. Fukuda, 
 J. Hasegawa, M. Ishida, T. Nakajima, Y. Honda, O. Kitao, H. Nakai, 
 T. Vreven, K. Throssell, J. A. Montgomery, Jr., J. E. Peralta, 
 F. Ogliaro, M. J. Bearpark, J. J. Heyd, E. N. Brothers, K. N. Kudin, 
 V. N. Staroverov, T. A. Keith, R. Kobayashi, J. Normand, 
 K. Raghavachari, A. P. Rendell, J. C. Burant, S. S. Iyengar, 
 J. Tomasi, M. Cossi, J. M. Millam, M. Klene, C. Adamo, R. Cammi, 
 J. W. Ochterski, R. L. Martin, K. Morokuma, O. Farkas, 
 J. B. Foresman, and D. J. Fox, Gaussian, Inc., Wallingford CT, 2016.
 
 ******************************************
 Gaussian 16:  ES64L-G16RevA.03 25-Dec-2016
                13-Aug-2022 
 ******************************************
 %NProcShared=16
 Will use up to   16 processors via shared memory.
 %mem=20GB
 ----------------------------------------------------------------------
 #P M062X/Def2TZVP scf=(direct,conver=8) EmpiricalDispersion=GD3 Force 
 Charge Prop=(Field,Read)
 ----------------------------------------------------------------------
 1/10=7,18=10,28=-2,30=1,38=1,125=101/1,3;
 2/12=2,17=6,18=5,29=2,40=1/2;
 3/5=44,7=101,11=2,25=1,30=1,71=1,74=-55,124=31/1,2,3;
 4//1;
 5/5=2,6=8,38=5/2;
 6/7=2,8=2,9=2,10=2,14=2,15=1,28=1/1,2;
 7/7=1,16=-2,29=1/1,2,3,16;
 1/10=7,18=10,28=-2,30=1/3;
 99/12=1/99;
 Leave Link    1 at Sat Aug 13 20:34:15 2022, MaxMem=  2684354560 cpu:               0.7 elap:               0.1
 (Enter /storage/apps/GAUSSIAN/G16_RevA03/g16/l101.exe)
 ------------
 Gaussian run
 ------------
 Symbolic Z-matrix:
 Charge =  0 Multiplicity = 1
 C                     3.59922  -3.61567  -0.44452 
 H                     3.74945  -3.71141  -1.51913 
 H                     4.33497  -4.23687   0.06677 
 C                     1.86304  -1.43879   1.24123 
 H                     1.21497  -2.31199   1.08835 
 O                     1.46752  -0.68056   2.32633 
 H                     0.52825  -0.37496   2.17007 
 C                     3.31797  -1.88447   1.40699 
 H                     3.40195  -2.7707    2.04339 
 O                     4.08005  -0.81755   1.91391 
 H                     3.53378  -0.37995   2.58216 
 C                     1.97377  -0.65964  -0.08115 
 H                     2.25934   0.37621   0.11866 
 C                     3.75384  -2.16904  -0.02509 
 H                     4.78146  -1.83114  -0.16179 
 O                     2.91335  -1.33645  -0.85641 
 N                     0.71972  -0.60107  -0.85994 
 C                     0.19544  -1.76489  -1.32912 
 H                     0.76449  -2.65613  -1.11747 
 C                    -0.95226  -1.75653  -2.06028 
 H                    -1.34877  -2.68902  -2.43412 
 C                    -1.5989   -0.5421   -2.32155 
 H                    -2.4388   -0.51647  -3.00194 
 H                    -2.8623   -0.67838  -0.99234 
 C                    -1.02499   0.64632  -1.85582 
 C                     0.1427    0.56995  -1.12366 
 H                     0.61237   1.46857  -0.74394 
 C                    -1.53636   2.01847  -2.16456 
 O                    -0.83191   2.99355  -2.04408 
 N                    -2.80627   2.0677   -2.67258 
 H                    -3.18154   3.00034  -2.75789 
 H                    -3.46293   1.36343  -2.3724 
 H                     2.60491  -3.99442  -0.19612 
 C                     0.20228   2.20019   2.84431 
 C                    -1.66084   0.89836   1.23876 
 C                    -2.80784   0.86254   0.46974 
 C                    -4.84876  -0.40149  -0.37413 
 C                    -3.36202  -0.39862  -0.04538 
 O                    -0.92453  -0.08343   1.53473 
 S                    -1.21546   2.55601   1.79739 
 H                     0.44375   3.13007   3.35575 
 H                     1.06444   1.87716   2.2656 
 H                    -5.46174  -0.40701   0.52746 
 H                    -5.12875   0.48996  -0.94335 
 H                    -5.11568  -1.27592  -0.97023 
 H                    -3.09202  -1.23044   0.61232 
 H                    -3.34606   1.78971   0.30907 
 H                    -0.04639   1.43804   3.5799 
 
 ITRead=  0  0  0  0  0  0  0  0  0  0  0  0  0  0  0  0  0  0  0  0
 ITRead=  0  0  0  0  0  0  0  0  0  0  0  0  0  0  0  0  0  0  0  0
 ITRead=  0  0  0  0  0  0  0  0
 MicOpt= -1 -1 -1 -1 -1 -1 -1 -1 -1 -1 -1 -1 -1 -1 -1 -1 -1 -1 -1 -1
 MicOpt= -1 -1 -1 -1 -1 -1 -1 -1 -1 -1 -1 -1 -1 -1 -1 -1 -1 -1 -1 -1
 MicOpt= -1 -1 -1 -1 -1 -1 -1 -1
 NAtoms=     48 NQM=       48 NQMF=       0 NMMI=      0 NMMIF=      0
                NMic=       0 NMicF=      0.
                    Isotopes and Nuclear Properties:
 (Nuclear quadrupole moments (NQMom) in fm**2, nuclear magnetic moments (NMagM)
  in nuclear magnetons)

  Atom         1           2           3           4           5           6           7           8           9          10
 IAtWgt=          12           1           1          12           1          16           1          12           1          16
 AtmWgt=  12.0000000   1.0078250   1.0078250  12.0000000   1.0078250  15.9949146   1.0078250  12.0000000   1.0078250  15.9949146
 NucSpn=           0           1           1           0           1           0           1           0           1           0
 AtZEff=  -0.0000000  -0.0000000  -0.0000000  -0.0000000  -0.0000000  -0.0000000  -0.0000000  -0.0000000  -0.0000000  -0.0000000
 NQMom=    0.0000000   0.0000000   0.0000000   0.0000000   0.0000000   0.0000000   0.0000000   0.0000000   0.0000000   0.0000000
 NMagM=    0.0000000   2.7928460   2.7928460   0.0000000   2.7928460   0.0000000   2.7928460   0.0000000   2.7928460   0.0000000
 AtZNuc=   6.0000000   1.0000000   1.0000000   6.0000000   1.0000000   8.0000000   1.0000000   6.0000000   1.0000000   8.0000000

  Atom        11          12          13          14          15          16          17          18          19          20
 IAtWgt=           1          12           1          12           1          16          14          12           1          12
 AtmWgt=   1.0078250  12.0000000   1.0078250  12.0000000   1.0078250  15.9949146  14.0030740  12.0000000   1.0078250  12.0000000
 NucSpn=           1           0           1           0           1           0           2           0           1           0
 AtZEff=  -0.0000000  -0.0000000  -0.0000000  -0.0000000  -0.0000000  -0.0000000  -0.0000000  -0.0000000  -0.0000000  -0.0000000
 NQMom=    0.0000000   0.0000000   0.0000000   0.0000000   0.0000000   0.0000000   2.0440000   0.0000000   0.0000000   0.0000000
 NMagM=    2.7928460   0.0000000   2.7928460   0.0000000   2.7928460   0.0000000   0.4037610   0.0000000   2.7928460   0.0000000
 AtZNuc=   1.0000000   6.0000000   1.0000000   6.0000000   1.0000000   8.0000000   7.0000000   6.0000000   1.0000000   6.0000000

  Atom        21          22          23          24          25          26          27          28          29          30
 IAtWgt=           1          12           1           1          12          12           1          12          16          14
 AtmWgt=   1.0078250  12.0000000   1.0078250   1.0078250  12.0000000  12.0000000   1.0078250  12.0000000  15.9949146  14.0030740
 NucSpn=           1           0           1           1           0           0           1           0           0           2
 AtZEff=  -0.0000000  -0.0000000  -0.0000000  -0.0000000  -0.0000000  -0.0000000  -0.0000000  -0.0000000  -0.0000000  -0.0000000
 NQMom=    0.0000000   0.0000000   0.0000000   0.0000000   0.0000000   0.0000000   0.0000000   0.0000000   0.0000000   2.0440000
 NMagM=    2.7928460   0.0000000   2.7928460   2.7928460   0.0000000   0.0000000   2.7928460   0.0000000   0.0000000   0.4037610
 AtZNuc=   1.0000000   6.0000000   1.0000000   1.0000000   6.0000000   6.0000000   1.0000000   6.0000000   8.0000000   7.0000000

  Atom        31          32          33          34          35          36          37          38          39          40
 IAtWgt=           1           1           1          12          12          12          12          12          16          32
 AtmWgt=   1.0078250   1.0078250   1.0078250  12.0000000  12.0000000  12.0000000  12.0000000  12.0000000  15.9949146  31.9720718
 NucSpn=           1           1           1           0           0           0           0           0           0           0
 AtZEff=  -0.0000000  -0.0000000  -0.0000000  -0.0000000  -0.0000000  -0.0000000  -0.0000000  -0.0000000  -0.0000000  -0.0000000
 NQMom=    0.0000000   0.0000000   0.0000000   0.0000000   0.0000000   0.0000000   0.0000000   0.0000000   0.0000000   0.0000000
 NMagM=    2.7928460   2.7928460   2.7928460   0.0000000   0.0000000   0.0000000   0.0000000   0.0000000   0.0000000   0.0000000
 AtZNuc=   1.0000000   1.0000000   1.0000000   6.0000000   6.0000000   6.0000000   6.0000000   6.0000000   8.0000000  16.0000000

  Atom        41          42          43          44          45          46          47          48
 IAtWgt=           1           1           1           1           1           1           1           1
 AtmWgt=   1.0078250   1.0078250   1.0078250   1.0078250   1.0078250   1.0078250   1.0078250   1.0078250
 NucSpn=           1           1           1           1           1           1           1           1
 AtZEff=  -0.0000000  -0.0000000  -0.0000000  -0.0000000  -0.0000000  -0.0000000  -0.0000000  -0.0000000
 NQMom=    0.0000000   0.0000000   0.0000000   0.0000000   0.0000000   0.0000000   0.0000000   0.0000000
 NMagM=    2.7928460   2.7928460   2.7928460   2.7928460   2.7928460   2.7928460   2.7928460   2.7928460
 AtZNuc=   1.0000000   1.0000000   1.0000000   1.0000000   1.0000000   1.0000000   1.0000000   1.0000000
 Background charge distribution read from input stream:
 Leave Link  101 at Sat Aug 13 20:34:15 2022, MaxMem=  2684354560 cpu:               2.2 elap:               0.2
 (Enter /storage/apps/GAUSSIAN/G16_RevA03/g16/l103.exe)

 GradGradGradGradGradGradGradGradGradGradGradGradGradGradGradGradGradGrad
 Berny optimization.
 Initialization pass.
 Trust Radius=3.00D-01 FncErr=1.00D-07 GrdErr=1.00D-07 EigMax=2.50D+02 EigMin=1.00D-04
 Number of steps in this run=      2 maximum allowed number of steps=      2.
 GradGradGradGradGradGradGradGradGradGradGradGradGradGradGradGradGradGrad

 Leave Link  103 at Sat Aug 13 20:34:16 2022, MaxMem=  2684354560 cpu:               0.4 elap:               0.1
 (Enter /storage/apps/GAUSSIAN/G16_RevA03/g16/l202.exe)
 ---------------------------------------------------------------------------------------------------
                            Z-MATRIX (ANGSTROMS AND DEGREES)
   CD    Cent   Atom    N1       Length/X        N2       Alpha/Y        N3        Beta/Z          J
 ---------------------------------------------------------------------------------------------------
      1      1  C        0   3.599219         -3.615673         -0.444516
      2      2  H        0   3.749451         -3.711408         -1.519132
      3      3  H        0   4.334972         -4.236874          0.066769
      4      4  C        0   1.863036         -1.438786          1.241225
      5      5  H        0   1.214970         -2.311988          1.088352
      6      6  O        0   1.467520         -0.680561          2.326332
      7      7  H        0   0.528252         -0.374960          2.170070
      8      8  C        0   3.317973         -1.884468          1.406989
      9      9  H        0   3.401950         -2.770698          2.043388
     10     10  O        0   4.080046         -0.817547          1.913908
     11     11  H        0   3.533780         -0.379948          2.582156
     12     12  C        0   1.973768         -0.659642         -0.081147
     13     13  H        0   2.259343          0.376214          0.118658
     14     14  C        0   3.753837         -2.169035         -0.025088
     15     15  H        0   4.781461         -1.831137         -0.161790
     16     16  O        0   2.913351         -1.336447         -0.856414
     17     17  N        0   0.719717         -0.601068         -0.859943
     18     18  C        0   0.195440         -1.764892         -1.329118
     19     19  H        0   0.764485         -2.656131         -1.117465
     20     20  C        0  -0.952256         -1.756534         -2.060280
     21     21  H        0  -1.348774         -2.689023         -2.434120
     22     22  C        0  -1.598900         -0.542095         -2.321553
     23     23  H        0  -2.438795         -0.516465         -3.001936
     24     24  H        0  -2.862303         -0.678375         -0.992344
     25     25  C        0  -1.024992          0.646324         -1.855824
     26     26  C        0   0.142702          0.569951         -1.123661
     27     27  H        0   0.612373          1.468572         -0.743938
     28     28  C        0  -1.536357          2.018471         -2.164562
     29     29  O        0  -0.831908          2.993549         -2.044079
     30     30  N        0  -2.806269          2.067695         -2.672584
     31     31  H        0  -3.181535          3.000335         -2.757890
     32     32  H        0  -3.462925          1.363425         -2.372399
     33     33  H        0   2.604914         -3.994418         -0.196119
     34     34  C        0   0.202283          2.200190          2.844305
     35     35  C        0  -1.660843          0.898363          1.238756
     36     36  C        0  -2.807835          0.862535          0.469737
     37     37  C        0  -4.848761         -0.401491         -0.374134
     38     38  C        0  -3.362019         -0.398621         -0.045379
     39     39  O        0  -0.924525         -0.083428          1.534734
     40     40  S        0  -1.215456          2.556013          1.797389
     41     41  H        0   0.443748          3.130069          3.355751
     42     42  H        0   1.064440          1.877160          2.265595
     43     43  H        0  -5.461743         -0.407011          0.527456
     44     44  H        0  -5.128746          0.489956         -0.943351
     45     45  H        0  -5.115678         -1.275915         -0.970225
     46     46  H        0  -3.092020         -1.230437          0.612317
     47     47  H        0  -3.346062          1.789714          0.309072
     48     48  H        0  -0.046388          1.438041          3.579897
 ---------------------------------------------------------------------------------------------------
                         Z-Matrix orientation:                         
 ---------------------------------------------------------------------
 Center     Atomic      Atomic             Coordinates (Angstroms)
 Number     Number       Type             X           Y           Z
 ---------------------------------------------------------------------
      1          6           0        3.599219   -3.615673   -0.444516
      2          1           0        3.749451   -3.711408   -1.519132
      3          1           0        4.334972   -4.236874    0.066769
      4          6           0        1.863036   -1.438786    1.241225
      5          1           0        1.214970   -2.311988    1.088352
      6          8           0        1.467520   -0.680561    2.326332
      7          1           0        0.528252   -0.374960    2.170070
      8          6           0        3.317973   -1.884468    1.406989
      9          1           0        3.401950   -2.770698    2.043388
     10          8           0        4.080046   -0.817547    1.913908
     11          1           0        3.533780   -0.379948    2.582156
     12          6           0        1.973768   -0.659642   -0.081147
     13          1           0        2.259343    0.376214    0.118658
     14          6           0        3.753837   -2.169035   -0.025088
     15          1           0        4.781461   -1.831137   -0.161790
     16          8           0        2.913351   -1.336447   -0.856414
     17          7           0        0.719717   -0.601068   -0.859943
     18          6           0        0.195440   -1.764892   -1.329118
     19          1           0        0.764485   -2.656131   -1.117465
     20          6           0       -0.952256   -1.756534   -2.060280
     21          1           0       -1.348774   -2.689023   -2.434120
     22          6           0       -1.598900   -0.542095   -2.321553
     23          1           0       -2.438795   -0.516465   -3.001936
     24          1           0       -2.862303   -0.678375   -0.992344
     25          6           0       -1.024992    0.646324   -1.855824
     26          6           0        0.142702    0.569951   -1.123661
     27          1           0        0.612373    1.468572   -0.743938
     28          6           0       -1.536357    2.018471   -2.164562
     29          8           0       -0.831908    2.993549   -2.044079
     30          7           0       -2.806269    2.067695   -2.672584
     31          1           0       -3.181535    3.000335   -2.757890
     32          1           0       -3.462925    1.363425   -2.372399
     33          1           0        2.604914   -3.994418   -0.196119
     34          6           0        0.202283    2.200190    2.844305
     35          6           0       -1.660843    0.898363    1.238756
     36          6           0       -2.807835    0.862535    0.469737
     37          6           0       -4.848761   -0.401491   -0.374134
     38          6           0       -3.362019   -0.398621   -0.045379
     39          8           0       -0.924525   -0.083428    1.534734
     40         16           0       -1.215456    2.556013    1.797389
     41          1           0        0.443748    3.130069    3.355751
     42          1           0        1.064440    1.877160    2.265595
     43          1           0       -5.461743   -0.407011    0.527456
     44          1           0       -5.128746    0.489956   -0.943351
     45          1           0       -5.115678   -1.275915   -0.970225
     46          1           0       -3.092020   -1.230437    0.612317
     47          1           0       -3.346062    1.789714    0.309072
     48          1           0       -0.046388    1.438041    3.579897
 ---------------------------------------------------------------------
                    Distance matrix (angstroms):
                    1          2          3          4          5
     1  C    0.000000
     2  H    1.089282   0.000000
     3  H    1.090246   1.770320   0.000000
     4  C    3.254979   4.042641   3.913964   0.000000
     5  H    3.119923   3.896273   3.805684   1.098108   0.000000
     6  O    4.564715   5.401929   5.096594   1.381592   2.063475
     7  H    5.173888   5.926063   5.816302   1.943226   2.322450
     8  C    2.550341   3.476502   2.892108   1.530670   2.169545
     9  H    2.634875   3.700978   2.631962   2.187627   2.430101
    10  O    3.690917   4.502165   3.894702   2.398661   3.335200
    11  H    4.431133   5.288261   4.673859   2.389690   3.367656
    12  C    3.392970   3.812365   4.288794   1.538829   2.161886
    13  H    4.248246   4.648810   5.058805   2.170585   3.042606
    14  C    1.514129   2.147347   2.149910   2.389967   2.775974
    15  H    2.159213   2.538275   2.457471   3.261839   3.809715
    16  O    2.415563   2.603593   3.359427   2.348132   2.760126
    17  N    4.189505   4.391814   5.210369   2.534533   2.639768
    18  C    3.974119   4.056603   5.019454   3.081215   2.680096
    19  H    3.067458   3.191390   4.080384   2.872658   2.277499
    20  C    5.175231   5.120588   6.215401   4.350491   3.862549
    21  H    5.412933   5.279619   6.399629   5.038549   4.372956
    22  C    6.323811   6.268435   7.386901   5.048014   4.762125
    23  H    7.252799   7.120446   8.315186   6.112352   5.770993
    24  H    7.118926   7.293290   8.098482   5.281655   4.860262
    25  C    6.445133   6.472905   7.501413   4.720180   4.736793
    26  C    5.470667   5.612047   6.488283   3.547853   3.787919
    27  H    5.904274   6.105275   6.860547   3.736009   4.244178
    28  C    7.815131   7.822267   8.864575   5.925191   6.074877
    29  O    8.116360   8.137621   9.134076   6.140158   6.492346
    30  N    8.848459   8.815098   9.912062   7.029632   7.035384
    31  H    9.752020   9.727311  10.809892   7.819617   7.895797
    32  H    8.853363   8.860043   9.905558   7.019724   6.882453
    33  H    1.092608   1.772124   1.766634   3.024499   2.532268
    34  C    7.495317   8.158981   8.138158   4.309305   4.946580
    35  C    7.132894   7.624121   7.980853   4.228474   4.312688
    36  C    7.870232   8.238601   8.785559   5.263868   5.161709
    37  C    9.039042   9.284170   9.962204   6.980944   6.523626
    38  C    7.679034   7.982450   8.601653   5.480738   5.088727
    39  O    6.071116   6.658407   6.860637   3.113461   3.121406
    40  S    8.142293   8.656222   8.941231   5.073938   5.486997
    41  H    8.360865   9.027622   8.957169   5.230682   5.945744
    42  H    6.628802   7.263989   7.274107   3.561262   4.354024
    43  H    9.661329   9.997683  10.528804   7.431448   6.965776
    44  H    9.658281   9.838972  10.626628   7.574789   7.226440
    45  H    9.038820   9.209964   9.957782   7.322533   6.737083
    46  H    7.181847   7.583140   8.030971   4.999151   4.466153
    47  H    8.833065   9.162477   9.766102   6.198937   6.183385
    48  H    7.417977   8.180789   7.983924   4.170302   4.675632
                    6          7          8          9         10
     6  O    0.000000
     7  H    1.000017   0.000000
     8  C    2.391393   3.262430   0.000000
     9  H    2.861949   3.743494   1.094285   0.000000
    10  O    2.648424   3.588418   1.405718   2.071564   0.000000
    11  H    2.103627   3.033651   1.921242   2.454248   0.967706
    12  C    2.460219   2.690453   2.349816   3.318118   2.905441
    13  H    2.572466   2.787334   2.809124   3.861760   2.821869
    14  C    3.601663   4.294394   1.523745   2.182754   2.385925
    15  H    4.300788   5.064367   2.146092   2.765617   2.414098
    16  O    3.556752   3.971493   2.363692   3.271797   3.050429
    17  N    3.273817   3.044464   3.679270   4.508991   4.362674
    18  C    4.019487   3.779814   4.153407   4.761003   5.148286
    19  H    4.031981   4.008420   3.672687   4.118293   4.854128
    20  C    5.124002   4.690044   5.502107   6.068585   6.480735
    21  H    5.884500   5.484221   6.097537   6.528716   7.202767
    22  C    5.570004   4.972664   6.315032   7.001991   7.089812
    23  H    6.608832   5.964314   7.379053   8.040595   8.170157
    24  H    5.455363   4.646373   6.738492   7.268724   7.527409
    25  C    5.046154   4.434344   5.992679   6.817456   6.512696
    26  C    3.901458   3.448213   4.744545   5.640287   5.162815
    27  H    3.844035   3.449222   4.815562   5.789848   4.931049
    28  C    6.039551   5.364714   7.180072   8.064109   7.498060
    29  O    6.155237   5.563806   7.275055   8.237687   7.370034
    30  N    7.127927   6.366859   8.352775   9.175643   8.762526
    31  H    7.811019   7.031353   9.135159   9.984957   9.441000
    32  H    7.110924   6.291701   8.415056   9.149681   8.945696
    33  H    4.317183   4.797067   2.744139   2.673602   4.089100
    34  C    3.188706   2.681836   5.334588   5.965657   5.000942
    35  C    3.669125   2.698302   5.706230   6.304071   6.029758
    36  C    4.909863   3.943603   6.778642   7.364658   7.235414
    37  C    6.875013   5.948609   8.489238   8.918060   9.226691
    38  C    5.387852   4.476939   6.995671   7.465988   7.707051
    39  O    2.589416   1.612205   4.610732   5.118450   5.072320
    40  S    4.237163   3.430745   6.357850   7.053709   6.279875
    41  H    4.077832   3.701109   6.099543   6.729956   5.557450
    42  H    2.590000   2.317038   4.468273   5.207294   4.059435
    43  H    7.164180   6.211220   8.946500   9.297856   9.650727
    44  H    7.454640   6.514837   9.083449   9.608603   9.730126
    45  H    7.386490   6.521282   8.783391   9.157851   9.648299
    46  H    4.902001   4.032965   6.492093   6.825834   7.300900
    47  H    5.774268   4.812425   7.688589   8.327117   8.032458
    48  H    2.889951   2.367445   5.203799   5.653793   4.989053
                   11         12         13         14         15
    11  H    0.000000
    12  C    3.099201   0.000000
    13  H    2.874855   1.092919   0.000000
    14  C    3.169697   2.334535   2.955075   0.000000
    15  H    3.345429   3.043361   3.363351   1.090355   0.000000
    16  O    3.622649   1.393528   2.076463   1.445933   2.053547
    17  N    4.451504   1.477362   2.069586   3.515876   4.300959
    18  C    5.325472   2.437511   3.307580   3.811301   4.732719
    19  H    5.151427   2.553877   3.599683   3.219748   4.210704
    20  C    6.600888   3.698886   4.428403   5.143877   6.040310
    21  H    7.371173   4.549083   5.378742   5.666609   6.593878
    22  C    7.100497   4.218672   4.656604   6.047518   6.858222
    23  H    8.177553   5.293602   5.710296   7.066916   7.869364
    24  H    7.333211   4.921200   5.345815   6.850617   7.774690
    25  C    6.444478   3.721235   3.841666   5.840809   6.536242
    26  C    5.112220   2.439577   2.461922   4.663604   5.311168
    27  H    4.797348   2.611893   2.156346   4.859807   5.348670
    28  C    7.347791   4.881996   4.724134   7.078044   7.664555
    29  O    7.200122   5.007067   4.591700   7.194279   7.637442
    30  N    8.590662   6.082982   6.025991   8.245854   8.892616
    31  H    9.221597   6.865678   6.690567   9.071382   9.669135
    32  H    8.748763   6.237008   6.318568   8.370770   9.113831
    33  H    4.652526   3.395923   4.395558   2.163631   3.068928
    34  C    4.221932   4.458146   3.871374   6.319579   6.801255
    35  C    5.515697   4.168923   4.110367   6.350196   7.135473
    36  C    6.798688   5.048190   5.102554   7.245054   8.077878
    37  C    8.888594   6.833695   7.167483   8.789240   9.738078
    38  C    7.379453   5.342287   5.676882   7.332816   8.269336
    39  O    4.589281   3.367966   3.514763   5.354425   6.204108
    40  S    5.638348   4.903110   4.432143   7.095166   7.684301
    41  H    4.739933   5.339957   4.621566   7.104032   7.470101
    42  H    3.360415   3.573435   2.879231   5.371385   5.784454
    43  H    9.227240   7.464653   7.771469   9.398774  10.364672
    44  H    9.392832   7.246425   7.464895   9.317388  10.208355
    45  H    9.393364   7.171506   7.635845   8.964332   9.945612
    46  H    6.964540   5.144794   5.609110   6.939237   7.934216
    47  H    7.563502   5.869600   5.784013   8.135842   8.910045
    48  H    4.137412   4.678092   4.292324   6.359923   6.927905
                   16         17         18         19         20
    16  O    0.000000
    17  N    2.313617   0.000000
    18  C    2.791783   1.359955   0.000000
    19  H    2.535220   2.071619   1.078386   0.000000
    20  C    4.070465   2.360382   1.360836   2.155313   0.000000
    21  H    4.741764   3.334103   2.111787   2.490086   1.080055
    22  C    4.810201   2.741490   2.387429   3.391838   1.400455
    23  H    5.824183   3.817262   3.360965   4.288403   2.152739
    24  H    5.814612   3.585300   3.262473   4.132888   2.439507
    25  C    4.521144   2.364693   2.753332   3.828004   2.412637
    26  C    3.373762   1.331833   2.344459   3.285462   2.736553
    27  H    3.629777   2.075666   3.312334   4.144374   3.818655
    28  C    5.724214   3.695116   4.243928   5.314338   3.821349
    29  O    5.846912   4.090353   4.920302   5.943565   4.751635
    30  N    6.899327   4.779178   5.050137   6.122353   4.293834
    31  H    7.718220   5.638446   6.012715   7.089265   5.299448
    32  H    7.088329   4.862227   4.925285   5.966799   4.016842
    33  H    2.756072   3.938204   3.472757   2.455009   4.597464
    34  C    5.792496   4.672926   5.756681   6.292499   6.406526
    35  C    5.505212   3.509971   4.139165   4.905958   4.293508
    36  C    6.271058   4.043984   4.377090   5.259438   4.087014
    37  C    7.833079   5.593191   5.311762   6.094627   4.456678
    38  C    6.396684   4.167141   4.021218   4.824288   3.422092
    39  O    4.692221   2.950587   3.504753   4.062723   3.965372
    40  S    6.264261   4.557792   5.516874   6.291501   5.792145
    41  H    6.617480   5.636454   6.780140   7.320700   7.427052
    42  H    4.846925   4.003678   5.190536   5.664432   5.998666
    43  H    8.539388   6.338216   6.106916   6.821306   5.371505
    44  H    8.247341   5.949942   5.794835   6.682690   4.872096
    45  H    8.030064   5.875323   5.345641   6.041771   4.330508
    46  H    6.183275   4.134367   3.855153   4.460648   3.463834
    47  H    7.093059   4.859320   5.278364   6.220703   4.890809
    48  H    6.011547   4.945408   5.866489   6.283707   6.545037
                   21         22         23         24         25
    21  H    0.000000
    22  C    2.164378   0.000000
    23  H    2.496111   1.081204   0.000000
    24  H    2.900378   1.838901   2.060105   0.000000
    25  C    3.400559   1.399505   2.159743   2.424074   0.000000
    26  C    3.816113   2.388466   3.372291   3.256627   1.380364
    27  H    4.897796   3.379553   4.283521   4.092000   2.143209
    28  C    4.718935   2.566136   2.818065   3.225710   1.496530
    29  O    5.719345   3.628505   3.977408   4.325700   2.362665
    30  N    4.980715   2.896889   2.630854   3.219821   2.420814
    31  H    5.986037   3.904348   3.602652   4.092917   3.317494
    32  H    4.571190   2.666117   2.231400   2.536582   2.593184
    33  H    4.726981   5.840210   6.738529   6.443646   6.121056
    34  C    7.360160   6.119679   6.966638   5.691898   5.100188
    35  C    5.143612   3.841166   4.537666   2.984529   3.169267
    36  C    4.814022   3.350494   3.753711   2.124865   2.938284
    37  C    4.661143   3.791280   3.567422   2.098777   4.232556
    38  C    3.873652   2.882732   3.099590   1.106671   3.135493
    39  O    4.766646   3.941587   4.802282   3.239609   3.469656
    40  S    6.740463   5.168267   5.828396   4.577770   4.126640
    41  H    8.402236   7.063213   7.875687   6.658840   5.957071
    42  H    6.982904   5.829932   6.763799   5.706508   4.781922
    43  H    5.558329   4.801735   4.648312   3.023329   5.145318
    44  H    5.159117   3.927389   3.533623   2.550326   4.206882
    45  H    4.281288   3.838269   3.445333   2.331361   4.605757
    46  H    3.800942   3.363156   3.741562   1.712448   3.726467
    47  H    5.619017   3.925570   4.135743   2.831814   3.373645
    48  H    7.409269   6.415477   7.270779   5.771827   5.579565
                   26         27         28         29         30
    26  C    0.000000
    27  H    1.082728   0.000000
    28  C    2.449678   2.633933   0.000000
    29  O    2.769632   2.470196   1.208942   0.000000
    30  N    3.652236   3.970609   1.368644   2.269433   0.000000
    31  H    4.430352   4.560267   2.005668   2.455671   1.008920
    32  H    3.897370   4.389874   2.045470   3.112451   1.008615
    33  H    5.268424   5.840769   7.561728   8.003648   8.494880
    34  C    4.290219   3.684960   5.305152   5.059177   6.285301
    35  C    2.990258   3.069809   3.585068   3.981701   4.240038
    36  C    3.366035   3.679417   3.145215   3.842496   3.365501
    37  C    5.140058   5.784278   4.475921   5.518163   3.943542
    38  C    3.792610   4.446368   3.696798   4.680073   3.646063
    39  O    2.938187   3.156439   4.298501   4.720622   5.086238
    40  S    3.784385   3.313884   4.011108   3.885283   4.769675
    41  H    5.168168   4.426789   5.969114   5.550144   6.930517
    42  H    3.747726   3.070602   5.139105   4.838982   6.277285
    43  H    5.923719   6.482988   5.342151   6.293804   4.839005
    44  H    5.275137   5.827341   4.090596   5.093368   3.297485
    45  H    5.575063   6.355626   5.009088   6.142652   4.405806
    46  H    4.088819   4.779812   4.548247   5.477828   4.663679
    47  H    3.963839   4.108670   3.073472   3.647946   3.042848
    48  H    4.786731   4.373837   5.962861   5.887763   6.863449
                   31         32         33         34         35
    31  H    0.000000
    32  H    1.705068   0.000000
    33  H    9.432509   8.382204   0.000000
    34  C    6.593561   6.430235   7.306845   0.000000
    35  C    4.764868   4.062539   6.647921   2.782765   0.000000
    36  C    3.889398   2.959353   7.302822   4.060629   1.381399
    37  C    4.475975   3.004752   8.276357   6.529942   3.801823
    38  C    4.352378   2.920618   6.968269   5.273361   2.495029
    39  O    5.747200   4.878785   5.545145   2.863492   1.262411
    40  S    4.981311   4.884723   7.840756   1.797951   1.805061
    41  H    7.108876   7.155056   8.248923   1.088374   3.727128
    42  H    6.672723   6.501688   6.550460   1.087460   3.072395
    43  H    5.253842   3.941938   8.857991   6.651803   4.081273
    44  H    3.658714   2.362221   8.970923   6.759520   4.117613
    45  H    5.022247   3.415231   8.221742   7.410442   4.641440
    46  H    5.409782   3.971677   6.383433   5.253894   2.640546
    47  H    3.301352   2.717658   8.314176   4.380257   2.121033
    48  H    7.241371   6.863536   7.127363   1.088028   2.894591
                   36         37         38         39         40
    36  C    0.000000
    37  C    2.544653   0.000000
    38  C    1.470707   1.522659   0.000000
    39  O    2.361339   4.375451   2.921897   0.000000
    40  S    2.676976   5.163647   4.090646   2.668385   0.000000
    41  H    4.903425   7.375270   6.205095   3.938888   2.347550
    42  H    4.387378   6.864865   5.487560   2.886875   2.424455
    43  H    2.942500   1.090249   2.176477   4.658934   5.331341
    44  H    2.742674   1.094110   2.171922   4.913771   5.205198
    45  H    3.460144   1.091415   2.168019   5.026192   6.128221
    46  H    2.116984   2.178618   1.094249   2.620022   4.388974
    47  H    1.084049   2.743402   2.216912   3.297689   2.709573
    48  H    4.198796   6.486989   5.244937   2.696050   2.407055
                   41         42         43         44         45
    41  H    0.000000
    42  H    1.772986   0.000000
    43  H    7.442111   7.129490   0.000000
    44  H    7.516992   7.111766   1.754625   0.000000
    45  H    8.308669   7.655473   1.765730   1.766124   0.000000
    46  H    6.248368   5.446710   2.510143   3.086763   2.569377
    47  H    5.043953   4.825780   3.057679   2.536907   3.763804
    48  H    1.775791   1.775994   6.484418   6.869425   7.332589
                   46         47         48
    46  H    0.000000
    47  H    3.045949   0.000000
    48  H    5.020277   4.659380   0.000000
 Stoichiometry    C16H24N2O5S
 Framework group  C1[X(C16H24N2O5S)]
 Deg. of freedom   138
 Full point group                 C1      NOp   1
 Largest Abelian subgroup         C1      NOp   1
 Largest concise Abelian subgroup C1      NOp   1
                         Standard orientation:                         
 ---------------------------------------------------------------------
 Center     Atomic      Atomic             Coordinates (Angstroms)
 Number     Number       Type             X           Y           Z
 ---------------------------------------------------------------------
      1          6           0       -4.677962   -1.978573   -0.532068
      2          1           0       -4.634683   -2.919427    0.015157
      3          1           0       -5.702687   -1.817672   -0.867755
      4          6           0       -2.518861    0.451996   -0.691772
      5          1           0       -2.326683   -0.200530   -1.553816
      6          8           0       -2.048589    1.735086   -0.895041
      7          1           0       -1.063912    1.685650   -1.062379
      8          6           0       -4.016038    0.479325   -0.374493
      9          1           0       -4.623107    0.546594   -1.282459
     10          8           0       -4.289777    1.542928    0.502923
     11          1           0       -3.751542    2.291012    0.207748
     12          6           0       -1.990759   -0.231871    0.581582
     13          1           0       -1.804122    0.515601    1.356775
     14          6           0       -4.234260   -0.838035    0.359497
     15          1           0       -4.941606   -0.682362    1.174544
     16          8           0       -2.957402   -1.163687    0.954733
     17          7           0       -0.720843   -0.963958    0.397294
     18          6           0       -0.704972   -2.027032   -0.450703
     19          1           0       -1.648447   -2.276965   -0.909292
     20          6           0        0.440248   -2.736732   -0.642197
     21          1           0        0.432159   -3.584701   -1.311077
     22          6           0        1.608908   -2.362151    0.032487
     23          1           0        2.485292   -2.993126   -0.020631
     24          1           0        2.371689   -1.428690   -1.356172
     25          6           0        1.562025   -1.284474    0.924132
     26          6           0        0.368149   -0.608617    1.076712
     27          1           0        0.296211    0.232531    1.754647
     28          6           0        2.695363   -0.853516    1.801298
     29          8           0        2.507560   -0.168725    2.779732
     30          7           0        3.920007   -1.364542    1.466211
     31          1           0        4.689137   -0.969421    1.986054
     32          1           0        4.105404   -1.546777    0.491673
     33          1           0       -4.040738   -2.059396   -1.415926
     34          6           0        0.261045    3.602726    0.264857
     35          6           0        1.602511    1.394535   -0.768654
     36          6           0        2.734542    0.629433   -0.972094
     37          6           0        4.093315   -0.934199   -2.449948
     38          6           0        2.741028   -0.526963   -1.880765
     39          8           0        0.455717    1.181515   -1.251528
     40         16           0        1.862954    2.790349    0.345849
     41          1           0        0.374369    4.551375    0.786181
     42          1           0       -0.516317    3.018735    0.751922
     43          1           0        4.439275   -0.233235   -3.209949
     44          1           0        4.858891   -0.959319   -1.668705
     45          1           0        4.044522   -1.926469   -2.901839
     46          1           0        1.993517   -0.396455   -2.669167
     47          1           0        3.657487    0.944129   -0.498489
     48          1           0       -0.021268    3.790782   -0.768941
 ---------------------------------------------------------------------
 Rotational constants (GHZ):           0.3335409           0.1648084           0.1402704
 Leave Link  202 at Sat Aug 13 20:34:16 2022, MaxMem=  2684354560 cpu:               0.4 elap:               0.1
 (Enter /storage/apps/GAUSSIAN/G16_RevA03/g16/l301.exe)
 Standard basis: def2TZVP (5D, 7F)
 Ernie: Thresh=  0.10000D-02 Tol=  0.10000D-05 Strict=F.
 There are  1014 symmetry adapted cartesian basis functions of A   symmetry.
 There are   894 symmetry adapted basis functions of A   symmetry.
   894 basis functions,  1434 primitive gaussians,  1014 cartesian basis functions
    95 alpha electrons       95 beta electrons
       nuclear repulsion energy      2499.1718405645 Hartrees.
 IExCor= 4336 DFT=T Ex+Corr=M062X ExCW=0 ScaHFX=  0.540000
 ScaDFX=  1.000000  1.000000  1.000000  1.000000 ScalE2=  1.000000  1.000000
 IRadAn=      5 IRanWt=     -1 IRanGd=            0 ICorTp=0 IEmpDi=131
 NAtoms=   48 NActive=   48 NUniq=   48 SFac= 1.00D+00 NAtFMM=   60 NAOKFM=F Big=F
 Integral buffers will be    131072 words long.
 Raffenetti 2 integral format.
 Two-electron integral symmetry is turned on.
 R6Disp:  Grimme-D3 Dispersion energy=       -0.0042668165 Hartrees.
 Nuclear repulsion after empirical dispersion term =     2499.1675737481 Hartrees.
 Leave Link  301 at Sat Aug 13 20:34:16 2022, MaxMem=  2684354560 cpu:               1.6 elap:               0.1
 (Enter /storage/apps/GAUSSIAN/G16_RevA03/g16/l302.exe)
 NPDir=0 NMtPBC=     1 NCelOv=     1 NCel=       1 NClECP=     1 NCelD=      1
         NCelK=      1 NCelE2=     1 NClLst=     1 CellRange=     0.0.
 One-electron integrals computed using PRISM.
 One-electron integral symmetry used in STVInt
   1 Symmetry operations used in ECPInt.
 ECPInt:  NShTT=   65703 NPrTT=  200010 LenC2=   56970 LenP2D=  121516.
 LDataN:  DoStor=T MaxTD1= 6 Len=  172
 NBasis=   894 RedAO= T EigKep=  1.66D-05  NBF=   894
 NBsUse=   894 1.00D-06 EigRej= -1.00D+00 NBFU=   894
 Precomputing XC quadrature grid using
 IXCGrd= 4 IRadAn=           5 IRanWt=          -1 IRanGd=           0 AccXCQ= 0.00D+00.
 Generated NRdTot=       0 NPtTot=           0 NUsed=           0 NTot=          32
 NSgBfM=   998   997   997   998   998 MxSgAt=    48 MxSgA2=    48.
 Leave Link  302 at Sat Aug 13 20:34:17 2022, MaxMem=  2684354560 cpu:              18.9 elap:               1.2
 (Enter /storage/apps/GAUSSIAN/G16_RevA03/g16/l303.exe)
 DipDrv:  MaxL=1.
 Leave Link  303 at Sat Aug 13 20:34:17 2022, MaxMem=  2684354560 cpu:               2.3 elap:               0.2
 (Enter /storage/apps/GAUSSIAN/G16_RevA03/g16/l401.exe)
 ExpMin= 9.52D-02 ExpMax= 6.07D+04 ExpMxC= 2.07D+03 IAcc=3 IRadAn=         5 AccDes= 0.00D+00
 Harris functional with IExCor= 1009 and IRadAn=       5 diagonalized for initial guess.
 HarFok:  IExCor= 1009 AccDes= 0.00D+00 IRadAn=         5 IDoV= 1 UseB2=F ITyADJ=14
 ICtDFT=  3500011 ScaDFX=  1.000000  1.000000  1.000000  1.000000
 FoFCou: FMM=F IPFlag=           0 FMFlag=      100000 FMFlg1=           0
         NFxFlg=           0 DoJE=T BraDBF=F KetDBF=T FulRan=T
         wScrn=  0.000000 ICntrl=       500 IOpCl=  0 I1Cent=   200000004 NGrid=           0
         NMat0=    1 NMatS0=      1 NMatT0=    0 NMatD0=    1 NMtDS0=    0 NMtDT0=    0
 Petite list used in FoFCou.
 Harris En= -1507.23900353381    
 JPrj=0 DoOrth=F DoCkMO=F.
 Leave Link  401 at Sat Aug 13 20:34:21 2022, MaxMem=  2684354560 cpu:              61.5 elap:               3.9
 (Enter /storage/apps/GAUSSIAN/G16_RevA03/g16/l502.exe)
 Integral symmetry usage will be decided dynamically.
 Closed shell SCF:
 Using DIIS extrapolation, IDIIS=  1040.
 NGot=  2684354560 LenX=  2682272944 LenY=  2681243734
 Requested convergence on RMS density matrix=1.00D-08 within 128 cycles.
 Requested convergence on MAX density matrix=1.00D-06.
 Requested convergence on             energy=1.00D-06.
 No special actions if energy rises.
 Fock matrices will be formed incrementally for  20 cycles.
 Integral accuracy reduced to 1.0D-05 until final iterations.

 Cycle   1  Pass 0  IDiag  1:
 FoFJK:  IHMeth= 1 ICntrl=       0 DoSepK=F KAlg= 0 I1Cent=           0 FoldK=F
 IRaf= 800000000 NMat=       1 IRICut=       1 DoRegI=T DoRafI=F ISym2E= 0 IDoP0=0 IntGTp=1.
 FoFCou: FMM=F IPFlag=           0 FMFlag=      100000 FMFlg1=           0
         NFxFlg=           0 DoJE=F BraDBF=F KetDBF=F FulRan=T
         wScrn=  0.000000 ICntrl=         0 IOpCl=  0 I1Cent=           0 NGrid=           0
         NMat0=    1 NMatS0=      1 NMatT0=    0 NMatD0=    1 NMtDS0=    0 NMtDT0=    0
 Symmetry not used in FoFCou.
 E= -1507.15529281150    
 DIIS: error= 1.75D-02 at cycle   1 NSaved=   1.
 NSaved= 1 IEnMin= 1 EnMin= -1507.15529281150     IErMin= 1 ErrMin= 1.75D-02
 ErrMax= 1.75D-02  0.00D+00 EMaxC= 1.00D-01 BMatC= 9.97D-01 BMatP= 9.97D-01
 IDIUse=3 WtCom= 8.25D-01 WtEn= 1.75D-01
 Coeff-Com:  0.100D+01
 Coeff-En:   0.100D+01
 Coeff:      0.100D+01
 Gap=     0.179 Goal=   None    Shift=    0.000
 GapD=    0.179 DampG=1.000 DampE=0.500 DampFc=0.5000 IDamp=-1.
 Damping current iteration by 5.00D-01
 RMSDP=4.05D-03 MaxDP=1.13D+00              OVMax= 5.34D-01

 Cycle   2  Pass 0  IDiag  1:
 RMSU=  2.03D-03    CP:  1.01D+00
 E= -1507.46208507895     Delta-E=       -0.306792267455 Rises=F Damp=T
 DIIS: error= 7.49D-03 at cycle   2 NSaved=   2.
 NSaved= 2 IEnMin= 2 EnMin= -1507.46208507895     IErMin= 2 ErrMin= 7.49D-03
 ErrMax= 7.49D-03  0.00D+00 EMaxC= 1.00D-01 BMatC= 9.92D-02 BMatP= 9.97D-01
 IDIUse=3 WtCom= 9.25D-01 WtEn= 7.49D-02
 Coeff-Com:  0.157D-01 0.984D+00
 Coeff-En:   0.129D+00 0.871D+00
 Coeff:      0.242D-01 0.976D+00
 Gap=     0.168 Goal=   None    Shift=    0.000
 RMSDP=1.37D-03 MaxDP=2.71D-01 DE=-3.07D-01 OVMax= 4.30D-01

 Cycle   3  Pass 0  IDiag  1:
 RMSU=  1.18D-03    CP:  1.00D+00  6.60D-01
 E= -1507.82469782058     Delta-E=       -0.362612741627 Rises=F Damp=F
 DIIS: error= 7.73D-03 at cycle   3 NSaved=   3.
 NSaved= 3 IEnMin= 3 EnMin= -1507.82469782058     IErMin= 2 ErrMin= 7.49D-03
 ErrMax= 7.73D-03  0.00D+00 EMaxC= 1.00D-01 BMatC= 7.36D-02 BMatP= 9.92D-02
 IDIUse=3 WtCom= 9.23D-01 WtEn= 7.73D-02
 Coeff-Com: -0.722D-01 0.487D+00 0.585D+00
 Coeff-En:   0.000D+00 0.000D+00 0.100D+01
 Coeff:     -0.666D-01 0.450D+00 0.617D+00
 Gap=     0.132 Goal=   None    Shift=    0.000
 RMSDP=6.05D-04 MaxDP=3.13D-02 DE=-3.63D-01 OVMax= 1.74D-01

 Cycle   4  Pass 0  IDiag  1:
 RMSU=  4.96D-04    CP:  1.00D+00  7.99D-01  8.28D-01
 E= -1507.88901245085     Delta-E=       -0.064314630270 Rises=F Damp=F
 DIIS: error= 4.11D-03 at cycle   4 NSaved=   4.
 NSaved= 4 IEnMin= 4 EnMin= -1507.88901245085     IErMin= 4 ErrMin= 4.11D-03
 ErrMax= 4.11D-03  0.00D+00 EMaxC= 1.00D-01 BMatC= 1.08D-02 BMatP= 7.36D-02
 IDIUse=3 WtCom= 9.59D-01 WtEn= 4.11D-02
 Coeff-Com: -0.365D-01 0.106D+00 0.309D+00 0.622D+00
 Coeff-En:   0.000D+00 0.000D+00 0.883D-01 0.912D+00
 Coeff:     -0.350D-01 0.101D+00 0.300D+00 0.634D+00
 Gap=     0.153 Goal=   None    Shift=    0.000
 RMSDP=2.12D-04 MaxDP=1.47D-02 DE=-6.43D-02 OVMax= 6.71D-02

 Cycle   5  Pass 0  IDiag  1:
 RMSU=  1.61D-04    CP:  1.00D+00  7.76D-01  9.04D-01  8.07D-01
 E= -1507.89903238434     Delta-E=       -0.010019933492 Rises=F Damp=F
 DIIS: error= 9.54D-04 at cycle   5 NSaved=   5.
 NSaved= 5 IEnMin= 5 EnMin= -1507.89903238434     IErMin= 5 ErrMin= 9.54D-04
 ErrMax= 9.54D-04  0.00D+00 EMaxC= 1.00D-01 BMatC= 9.83D-04 BMatP= 1.08D-02
 IDIUse=3 WtCom= 9.90D-01 WtEn= 9.54D-03
 Coeff-Com: -0.118D-01 0.217D-01 0.103D+00 0.322D+00 0.566D+00
 Coeff-En:   0.000D+00 0.000D+00 0.000D+00 0.000D+00 0.100D+01
 Coeff:     -0.117D-01 0.215D-01 0.102D+00 0.319D+00 0.570D+00
 Gap=     0.151 Goal=   None    Shift=    0.000
 RMSDP=7.41D-05 MaxDP=7.61D-03 DE=-1.00D-02 OVMax= 1.01D-02

 Cycle   6  Pass 0  IDiag  1:
 RMSU=  6.27D-05    CP:  1.00D+00  7.76D-01  8.97D-01  8.83D-01  9.37D-01
 E= -1507.89994282597     Delta-E=       -0.000910441625 Rises=F Damp=F
 DIIS: error= 2.00D-04 at cycle   6 NSaved=   6.
 NSaved= 6 IEnMin= 6 EnMin= -1507.89994282597     IErMin= 6 ErrMin= 2.00D-04
 ErrMax= 2.00D-04  0.00D+00 EMaxC= 1.00D-01 BMatC= 1.03D-04 BMatP= 9.83D-04
 IDIUse=3 WtCom= 9.98D-01 WtEn= 2.00D-03
 Coeff-Com: -0.241D-03-0.400D-02-0.104D-02 0.609D-01 0.275D+00 0.669D+00
 Coeff-En:   0.000D+00 0.000D+00 0.000D+00 0.000D+00 0.000D+00 0.100D+01
 Coeff:     -0.241D-03-0.399D-02-0.104D-02 0.608D-01 0.275D+00 0.670D+00
 Gap=     0.153 Goal=   None    Shift=    0.000
 RMSDP=3.98D-05 MaxDP=4.17D-03 DE=-9.10D-04 OVMax= 5.84D-03

 Cycle   7  Pass 0  IDiag  1:
 RMSU=  2.39D-05    CP:  1.00D+00  7.76D-01  9.04D-01  9.04D-01  1.11D+00
                    CP:  1.09D+00
 E= -1507.90004091683     Delta-E=       -0.000098090858 Rises=F Damp=F
 DIIS: error= 8.36D-05 at cycle   7 NSaved=   7.
 NSaved= 7 IEnMin= 7 EnMin= -1507.90004091683     IErMin= 7 ErrMin= 8.36D-05
 ErrMax= 8.36D-05  0.00D+00 EMaxC= 1.00D-01 BMatC= 1.37D-05 BMatP= 1.03D-04
 IDIUse=1 WtCom= 1.00D+00 WtEn= 0.00D+00
 Coeff-Com:  0.136D-02-0.430D-02-0.150D-01-0.134D-01 0.502D-01 0.312D+00
 Coeff-Com:  0.669D+00
 Coeff:      0.136D-02-0.430D-02-0.150D-01-0.134D-01 0.502D-01 0.312D+00
 Coeff:      0.669D+00
 Gap=     0.153 Goal=   None    Shift=    0.000
 RMSDP=1.94D-05 MaxDP=2.87D-03 DE=-9.81D-05 OVMax= 2.32D-03

 Cycle   8  Pass 0  IDiag  1:
 RMSU=  1.26D-05    CP:  1.00D+00  7.73D-01  9.04D-01  9.16D-01  1.17D+00
                    CP:  1.20D+00  1.14D+00
 E= -1507.90004666305     Delta-E=       -0.000005746227 Rises=F Damp=F
 DIIS: error= 3.06D-05 at cycle   8 NSaved=   8.
 NSaved= 8 IEnMin= 8 EnMin= -1507.90004666305     IErMin= 8 ErrMin= 3.06D-05
 ErrMax= 3.06D-05  0.00D+00 EMaxC= 1.00D-01 BMatC= 2.32D-06 BMatP= 1.37D-05
 IDIUse=1 WtCom= 1.00D+00 WtEn= 0.00D+00
 Coeff-Com:  0.710D-03-0.142D-02-0.824D-02-0.169D-01-0.251D-01 0.430D-01
 Coeff-Com:  0.317D+00 0.691D+00
 Coeff:      0.710D-03-0.142D-02-0.824D-02-0.169D-01-0.251D-01 0.430D-01
 Coeff:      0.317D+00 0.691D+00
 Gap=     0.153 Goal=   None    Shift=    0.000
 RMSDP=1.77D-05 MaxDP=4.01D-03 DE=-5.75D-06 OVMax= 1.42D-03

 Cycle   9  Pass 0  IDiag  1:
 RMSU=  1.27D-05    CP:  1.00D+00  7.70D-01  9.02D-01  9.19D-01  1.18D+00
                    CP:  1.27D+00  1.25D+00  1.68D+00
 E= -1507.90004375171     Delta-E=        0.000002911344 Rises=F Damp=F
 DIIS: error= 1.68D-05 at cycle   9 NSaved=   9.
 NSaved= 9 IEnMin= 8 EnMin= -1507.90004666305     IErMin= 9 ErrMin= 1.68D-05
 ErrMax= 1.68D-05  0.00D+00 EMaxC= 1.00D-01 BMatC= 5.35D-07 BMatP= 2.32D-06
 IDIUse=1 WtCom= 1.00D+00 WtEn= 0.00D+00
 Coeff-Com:  0.217D-03-0.269D-03-0.326D-02-0.743D-02-0.198D-01-0.479D-02
 Coeff-Com:  0.898D-01 0.347D+00 0.599D+00
 Coeff:      0.217D-03-0.269D-03-0.326D-02-0.743D-02-0.198D-01-0.479D-02
 Coeff:      0.898D-01 0.347D+00 0.599D+00
 Gap=     0.153 Goal=   None    Shift=    0.000
 RMSDP=1.83D-05 MaxDP=1.98D-03 DE= 2.91D-06 OVMax= 6.00D-04

 Cycle  10  Pass 0  IDiag  1:
 RMSU=  1.11D-05    CP:  1.00D+00  7.68D-01  9.01D-01  9.21D-01  1.18D+00
                    CP:  1.31D+00  1.35D+00  2.24D+00  1.92D+00
 E= -1507.90004254085     Delta-E=        0.000001210854 Rises=F Damp=F
 DIIS: error= 2.61D-05 at cycle  10 NSaved=  10.
 NSaved=10 IEnMin= 8 EnMin= -1507.90004666305     IErMin= 9 ErrMin= 1.68D-05
 ErrMax= 2.61D-05  0.00D+00 EMaxC= 1.00D-01 BMatC= 4.32D-07 BMatP= 5.35D-07
 IDIUse=1 WtCom= 1.00D+00 WtEn= 0.00D+00
 Coeff-Com:  0.220D-03-0.273D-03-0.329D-02-0.752D-02-0.200D-01-0.484D-02
 Coeff-Com:  0.910D-01 0.351D+00 0.606D+00-0.130D-01
 Coeff:      0.220D-03-0.273D-03-0.329D-02-0.752D-02-0.200D-01-0.484D-02
 Coeff:      0.910D-01 0.351D+00 0.606D+00-0.130D-01
 Gap=     0.153 Goal=   None    Shift=    0.000
 RMSDP=5.57D-07 MaxDP=5.97D-05 DE= 1.21D-06 OVMax= 4.55D-06

 Initial convergence to 1.0D-05 achieved.  Increase integral accuracy.
 Cycle  11  Pass 1  IDiag  1:
 E= -1507.89997149492     Delta-E=        0.000071045932 Rises=F Damp=F
 DIIS: error= 3.27D-04 at cycle   1 NSaved=   1.
 NSaved= 1 IEnMin= 1 EnMin= -1507.89997149492     IErMin= 1 ErrMin= 3.27D-04
 ErrMax= 3.27D-04  0.00D+00 EMaxC= 1.00D-01 BMatC= 9.72D-05 BMatP= 9.72D-05
 IDIUse=3 WtCom= 9.97D-01 WtEn= 3.27D-03
 Coeff-Com:  0.100D+01
 Coeff-En:   0.100D+01
 Coeff:      0.100D+01
 Gap=     0.153 Goal=   None    Shift=    0.000
 RMSDP=5.57D-07 MaxDP=5.97D-05 DE= 7.10D-05 OVMax= 1.14D-03

 Cycle  12  Pass 1  IDiag  1:
 RMSU=  5.97D-04    CP:  9.91D-01
 E= -1507.90003301752     Delta-E=       -0.000061522598 Rises=F Damp=F
 DIIS: error= 1.61D-05 at cycle   2 NSaved=   2.
 NSaved= 2 IEnMin= 2 EnMin= -1507.90003301752     IErMin= 2 ErrMin= 1.61D-05
 ErrMax= 1.61D-05  0.00D+00 EMaxC= 1.00D-01 BMatC= 1.66D-07 BMatP= 9.72D-05
 IDIUse=1 WtCom= 1.00D+00 WtEn= 0.00D+00
 Coeff-Com: -0.145D-01 0.101D+01
 Coeff:     -0.145D-01 0.101D+01
 Gap=     0.153 Goal=   None    Shift=    0.000
 RMSDP=2.29D-05 MaxDP=2.13D-03 DE=-6.15D-05 OVMax= 5.96D-04

 Cycle  13  Pass 1  IDiag  1:
 RMSU=  9.00D-06    CP:  9.91D-01  1.04D+00
 E= -1507.90003289622     Delta-E=        0.000000121302 Rises=F Damp=F
 DIIS: error= 2.07D-05 at cycle   3 NSaved=   3.
 NSaved= 3 IEnMin= 2 EnMin= -1507.90003301752     IErMin= 2 ErrMin= 1.61D-05
 ErrMax= 2.07D-05  0.00D+00 EMaxC= 1.00D-01 BMatC= 3.36D-07 BMatP= 1.66D-07
 IDIUse=1 WtCom= 1.00D+00 WtEn= 0.00D+00
 Coeff-Com: -0.104D-01 0.619D+00 0.391D+00
 Coeff:     -0.104D-01 0.619D+00 0.391D+00
 Gap=     0.153 Goal=   None    Shift=    0.000
 RMSDP=1.15D-06 MaxDP=7.48D-05 DE= 1.21D-07 OVMax= 2.52D-04

 Cycle  14  Pass 1  IDiag  1:
 RMSU=  1.11D-06    CP:  9.91D-01  1.04D+00  1.00D+00
 E= -1507.90003325042     Delta-E=       -0.000000354199 Rises=F Damp=F
 DIIS: error= 1.29D-06 at cycle   4 NSaved=   4.
 NSaved= 4 IEnMin= 4 EnMin= -1507.90003325042     IErMin= 4 ErrMin= 1.29D-06
 ErrMax= 1.29D-06  0.00D+00 EMaxC= 1.00D-01 BMatC= 1.03D-09 BMatP= 1.66D-07
 IDIUse=1 WtCom= 1.00D+00 WtEn= 0.00D+00
 Coeff-Com: -0.603D-04-0.693D-02 0.539D-02 0.100D+01
 Coeff:     -0.603D-04-0.693D-02 0.539D-02 0.100D+01
 Gap=     0.153 Goal=   None    Shift=    0.000
 RMSDP=6.20D-07 MaxDP=5.14D-05 DE=-3.54D-07 OVMax= 7.58D-05

 Cycle  15  Pass 1  IDiag  1:
 RMSU=  2.81D-07    CP:  9.91D-01  1.04D+00  1.04D+00  1.04D+00
 E= -1507.90003325389     Delta-E=       -0.000000003468 Rises=F Damp=F
 DIIS: error= 5.66D-07 at cycle   5 NSaved=   5.
 NSaved= 5 IEnMin= 5 EnMin= -1507.90003325389     IErMin= 5 ErrMin= 5.66D-07
 ErrMax= 5.66D-07  0.00D+00 EMaxC= 1.00D-01 BMatC= 1.06D-09 BMatP= 1.03D-09
 IDIUse=1 WtCom= 1.00D+00 WtEn= 0.00D+00
 Coeff-Com:  0.688D-03-0.466D-01-0.356D-01 0.521D+00 0.561D+00
 Coeff:      0.688D-03-0.466D-01-0.356D-01 0.521D+00 0.561D+00
 Gap=     0.153 Goal=   None    Shift=    0.000
 RMSDP=1.04D-07 MaxDP=9.39D-06 DE=-3.47D-09 OVMax= 2.01D-05

 Cycle  16  Pass 1  IDiag  1:
 RMSU=  6.64D-08    CP:  9.91D-01  1.04D+00  1.05D+00  1.04D+00  1.17D+00
 E= -1507.90003325516     Delta-E=       -0.000000001270 Rises=F Damp=F
 DIIS: error= 2.59D-07 at cycle   6 NSaved=   6.
 NSaved= 6 IEnMin= 6 EnMin= -1507.90003325516     IErMin= 6 ErrMin= 2.59D-07
 ErrMax= 2.59D-07  0.00D+00 EMaxC= 1.00D-01 BMatC= 1.31D-10 BMatP= 1.03D-09
 IDIUse=1 WtCom= 1.00D+00 WtEn= 0.00D+00
 Coeff-Com:  0.138D-03-0.675D-02-0.205D-01-0.117D+00 0.770D-01 0.107D+01
 Coeff:      0.138D-03-0.675D-02-0.205D-01-0.117D+00 0.770D-01 0.107D+01
 Gap=     0.153 Goal=   None    Shift=    0.000
 RMSDP=9.46D-08 MaxDP=9.38D-06 DE=-1.27D-09 OVMax= 2.42D-05

 Cycle  17  Pass 1  IDiag  1:
 RMSU=  4.31D-08    CP:  9.91D-01  1.04D+00  1.05D+00  1.05D+00  1.44D+00
                    CP:  1.44D+00
 E= -1507.90003325553     Delta-E=       -0.000000000378 Rises=F Damp=F
 DIIS: error= 1.07D-07 at cycle   7 NSaved=   7.
 NSaved= 7 IEnMin= 7 EnMin= -1507.90003325553     IErMin= 7 ErrMin= 1.07D-07
 ErrMax= 1.07D-07  0.00D+00 EMaxC= 1.00D-01 BMatC= 4.46D-11 BMatP= 1.31D-10
 IDIUse=1 WtCom= 1.00D+00 WtEn= 0.00D+00
 Coeff-Com: -0.726D-04 0.632D-02-0.676D-02-0.171D+00-0.688D-01 0.627D+00
 Coeff-Com:  0.613D+00
 Coeff:     -0.726D-04 0.632D-02-0.676D-02-0.171D+00-0.688D-01 0.627D+00
 Coeff:      0.613D+00
 Gap=     0.153 Goal=   None    Shift=    0.000
 RMSDP=3.12D-08 MaxDP=3.81D-06 DE=-3.78D-10 OVMax= 9.21D-06

 Cycle  18  Pass 1  IDiag  1:
 RMSU=  1.30D-08    CP:  9.91D-01  1.04D+00  1.05D+00  1.06D+00  1.51D+00
                    CP:  1.65D+00  1.26D+00
 E= -1507.90003325566     Delta-E=       -0.000000000131 Rises=F Damp=F
 DIIS: error= 3.04D-08 at cycle   8 NSaved=   8.
 NSaved= 8 IEnMin= 8 EnMin= -1507.90003325566     IErMin= 8 ErrMin= 3.04D-08
 ErrMax= 3.04D-08  0.00D+00 EMaxC= 1.00D-01 BMatC= 2.69D-12 BMatP= 4.46D-11
 IDIUse=1 WtCom= 1.00D+00 WtEn= 0.00D+00
 Coeff-Com: -0.403D-04 0.293D-02-0.736D-03-0.460D-01-0.338D-01 0.898D-01
 Coeff-Com:  0.220D+00 0.768D+00
 Coeff:     -0.403D-04 0.293D-02-0.736D-03-0.460D-01-0.338D-01 0.898D-01
 Coeff:      0.220D+00 0.768D+00
 Gap=     0.153 Goal=   None    Shift=    0.000
 RMSDP=1.05D-08 MaxDP=8.94D-07 DE=-1.31D-10 OVMax= 2.53D-06

 Cycle  19  Pass 1  IDiag  1:
 RMSU=  3.99D-09    CP:  9.91D-01  1.04D+00  1.05D+00  1.06D+00  1.53D+00
                    CP:  1.70D+00  1.41D+00  1.11D+00
 E= -1507.90003325564     Delta-E=        0.000000000021 Rises=F Damp=F
 DIIS: error= 1.43D-08 at cycle   9 NSaved=   9.
 NSaved= 9 IEnMin= 8 EnMin= -1507.90003325566     IErMin= 9 ErrMin= 1.43D-08
 ErrMax= 1.43D-08  0.00D+00 EMaxC= 1.00D-01 BMatC= 4.13D-13 BMatP= 2.69D-12
 IDIUse=1 WtCom= 1.00D+00 WtEn= 0.00D+00
 Coeff-Com: -0.664D-05 0.315D-03 0.547D-03 0.699D-02-0.328D-02-0.572D-01
 Coeff-Com:  0.124D-02 0.322D+00 0.729D+00
 Coeff:     -0.664D-05 0.315D-03 0.547D-03 0.699D-02-0.328D-02-0.572D-01
 Coeff:      0.124D-02 0.322D+00 0.729D+00
 Gap=     0.153 Goal=   None    Shift=    0.000
 RMSDP=3.61D-09 MaxDP=4.30D-07 DE= 2.14D-11 OVMax= 9.00D-07

 SCF Done:  E(RM062X) =  -1507.90003326     A.U. after   19 cycles
            NFock= 19  Conv=0.36D-08     -V/T= 2.0037
 KE= 1.502315833633D+03 PE=-8.535762799674D+03 EE= 3.026379359037D+03
 Leave Link  502 at Sat Aug 13 20:43:28 2022, MaxMem=  2684354560 cpu:            8730.7 elap:             546.6
 (Enter /storage/apps/GAUSSIAN/G16_RevA03/g16/l601.exe)
 Copying SCF densities to generalized density rwf, IOpCl= 0 IROHF=0.

 **********************************************************************

            Population analysis using the SCF density.

 **********************************************************************

 Orbital symmetries:
       Occupied  (A) (A) (A) (A) (A) (A) (A) (A) (A) (A) (A) (A)
                 (A) (A) (A) (A) (A) (A) (A) (A) (A) (A) (A) (A)
                 (A) (A) (A) (A) (A) (A) (A) (A) (A) (A) (A) (A)
                 (A) (A) (A) (A) (A) (A) (A) (A) (A) (A) (A) (A)
                 (A) (A) (A) (A) (A) (A) (A) (A) (A) (A) (A) (A)
                 (A) (A) (A) (A) (A) (A) (A) (A) (A) (A) (A) (A)
                 (A) (A) (A) (A) (A) (A) (A) (A) (A) (A) (A) (A)
                 (A) (A) (A) (A) (A) (A) (A) (A) (A) (A) (A)
       Virtual   (A) (A) (A) (A) (A) (A) (A) (A) (A) (A) (A) (A)
                 (A) (A) (A) (A) (A) (A) (A) (A) (A) (A) (A) (A)
                 (A) (A) (A) (A) (A) (A) (A) (A) (A) (A) (A) (A)
                 (A) (A) (A) (A) (A) (A) (A) (A) (A) (A) (A) (A)
                 (A) (A) (A) (A) (A) (A) (A) (A) (A) (A) (A) (A)
                 (A) (A) (A) (A) (A) (A) (A) (A) (A) (A) (A) (A)
                 (A) (A) (A) (A) (A) (A) (A) (A) (A) (A) (A) (A)
                 (A) (A) (A) (A) (A) (A) (A) (A) (A) (A) (A) (A)
                 (A) (A) (A) (A) (A) (A) (A) (A) (A) (A) (A) (A)
                 (A) (A) (A) (A) (A) (A) (A) (A) (A) (A) (A) (A)
                 (A) (A) (A) (A) (A) (A) (A) (A) (A) (A) (A) (A)
                 (A) (A) (A) (A) (A) (A) (A) (A) (A) (A) (A) (A)
                 (A) (A) (A) (A) (A) (A) (A) (A) (A) (A) (A) (A)
                 (A) (A) (A) (A) (A) (A) (A) (A) (A) (A) (A) (A)
                 (A) (A) (A) (A) (A) (A) (A) (A) (A) (A) (A) (A)
                 (A) (A) (A) (A) (A) (A) (A) (A) (A) (A) (A) (A)
                 (A) (A) (A) (A) (A) (A) (A) (A) (A) (A) (A) (A)
                 (A) (A) (A) (A) (A) (A) (A) (A) (A) (A) (A) (A)
                 (A) (A) (A) (A) (A) (A) (A) (A) (A) (A) (A) (A)
                 (A) (A) (A) (A) (A) (A) (A) (A) (A) (A) (A) (A)
                 (A) (A) (A) (A) (A) (A) (A) (A) (A) (A) (A) (A)
                 (A) (A) (A) (A) (A) (A) (A) (A) (A) (A) (A) (A)
                 (A) (A) (A) (A) (A) (A) (A) (A) (A) (A) (A) (A)
                 (A) (A) (A) (A) (A) (A) (A) (A) (A) (A) (A) (A)
                 (A) (A) (A) (A) (A) (A) (A) (A) (A) (A) (A) (A)
                 (A) (A) (A) (A) (A) (A) (A) (A) (A) (A) (A) (A)
                 (A) (A) (A) (A) (A) (A) (A) (A) (A) (A) (A) (A)
                 (A) (A) (A) (A) (A) (A) (A) (A) (A) (A) (A) (A)
                 (A) (A) (A) (A) (A) (A) (A) (A) (A) (A) (A) (A)
                 (A) (A) (A) (A) (A) (A) (A) (A) (A) (A) (A) (A)
                 (A) (A) (A) (A) (A) (A) (A) (A) (A) (A) (A) (A)
                 (A) (A) (A) (A) (A) (A) (A) (A) (A) (A) (A) (A)
                 (A) (A) (A) (A) (A) (A) (A) (A) (A) (A) (A) (A)
                 (A) (A) (A) (A) (A) (A) (A) (A) (A) (A) (A) (A)
                 (A) (A) (A) (A) (A) (A) (A) (A) (A) (A) (A) (A)
                 (A) (A) (A) (A) (A) (A) (A) (A) (A) (A) (A) (A)
                 (A) (A) (A) (A) (A) (A) (A) (A) (A) (A) (A) (A)
                 (A) (A) (A) (A) (A) (A) (A) (A) (A) (A) (A) (A)
                 (A) (A) (A) (A) (A) (A) (A) (A) (A) (A) (A) (A)
                 (A) (A) (A) (A) (A) (A) (A) (A) (A) (A) (A) (A)
                 (A) (A) (A) (A) (A) (A) (A) (A) (A) (A) (A) (A)
                 (A) (A) (A) (A) (A) (A) (A) (A) (A) (A) (A) (A)
                 (A) (A) (A) (A) (A) (A) (A) (A) (A) (A) (A) (A)
                 (A) (A) (A) (A) (A) (A) (A) (A) (A) (A) (A) (A)
                 (A) (A) (A) (A) (A) (A) (A) (A) (A) (A) (A) (A)
                 (A) (A) (A) (A) (A) (A) (A) (A) (A) (A) (A) (A)
                 (A) (A) (A) (A) (A) (A) (A) (A) (A) (A) (A) (A)
                 (A) (A) (A) (A) (A) (A) (A) (A) (A) (A) (A) (A)
                 (A) (A) (A) (A) (A) (A) (A) (A) (A) (A) (A) (A)
                 (A) (A) (A) (A) (A) (A) (A) (A) (A) (A) (A) (A)
                 (A) (A) (A) (A) (A) (A) (A) (A) (A) (A) (A) (A)
                 (A) (A) (A) (A) (A) (A) (A) (A) (A) (A) (A) (A)
                 (A) (A) (A) (A) (A) (A) (A) (A) (A) (A) (A) (A)
                 (A) (A) (A) (A) (A) (A) (A) (A) (A) (A) (A) (A)
                 (A) (A) (A) (A) (A) (A) (A) (A) (A) (A) (A) (A)
                 (A) (A) (A) (A) (A) (A) (A) (A) (A) (A) (A) (A)
                 (A) (A) (A) (A) (A) (A) (A) (A) (A) (A) (A) (A)
                 (A) (A) (A) (A) (A) (A) (A) (A) (A) (A) (A) (A)
                 (A) (A) (A) (A) (A) (A) (A) (A) (A) (A) (A) (A)
                 (A) (A) (A) (A) (A) (A) (A) (A) (A) (A) (A) (A)
                 (A) (A) (A) (A) (A) (A) (A) (A) (A) (A) (A) (A)
                 (A) (A) (A) (A) (A) (A) (A) (A) (A) (A) (A) (A)
                 (A) (A) (A) (A) (A) (A) (A) (A) (A) (A) (A) (A)
                 (A) (A) (A) (A) (A) (A) (A) (A) (A) (A) (A) (A)
                 (A) (A) (A) (A) (A) (A) (A) (A) (A) (A) (A) (A)
                 (A) (A) (A) (A) (A) (A) (A) (A) (A) (A) (A) (A)
                 (A) (A) (A) (A) (A) (A) (A)
 The electronic state is 1-A.
 Alpha  occ. eigenvalues --  -89.87144 -19.66315 -19.63218 -19.61959 -19.60902
 Alpha  occ. eigenvalues --  -19.57455 -14.87321 -14.77784 -10.66383 -10.66091
 Alpha  occ. eigenvalues --  -10.63877 -10.62915 -10.61066 -10.61065 -10.60481
 Alpha  occ. eigenvalues --  -10.60419 -10.59688 -10.59290 -10.59195 -10.55008
 Alpha  occ. eigenvalues --  -10.53904 -10.52620 -10.52542 -10.49691  -8.23055
 Alpha  occ. eigenvalues --   -6.15022  -6.14794  -6.14532  -1.22204  -1.18227
 Alpha  occ. eigenvalues --   -1.17012  -1.15248  -1.13938  -1.11068  -1.03071
 Alpha  occ. eigenvalues --   -0.97416  -0.92816  -0.90550  -0.88521  -0.87662
 Alpha  occ. eigenvalues --   -0.85838  -0.81352  -0.80286  -0.79431  -0.76687
 Alpha  occ. eigenvalues --   -0.73110  -0.72304  -0.69805  -0.69060  -0.67001
 Alpha  occ. eigenvalues --   -0.66292  -0.64023  -0.62811  -0.61975  -0.61008
 Alpha  occ. eigenvalues --   -0.60000  -0.58211  -0.57861  -0.57355  -0.56090
 Alpha  occ. eigenvalues --   -0.55630  -0.54263  -0.52967  -0.52798  -0.52063
 Alpha  occ. eigenvalues --   -0.51745  -0.51201  -0.50306  -0.50128  -0.48719
 Alpha  occ. eigenvalues --   -0.48462  -0.48225  -0.47707  -0.47138  -0.46337
 Alpha  occ. eigenvalues --   -0.45660  -0.45561  -0.45008  -0.44309  -0.43501
 Alpha  occ. eigenvalues --   -0.43371  -0.40920  -0.39815  -0.38939  -0.37912
 Alpha  occ. eigenvalues --   -0.37450  -0.36893  -0.36750  -0.36446  -0.35999
 Alpha  occ. eigenvalues --   -0.34786  -0.34096  -0.29621  -0.28298  -0.21499
 Alpha virt. eigenvalues --   -0.06243  -0.03807   0.03719   0.04727   0.05283
 Alpha virt. eigenvalues --    0.06225   0.07070   0.07298   0.08185   0.08831
 Alpha virt. eigenvalues --    0.09339   0.10056   0.10293   0.10704   0.11356
 Alpha virt. eigenvalues --    0.11494   0.11981   0.12602   0.12846   0.13244
 Alpha virt. eigenvalues --    0.13840   0.14004   0.14345   0.14521   0.15116
 Alpha virt. eigenvalues --    0.15449   0.15643   0.16156   0.16390   0.16753
 Alpha virt. eigenvalues --    0.17605   0.17712   0.18471   0.18978   0.19547
 Alpha virt. eigenvalues --    0.20676   0.21040   0.21365   0.21639   0.22131
 Alpha virt. eigenvalues --    0.22851   0.23182   0.23648   0.23693   0.24114
 Alpha virt. eigenvalues --    0.24751   0.25404   0.25760   0.25856   0.26278
 Alpha virt. eigenvalues --    0.26644   0.27010   0.27876   0.28210   0.28700
 Alpha virt. eigenvalues --    0.29169   0.29476   0.29945   0.30564   0.31526
 Alpha virt. eigenvalues --    0.31720   0.31893   0.32534   0.33013   0.33441
 Alpha virt. eigenvalues --    0.33998   0.34538   0.35064   0.35725   0.36219
 Alpha virt. eigenvalues --    0.36812   0.36963   0.37321   0.37670   0.38170
 Alpha virt. eigenvalues --    0.38772   0.39166   0.39541   0.39721   0.39883
 Alpha virt. eigenvalues --    0.40308   0.40591   0.41167   0.41715   0.42022
 Alpha virt. eigenvalues --    0.42666   0.42947   0.43219   0.43665   0.44169
 Alpha virt. eigenvalues --    0.44312   0.44488   0.45058   0.45320   0.45667
 Alpha virt. eigenvalues --    0.45749   0.46275   0.46530   0.46967   0.47483
 Alpha virt. eigenvalues --    0.47749   0.48134   0.48469   0.48855   0.49205
 Alpha virt. eigenvalues --    0.49447   0.49738   0.49916   0.50639   0.50801
 Alpha virt. eigenvalues --    0.51204   0.51444   0.52095   0.52971   0.53411
 Alpha virt. eigenvalues --    0.53731   0.54042   0.54201   0.54853   0.55162
 Alpha virt. eigenvalues --    0.55545   0.55883   0.55991   0.56564   0.57659
 Alpha virt. eigenvalues --    0.58199   0.58683   0.59304   0.59793   0.60046
 Alpha virt. eigenvalues --    0.60687   0.61392   0.61716   0.61882   0.63009
 Alpha virt. eigenvalues --    0.63363   0.63746   0.64459   0.64984   0.65526
 Alpha virt. eigenvalues --    0.65938   0.66078   0.67007   0.67310   0.67506
 Alpha virt. eigenvalues --    0.67983   0.68506   0.68957   0.69317   0.70897
 Alpha virt. eigenvalues --    0.71557   0.71878   0.72627   0.73268   0.73760
 Alpha virt. eigenvalues --    0.74116   0.74577   0.75240   0.75877   0.77169
 Alpha virt. eigenvalues --    0.77838   0.78425   0.79565   0.80139   0.81210
 Alpha virt. eigenvalues --    0.82016   0.82333   0.82432   0.83049   0.83931
 Alpha virt. eigenvalues --    0.84995   0.86015   0.86637   0.87248   0.87642
 Alpha virt. eigenvalues --    0.87868   0.88841   0.89552   0.89729   0.90138
 Alpha virt. eigenvalues --    0.90612   0.91337   0.91948   0.92462   0.93019
 Alpha virt. eigenvalues --    0.93483   0.94635   0.95008   0.95341   0.95792
 Alpha virt. eigenvalues --    0.96677   0.97644   0.98263   0.98954   0.99709
 Alpha virt. eigenvalues --    1.00055   1.01174   1.01732   1.02018   1.02768
 Alpha virt. eigenvalues --    1.03375   1.03538   1.04324   1.05679   1.06500
 Alpha virt. eigenvalues --    1.07234   1.07990   1.08665   1.08961   1.09441
 Alpha virt. eigenvalues --    1.09904   1.10905   1.11920   1.12350   1.12961
 Alpha virt. eigenvalues --    1.14149   1.15024   1.16121   1.16813   1.17470
 Alpha virt. eigenvalues --    1.17887   1.18322   1.18722   1.19212   1.19998
 Alpha virt. eigenvalues --    1.21252   1.21840   1.22616   1.23517   1.24093
 Alpha virt. eigenvalues --    1.24536   1.25969   1.26180   1.27260   1.28153
 Alpha virt. eigenvalues --    1.28562   1.29042   1.29314   1.29922   1.31495
 Alpha virt. eigenvalues --    1.31848   1.32576   1.33517   1.34111   1.34626
 Alpha virt. eigenvalues --    1.35592   1.36252   1.37857   1.39183   1.39966
 Alpha virt. eigenvalues --    1.40516   1.41227   1.42603   1.42784   1.44047
 Alpha virt. eigenvalues --    1.44992   1.45398   1.45988   1.47602   1.50328
 Alpha virt. eigenvalues --    1.51004   1.52178   1.52923   1.53188   1.53303
 Alpha virt. eigenvalues --    1.54059   1.54471   1.54746   1.55346   1.56029
 Alpha virt. eigenvalues --    1.56687   1.56969   1.57240   1.57998   1.58901
 Alpha virt. eigenvalues --    1.59521   1.59773   1.60185   1.60691   1.61159
 Alpha virt. eigenvalues --    1.61323   1.61631   1.62535   1.62895   1.63359
 Alpha virt. eigenvalues --    1.63420   1.64234   1.64541   1.64765   1.65564
 Alpha virt. eigenvalues --    1.66054   1.67225   1.67454   1.68351   1.68670
 Alpha virt. eigenvalues --    1.69612   1.70116   1.70440   1.71248   1.71531
 Alpha virt. eigenvalues --    1.72044   1.72680   1.73103   1.74309   1.75046
 Alpha virt. eigenvalues --    1.75869   1.76613   1.77292   1.78107   1.78167
 Alpha virt. eigenvalues --    1.78527   1.79109   1.80148   1.80805   1.81023
 Alpha virt. eigenvalues --    1.82808   1.83359   1.84111   1.84297   1.84890
 Alpha virt. eigenvalues --    1.86334   1.86754   1.87082   1.88254   1.89124
 Alpha virt. eigenvalues --    1.89403   1.89482   1.90269   1.91408   1.91689
 Alpha virt. eigenvalues --    1.92812   1.93246   1.94365   1.94449   1.94582
 Alpha virt. eigenvalues --    1.95002   1.96509   1.97135   1.97968   1.98120
 Alpha virt. eigenvalues --    1.99492   2.00243   2.00546   2.01508   2.02763
 Alpha virt. eigenvalues --    2.03255   2.03713   2.03947   2.04597   2.04889
 Alpha virt. eigenvalues --    2.06038   2.06600   2.07465   2.09038   2.09721
 Alpha virt. eigenvalues --    2.10361   2.10993   2.11638   2.12649   2.13703
 Alpha virt. eigenvalues --    2.13965   2.14727   2.16742   2.16970   2.17518
 Alpha virt. eigenvalues --    2.17961   2.18747   2.19154   2.20046   2.20484
 Alpha virt. eigenvalues --    2.21249   2.21722   2.22759   2.22952   2.23604
 Alpha virt. eigenvalues --    2.23721   2.24398   2.25411   2.26522   2.27040
 Alpha virt. eigenvalues --    2.27951   2.28295   2.29130   2.30006   2.30367
 Alpha virt. eigenvalues --    2.31133   2.32133   2.33246   2.34044   2.34635
 Alpha virt. eigenvalues --    2.35033   2.35592   2.36253   2.36564   2.36900
 Alpha virt. eigenvalues --    2.37691   2.38246   2.38976   2.39128   2.39742
 Alpha virt. eigenvalues --    2.40493   2.41789   2.42469   2.42779   2.43811
 Alpha virt. eigenvalues --    2.45092   2.45719   2.45963   2.46505   2.47377
 Alpha virt. eigenvalues --    2.48295   2.50033   2.50709   2.51728   2.52111
 Alpha virt. eigenvalues --    2.54116   2.54209   2.54608   2.55606   2.56257
 Alpha virt. eigenvalues --    2.56848   2.57719   2.58019   2.58256   2.58576
 Alpha virt. eigenvalues --    2.59958   2.60351   2.60506   2.61491   2.61658
 Alpha virt. eigenvalues --    2.62046   2.63534   2.64119   2.64258   2.65650
 Alpha virt. eigenvalues --    2.66235   2.66630   2.67106   2.67717   2.68529
 Alpha virt. eigenvalues --    2.69441   2.69729   2.70185   2.70501   2.71114
 Alpha virt. eigenvalues --    2.72094   2.72369   2.73032   2.74254   2.74738
 Alpha virt. eigenvalues --    2.75019   2.76347   2.77106   2.77275   2.78688
 Alpha virt. eigenvalues --    2.79488   2.79803   2.80676   2.80967   2.81950
 Alpha virt. eigenvalues --    2.82484   2.82946   2.83838   2.84258   2.84529
 Alpha virt. eigenvalues --    2.85489   2.86290   2.86813   2.87679   2.88028
 Alpha virt. eigenvalues --    2.88727   2.89900   2.90365   2.90621   2.91623
 Alpha virt. eigenvalues --    2.92697   2.93901   2.94334   2.95404   2.95793
 Alpha virt. eigenvalues --    2.97307   2.97849   2.98717   2.99507   2.99606
 Alpha virt. eigenvalues --    3.00599   3.01632   3.02195   3.03064   3.03450
 Alpha virt. eigenvalues --    3.04108   3.04658   3.05590   3.05962   3.06736
 Alpha virt. eigenvalues --    3.08484   3.08557   3.08956   3.09876   3.10107
 Alpha virt. eigenvalues --    3.10412   3.10836   3.11550   3.12581   3.13062
 Alpha virt. eigenvalues --    3.13656   3.14325   3.14429   3.15007   3.15955
 Alpha virt. eigenvalues --    3.16297   3.16589   3.17317   3.17742   3.18489
 Alpha virt. eigenvalues --    3.19768   3.20132   3.20689   3.21052   3.21421
 Alpha virt. eigenvalues --    3.21891   3.22773   3.23610   3.24266   3.25130
 Alpha virt. eigenvalues --    3.25815   3.26815   3.27076   3.27694   3.28527
 Alpha virt. eigenvalues --    3.29218   3.30154   3.30607   3.30861   3.31619
 Alpha virt. eigenvalues --    3.32117   3.32927   3.33089   3.33886   3.34620
 Alpha virt. eigenvalues --    3.35296   3.35785   3.36345   3.36458   3.37017
 Alpha virt. eigenvalues --    3.38468   3.38945   3.39600   3.40079   3.40744
 Alpha virt. eigenvalues --    3.41127   3.41788   3.42000   3.43171   3.43529
 Alpha virt. eigenvalues --    3.44265   3.44722   3.45060   3.45575   3.45833
 Alpha virt. eigenvalues --    3.46657   3.47534   3.48653   3.48887   3.49998
 Alpha virt. eigenvalues --    3.50256   3.51437   3.52999   3.53165   3.54310
 Alpha virt. eigenvalues --    3.54480   3.55723   3.56142   3.56371   3.57202
 Alpha virt. eigenvalues --    3.57916   3.58236   3.59431   3.60007   3.60237
 Alpha virt. eigenvalues --    3.60829   3.61481   3.62550   3.63776   3.64406
 Alpha virt. eigenvalues --    3.66265   3.66870   3.67811   3.68625   3.69871
 Alpha virt. eigenvalues --    3.70790   3.71215   3.73091   3.73735   3.74528
 Alpha virt. eigenvalues --    3.76188   3.76526   3.77926   3.78959   3.79573
 Alpha virt. eigenvalues --    3.80566   3.80985   3.82282   3.83049   3.85570
 Alpha virt. eigenvalues --    3.86089   3.86919   3.88199   3.88718   3.89575
 Alpha virt. eigenvalues --    3.91718   3.92285   3.93518   3.94291   3.95015
 Alpha virt. eigenvalues --    3.96999   3.97598   3.97889   3.98299   3.99585
 Alpha virt. eigenvalues --    4.00913   4.01426   4.04607   4.06181   4.07399
 Alpha virt. eigenvalues --    4.09161   4.09557   4.11561   4.13000   4.13628
 Alpha virt. eigenvalues --    4.14170   4.15750   4.16734   4.17956   4.19691
 Alpha virt. eigenvalues --    4.20326   4.20516   4.21645   4.23495   4.25695
 Alpha virt. eigenvalues --    4.26775   4.27254   4.28188   4.29582   4.31074
 Alpha virt. eigenvalues --    4.31807   4.32948   4.35135   4.36304   4.37229
 Alpha virt. eigenvalues --    4.39378   4.39965   4.41255   4.43115   4.43916
 Alpha virt. eigenvalues --    4.45030   4.46277   4.46622   4.47809   4.50053
 Alpha virt. eigenvalues --    4.50824   4.52054   4.55637   4.57327   4.57500
 Alpha virt. eigenvalues --    4.59795   4.61345   4.63307   4.65052   4.67405
 Alpha virt. eigenvalues --    4.67999   4.73180   4.73749   4.75626   4.75730
 Alpha virt. eigenvalues --    4.78081   4.80300   4.80833   4.83291   4.83690
 Alpha virt. eigenvalues --    4.85351   4.87116   4.88968   4.90458   4.91419
 Alpha virt. eigenvalues --    4.92704   4.93395   4.95137   4.97749   4.98217
 Alpha virt. eigenvalues --    4.99895   5.03112   5.04671   5.05513   5.07144
 Alpha virt. eigenvalues --    5.09159   5.13240   5.15946   5.19317   5.20781
 Alpha virt. eigenvalues --    5.21764   5.25392   5.26412   5.27139   5.27806
 Alpha virt. eigenvalues --    5.30669   5.31524   5.32065   5.35189   5.38060
 Alpha virt. eigenvalues --    5.39752   5.42454   5.43298   5.45495   5.47385
 Alpha virt. eigenvalues --    5.48788   5.49424   5.51014   5.53324   5.58080
 Alpha virt. eigenvalues --    5.64380   5.67271   5.72656   5.74678   5.77826
 Alpha virt. eigenvalues --    5.79990   5.81079   5.83503   5.84319   5.86815
 Alpha virt. eigenvalues --    5.89414   5.90640   5.91922   5.94169   5.95786
 Alpha virt. eigenvalues --    5.97448   6.03752   6.06129   6.15288   6.17244
 Alpha virt. eigenvalues --    6.20245   6.22882   6.26039   6.26918   6.38420
 Alpha virt. eigenvalues --    6.41757   6.44046   6.47834   6.48918   6.55122
 Alpha virt. eigenvalues --    6.59347   6.66981   6.73099   6.75190   6.76282
 Alpha virt. eigenvalues --    6.78053   6.80702   6.84064   6.85209   6.86984
 Alpha virt. eigenvalues --    6.88900   6.95505   6.99911   7.07529   7.09150
 Alpha virt. eigenvalues --    7.09617   7.12317   7.16872   7.19442   7.21776
 Alpha virt. eigenvalues --    7.32330   7.39982   9.06347   9.42667   9.59155
 Alpha virt. eigenvalues --   19.83945  22.36297  22.46987  22.49667  22.60669
 Alpha virt. eigenvalues --   22.65054  22.72183  22.74994  22.76996  22.82222
 Alpha virt. eigenvalues --   22.86591  22.95458  22.97479  23.07461  23.18254
 Alpha virt. eigenvalues --   23.29298  23.52312  32.19147  33.17055  44.14281
 Alpha virt. eigenvalues --   44.22687  44.26060  44.35310  44.51555
          Condensed to atoms (all electrons):
               1          2          3          4          5          6
     1  C    5.147162   0.428941   0.412846   0.007526  -0.006701  -0.000253
     2  H    0.428941   0.496429  -0.013924  -0.002306   0.000467  -0.000005
     3  H    0.412846  -0.013924   0.505959  -0.000724   0.000209  -0.000009
     4  C    0.007526  -0.002306  -0.000724   5.599405   0.542650   0.229930
     5  H   -0.006701   0.000467   0.000209   0.542650   0.527165  -0.035185
     6  O   -0.000253  -0.000005  -0.000009   0.229930  -0.035185   8.168793
     7  H    0.000003  -0.000003  -0.000003  -0.056043  -0.006918   0.308853
     8  C   -0.006884   0.011007  -0.000870  -0.052422  -0.106347  -0.061395
     9  H    0.006902  -0.000298  -0.002023  -0.074467   0.002104   0.001291
    10  O    0.005248  -0.000190  -0.000016   0.050497   0.005625  -0.022209
[...]
 Dipole        =-5.52077845D-01-2.54127908D+00-8.42556424D-01
 ***** Axes restored to original set *****
 -------------------------------------------------------------------
 Center     Atomic                   Forces (Hartrees/Bohr)
 Number     Number              X              Y              Z
 -------------------------------------------------------------------
      1        6          -0.000053916   -0.000009610    0.000051389
      2        1          -0.000007515    0.000013670   -0.000003376
      3        1          -0.000006788   -0.000011692   -0.000007423
      4        6          -0.000350814    0.000175418    0.000155379
      5        1          -0.000059188    0.000006667   -0.000000734
      6        8          -0.000862307    0.000386616   -0.000279943
      7        1          -0.000062193    0.000025612   -0.000040550
      8        6          -0.000350202    0.000049165    0.000189922
      9        1          -0.000033561    0.000009103    0.000023157
     10        8          -0.000425488    0.000154476    0.000026500
     11        1          -0.000030132    0.000002600    0.000009200
     12        6           0.000174644    0.000074163    0.000213567
     13        1           0.000012890    0.000027920   -0.000025238
     14        6          -0.000202332   -0.000014210    0.000244642
     15        1          -0.000012434    0.000007815    0.000008834
     16        8          -0.000178811   -0.000013986    0.000133698
     17        7           0.000154854   -0.000153264   -0.000001074
     18        6           0.000717886    0.000163817   -0.000088875
     19        1          -0.000000867   -0.000017876    0.000123249
     20        6           0.002072980    0.000281398   -0.002364657
     21        1           0.000112021    0.000049947   -0.000171908
     22        6           0.004499122    0.000334783   -0.004638567
     23        1          -0.000200174    0.000041841   -0.000370097
     24        1           0.001221717   -0.001257449   -0.002455176
     25        6           0.000621643   -0.000161599   -0.000524918
     26        6          -0.000376023   -0.000177401    0.001274757
     27        1          -0.000087937   -0.000009964    0.000274053
     28        6          -0.000216017   -0.000178543    0.000080854
     29        8           0.000294283   -0.000692356   -0.000140219
     30        7          -0.000411613   -0.000260799    0.000570432
     31        1           0.000001167    0.000006809    0.000057836
     32        1          -0.000077254    0.000022580    0.000261716
     33        1          -0.000040687   -0.000015390    0.000019931
     34        6          -0.000071469   -0.000009104    0.000297166
     35        6          -0.000228867   -0.000083927   -0.000372855
     36        6          -0.000123454   -0.000792833   -0.000101701
     37        6          -0.002762444    0.001874930    0.003245791
     38        6          -0.003688776   -0.001127074    0.004591545
     39        8           0.001394042    0.000208657   -0.001519263
     40       16           0.000744313    0.000685952   -0.000252487
     41        1          -0.000006794   -0.000013395    0.000013394
     42        1           0.000013722    0.000001149    0.000037747
     43        1          -0.000042391    0.000658157    0.000230085
     44        1           0.000005707   -0.000071261   -0.000116748
     45        1          -0.000494757   -0.000038045    0.000569563
     46        1          -0.000491375   -0.000107185    0.000641305
     47        1          -0.000080248   -0.000037883    0.000147744
     48        1          -0.000004163   -0.000008399   -0.000017645
 -------------------------------------------------------------------
 Cartesian Forces:  Max     0.004638567 RMS     0.000961673
 Leave Link  716 at Sat Aug 13 20:46:48 2022, MaxMem=  2684354560 cpu:               0.4 elap:               0.0
 (Enter /storage/apps/GAUSSIAN/G16_RevA03/g16/l103.exe)

 GradGradGradGradGradGradGradGradGradGradGradGradGradGradGradGradGradGrad
 Berny optimization.
 Search for a local minimum.
 Step number   1 out of a maximum of    2
 All quantities printed in internal units (Hartrees-Bohrs-Radians)
 Second derivative matrix not updated -- first step.
 ITU=  0
     Eigenvalues ---    0.00025   0.00091   0.00109   0.00128   0.00187
     Eigenvalues ---    0.00221   0.00331   0.00373   0.00452   0.00501
     Eigenvalues ---    0.00607   0.00626   0.00807   0.00926   0.00961
     Eigenvalues ---    0.00979   0.01116   0.01171   0.01377   0.01509
     Eigenvalues ---    0.01719   0.02150   0.02363   0.02440   0.02672
     Eigenvalues ---    0.03054   0.03128   0.03313   0.03739   0.04289
     Eigenvalues ---    0.04403   0.04605   0.04838   0.05020   0.05270
     Eigenvalues ---    0.05337   0.05598   0.05741   0.05827   0.05981
     Eigenvalues ---    0.06168   0.06301   0.06476   0.06892   0.07026
     Eigenvalues ---    0.07052   0.07138   0.07658   0.08051   0.08326
     Eigenvalues ---    0.08588   0.08773   0.09320   0.09423   0.10170
     Eigenvalues ---    0.10795   0.10868   0.11194   0.12285   0.12570
     Eigenvalues ---    0.12822   0.13088   0.13237   0.13298   0.13739
     Eigenvalues ---    0.13848   0.14047   0.15457   0.16130   0.16543
     Eigenvalues ---    0.17384   0.18149   0.18698   0.19315   0.19832
     Eigenvalues ---    0.20321   0.20717   0.21334   0.21936   0.22496
     Eigenvalues ---    0.25136   0.26353   0.27216   0.27931   0.30608
     Eigenvalues ---    0.33102   0.33451   0.33793   0.34813   0.37685
     Eigenvalues ---    0.37896   0.37896   0.37896   0.37896   0.40367
     Eigenvalues ---    0.43640   0.48153   0.48682   0.57094   0.59761
     Eigenvalues ---    0.60030   0.61787   0.69606   0.72539   0.73555
     Eigenvalues ---    0.79320   0.80905   0.82810   0.87495   0.90901
     Eigenvalues ---    0.91297   0.92292   0.93239   0.93535   0.95494
     Eigenvalues ---    0.96682   0.99996   1.01221   1.02323   1.04101
     Eigenvalues ---    1.05923   1.08530   1.11590   1.12537   1.13289
     Eigenvalues ---    1.20605   1.20962   1.27363   1.27493   1.30470
     Eigenvalues ---    1.32515   1.36964   1.43945   1.54533   1.72728
     Eigenvalues ---    1.82292   1.90711   2.34821
 Quadratic step=8.354D+00 exceeds max=3.000D-01 adjusted using Lamda=-1.129D-02.
 Angle between NR and scaled steps=  45.97 degrees.
 Angle between quadratic step and forces=  59.45 degrees.
 Linear search not attempted -- first point.
 Variable       Old X    -DE/DX   Delta X   Delta X   Delta X     New X
                                 (Linear)    (Quad)   (Total)
    X1        6.80154  -0.00005   0.00000  -0.02264  -0.02264   6.77890
    Y1       -6.83263  -0.00001   0.00000  -0.01254  -0.01254  -6.84517
    Z1       -0.84001   0.00005   0.00000   0.00917   0.00917  -0.83085
    X2        7.08544  -0.00001   0.00000  -0.02646  -0.02646   7.05897
    Y2       -7.01354   0.00001   0.00000  -0.01578  -0.01578  -7.02933
    Z2       -2.87074  -0.00000   0.00000   0.00844   0.00844  -2.86230
    X3        8.19191  -0.00001   0.00000  -0.01750  -0.01750   8.17441
    Y3       -8.00653  -0.00001   0.00000  -0.01008  -0.01008  -8.01661
    Z3        0.12618  -0.00001   0.00000   0.00533   0.00533   0.13151
    X4        3.52063  -0.00035   0.00000  -0.00703  -0.00703   3.51359
    Y4       -2.71891   0.00018   0.00000   0.01151   0.01151  -2.70740
    Z4        2.34558   0.00016   0.00000   0.01372   0.01372   2.35929
    X5        2.29596  -0.00006   0.00000  -0.00987  -0.00987   2.28609
    Y5       -4.36902   0.00001   0.00000   0.01292   0.01292  -4.35610
    Z5        2.05669  -0.00000   0.00000   0.02006   0.02006   2.07675
    X6        2.77321  -0.00086   0.00000  -0.00188  -0.00188   2.77133
    Y6       -1.28607   0.00039   0.00000   0.02582   0.02582  -1.26025
    Z6        4.39613  -0.00028   0.00000   0.00599   0.00599   4.40212
    X7        0.99825  -0.00006   0.00000   0.00139   0.00139   0.99964
    Y7       -0.70857   0.00003   0.00000   0.03076   0.03076  -0.67782
    Z7        4.10084  -0.00004   0.00000  -0.00005  -0.00005   4.10079
    X8        6.27006  -0.00035   0.00000  -0.00717  -0.00717   6.26289
    Y8       -3.56113   0.00005   0.00000   0.00518   0.00518  -3.55595
    Z8        2.65882   0.00019   0.00000   0.00402   0.00402   2.66284
    X9        6.42875  -0.00003   0.00000  -0.00039  -0.00039   6.42837
    Y9       -5.23586   0.00001   0.00000   0.01072   0.01072  -5.22514
    Z9        3.86144   0.00002   0.00000   0.01056   0.01056   3.87200
   X10        7.71017  -0.00043   0.00000   0.00244   0.00244   7.71261
   Y10       -1.54494   0.00015   0.00000   0.00877   0.00877  -1.53617
   Z10        3.61676   0.00003   0.00000  -0.01886  -0.01886   3.59791
   X11        6.67788  -0.00003   0.00000   0.01521   0.01521   6.69309
   Y11       -0.71800   0.00000   0.00000   0.01733   0.01733  -0.70066
   Z11        4.87957   0.00001   0.00000  -0.01464  -0.01464   4.86493
   X12        3.72988   0.00017   0.00000  -0.00782  -0.00782   3.72206
   Y12       -1.24654   0.00007   0.00000   0.00076   0.00076  -1.24579
   Z12       -0.15335   0.00021   0.00000   0.00982   0.00982  -0.14353
   X13        4.26954   0.00001   0.00000   0.00389   0.00389   4.27342
   Y13        0.71094   0.00003   0.00000   0.00027   0.00027   0.71121
   Z13        0.22423  -0.00003   0.00000  -0.00369  -0.00369   0.22054
   X14        7.09372  -0.00020   0.00000  -0.01962  -0.01962   7.07410
   Y14       -4.09888  -0.00001   0.00000  -0.01048  -0.01048  -4.10936
   Z14       -0.04741   0.00024   0.00000   0.00254   0.00254  -0.04487
   X15        9.03565  -0.00001   0.00000  -0.01907  -0.01907   9.01658
   Y15       -3.46035   0.00001   0.00000  -0.01414  -0.01414  -3.47449
   Z15       -0.30574   0.00001   0.00000  -0.00982  -0.00982  -0.31556
   X16        5.50544  -0.00018   0.00000  -0.02351  -0.02351   5.48193
   Y16       -2.52552  -0.00001   0.00000  -0.01370  -0.01370  -2.53922
   Z16       -1.61839   0.00013   0.00000   0.00502   0.00502  -1.61337
   X17        1.36007   0.00015   0.00000  -0.00593  -0.00593   1.35413
   Y17       -1.13585  -0.00015   0.00000  -0.00130  -0.00130  -1.13715
   Z17       -1.62506  -0.00000   0.00000   0.01240   0.01240  -1.61266
   X18        0.36933   0.00072   0.00000   0.01553   0.01553   0.38486
   Y18       -3.33516   0.00016   0.00000  -0.00095  -0.00095  -3.33612
   Z18       -2.51167  -0.00009   0.00000  -0.01017  -0.01017  -2.52184
   X19        1.44467  -0.00000   0.00000   0.00936   0.00936   1.45403
   Y19       -5.01936  -0.00002   0.00000  -0.00036  -0.00036  -5.01972
   Z19       -2.11170   0.00012   0.00000   0.00874   0.00874  -2.10297
   X20       -1.79950   0.00207   0.00000   0.04890   0.04890  -1.75061
   Y20       -3.31937   0.00028   0.00000   0.00039   0.00039  -3.31898
   Z20       -3.89336  -0.00236   0.00000  -0.06120  -0.06120  -3.95457
   X21       -2.54881   0.00011   0.00000   0.05310   0.05310  -2.49571
   Y21       -5.08152   0.00005   0.00000   0.00039   0.00039  -5.08112
   Z21       -4.59982  -0.00017   0.00000  -0.06464  -0.06464  -4.66446
   X22       -3.02148   0.00450   0.00000   0.05860   0.05860  -2.96288
   Y22       -1.02441   0.00033   0.00000   0.00023   0.00023  -1.02418
   Z22       -4.38710  -0.00464   0.00000  -0.08095  -0.08095  -4.46805
   X23       -4.60865  -0.00020   0.00000   0.06698   0.06698  -4.54167
   Y23       -0.97598   0.00004   0.00000   0.00357   0.00357  -0.97241
   Z23       -5.67284  -0.00037   0.00000  -0.09213  -0.09213  -5.76496
   X24       -5.40897   0.00122   0.00000  -0.01284  -0.01284  -5.42181
   Y24       -1.28194  -0.00126   0.00000  -0.04932  -0.04932  -1.33126
   Z24       -1.87526  -0.00246   0.00000   0.03199   0.03199  -1.84327
   X25       -1.93695   0.00062   0.00000   0.01032   0.01032  -1.92663
   Y25        1.22138  -0.00016   0.00000  -0.00447  -0.00447   1.21691
   Z25       -3.50700  -0.00052   0.00000  -0.01359  -0.01359  -3.52059
   X26        0.26967  -0.00038   0.00000  -0.01222  -0.01222   0.25744
   Y26        1.07705  -0.00018   0.00000  -0.00320  -0.00320   1.07385
   Z26       -2.12341   0.00127   0.00000   0.02184   0.02184  -2.10157
   X27        1.15722  -0.00009   0.00000  -0.02582  -0.02582   1.13140
   Y27        2.77520  -0.00001   0.00000  -0.00475  -0.00475   2.77044
   Z27       -1.40584   0.00027   0.00000   0.04336   0.04336  -1.36248
   X28       -2.90329  -0.00022   0.00000  -0.01581  -0.01581  -2.91910
   Y28        3.81436  -0.00018   0.00000  -0.00689  -0.00689   3.80747
   Z28       -4.09043   0.00008   0.00000   0.02520   0.02520  -4.06523
   X29       -1.57208   0.00029   0.00000  -0.02075  -0.02075  -1.59283
   Y29        5.65699  -0.00069   0.00000  -0.00467  -0.00467   5.65232
   Z29       -3.86275  -0.00014   0.00000   0.02966   0.02966  -3.83309
   X30       -5.30308  -0.00041   0.00000  -0.02477  -0.02477  -5.32785
   Y30        3.90738  -0.00026   0.00000  -0.00570  -0.00570   3.90167
   Z30       -5.05045   0.00057   0.00000   0.04769   0.04769  -5.00276
   X31       -6.01223   0.00000   0.00000  -0.02149  -0.02149  -6.03372
   Y31        5.66981   0.00001   0.00000  -0.00438  -0.00438   5.66543
   Z31       -5.21166   0.00006   0.00000   0.04715   0.04715  -5.16451
   X32       -6.54398  -0.00008   0.00000  -0.02077  -0.02077  -6.56475
   Y32        2.57650   0.00002   0.00000  -0.00704  -0.00704   2.56946
   Z32       -4.48318   0.00026   0.00000   0.05009   0.05009  -4.43310
   X33        4.92257  -0.00004   0.00000  -0.02040  -0.02040   4.90217
   Y33       -7.54836  -0.00002   0.00000  -0.01264  -0.01264  -7.56099
   Z33       -0.37061   0.00002   0.00000   0.01526   0.01526  -0.35535
   X34        0.38226  -0.00007   0.00000  -0.00514  -0.00514   0.37712
   Y34        4.15776  -0.00001   0.00000   0.00772   0.00772   4.16548
   Z34        5.37496   0.00030   0.00000   0.00846   0.00846   5.38342
   X35       -3.13854  -0.00023   0.00000   0.02616   0.02616  -3.11238
   Y35        1.69766  -0.00008   0.00000  -0.00152  -0.00152   1.69614
   Z35        2.34091  -0.00037   0.00000  -0.02282  -0.02282   2.31809
   X36       -5.30604  -0.00012   0.00000   0.00701   0.00701  -5.29903
   Y36        1.62995  -0.00079   0.00000  -0.01962  -0.01962   1.61034
   Z36        0.88767  -0.00010   0.00000   0.00337   0.00337   0.89104
   X37       -9.16283  -0.00276   0.00000  -0.01680  -0.01680  -9.17963
   Y37       -0.75871   0.00187   0.00000   0.01685   0.01685  -0.74186
   Z37       -0.70701   0.00325   0.00000   0.01362   0.01362  -0.69339
   X38       -6.35330  -0.00369   0.00000  -0.02036  -0.02036  -6.37365
   Y38       -0.75328  -0.00113   0.00000  -0.02346  -0.02346  -0.77674
   Z38       -0.08575   0.00459   0.00000   0.03552   0.03552  -0.05023
   X39       -1.74710   0.00139   0.00000   0.05851   0.05851  -1.68858
   Y39       -0.15766   0.00021   0.00000   0.01324   0.01324  -0.14442
   Z39        2.90023  -0.00152   0.00000  -0.05330  -0.05330   2.84693
   X40       -2.29688   0.00074   0.00000   0.01564   0.01564  -2.28124
   Y40        4.83016   0.00069   0.00000   0.00513   0.00513   4.83530
   Z40        3.39657  -0.00025   0.00000  -0.02010  -0.02010   3.37647
   X41        0.83856  -0.00001   0.00000  -0.01654  -0.01654   0.82202
   Y41        5.91497  -0.00001   0.00000   0.00838   0.00838   5.92335
   Z41        6.34145   0.00001   0.00000   0.01184   0.01184   6.35329
   X42        2.01150   0.00001   0.00000   0.00590   0.00590   2.01740
   Y42        3.54732   0.00000   0.00000   0.00835   0.00835   3.55567
   Z42        4.28135   0.00004   0.00000   0.02416   0.02416   4.30551
   X43      -10.32120  -0.00004   0.00000  -0.03729  -0.03729 -10.35849
   Y43       -0.76914   0.00066   0.00000   0.06028   0.06028  -0.70886
   Z43        0.99675   0.00023   0.00000  -0.00491  -0.00491   0.99184
   X44       -9.69193   0.00001   0.00000   0.03182   0.03182  -9.66011
   Y44        0.92588  -0.00007   0.00000   0.00323   0.00323   0.92911
   Z44       -1.78268  -0.00012   0.00000  -0.03285  -0.03285  -1.81553
   X45       -9.66723  -0.00049   0.00000  -0.01866  -0.01866  -9.68589
   Y45       -2.41113  -0.00004   0.00000   0.00802   0.00802  -2.40311
   Z45       -1.83346   0.00057   0.00000   0.02421   0.02421  -1.80925
   X46       -5.84307  -0.00049   0.00000  -0.03650  -0.03650  -5.87958
   Y46       -2.32519  -0.00011   0.00000  -0.01992  -0.01992  -2.34511
   Z46        1.15711   0.00064   0.00000   0.04503   0.04503   1.20214
   X47       -6.32314  -0.00008   0.00000   0.01388   0.01388  -6.30926
   Y47        3.38207  -0.00004   0.00000  -0.01846  -0.01846   3.36361
   Z47        0.58406   0.00015   0.00000  -0.01347  -0.01347   0.57059
   X48       -0.08766  -0.00000   0.00000  -0.01926  -0.01926  -0.10692
   Y48        2.71750  -0.00001   0.00000   0.00646   0.00646   2.72397
   Z48        6.76502  -0.00002   0.00000   0.00203   0.00203   6.76706
         Item               Value     Threshold  Converged?
 Maximum Force            0.004639     0.000450     NO 
 RMS     Force            0.000962     0.000300     NO 
 Maximum Displacement     0.092126     0.001800     NO 
 RMS     Displacement     0.025037     0.001200     NO 
 Predicted change in Energy=-1.390836D-03
 GradGradGradGradGradGradGradGradGradGradGradGradGradGradGradGradGradGrad

 Leave Link  103 at Sat Aug 13 20:46:48 2022, MaxMem=  2684354560 cpu:               0.9 elap:               0.1
 (Enter /storage/apps/GAUSSIAN/G16_RevA03/g16/l9999.exe)

 Test job not archived.
 1\1\GINC-T059\Force\RM062X\def2TZVP\C16H24N2O5S1\LV87696\13-Aug-2022\0
 \\#P M062X/Def2TZVP scf=(direct,conver=8) EmpiricalDispersion=GD3 Forc
 e Charge Prop=(Field,Read)\\Gaussian run\\0,1\C,3.599219,-3.615673,-0.
 444516\H,3.749451,-3.711408,-1.519132\H,4.334972,-4.236874,0.066769\C,
 1.863036,-1.438786,1.241225\H,1.21497,-2.311988,1.088352\O,1.46752,-0.
 680561,2.326332\H,0.528252,-0.37496,2.17007\C,3.317973,-1.884468,1.406
 989\H,3.40195,-2.770698,2.043388\O,4.080046,-0.817547,1.913908\H,3.533
 78,-0.379948,2.582156\C,1.973768,-0.659642,-0.081147\H,2.259343,0.3762
 14,0.118658\C,3.753837,-2.169035,-0.025088\H,4.781461,-1.831137,-0.161
 79\O,2.913351,-1.336447,-0.856414\N,0.719717,-0.601068,-0.859943\C,0.1
 9544,-1.764892,-1.329118\H,0.764485,-2.656131,-1.117465\C,-0.952256,-1
 .756534,-2.06028\H,-1.348774,-2.689023,-2.43412\C,-1.5989,-0.542095,-2
 .321553\H,-2.438795,-0.516465,-3.001936\H,-2.862303,-0.678375,-0.99234
 4\C,-1.024992,0.646324,-1.855824\C,0.142702,0.569951,-1.123661\H,0.612
 373,1.468572,-0.743938\C,-1.536357,2.018471,-2.164562\O,-0.831908,2.99
 3549,-2.044079\N,-2.806269,2.067695,-2.672584\H,-3.181535,3.000335,-2.
 75789\H,-3.462925,1.363425,-2.372399\H,2.604914,-3.994418,-0.196119\C,
 0.202283,2.20019,2.844305\C,-1.660843,0.898363,1.238756\C,-2.807835,0.
 862535,0.469737\C,-4.848761,-0.401491,-0.374134\C,-3.362019,-0.398621,
 -0.045379\O,-0.924525,-0.083428,1.534734\S,-1.215456,2.556013,1.797389
 \H,0.443748,3.130069,3.355751\H,1.06444,1.87716,2.265595\H,-5.461743,-
 0.407011,0.527456\H,-5.128746,0.489956,-0.943351\H,-5.115678,-1.275915
 ,-0.970225\H,-3.09202,-1.230437,0.612317\H,-3.346062,1.789714,0.309072
 \H,-0.046388,1.438041,3.579897\\Version=ES64L-G16RevA.03\State=1-A\HF=
 -1507.9000333\RMSD=3.610e-09\RMSF=9.617e-04\Dipole=-0.15869,-2.2116469
 ,-1.5988203\Quadrupole=2.2567236,1.1082185,-3.364942,-3.7980395,9.5722
 863,4.777162\PG=C01 [X(C16H24N2O5S1)]\\@


 ERWIN WITH HIS PSI CAN DO
 CALCULATIONS QUITE A FEW.
 BUT ONE THING HAS NOT BEEN SEEN
 JUST WHAT DOES PSI REALLY MEAN.
 -- WALTER HUCKEL, TRANS. BY FELIX BLOCH
 Job cpu time:       0 days  3 hours 20 minutes 14.3 seconds.
 Elapsed time:       0 days  0 hours 12 minutes 32.7 seconds.
 File lengths (MBytes):  RWF=    435 Int=      0 D2E=      0 Chk=     48 Scr=      1
 Normal termination of Gaussian 16 at Sat Aug 13 20:46:48 2022.
