 Entering Gaussian System, Link 0=g16
 Initial command:
 /storage/apps/GAUSSIAN/G16_RevA03/g16/l1.exe "/scratch/tmp/1019261/Gau-151871.inp" -scrdir="/scratch/tmp/1019261/"
 Entering Link 1 = /storage/apps/GAUSSIAN/G16_RevA03/g16/l1.exe PID=    151872.
  
 Copyright (c) 1988,1990,1992,1993,1995,1998,2003,2009,2016,
            Gaussian, Inc.  All Rights Reserved.
  
 This is part of the Gaussian(R) 16 program.  It is based on
 the Gaussian(R) 09 system (copyright 2009, Gaussian, Inc.),
 the Gaussian(R) 03 system (copyright 2003, Gaussian, Inc.),
 the Gaussian(R) 98 system (copyright 1998, Gaussian, Inc.),
 the Gaussian(R) 94 system (copyright 1995, Gaussian, Inc.),
 the Gaussian 92(TM) system (copyright 1992, Gaussian, Inc.),
 the Gaussian 90(TM) system (copyright 1990, Gaussian, Inc.),
 the Gaussian 88(TM) system (copyright 1988, Gaussian, Inc.),
 the Gaussian 86(TM) system (copyright 1986, Carnegie Mellon
 University), and the Gaussian 82(TM) system (copyright 1983,
 Carnegie Mellon University). Gaussian is a federally registered
 trademark of Gaussian, Inc.
  
 This software contains proprietary and confidential information,
 including trade secrets, belonging to Gaussian, Inc.
  
 This software is provided under written license and may be
 used, copied, transmitted, or stored only in accord with that
 written license.
  
 The following legend is applicable only to US Government
 contracts under FAR:
  
                    RESTRICTED RIGHTS LEGEND
  
 Use, reproduction and disclosure by the US Government is
 subject to restrictions as set forth in subparagraphs (a)
 and (c) of the Commercial Computer Software - Restricted
 Rights clause in FAR 52.227-19.
  
 Gaussian, Inc.
 340 Quinnipiac St., Bldg. 40, Wallingford CT 06492
  
  
 ---------------------------------------------------------------
 Warning -- This program may not be used in any manner that
 competes with the business of Gaussian, Inc. or will provide
 assistance to any competitor of Gaussian, Inc.  The licensee
 of this program is prohibited from giving any competitor of
 Gaussian, Inc. access to this program.  By using this program,
 the user acknowledges that Gaussian, Inc. is engaged in the
 business of creating and licensing software in the field of
 computational chemistry and represents and warrants to the
 licensee that it is not a competitor of Gaussian, Inc. and that
 it will not use this program in any manner prohibited above.
 ---------------------------------------------------------------
  

 Cite this work as:
 Gaussian 16, Revision A.03,
 M. J. Frisch, G. W. Trucks, H. B. Schlegel, G. E. Scuseria, 
 M. A. Robb, J. R. Cheeseman, G. Scalmani, V. Barone, 
 G. A. Petersson, H. Nakatsuji, X. Li, M. Caricato, A. V. Marenich, 
 J. Bloino, B. G. Janesko, R. Gomperts, B. Mennucci, H. P. Hratchian, 
 J. V. Ortiz, A. F. Izmaylov, J. L. Sonnenberg, D. Williams-Young, 
 F. Ding, F. Lipparini, F. Egidi, J. Goings, B. Peng, A. Petrone, 
 T. Henderson, D. Ranasinghe, V. G. Zakrzewski, J. Gao, N. Rega, 
 G. Zheng, W. Liang, M. Hada, M. Ehara, K. Toyota, R. Fukuda, 
 J. Hasegawa, M. Ishida, T. Nakajima, Y. Honda, O. Kitao, H. Nakai, 
 T. Vreven, K. Throssell, J. A. Montgomery, Jr., J. E. Peralta, 
 F. Ogliaro, M. J. Bearpark, J. J. Heyd, E. N. Brothers, K. N. Kudin, 
 V. N. Staroverov, T. A. Keith, R. Kobayashi, J. Normand, 
 K. Raghavachari, A. P. Rendell, J. C. Burant, S. S. Iyengar, 
 J. Tomasi, M. Cossi, J. M. Millam, M. Klene, C. Adamo, R. Cammi, 
 J. W. Ochterski, R. L. Martin, K. Morokuma, O. Farkas, 
 J. B. Foresman, and D. J. Fox, Gaussian, Inc., Wallingford CT, 2016.
 
 ******************************************
 Gaussian 16:  ES64L-G16RevA.03 25-Dec-2016
                13-Aug-2022 
 ******************************************
 %NProcShared=16
 Will use up to   16 processors via shared memory.
 %mem=20GB
 ----------------------------------------------------------------------
 #P M062X/Def2TZVP scf=(direct,conver=8) EmpiricalDispersion=GD3 Force 
 Charge Prop=(Field,Read)
 ----------------------------------------------------------------------
 1/10=7,18=10,28=-2,30=1,38=1,125=101/1,3;
 2/12=2,17=6,18=5,29=2,40=1/2;
 3/5=44,7=101,11=2,25=1,30=1,71=1,74=-55,124=31/1,2,3;
 4//1;
 5/5=2,6=8,38=5/2;
 6/7=2,8=2,9=2,10=2,14=2,15=1,28=1/1,2;
 7/7=1,16=-2,29=1/1,2,3,16;
 1/10=7,18=10,28=-2,30=1/3;
 99/12=1/99;
 Leave Link    1 at Sat Aug 13 20:22:43 2022, MaxMem=  2684354560 cpu:               0.6 elap:               0.0
 (Enter /storage/apps/GAUSSIAN/G16_RevA03/g16/l101.exe)
 ------------
 Gaussian run
 ------------
 Symbolic Z-matrix:
 Charge =  0 Multiplicity = 1
 C                     3.6788   -3.62944  -0.43923 
 H                     3.8488   -3.73271  -1.51009 
 H                     4.4053   -4.24508   0.09243 
 C                     1.91504  -1.47251   1.201 
 H                     1.28234  -2.35617   1.06042 
 O                     1.48921  -0.70893   2.29072 
 H                     0.54986  -0.47429   2.17498 
 C                     3.36705  -1.89229   1.3962 
 H                     3.46415  -2.7739    2.03744 
 O                     4.11194  -0.81157   1.90793 
 H                     3.56454  -0.38711   2.58134 
 C                     2.0033   -0.691    -0.1189 
 H                     2.30633   0.33822   0.09905 
 C                     3.81694  -2.17508  -0.03419 
 H                     4.84748  -1.83655  -0.1548 
 O                     2.98212  -1.36555  -0.87652 
 N                     0.77782  -0.62167  -0.87165 
 C                     0.19078  -1.7961   -1.34166 
 H                     0.73366  -2.70091  -1.10879 
 C                    -0.92711  -1.80745  -2.05952 
 H                    -1.30949  -2.76072  -2.39848 
 C                    -1.66744  -0.55597  -2.43994 
 H                    -1.77581  -0.51296  -3.53265 
 H                    -2.69045  -0.58676  -2.04055 
 C                    -0.93819   0.66092  -1.92448 
 C                     0.1964    0.5645   -1.20974 
 H                     0.68374   1.46694  -0.85917 
 C                    -1.46278   2.02123  -2.15579 
 O                    -0.90541   3.04076  -1.79335 
 N                    -2.6852    2.07447  -2.78178 
 H                    -2.98891   2.98835  -3.07538 
 H                    -3.04875   1.28028  -3.27773 
 H                     2.67853  -4.00567  -0.21265 
 C                     0.23157   2.22575   2.71132 
 C                    -1.73203   0.92537   1.3431 
 C                    -2.99185   0.88096   0.57353 
 C                    -4.91336  -0.409    -0.365 
 C                    -3.62042  -0.27157   0.36446 
 O                    -1.11919  -0.06466   1.69609 
 S                    -1.23626   2.5616    1.73128 
 H                     0.54104   3.17616   3.13916 
 H                     1.02821   1.82619   2.08842 
 H                    -5.69714  -0.75209   0.31473 
 H                    -5.22383   0.53709  -0.80716 
 H                    -4.83543  -1.16109  -1.15323 
 H                    -3.16197  -1.174     0.76011 
 H                    -3.38262   1.82331   0.20408 
 H                    -0.00117   1.5194    3.50503 
 
 ITRead=  0  0  0  0  0  0  0  0  0  0  0  0  0  0  0  0  0  0  0  0
 ITRead=  0  0  0  0  0  0  0  0  0  0  0  0  0  0  0  0  0  0  0  0
 ITRead=  0  0  0  0  0  0  0  0
 MicOpt= -1 -1 -1 -1 -1 -1 -1 -1 -1 -1 -1 -1 -1 -1 -1 -1 -1 -1 -1 -1
 MicOpt= -1 -1 -1 -1 -1 -1 -1 -1 -1 -1 -1 -1 -1 -1 -1 -1 -1 -1 -1 -1
 MicOpt= -1 -1 -1 -1 -1 -1 -1 -1
 NAtoms=     48 NQM=       48 NQMF=       0 NMMI=      0 NMMIF=      0
                NMic=       0 NMicF=      0.
                    Isotopes and Nuclear Properties:
 (Nuclear quadrupole moments (NQMom) in fm**2, nuclear magnetic moments (NMagM)
  in nuclear magnetons)

  Atom         1           2           3           4           5           6           7           8           9          10
 IAtWgt=          12           1           1          12           1          16           1          12           1          16
 AtmWgt=  12.0000000   1.0078250   1.0078250  12.0000000   1.0078250  15.9949146   1.0078250  12.0000000   1.0078250  15.9949146
 NucSpn=           0           1           1           0           1           0           1           0           1           0
 AtZEff=  -0.0000000  -0.0000000  -0.0000000  -0.0000000  -0.0000000  -0.0000000  -0.0000000  -0.0000000  -0.0000000  -0.0000000
 NQMom=    0.0000000   0.0000000   0.0000000   0.0000000   0.0000000   0.0000000   0.0000000   0.0000000   0.0000000   0.0000000
 NMagM=    0.0000000   2.7928460   2.7928460   0.0000000   2.7928460   0.0000000   2.7928460   0.0000000   2.7928460   0.0000000
 AtZNuc=   6.0000000   1.0000000   1.0000000   6.0000000   1.0000000   8.0000000   1.0000000   6.0000000   1.0000000   8.0000000

  Atom        11          12          13          14          15          16          17          18          19          20
 IAtWgt=           1          12           1          12           1          16          14          12           1          12
 AtmWgt=   1.0078250  12.0000000   1.0078250  12.0000000   1.0078250  15.9949146  14.0030740  12.0000000   1.0078250  12.0000000
 NucSpn=           1           0           1           0           1           0           2           0           1           0
 AtZEff=  -0.0000000  -0.0000000  -0.0000000  -0.0000000  -0.0000000  -0.0000000  -0.0000000  -0.0000000  -0.0000000  -0.0000000
 NQMom=    0.0000000   0.0000000   0.0000000   0.0000000   0.0000000   0.0000000   2.0440000   0.0000000   0.0000000   0.0000000
 NMagM=    2.7928460   0.0000000   2.7928460   0.0000000   2.7928460   0.0000000   0.4037610   0.0000000   2.7928460   0.0000000
 AtZNuc=   1.0000000   6.0000000   1.0000000   6.0000000   1.0000000   8.0000000   7.0000000   6.0000000   1.0000000   6.0000000

  Atom        21          22          23          24          25          26          27          28          29          30
 IAtWgt=           1          12           1           1          12          12           1          12          16          14
 AtmWgt=   1.0078250  12.0000000   1.0078250   1.0078250  12.0000000  12.0000000   1.0078250  12.0000000  15.9949146  14.0030740
 NucSpn=           1           0           1           1           0           0           1           0           0           2
 AtZEff=  -0.0000000  -0.0000000  -0.0000000  -0.0000000  -0.0000000  -0.0000000  -0.0000000  -0.0000000  -0.0000000  -0.0000000
 NQMom=    0.0000000   0.0000000   0.0000000   0.0000000   0.0000000   0.0000000   0.0000000   0.0000000   0.0000000   2.0440000
 NMagM=    2.7928460   0.0000000   2.7928460   2.7928460   0.0000000   0.0000000   2.7928460   0.0000000   0.0000000   0.4037610
 AtZNuc=   1.0000000   6.0000000   1.0000000   1.0000000   6.0000000   6.0000000   1.0000000   6.0000000   8.0000000   7.0000000

  Atom        31          32          33          34          35          36          37          38          39          40
 IAtWgt=           1           1           1          12          12          12          12          12          16          32
 AtmWgt=   1.0078250   1.0078250   1.0078250  12.0000000  12.0000000  12.0000000  12.0000000  12.0000000  15.9949146  31.9720718
 NucSpn=           1           1           1           0           0           0           0           0           0           0
 AtZEff=  -0.0000000  -0.0000000  -0.0000000  -0.0000000  -0.0000000  -0.0000000  -0.0000000  -0.0000000  -0.0000000  -0.0000000
 NQMom=    0.0000000   0.0000000   0.0000000   0.0000000   0.0000000   0.0000000   0.0000000   0.0000000   0.0000000   0.0000000
 NMagM=    2.7928460   2.7928460   2.7928460   0.0000000   0.0000000   0.0000000   0.0000000   0.0000000   0.0000000   0.0000000
 AtZNuc=   1.0000000   1.0000000   1.0000000   6.0000000   6.0000000   6.0000000   6.0000000   6.0000000   8.0000000  16.0000000

  Atom        41          42          43          44          45          46          47          48
 IAtWgt=           1           1           1           1           1           1           1           1
 AtmWgt=   1.0078250   1.0078250   1.0078250   1.0078250   1.0078250   1.0078250   1.0078250   1.0078250
 NucSpn=           1           1           1           1           1           1           1           1
 AtZEff=  -0.0000000  -0.0000000  -0.0000000  -0.0000000  -0.0000000  -0.0000000  -0.0000000  -0.0000000
 NQMom=    0.0000000   0.0000000   0.0000000   0.0000000   0.0000000   0.0000000   0.0000000   0.0000000
 NMagM=    2.7928460   2.7928460   2.7928460   2.7928460   2.7928460   2.7928460   2.7928460   2.7928460
 AtZNuc=   1.0000000   1.0000000   1.0000000   1.0000000   1.0000000   1.0000000   1.0000000   1.0000000
 Background charge distribution read from input stream:
 Leave Link  101 at Sat Aug 13 20:22:43 2022, MaxMem=  2684354560 cpu:               1.5 elap:               0.1
 (Enter /storage/apps/GAUSSIAN/G16_RevA03/g16/l103.exe)

 GradGradGradGradGradGradGradGradGradGradGradGradGradGradGradGradGradGrad
 Berny optimization.
 Initialization pass.
 Trust Radius=3.00D-01 FncErr=1.00D-07 GrdErr=1.00D-07 EigMax=2.50D+02 EigMin=1.00D-04
 Number of steps in this run=      2 maximum allowed number of steps=      2.
 GradGradGradGradGradGradGradGradGradGradGradGradGradGradGradGradGradGrad

 Leave Link  103 at Sat Aug 13 20:22:43 2022, MaxMem=  2684354560 cpu:               0.3 elap:               0.0
 (Enter /storage/apps/GAUSSIAN/G16_RevA03/g16/l202.exe)
 ---------------------------------------------------------------------------------------------------
                            Z-MATRIX (ANGSTROMS AND DEGREES)
   CD    Cent   Atom    N1       Length/X        N2       Alpha/Y        N3        Beta/Z          J
 ---------------------------------------------------------------------------------------------------
      1      1  C        0   3.678796         -3.629438         -0.439231
      2      2  H        0   3.848803         -3.732706         -1.510088
      3      3  H        0   4.405301         -4.245081          0.092434
      4      4  C        0   1.915037         -1.472505          1.201001
      5      5  H        0   1.282337         -2.356173          1.060418
      6      6  O        0   1.489208         -0.708934          2.290723
      7      7  H        0   0.549857         -0.474290          2.174985
      8      8  C        0   3.367045         -1.892285          1.396201
      9      9  H        0   3.464146         -2.773897          2.037438
     10     10  O        0   4.111937         -0.811566          1.907929
     11     11  H        0   3.564544         -0.387114          2.581339
     12     12  C        0   2.003304         -0.691004         -0.118901
     13     13  H        0   2.306332          0.338217          0.099051
     14     14  C        0   3.816937         -2.175078         -0.034193
     15     15  H        0   4.847482         -1.836549         -0.154804
     16     16  O        0   2.982115         -1.365551         -0.876517
     17     17  N        0   0.777823         -0.621666         -0.871654
     18     18  C        0   0.190781         -1.796099         -1.341664
     19     19  H        0   0.733664         -2.700912         -1.108791
     20     20  C        0  -0.927110         -1.807454         -2.059519
     21     21  H        0  -1.309491         -2.760719         -2.398475
     22     22  C        0  -1.667442         -0.555966         -2.439943
     23     23  H        0  -1.775808         -0.512960         -3.532652
     24     24  H        0  -2.690448         -0.586762         -2.040552
     25     25  C        0  -0.938186          0.660915         -1.924484
     26     26  C        0   0.196400          0.564501         -1.209735
     27     27  H        0   0.683739          1.466940         -0.859166
     28     28  C        0  -1.462776          2.021226         -2.155789
     29     29  O        0  -0.905406          3.040761         -1.793352
     30     30  N        0  -2.685201          2.074465         -2.781778
     31     31  H        0  -2.988913          2.988348         -3.075375
     32     32  H        0  -3.048754          1.280279         -3.277725
     33     33  H        0   2.678534         -4.005667         -0.212652
     34     34  C        0   0.231565          2.225751          2.711317
     35     35  C        0  -1.732034          0.925374          1.343099
     36     36  C        0  -2.991848          0.880958          0.573529
     37     37  C        0  -4.913355         -0.408998         -0.365003
     38     38  C        0  -3.620415         -0.271569          0.364459
     39     39  O        0  -1.119187         -0.064664          1.696086
     40     40  S        0  -1.236264          2.561595          1.731279
     41     41  H        0   0.541035          3.176160          3.139160
     42     42  H        0   1.028208          1.826194          2.088424
     43     43  H        0  -5.697144         -0.752093          0.314728
     44     44  H        0  -5.223832          0.537085         -0.807160
     45     45  H        0  -4.835429         -1.161088         -1.153230
     46     46  H        0  -3.161970         -1.173998          0.760105
     47     47  H        0  -3.382616          1.823309          0.204080
     48     48  H        0  -0.001173          1.519400          3.505028
 ---------------------------------------------------------------------------------------------------
                         Z-Matrix orientation:                         
 ---------------------------------------------------------------------
 Center     Atomic      Atomic             Coordinates (Angstroms)
 Number     Number       Type             X           Y           Z
 ---------------------------------------------------------------------
      1          6           0        3.678796   -3.629438   -0.439231
      2          1           0        3.848803   -3.732706   -1.510088
      3          1           0        4.405301   -4.245081    0.092434
      4          6           0        1.915037   -1.472505    1.201001
      5          1           0        1.282337   -2.356173    1.060418
      6          8           0        1.489208   -0.708934    2.290723
      7          1           0        0.549857   -0.474290    2.174985
      8          6           0        3.367045   -1.892285    1.396201
      9          1           0        3.464146   -2.773897    2.037438
     10          8           0        4.111937   -0.811566    1.907929
     11          1           0        3.564544   -0.387114    2.581339
     12          6           0        2.003304   -0.691004   -0.118901
     13          1           0        2.306332    0.338217    0.099051
     14          6           0        3.816937   -2.175078   -0.034193
     15          1           0        4.847482   -1.836549   -0.154804
     16          8           0        2.982115   -1.365551   -0.876517
     17          7           0        0.777823   -0.621666   -0.871654
     18          6           0        0.190781   -1.796099   -1.341664
     19          1           0        0.733664   -2.700912   -1.108791
     20          6           0       -0.927110   -1.807454   -2.059519
     21          1           0       -1.309491   -2.760719   -2.398475
     22          6           0       -1.667442   -0.555966   -2.439943
     23          1           0       -1.775808   -0.512960   -3.532652
     24          1           0       -2.690448   -0.586762   -2.040552
     25          6           0       -0.938186    0.660915   -1.924484
     26          6           0        0.196400    0.564501   -1.209735
     27          1           0        0.683739    1.466940   -0.859166
     28          6           0       -1.462776    2.021226   -2.155789
     29          8           0       -0.905406    3.040761   -1.793352
     30          7           0       -2.685201    2.074465   -2.781778
     31          1           0       -2.988913    2.988348   -3.075375
     32          1           0       -3.048754    1.280279   -3.277725
     33          1           0        2.678534   -4.005667   -0.212652
     34          6           0        0.231565    2.225751    2.711317
     35          6           0       -1.732034    0.925374    1.343099
     36          6           0       -2.991848    0.880958    0.573529
     37          6           0       -4.913355   -0.408998   -0.365003
     38          6           0       -3.620415   -0.271569    0.364459
     39          8           0       -1.119187   -0.064664    1.696086
     40         16           0       -1.236264    2.561595    1.731279
     41          1           0        0.541035    3.176160    3.139160
     42          1           0        1.028208    1.826194    2.088424
     43          1           0       -5.697144   -0.752093    0.314728
     44          1           0       -5.223832    0.537085   -0.807160
     45          1           0       -4.835429   -1.161088   -1.153230
     46          1           0       -3.161970   -1.173998    0.760105
     47          1           0       -3.382616    1.823309    0.204080
     48          1           0       -0.001173    1.519400    3.505028
 ---------------------------------------------------------------------
                    Distance matrix (angstroms):
                    1          2          3          4          5
     1  C    0.000000
     2  H    1.089175   0.000000
     3  H    1.090639   1.772088   0.000000
     4  C    3.233198   4.024669   3.888125   0.000000
     5  H    3.100511   3.884468   3.775960   1.095875   0.000000
     6  O    4.558101   5.399727   5.083346   1.397092   2.066360
     7  H    5.155516   5.922844   5.781032   1.951613   2.306571
     8  C    2.546311   3.473580   2.883302   1.524023   2.161932
     9  H    2.629052   3.694891   2.614038   2.189289   2.426799
    10  O    3.692854   4.503903   3.895011   2.400616   3.333275
    11  H    4.432783   5.292784   4.667486   2.409207   3.376220
    12  C    3.397687   3.820107   4.294848   1.536449   2.164111
    13  H    4.232693   4.641224   5.041065   2.155486   3.038508
    14  C    1.516015   2.146040   2.155718   2.374139   2.766797
    15  H    2.158976   2.535659   2.461235   3.251149   3.802240
    16  O    2.408686   2.599227   3.354999   2.337985   2.760850
    17  N    4.201110   4.417815   5.217011   2.512585   2.644986
    18  C    4.042495   4.142456   5.080977   3.089161   2.697253
    19  H    3.159790   3.306014   4.160327   2.870499   2.263925
    20  C    5.211461   5.178592   6.245601   4.338315   3.862222
    21  H    5.429210   5.323719   6.408339   5.001330   4.341102
    22  C    6.483158   6.433138   7.543256   5.189477   4.918787
    23  H    7.002456   6.789240   8.079362   6.078695   5.817730
    24  H    7.238051   7.275999   8.263327   5.701114   5.341334
    25  C    6.475309   6.510829   7.529250   4.739306   4.789904
    26  C    5.505441   5.647676   6.522467   3.593710   3.855281
    27  H    5.926194   6.121899   6.883513   3.794828   4.319643
    28  C    7.830220   7.857324   8.874426   5.906252   6.086153
    29  O    8.206102   8.280253   9.211042   6.106605   6.485146
    30  N    8.861292   8.833665   9.923355   7.043132   7.080564
    31  H    9.757187   9.714785  10.818129   7.888937   7.994515
    32  H    8.798994   8.708091   9.871703   7.230216   7.127525
    33  H    1.092433   1.768439   1.769780   2.999709   2.508167
    34  C    7.489499   8.149103   8.133283   4.335001   4.982330
    35  C    7.293839   7.809233   8.121862   4.367052   4.464851
    36  C    8.115839   8.510103   9.012521   5.478141   5.383747
    37  C    9.176154   9.441063  10.087722   7.085926   6.649054
    38  C    8.074632   8.442903   8.959627   5.725668   5.372793
    39  O    6.347270   6.958089   7.111087   3.381367   3.379705
    40  S    8.197428   8.716799   8.991324   5.146441   5.565775
    41  H    8.304613   8.960428   8.904488   5.220577   5.956291
    42  H    6.571041   7.197667   7.228355   3.529221   4.314345
    43  H    9.836454  10.165585  10.691575   7.697387   7.200158
    44  H    9.836263  10.051762  10.788818   7.683399   7.361319
    45  H    8.893513   9.064020   9.821089   7.155989   6.614796
    46  H    7.366388   7.800750   8.193957   5.104850   4.608643
    47  H    8.944822   9.279068   9.873676   6.318336   6.321643
    48  H    7.457203   8.219387   8.018232   4.234607   4.758527
                    6          7          8          9         10
     6  O    0.000000
     7  H    0.975107   0.000000
     8  C    2.393065   3.248656   0.000000
     9  H    2.868555   3.714861   1.094465   0.000000
    10  O    2.652503   3.587964   1.408788   2.070543   0.000000
    11  H    2.120152   3.043199   1.925902   2.450029   0.966064
    12  C    2.463920   2.724222   2.366094   3.335011   2.927270
    13  H    2.562741   2.838111   2.789776   3.844884   2.802543
    14  C    3.601824   4.294992   1.525910   2.185109   2.391240
    15  H    4.304663   5.074766   2.144858   2.756477   2.417950
    16  O    3.562489   4.002735   2.364501   3.272144   3.055575
    17  N    3.242578   3.058708   3.669020   4.506800   4.344935
    18  C    4.007752   3.773981   4.194498   4.805137   5.186967
    19  H    4.011922   3.971752   3.723380   4.166487   4.907439
    20  C    5.096071   4.678652   5.512619   6.082943   6.490334
    21  H    5.833619   5.440723   6.084713   6.516526   7.192788
    22  C    5.689204   5.120610   6.468988   7.162357   7.236750
    23  H    6.679104   6.163387   7.255692   7.974638   8.022134
    24  H    6.020332   5.318174   7.085823   7.700168   7.868512
    25  C    5.053385   4.506507   6.006729   6.846553   6.508405
    26  C    3.942866   3.558138   4.783272   5.689218   5.190840
    27  H    3.912162   3.604493   4.855018   5.840007   4.959934
    28  C    5.994952   5.388311   7.159565   8.053007   7.457610
    29  O    6.039376   5.497370   7.263748   8.220595   7.328959
    30  N    7.134653   6.444475   8.355854   9.194886   8.747778
    31  H    7.906862   7.216581   9.176806  10.049194   9.470730
    32  H    7.453702   6.764655   8.548288   9.333015   9.085280
    33  H    4.306951   4.764735   2.743873   2.682787   4.093139
    34  C    3.220395   2.771134   5.340317   5.991675   4.992796
    35  C    3.734348   2.803234   5.826030   6.416151   6.122744
    36  C    5.055331   4.116434   6.985928   7.561802   7.423545
    37  C    6.937986   6.025155   8.594592   9.030337   9.315803
    38  C    5.478141   4.550854   7.246779   7.697500   7.903364
    39  O    2.751800   1.784053   4.853494   5.335111   5.288421
    40  S    4.293895   3.550169   6.414030   7.117237   6.325557
    41  H    4.088133   3.775645   6.059156   6.720234   5.492652
    42  H    2.584631   2.351285   4.447068   5.205500   4.061987
    43  H    7.453192   6.524013   9.199410   9.538588   9.937801
    44  H    7.497623   6.576591   9.195641   9.722927   9.815658
    45  H    7.215697   6.367889   8.620605   9.036839   9.462992
    46  H    4.918591   4.033502   6.599136   6.935176   7.372827
    47  H    5.873755   4.962638   7.796455   8.448293   8.124900
    48  H    2.942999   2.459156   5.237522   5.709173   4.990170
                   11         12         13         14         15
    11  H    0.000000
    12  C    3.133866   0.000000
    13  H    2.875927   1.094817   0.000000
    14  C    3.178290   2.344977   2.935359   0.000000
    15  H    3.351607   3.066417   3.354324   1.091408   0.000000
    16  O    3.640512   1.409634   2.076353   1.435887   2.054824
    17  N    4.443421   1.439878   2.049386   3.514348   4.307196
    18  C    5.362599   2.449821   3.332645   3.873256   4.805740
    19  H    5.194671   2.575189   3.628839   3.307240   4.310535
    20  C    6.612858   3.687789   4.440549   5.171371   6.080682
    21  H    7.361302   4.522697   5.377287   5.675656   6.617890
    22  C    7.253652   4.345095   4.799681   6.203835   7.021822
    23  H    8.118872   5.095791   5.529705   6.802988   7.551802
    24  H    7.779888   5.072959   5.513737   6.992445   7.870095
    25  C    6.455647   3.706775   3.837411   5.850406   6.545460
    26  C    5.159671   2.455833   2.493178   4.689934   5.339521
    27  H    4.855268   2.635520   2.196589   4.874608   5.361522
    28  C    7.315356   4.849620   4.703509   7.070043   7.661966
    29  O    7.132230   5.019009   4.604367   7.252595   7.718077
    30  N    8.595447   6.059770   6.019064   8.239274   8.884725
    31  H    9.291930   6.870269   6.718616   9.068040   9.654970
    32  H    8.991359   6.275939   6.400550   8.342524   9.045319
    33  H    4.656751   3.384038   4.370929   2.163068   3.068021
    34  C    4.237063   4.433582   3.832933   6.305554   6.784071
    35  C    5.595498   4.324682   4.266241   6.503908   7.291225
    36  C    6.973205   5.282241   5.347000   7.487873   8.328890
    37  C    8.975310   6.926779   7.273071   8.913275   9.866916
    38  C    7.520076   5.660016   5.963943   7.687423   8.626939
    39  O    4.777550   3.665574   3.800923   5.640304   6.493574
    40  S    5.697828   4.949481   4.489718   7.147573   7.740345
    41  H    4.706346   5.263853   4.518015   7.031177   7.383965
    42  H    3.402161   3.487030   2.793793   5.319087   5.747574
    43  H    9.541991   7.712890   8.080280   9.626233  10.610638
    44  H    9.464229   7.362975   7.587103   9.470418  10.367790
    45  H    9.225269   6.932466   7.404112   8.783158   9.757657
    46  H    7.012993   5.261748   5.711927   7.094943   8.088718
    47  H    7.668139   5.952665   5.880532   8.238776   9.014315
    48  H    4.147570   4.694324   4.280240   6.383825   6.940189
                   16         17         18         19         20
    16  O    0.000000
    17  N    2.326433   0.000000
    18  C    2.862390   1.394568   0.000000
    19  H    2.625390   2.093191   1.080573   0.000000
    20  C    4.108140   2.392470   1.328580   2.111947   0.000000
    21  H    4.762429   3.356130   2.073200   2.416887   1.081582
    22  C    4.971731   2.905713   2.489405   3.483973   1.503009
    23  H    5.515414   3.689683   3.211596   4.118214   2.136849
    24  H    5.842898   3.660115   3.201940   4.130660   2.144717
    25  C    4.535809   2.387080   2.766074   3.842176   2.472085
    26  C    3.405340   1.363578   2.364290   3.310856   2.758728
    27  H    3.647717   2.090761   3.335151   4.175619   3.841528
    28  C    5.732700   3.695154   4.238988   5.312169   3.867169
    29  O    5.947183   4.134750   4.980046   6.010157   4.855564
    30  N    6.897985   4.786463   5.032541   6.106697   4.322249
    31  H    7.710032   5.663646   6.000595   7.077620   5.318149
    32  H    7.009821   4.904005   4.868986   5.904307   3.939479
    33  H    2.739177   3.936807   3.513655   2.507583   4.609092
    34  C    5.773693   4.609106   5.709956   6.254385   6.353751
    35  C    5.691945   3.687526   4.279204   5.024080   4.437799
    36  C    6.545049   4.307767   4.578616   5.435019   4.292277
    37  C    7.969635   5.717642   5.378673   6.139618   4.551617
    38  C    6.806631   4.582035   4.445252   5.199055   3.935544
    39  O    5.013110   3.240708   3.733873   4.272025   4.144729
    40  S    6.325962   4.578751   5.519867   6.296078   5.792609
    41  H    6.535417   5.528669   6.702523   7.254114   7.349702
    42  H    4.774501   3.849256   5.058438   5.550102   5.850820
    43  H    8.782080   6.584050   6.204937   6.868740   5.431764
    44  H    8.423918   6.112833   5.920091   6.787294   5.052434
    45  H    7.825111   5.646137   5.069668   5.778220   4.063755
    46  H    6.361211   4.299962   4.005669   4.582598   3.653238
    47  H    7.200439   4.944124   5.315882   6.255875   4.933136
    48  H    6.034972   4.934201   5.875356   6.295899   6.549008
                   21         22         23         24         25
    21  H    0.000000
    22  C    2.234006   0.000000
    23  H    2.560514   1.098911   0.000000
    24  H    2.600238   1.098637   1.751678   0.000000
    25  C    3.474207   1.509408   2.160046   2.154203   0.000000
    26  C    3.838997   2.498553   3.232100   3.217072   1.344413
    27  H    4.920929   3.481244   4.137258   4.122924   2.101242
    28  C    4.790552   2.600875   2.901007   2.884798   1.476192
    29  O    5.846933   3.732991   4.051135   4.050482   2.383681
    30  N    5.041677   2.841100   2.843515   2.762530   2.405231
    31  H    6.027472   3.835651   3.733615   3.733812   3.308621
    32  H    4.486400   2.445751   2.213840   2.268220   2.582512
    33  H    4.715089   5.979027   6.562207   6.622394   6.147196
    34  C    7.304089   6.154645   7.107548   6.247291   5.030674
    35  C    5.269269   4.063243   5.083667   3.828081   3.373015
    36  C    4.992489   3.591631   4.503608   3.013049   3.241298
    37  C    4.759563   3.855247   4.459710   2.789333   4.402120
    38  C    4.378361   3.429235   4.318370   2.597742   3.647347
    39  O    4.906155   4.201035   5.288839   4.087042   3.696992
    40  S    6.737007   5.225342   6.119883   5.123818   4.131106
    41  H    8.326847   7.066295   7.968089   7.171574   5.844232
    42  H    6.829119   5.783366   6.703032   6.057987   4.618226
    43  H    5.536023   4.885200   5.498763   3.822944   5.445947
    44  H    5.360024   4.063084   4.518824   3.033533   4.430633
    45  H    4.067148   3.472455   3.929758   2.391262   4.370701
    46  H    3.990738   3.585510   4.559186   2.900148   3.939434
    47  H    5.664314   3.948877   4.690752   3.365399   3.443426
    48  H    7.408270   6.513546   7.537158   6.513185   5.576252
                   26         27         28         29         30
    26  C    0.000000
    27  H    1.083879   0.000000
    28  C    2.402068   2.568266   0.000000
    29  O    2.772445   2.423839   1.217158   0.000000
    30  N    3.613161   3.926230   1.374416   2.253527   0.000000
    31  H    4.416092   4.551334   2.027328   2.446902   1.006788
    32  H    3.914070   4.451491   2.079199   3.145886   1.004423
    33  H    5.295432   5.860599   7.566351   8.061972   8.505179
    34  C    4.258596   3.678125   5.157649   4.716883   6.221294
    35  C    3.219635   3.313491   3.676358   3.872402   4.386747
    36  C    3.666756   3.988224   3.329782   3.823626   3.574434
    37  C    5.269807   5.923749   4.584692   5.477652   4.119837
    38  C    4.212502   4.800564   4.032861   4.795722   4.034515
    39  O    3.251217   3.482193   4.393852   4.676061   5.203800
    40  S    3.832815   3.405156   3.930980   3.572407   4.764913
    41  H    5.084528   4.350679   5.778029   5.142003   6.832264
    42  H    3.627896   2.989316   4.925077   4.503579   6.129430
    43  H    6.228264   6.856953   5.632462   6.464557   5.162323
    44  H    5.435231   5.980529   4.262278   5.088199   3.564730
    45  H    5.319789   6.119985   4.744158   5.788814   4.212416
    46  H    4.263953   4.938225   4.647489   5.420002   4.829571
    47  H    4.048805   4.218143   3.048596   3.407124   3.076494
    48  H    4.814546   4.417923   5.867961   5.586144   6.858282
                   31         32         33         34         35
    31  H    0.000000
    32  H    1.721054   0.000000
    33  H    9.446237   8.374827   0.000000
    34  C    6.666246   6.893695   7.305328   0.000000
    35  C    5.035724   4.817855   6.796222   2.723733   0.000000
    36  C    4.213740   3.872319   7.526647   4.094997   1.476937
    37  C    4.753057   3.848941   8.402144   6.547965   3.849541
    38  C    4.781037   4.000067   7.345291   5.155783   2.440572
    39  O    5.965199   5.501899   5.796332   2.846265   1.216699
    40  S    5.133987   5.478778   7.888817   1.796604   1.753194
    41  H    7.149563   7.593245   8.208665   1.087244   3.668612
    42  H    6.644749   6.761301   6.482988   1.087328   2.997653
    43  H    5.728718   4.904103   9.000881   7.054132   4.426459
    44  H    4.018501   3.374462   9.134409   6.707655   4.119106
    45  H    4.931742   3.696750   8.089249   7.216636   4.496225
    46  H    5.662683   4.726559   6.563238   5.184747   2.606139
    47  H    3.502448   3.539677   8.419511   4.417069   2.197288
    48  H    7.374693   7.439803   7.178324   1.087693   2.832434
                   36         37         38         39         40
    36  C    0.000000
    37  C    2.497402   0.000000
    38  C    1.329333   1.490871   0.000000
    39  O    2.379326   4.331555   2.841159   0.000000
    40  S    2.692025   5.171056   3.947048   2.629103   0.000000
    41  H    4.932715   7.408298   6.074822   3.916853   2.349172
    42  H    4.398776   6.805700   5.383527   2.888006   2.407530
    43  H    3.170561   1.092737   2.132177   4.830983   5.734684
    44  H    2.646942   1.089482   2.144192   4.845251   5.142277
    45  H    3.248144   1.092252   2.137962   4.809491   5.927289
    46  H    2.070410   2.217756   1.086778   2.505922   4.313488
    47  H    1.084997   2.765902   2.114423   3.303579   2.735732
    48  H    4.236205   6.544111   5.115629   2.651695   2.399543
                   41         42         43         44         45
    41  H    0.000000
    42  H    1.778705   0.000000
    43  H    7.894521   7.417811   0.000000
    44  H    7.468055   7.009580   1.773312   0.000000
    45  H    8.132816   7.335831   1.750637   1.776067   0.000000
    46  H    6.188378   5.321952   2.608347   3.104094   2.541945
    47  H    5.083300   4.796470   3.464387   2.463139   3.586026
    48  H    1.781208   1.777784   6.912437   6.843689   7.228722
                   46         47         48
    46  H    0.000000
    47  H    3.056419   0.000000
    48  H    4.977914   4.735269   0.000000
 Stoichiometry    C16H24N2O5S
 Framework group  C1[X(C16H24N2O5S)]
 Deg. of freedom   138
 Full point group                 C1      NOp   1
 Largest Abelian subgroup         C1      NOp   1
 Largest concise Abelian subgroup C1      NOp   1
                         Standard orientation:                         
 ---------------------------------------------------------------------
 Center     Atomic      Atomic             Coordinates (Angstroms)
 Number     Number       Type             X           Y           Z
 ---------------------------------------------------------------------
      1          6           0        4.773081   -1.882171    0.610952
      2          1           0        4.770019   -2.836876    0.086709
      3          1           0        5.785205   -1.677907    0.962200
      4          6           0        2.554751    0.468640    0.690134
      5          1           0        2.383797   -0.156621    1.573744
      6          8           0        2.036256    1.753821    0.867155
      7          1           0        1.090727    1.693126    1.097639
      8          6           0        4.045489    0.547331    0.383289
      9          1           0        4.652680    0.655504    1.287430
     10          8           0        4.292332    1.600428   -0.519340
     11          1           0        3.746563    2.345910   -0.237077
     12          6           0        2.028986   -0.255541   -0.558789
     13          1           0        1.860964    0.481632   -1.350603
     14          6           0        4.301476   -0.782465   -0.319928
     15          1           0        5.019808   -0.624195   -1.126229
     16          8           0        3.048830   -1.163263   -0.909540
     17          7           0        0.792612   -0.970542   -0.376029
     18          6           0        0.733662   -2.022033    0.538145
     19          1           0        1.663420   -2.236770    1.045171
     20          6           0       -0.365740   -2.738976    0.744140
     21          1           0       -0.323908   -3.547898    1.460879
     22          6           0       -1.653351   -2.490985    0.009569
     23          1           0       -1.969489   -3.413922   -0.496248
     24          1           0       -2.454594   -2.253143    0.722620
     25          6           0       -1.481824   -1.366670   -0.982804
     26          6           0       -0.319085   -0.705853   -1.119945
     27          1           0       -0.244233    0.096184   -1.845154
     28          6           0       -2.604180   -0.916929   -1.829676
     29          8           0       -2.519930   -0.039019   -2.668514
     30          7           0       -3.807058   -1.531345   -1.575514
     31          1           0       -4.544306   -1.343307   -2.234854
     32          1           0       -3.850832   -2.391990   -1.059531
     33          1           0        4.117965   -1.966312    1.481098
     34          6           0       -0.324339    3.500483   -0.454853
     35          6           0       -1.688395    1.496913    0.787635
     36          6           0       -2.905583    0.706588    1.061829
     37          6           0       -4.158306   -0.920175    2.483569
     38          6           0       -2.962380   -0.113934    2.106167
     39          8           0       -0.636524    1.347629    1.380626
     40         16           0       -1.935603    2.705746   -0.457877
     41          1           0       -0.411791    4.377748   -1.091137
     42          1           0        0.436034    2.832470   -0.852185
     43          1           0       -4.556572   -0.580779    3.442876
     44          1           0       -4.943689   -0.843500    1.732392
     45          1           0       -3.891701   -1.971452    2.612993
     46          1           0       -2.076990   -0.195400    2.731094
     47          1           0       -3.745594    0.836670    0.387531
     48          1           0       -0.055986    3.799990    0.555770
 ---------------------------------------------------------------------
 Rotational constants (GHZ):           0.3254939           0.1599159           0.1374436
 Leave Link  202 at Sat Aug 13 20:22:43 2022, MaxMem=  2684354560 cpu:               0.3 elap:               0.0
 (Enter /storage/apps/GAUSSIAN/G16_RevA03/g16/l301.exe)
 Standard basis: def2TZVP (5D, 7F)
 Ernie: Thresh=  0.10000D-02 Tol=  0.10000D-05 Strict=F.
 There are  1014 symmetry adapted cartesian basis functions of A   symmetry.
 There are   894 symmetry adapted basis functions of A   symmetry.
   894 basis functions,  1434 primitive gaussians,  1014 cartesian basis functions
    95 alpha electrons       95 beta electrons
       nuclear repulsion energy      2471.0150543333 Hartrees.
 IExCor= 4336 DFT=T Ex+Corr=M062X ExCW=0 ScaHFX=  0.540000
 ScaDFX=  1.000000  1.000000  1.000000  1.000000 ScalE2=  1.000000  1.000000
 IRadAn=      5 IRanWt=     -1 IRanGd=            0 ICorTp=0 IEmpDi=131
 NAtoms=   48 NActive=   48 NUniq=   48 SFac= 1.00D+00 NAtFMM=   60 NAOKFM=F Big=F
 Integral buffers will be    131072 words long.
 Raffenetti 2 integral format.
 Two-electron integral symmetry is turned on.
 R6Disp:  Grimme-D3 Dispersion energy=       -0.0043466978 Hartrees.
 Nuclear repulsion after empirical dispersion term =     2471.0107076356 Hartrees.
 Leave Link  301 at Sat Aug 13 20:22:43 2022, MaxMem=  2684354560 cpu:               0.9 elap:               0.1
 (Enter /storage/apps/GAUSSIAN/G16_RevA03/g16/l302.exe)
 NPDir=0 NMtPBC=     1 NCelOv=     1 NCel=       1 NClECP=     1 NCelD=      1
         NCelK=      1 NCelE2=     1 NClLst=     1 CellRange=     0.0.
 One-electron integrals computed using PRISM.
 One-electron integral symmetry used in STVInt
   1 Symmetry operations used in ECPInt.
 ECPInt:  NShTT=   65703 NPrTT=  200010 LenC2=   56703 LenP2D=  120401.
 LDataN:  DoStor=T MaxTD1= 6 Len=  172
 NBasis=   894 RedAO= T EigKep=  3.17D-05  NBF=   894
 NBsUse=   894 1.00D-06 EigRej= -1.00D+00 NBFU=   894
 Precomputing XC quadrature grid using
 IXCGrd= 4 IRadAn=           5 IRanWt=          -1 IRanGd=           0 AccXCQ= 0.00D+00.
 Generated NRdTot=       0 NPtTot=           0 NUsed=           0 NTot=          32
 NSgBfM=   998   998   998   998   998 MxSgAt=    48 MxSgA2=    48.
 Leave Link  302 at Sat Aug 13 20:22:44 2022, MaxMem=  2684354560 cpu:              19.1 elap:               1.2
 (Enter /storage/apps/GAUSSIAN/G16_RevA03/g16/l303.exe)
 DipDrv:  MaxL=1.
 Leave Link  303 at Sat Aug 13 20:22:44 2022, MaxMem=  2684354560 cpu:               2.1 elap:               0.2
 (Enter /storage/apps/GAUSSIAN/G16_RevA03/g16/l401.exe)
 ExpMin= 9.52D-02 ExpMax= 6.07D+04 ExpMxC= 2.07D+03 IAcc=3 IRadAn=         5 AccDes= 0.00D+00
 Harris functional with IExCor= 1009 and IRadAn=       5 diagonalized for initial guess.
 HarFok:  IExCor= 1009 AccDes= 0.00D+00 IRadAn=         5 IDoV= 1 UseB2=F ITyADJ=14
 ICtDFT=  3500011 ScaDFX=  1.000000  1.000000  1.000000  1.000000
 FoFCou: FMM=F IPFlag=           0 FMFlag=      100000 FMFlg1=           0
         NFxFlg=           0 DoJE=T BraDBF=F KetDBF=T FulRan=T
         wScrn=  0.000000 ICntrl=       500 IOpCl=  0 I1Cent=   200000004 NGrid=           0
         NMat0=    1 NMatS0=      1 NMatT0=    0 NMatD0=    1 NMtDS0=    0 NMtDT0=    0
 Petite list used in FoFCou.
 Harris En= -1507.25844958654    
 JPrj=0 DoOrth=F DoCkMO=F.
 Leave Link  401 at Sat Aug 13 20:22:48 2022, MaxMem=  2684354560 cpu:              61.3 elap:               3.9
 (Enter /storage/apps/GAUSSIAN/G16_RevA03/g16/l502.exe)
 Integral symmetry usage will be decided dynamically.
 Closed shell SCF:
 Using DIIS extrapolation, IDIIS=  1040.
 NGot=  2684354560 LenX=  2682272944 LenY=  2681243734
 Requested convergence on RMS density matrix=1.00D-08 within 128 cycles.
 Requested convergence on MAX density matrix=1.00D-06.
 Requested convergence on             energy=1.00D-06.
 No special actions if energy rises.
 Fock matrices will be formed incrementally for  20 cycles.
 Integral accuracy reduced to 1.0D-05 until final iterations.

 Cycle   1  Pass 0  IDiag  1:
 FoFJK:  IHMeth= 1 ICntrl=       0 DoSepK=F KAlg= 0 I1Cent=           0 FoldK=F
 IRaf= 790000000 NMat=       1 IRICut=       1 DoRegI=T DoRafI=F ISym2E= 0 IDoP0=0 IntGTp=1.
 FoFCou: FMM=F IPFlag=           0 FMFlag=      100000 FMFlg1=           0
         NFxFlg=           0 DoJE=F BraDBF=F KetDBF=F FulRan=T
         wScrn=  0.000000 ICntrl=         0 IOpCl=  0 I1Cent=           0 NGrid=           0
         NMat0=    1 NMatS0=      1 NMatT0=    0 NMatD0=    1 NMtDS0=    0 NMtDT0=    0
 Symmetry not used in FoFCou.
 E= -1507.18920729472    
 DIIS: error= 1.39D-02 at cycle   1 NSaved=   1.
 NSaved= 1 IEnMin= 1 EnMin= -1507.18920729472     IErMin= 1 ErrMin= 1.39D-02
 ErrMax= 1.39D-02  0.00D+00 EMaxC= 1.00D-01 BMatC= 1.00D+00 BMatP= 1.00D+00
 IDIUse=3 WtCom= 8.61D-01 WtEn= 1.39D-01
 Coeff-Com:  0.100D+01
 Coeff-En:   0.100D+01
 Coeff:      0.100D+01
 Gap=     0.308 Goal=   None    Shift=    0.000
 GapD=    0.308 DampG=1.000 DampE=0.500 DampFc=0.5000 IDamp=-1.
 Damping current iteration by 5.00D-01
 RMSDP=4.43D-03 MaxDP=1.73D+00              OVMax= 2.66D-01

 Cycle   2  Pass 0  IDiag  1:
 RMSU=  2.21D-03    CP:  1.02D+00
 E= -1507.53429580101     Delta-E=       -0.345088506291 Rises=F Damp=T
 DIIS: error= 3.65D-03 at cycle   2 NSaved=   2.
 NSaved= 2 IEnMin= 2 EnMin= -1507.53429580101     IErMin= 2 ErrMin= 3.65D-03
 ErrMax= 3.65D-03  0.00D+00 EMaxC= 1.00D-01 BMatC= 8.61D-02 BMatP= 1.00D+00
 IDIUse=3 WtCom= 9.64D-01 WtEn= 3.65D-02
 Coeff-Com: -0.173D-01 0.102D+01
 Coeff-En:   0.138D-01 0.986D+00
 Coeff:     -0.161D-01 0.102D+01
 Gap=     0.305 Goal=   None    Shift=    0.000
 RMSDP=1.30D-03 MaxDP=4.90D-01 DE=-3.45D-01 OVMax= 1.71D-01

 Cycle   3  Pass 0  IDiag  1:
 RMSU=  1.03D-03    CP:  1.00D+00  6.44D-01
 E= -1507.89292718882     Delta-E=       -0.358631387805 Rises=F Damp=F
 DIIS: error= 5.71D-03 at cycle   3 NSaved=   3.
 NSaved= 3 IEnMin= 3 EnMin= -1507.89292718882     IErMin= 2 ErrMin= 3.65D-03
 ErrMax= 5.71D-03  0.00D+00 EMaxC= 1.00D-01 BMatC= 5.09D-02 BMatP= 8.61D-02
 IDIUse=3 WtCom= 9.43D-01 WtEn= 5.71D-02
 Coeff-Com: -0.836D-01 0.457D+00 0.627D+00
 Coeff-En:   0.000D+00 0.000D+00 0.100D+01
 Coeff:     -0.789D-01 0.431D+00 0.648D+00
 Gap=     0.214 Goal=   None    Shift=    0.000
 RMSDP=3.64D-04 MaxDP=6.43D-02 DE=-3.59D-01 OVMax= 6.89D-02

 Cycle   4  Pass 0  IDiag  1:
 RMSU=  3.06D-04    CP:  1.01D+00  7.24D-01  9.16D-01
 E= -1507.92508285641     Delta-E=       -0.032155667598 Rises=F Damp=F
 DIIS: error= 2.10D-03 at cycle   4 NSaved=   4.
 NSaved= 4 IEnMin= 4 EnMin= -1507.92508285641     IErMin= 4 ErrMin= 2.10D-03
 ErrMax= 2.10D-03  0.00D+00 EMaxC= 1.00D-01 BMatC= 1.09D-02 BMatP= 5.09D-02
 IDIUse=3 WtCom= 9.79D-01 WtEn= 2.10D-02
 Coeff-Com: -0.357D-01 0.963D-01 0.354D+00 0.585D+00
 Coeff-En:   0.000D+00 0.000D+00 0.153D+00 0.847D+00
 Coeff:     -0.349D-01 0.943D-01 0.350D+00 0.591D+00
 Gap=     0.213 Goal=   None    Shift=    0.000
 RMSDP=1.25D-04 MaxDP=1.48D-02 DE=-3.22D-02 OVMax= 1.88D-02

 Cycle   5  Pass 0  IDiag  1:
 RMSU=  7.93D-05    CP:  1.01D+00  7.09D-01  9.44D-01  7.17D-01
 E= -1507.93314833829     Delta-E=       -0.008065481875 Rises=F Damp=F
 DIIS: error= 4.01D-04 at cycle   5 NSaved=   5.
 NSaved= 5 IEnMin= 5 EnMin= -1507.93314833829     IErMin= 5 ErrMin= 4.01D-04
 ErrMax= 4.01D-04  0.00D+00 EMaxC= 1.00D-01 BMatC= 3.93D-04 BMatP= 1.09D-02
 IDIUse=3 WtCom= 9.96D-01 WtEn= 4.01D-03
 Coeff-Com: -0.979D-02 0.167D-01 0.122D+00 0.260D+00 0.611D+00
 Coeff-En:   0.000D+00 0.000D+00 0.000D+00 0.000D+00 0.100D+01
 Coeff:     -0.975D-02 0.166D-01 0.121D+00 0.259D+00 0.613D+00
 Gap=     0.212 Goal=   None    Shift=    0.000
 RMSDP=5.00D-05 MaxDP=1.80D-02 DE=-8.07D-03 OVMax= 3.91D-03

 Cycle   6  Pass 0  IDiag  1:
 RMSU=  3.14D-05    CP:  1.01D+00  6.94D-01  9.56D-01  7.35D-01  8.86D-01
 E= -1507.93346067262     Delta-E=       -0.000312334329 Rises=F Damp=F
 DIIS: error= 1.75D-04 at cycle   6 NSaved=   6.
 NSaved= 6 IEnMin= 6 EnMin= -1507.93346067262     IErMin= 6 ErrMin= 1.75D-04
 ErrMax= 1.75D-04  0.00D+00 EMaxC= 1.00D-01 BMatC= 5.12D-05 BMatP= 3.93D-04
 IDIUse=3 WtCom= 9.98D-01 WtEn= 1.75D-03
 Coeff-Com:  0.347D-03-0.453D-02 0.125D-01 0.412D-01 0.274D+00 0.677D+00
 Coeff-En:   0.000D+00 0.000D+00 0.000D+00 0.000D+00 0.000D+00 0.100D+01
 Coeff:      0.346D-03-0.452D-02 0.125D-01 0.411D-01 0.273D+00 0.677D+00
 Gap=     0.213 Goal=   None    Shift=    0.000
 RMSDP=1.83D-05 MaxDP=2.81D-03 DE=-3.12D-04 OVMax= 3.18D-03

 Cycle   7  Pass 0  IDiag  1:
 RMSU=  1.58D-05    CP:  1.01D+00  6.91D-01  9.61D-01  7.39D-01  9.52D-01
                    CP:  1.02D+00
 E= -1507.93352109446     Delta-E=       -0.000060421841 Rises=F Damp=F
 DIIS: error= 6.37D-05 at cycle   7 NSaved=   7.
 NSaved= 7 IEnMin= 7 EnMin= -1507.93352109446     IErMin= 7 ErrMin= 6.37D-05
 ErrMax= 6.37D-05  0.00D+00 EMaxC= 1.00D-01 BMatC= 8.72D-06 BMatP= 5.12D-05
 IDIUse=1 WtCom= 1.00D+00 WtEn= 0.00D+00
 Coeff-Com:  0.178D-02-0.483D-02-0.123D-01-0.246D-01 0.118D-01 0.288D+00
 Coeff-Com:  0.740D+00
 Coeff:      0.178D-02-0.483D-02-0.123D-01-0.246D-01 0.118D-01 0.288D+00
 Coeff:      0.740D+00
 Gap=     0.213 Goal=   None    Shift=    0.000
 RMSDP=1.76D-05 MaxDP=6.17D-03 DE=-6.04D-05 OVMax= 2.07D-03

 Cycle   8  Pass 0  IDiag  1:
 RMSU=  9.88D-06    CP:  1.00D+00  6.86D-01  9.62D-01  7.43D-01  1.01D+00
                    CP:  1.22D+00  1.24D+00
 E= -1507.93352915238     Delta-E=       -0.000008057917 Rises=F Damp=F
 DIIS: error= 3.09D-05 at cycle   8 NSaved=   8.
 NSaved= 8 IEnMin= 8 EnMin= -1507.93352915238     IErMin= 8 ErrMin= 3.09D-05
 ErrMax= 3.09D-05  0.00D+00 EMaxC= 1.00D-01 BMatC= 1.94D-06 BMatP= 8.72D-06
 IDIUse=1 WtCom= 1.00D+00 WtEn= 0.00D+00
 Coeff-Com:  0.887D-03-0.160D-02-0.807D-02-0.218D-01-0.471D-01 0.861D-02
 Coeff-Com:  0.358D+00 0.711D+00
 Coeff:      0.887D-03-0.160D-02-0.807D-02-0.218D-01-0.471D-01 0.861D-02
 Coeff:      0.358D+00 0.711D+00
 Gap=     0.213 Goal=   None    Shift=    0.000
 RMSDP=1.42D-05 MaxDP=2.76D-03 DE=-8.06D-06 OVMax= 7.06D-04

 Cycle   9  Pass 0  IDiag  1:
 RMSU=  7.90D-06    CP:  1.00D+00  6.84D-01  9.62D-01  7.43D-01  1.03D+00
                    CP:  1.35D+00  1.63D+00  1.76D+00
 E= -1507.93352003820     Delta-E=        0.000009114174 Rises=F Damp=F
 DIIS: error= 2.24D-05 at cycle   9 NSaved=   9.
 NSaved= 9 IEnMin= 8 EnMin= -1507.93352915238     IErMin= 9 ErrMin= 2.24D-05
 ErrMax= 2.24D-05  0.00D+00 EMaxC= 1.00D-01 BMatC= 3.38D-07 BMatP= 1.94D-06
 IDIUse=1 WtCom= 1.00D+00 WtEn= 0.00D+00
 Coeff-Com:  0.207D-03-0.246D-03-0.188D-02-0.713D-02-0.202D-01-0.253D-01
 Coeff-Com:  0.807D-01 0.308D+00 0.665D+00
 Coeff:      0.207D-03-0.246D-03-0.188D-02-0.713D-02-0.202D-01-0.253D-01
 Coeff:      0.807D-01 0.308D+00 0.665D+00
 Gap=     0.213 Goal=   None    Shift=    0.000
 RMSDP=1.65D-05 MaxDP=2.23D-03 DE= 9.11D-06 OVMax= 2.35D-04

 Cycle  10  Pass 0  IDiag  1:
 RMSU=  6.14D-06    CP:  1.00D+00  6.82D-01  9.63D-01  7.44D-01  1.06D+00
                    CP:  1.45D+00  1.98D+00  2.67D+00  2.26D+00
 E= -1507.93350601817     Delta-E=        0.000014020027 Rises=F Damp=F
 DIIS: error= 3.59D-05 at cycle  10 NSaved=  10.
 NSaved=10 IEnMin= 8 EnMin= -1507.93352915238     IErMin= 9 ErrMin= 2.24D-05
 ErrMax= 3.59D-05  0.00D+00 EMaxC= 1.00D-01 BMatC= 4.92D-07 BMatP= 3.38D-07
 IDIUse=1 WtCom= 1.00D+00 WtEn= 0.00D+00
 Coeff-Com:  0.224D-03-0.237D-03-0.210D-02-0.813D-02-0.238D-01-0.324D-01
 Coeff-Com:  0.879D-01 0.364D+00 0.842D+00-0.228D+00
 Coeff:      0.224D-03-0.237D-03-0.210D-02-0.813D-02-0.238D-01-0.324D-01
 Coeff:      0.879D-01 0.364D+00 0.842D+00-0.228D+00
 Gap=     0.213 Goal=   None    Shift=    0.000
 RMSDP=8.19D-06 MaxDP=7.85D-04 DE= 1.40D-05 OVMax= 2.08D-05

 Initial convergence to 1.0D-05 achieved.  Increase integral accuracy.
 Cycle  11  Pass 1  IDiag  1:
 E= -1507.93355006721     Delta-E=       -0.000044049033 Rises=F Damp=F
 DIIS: error= 2.75D-04 at cycle   1 NSaved=   1.
 NSaved= 1 IEnMin= 1 EnMin= -1507.93355006721     IErMin= 1 ErrMin= 2.75D-04
 ErrMax= 2.75D-04  0.00D+00 EMaxC= 1.00D-01 BMatC= 8.64D-05 BMatP= 8.64D-05
 IDIUse=3 WtCom= 9.97D-01 WtEn= 2.75D-03
 Coeff-Com:  0.100D+01
 Coeff-En:   0.100D+01
 Coeff:      0.100D+01
 Gap=     0.213 Goal=   None    Shift=    0.000
 RMSDP=8.19D-06 MaxDP=7.85D-04 DE=-4.40D-05 OVMax= 1.01D-03

 Cycle  12  Pass 1  IDiag  1:
 RMSU=  4.01D-04    CP:  9.95D-01
 E= -1507.93360408965     Delta-E=       -0.000054022444 Rises=F Damp=F
 DIIS: error= 7.78D-06 at cycle   2 NSaved=   2.
 NSaved= 2 IEnMin= 2 EnMin= -1507.93360408965     IErMin= 2 ErrMin= 7.78D-06
 ErrMax= 7.78D-06  0.00D+00 EMaxC= 1.00D-01 BMatC= 1.36D-07 BMatP= 8.64D-05
 IDIUse=1 WtCom= 1.00D+00 WtEn= 0.00D+00
 Coeff-Com: -0.152D-01 0.102D+01
 Coeff:     -0.152D-01 0.102D+01
 Gap=     0.213 Goal=   None    Shift=    0.000
 RMSDP=1.48D-05 MaxDP=1.04D-03 DE=-5.40D-05 OVMax= 1.43D-04

 Cycle  13  Pass 1  IDiag  1:
 RMSU=  5.05D-06    CP:  9.95D-01  1.03D+00
 E= -1507.93360407860     Delta-E=        0.000000011049 Rises=F Damp=F
 DIIS: error= 8.17D-06 at cycle   3 NSaved=   3.
 NSaved= 3 IEnMin= 2 EnMin= -1507.93360408965     IErMin= 2 ErrMin= 7.78D-06
 ErrMax= 8.17D-06  0.00D+00 EMaxC= 1.00D-01 BMatC= 1.97D-07 BMatP= 1.36D-07
 IDIUse=1 WtCom= 1.00D+00 WtEn= 0.00D+00
 Coeff-Com: -0.987D-02 0.580D+00 0.430D+00
 Coeff:     -0.987D-02 0.580D+00 0.430D+00
 Gap=     0.213 Goal=   None    Shift=    0.000
 RMSDP=8.36D-07 MaxDP=2.65D-04 DE= 1.10D-08 OVMax= 1.00D-04

 Cycle  14  Pass 1  IDiag  1:
 RMSU=  7.89D-07    CP:  9.95D-01  1.04D+00  9.81D-01
 E= -1507.93360423941     Delta-E=       -0.000000160812 Rises=F Damp=F
 DIIS: error= 1.47D-06 at cycle   4 NSaved=   4.
 NSaved= 4 IEnMin= 4 EnMin= -1507.93360423941     IErMin= 4 ErrMin= 1.47D-06
 ErrMax= 1.47D-06  0.00D+00 EMaxC= 1.00D-01 BMatC= 3.83D-09 BMatP= 1.36D-07
 IDIUse=1 WtCom= 1.00D+00 WtEn= 0.00D+00
 Coeff-Com: -0.105D-02 0.500D-01 0.123D+00 0.828D+00
 Coeff:     -0.105D-02 0.500D-01 0.123D+00 0.828D+00
 Gap=     0.213 Goal=   None    Shift=    0.000
 RMSDP=3.22D-07 MaxDP=1.95D-05 DE=-1.61D-07 OVMax= 1.86D-05

 Cycle  15  Pass 1  IDiag  1:
 RMSU=  1.48D-07    CP:  9.95D-01  1.04D+00  1.02D+00  9.91D-01
 E= -1507.93360424231     Delta-E=       -0.000000002899 Rises=F Damp=F
 DIIS: error= 6.67D-07 at cycle   5 NSaved=   5.
 NSaved= 5 IEnMin= 5 EnMin= -1507.93360424231     IErMin= 5 ErrMin= 6.67D-07
 ErrMax= 6.67D-07  0.00D+00 EMaxC= 1.00D-01 BMatC= 1.23D-09 BMatP= 3.83D-09
 IDIUse=1 WtCom= 1.00D+00 WtEn= 0.00D+00
 Coeff-Com:  0.546D-03-0.385D-01 0.184D-01 0.446D+00 0.574D+00
 Coeff:      0.546D-03-0.385D-01 0.184D-01 0.446D+00 0.574D+00
 Gap=     0.213 Goal=   None    Shift=    0.000
 RMSDP=8.51D-08 MaxDP=1.42D-05 DE=-2.90D-09 OVMax= 8.20D-06

 Cycle  16  Pass 1  IDiag  1:
 RMSU=  5.33D-08    CP:  9.95D-01  1.04D+00  1.02D+00  1.03D+00  1.03D+00
 E= -1507.93360424334     Delta-E=       -0.000000001029 Rises=F Damp=F
 DIIS: error= 1.80D-07 at cycle   6 NSaved=   6.
 NSaved= 6 IEnMin= 6 EnMin= -1507.93360424334     IErMin= 6 ErrMin= 1.80D-07
 ErrMax= 1.80D-07  0.00D+00 EMaxC= 1.00D-01 BMatC= 4.22D-11 BMatP= 1.23D-09
 IDIUse=1 WtCom= 1.00D+00 WtEn= 0.00D+00
 Coeff-Com:  0.249D-03-0.157D-01-0.289D-02 0.789D-01 0.177D+00 0.763D+00
 Coeff:      0.249D-03-0.157D-01-0.289D-02 0.789D-01 0.177D+00 0.763D+00
 Gap=     0.213 Goal=   None    Shift=    0.000
 RMSDP=1.90D-08 MaxDP=3.48D-06 DE=-1.03D-09 OVMax= 3.69D-06

 Cycle  17  Pass 1  IDiag  1:
 RMSU=  1.44D-08    CP:  9.95D-01  1.04D+00  1.02D+00  1.04D+00  1.09D+00
                    CP:  1.07D+00
 E= -1507.93360424341     Delta-E=       -0.000000000067 Rises=F Damp=F
 DIIS: error= 8.43D-08 at cycle   7 NSaved=   7.
 NSaved= 7 IEnMin= 7 EnMin= -1507.93360424341     IErMin= 7 ErrMin= 8.43D-08
 ErrMax= 8.43D-08  0.00D+00 EMaxC= 1.00D-01 BMatC= 1.48D-11 BMatP= 4.22D-11
 IDIUse=1 WtCom= 1.00D+00 WtEn= 0.00D+00
 Coeff-Com:  0.124D-04 0.778D-04-0.519D-02-0.569D-01-0.350D-01 0.374D+00
 Coeff-Com:  0.723D+00
 Coeff:      0.124D-04 0.778D-04-0.519D-02-0.569D-01-0.350D-01 0.374D+00
 Coeff:      0.723D+00
 Gap=     0.213 Goal=   None    Shift=    0.000
 RMSDP=1.06D-08 MaxDP=2.46D-06 DE=-6.73D-11 OVMax= 1.94D-06

 Cycle  18  Pass 1  IDiag  1:
 RMSU=  6.62D-09    CP:  9.95D-01  1.04D+00  1.02D+00  1.05D+00  1.11D+00
                    CP:  1.16D+00  1.08D+00
 E= -1507.93360424346     Delta-E=       -0.000000000050 Rises=F Damp=F
 DIIS: error= 4.24D-08 at cycle   8 NSaved=   8.
 NSaved= 8 IEnMin= 8 EnMin= -1507.93360424346     IErMin= 8 ErrMin= 4.24D-08
 ErrMax= 4.24D-08  0.00D+00 EMaxC= 1.00D-01 BMatC= 2.21D-12 BMatP= 1.48D-11
 IDIUse=1 WtCom= 1.00D+00 WtEn= 0.00D+00
 Coeff-Com: -0.272D-04 0.216D-02-0.189D-02-0.384D-01-0.404D-01 0.840D-01
 Coeff-Com:  0.354D+00 0.640D+00
 Coeff:     -0.272D-04 0.216D-02-0.189D-02-0.384D-01-0.404D-01 0.840D-01
 Coeff:      0.354D+00 0.640D+00
 Gap=     0.213 Goal=   None    Shift=    0.000
 RMSDP=4.13D-09 MaxDP=1.22D-06 DE=-5.05D-11 OVMax= 7.48D-07

 Cycle  19  Pass 1  IDiag  1:
 RMSU=  2.91D-09    CP:  9.95D-01  1.04D+00  1.02D+00  1.05D+00  1.12D+00
                    CP:  1.18D+00  1.14D+00  1.17D+00
 E= -1507.93360424345     Delta-E=        0.000000000015 Rises=F Damp=F
 DIIS: error= 1.31D-08 at cycle   9 NSaved=   9.
 NSaved= 9 IEnMin= 8 EnMin= -1507.93360424346     IErMin= 9 ErrMin= 1.31D-08
 ErrMax= 1.31D-08  0.00D+00 EMaxC= 1.00D-01 BMatC= 3.15D-13 BMatP= 2.21D-12
 IDIUse=1 WtCom= 1.00D+00 WtEn= 0.00D+00
 Coeff-Com: -0.160D-04 0.107D-02 0.392D-04-0.911D-02-0.139D-01-0.267D-01
 Coeff-Com:  0.403D-01 0.286D+00 0.722D+00
 Coeff:     -0.160D-04 0.107D-02 0.392D-04-0.911D-02-0.139D-01-0.267D-01
 Coeff:      0.403D-01 0.286D+00 0.722D+00
 Gap=     0.213 Goal=   None    Shift=    0.000
 RMSDP=1.60D-09 MaxDP=1.90D-07 DE= 1.50D-11 OVMax= 2.93D-07

 SCF Done:  E(RM062X) =  -1507.93360424     A.U. after   19 cycles
            NFock= 19  Conv=0.16D-08     -V/T= 2.0037
 KE= 1.502332879345D+03 PE=-8.480627652747D+03 EE= 2.999350461523D+03
 Leave Link  502 at Sat Aug 13 20:31:50 2022, MaxMem=  2684354560 cpu:            8658.5 elap:             542.0
 (Enter /storage/apps/GAUSSIAN/G16_RevA03/g16/l601.exe)
 Copying SCF densities to generalized density rwf, IOpCl= 0 IROHF=0.

 **********************************************************************

            Population analysis using the SCF density.

 **********************************************************************

 Orbital symmetries:
       Occupied  (A) (A) (A) (A) (A) (A) (A) (A) (A) (A) (A) (A)
                 (A) (A) (A) (A) (A) (A) (A) (A) (A) (A) (A) (A)
                 (A) (A) (A) (A) (A) (A) (A) (A) (A) (A) (A) (A)
                 (A) (A) (A) (A) (A) (A) (A) (A) (A) (A) (A) (A)
                 (A) (A) (A) (A) (A) (A) (A) (A) (A) (A) (A) (A)
                 (A) (A) (A) (A) (A) (A) (A) (A) (A) (A) (A) (A)
                 (A) (A) (A) (A) (A) (A) (A) (A) (A) (A) (A) (A)
                 (A) (A) (A) (A) (A) (A) (A) (A) (A) (A) (A)
       Virtual   (A) (A) (A) (A) (A) (A) (A) (A) (A) (A) (A) (A)
                 (A) (A) (A) (A) (A) (A) (A) (A) (A) (A) (A) (A)
                 (A) (A) (A) (A) (A) (A) (A) (A) (A) (A) (A) (A)
                 (A) (A) (A) (A) (A) (A) (A) (A) (A) (A) (A) (A)
                 (A) (A) (A) (A) (A) (A) (A) (A) (A) (A) (A) (A)
                 (A) (A) (A) (A) (A) (A) (A) (A) (A) (A) (A) (A)
                 (A) (A) (A) (A) (A) (A) (A) (A) (A) (A) (A) (A)
                 (A) (A) (A) (A) (A) (A) (A) (A) (A) (A) (A) (A)
                 (A) (A) (A) (A) (A) (A) (A) (A) (A) (A) (A) (A)
                 (A) (A) (A) (A) (A) (A) (A) (A) (A) (A) (A) (A)
                 (A) (A) (A) (A) (A) (A) (A) (A) (A) (A) (A) (A)
                 (A) (A) (A) (A) (A) (A) (A) (A) (A) (A) (A) (A)
                 (A) (A) (A) (A) (A) (A) (A) (A) (A) (A) (A) (A)
                 (A) (A) (A) (A) (A) (A) (A) (A) (A) (A) (A) (A)
                 (A) (A) (A) (A) (A) (A) (A) (A) (A) (A) (A) (A)
                 (A) (A) (A) (A) (A) (A) (A) (A) (A) (A) (A) (A)
                 (A) (A) (A) (A) (A) (A) (A) (A) (A) (A) (A) (A)
                 (A) (A) (A) (A) (A) (A) (A) (A) (A) (A) (A) (A)
                 (A) (A) (A) (A) (A) (A) (A) (A) (A) (A) (A) (A)
                 (A) (A) (A) (A) (A) (A) (A) (A) (A) (A) (A) (A)
                 (A) (A) (A) (A) (A) (A) (A) (A) (A) (A) (A) (A)
                 (A) (A) (A) (A) (A) (A) (A) (A) (A) (A) (A) (A)
                 (A) (A) (A) (A) (A) (A) (A) (A) (A) (A) (A) (A)
                 (A) (A) (A) (A) (A) (A) (A) (A) (A) (A) (A) (A)
                 (A) (A) (A) (A) (A) (A) (A) (A) (A) (A) (A) (A)
                 (A) (A) (A) (A) (A) (A) (A) (A) (A) (A) (A) (A)
                 (A) (A) (A) (A) (A) (A) (A) (A) (A) (A) (A) (A)
                 (A) (A) (A) (A) (A) (A) (A) (A) (A) (A) (A) (A)
                 (A) (A) (A) (A) (A) (A) (A) (A) (A) (A) (A) (A)
                 (A) (A) (A) (A) (A) (A) (A) (A) (A) (A) (A) (A)
                 (A) (A) (A) (A) (A) (A) (A) (A) (A) (A) (A) (A)
                 (A) (A) (A) (A) (A) (A) (A) (A) (A) (A) (A) (A)
                 (A) (A) (A) (A) (A) (A) (A) (A) (A) (A) (A) (A)
                 (A) (A) (A) (A) (A) (A) (A) (A) (A) (A) (A) (A)
                 (A) (A) (A) (A) (A) (A) (A) (A) (A) (A) (A) (A)
                 (A) (A) (A) (A) (A) (A) (A) (A) (A) (A) (A) (A)
                 (A) (A) (A) (A) (A) (A) (A) (A) (A) (A) (A) (A)
                 (A) (A) (A) (A) (A) (A) (A) (A) (A) (A) (A) (A)
                 (A) (A) (A) (A) (A) (A) (A) (A) (A) (A) (A) (A)
                 (A) (A) (A) (A) (A) (A) (A) (A) (A) (A) (A) (A)
                 (A) (A) (A) (A) (A) (A) (A) (A) (A) (A) (A) (A)
                 (A) (A) (A) (A) (A) (A) (A) (A) (A) (A) (A) (A)
                 (A) (A) (A) (A) (A) (A) (A) (A) (A) (A) (A) (A)
                 (A) (A) (A) (A) (A) (A) (A) (A) (A) (A) (A) (A)
                 (A) (A) (A) (A) (A) (A) (A) (A) (A) (A) (A) (A)
                 (A) (A) (A) (A) (A) (A) (A) (A) (A) (A) (A) (A)
                 (A) (A) (A) (A) (A) (A) (A) (A) (A) (A) (A) (A)
                 (A) (A) (A) (A) (A) (A) (A) (A) (A) (A) (A) (A)
                 (A) (A) (A) (A) (A) (A) (A) (A) (A) (A) (A) (A)
                 (A) (A) (A) (A) (A) (A) (A) (A) (A) (A) (A) (A)
                 (A) (A) (A) (A) (A) (A) (A) (A) (A) (A) (A) (A)
                 (A) (A) (A) (A) (A) (A) (A) (A) (A) (A) (A) (A)
                 (A) (A) (A) (A) (A) (A) (A) (A) (A) (A) (A) (A)
                 (A) (A) (A) (A) (A) (A) (A) (A) (A) (A) (A) (A)
                 (A) (A) (A) (A) (A) (A) (A) (A) (A) (A) (A) (A)
                 (A) (A) (A) (A) (A) (A) (A) (A) (A) (A) (A) (A)
                 (A) (A) (A) (A) (A) (A) (A) (A) (A) (A) (A) (A)
                 (A) (A) (A) (A) (A) (A) (A) (A) (A) (A) (A) (A)
                 (A) (A) (A) (A) (A) (A) (A) (A) (A) (A) (A) (A)
                 (A) (A) (A) (A) (A) (A) (A) (A) (A) (A) (A) (A)
                 (A) (A) (A) (A) (A) (A) (A) (A) (A) (A) (A) (A)
                 (A) (A) (A) (A) (A) (A) (A) (A) (A) (A) (A) (A)
                 (A) (A) (A) (A) (A) (A) (A) (A) (A) (A) (A) (A)
                 (A) (A) (A) (A) (A) (A) (A) (A) (A) (A) (A) (A)
                 (A) (A) (A) (A) (A) (A) (A) (A) (A) (A) (A) (A)
                 (A) (A) (A) (A) (A) (A) (A) (A) (A) (A) (A) (A)
                 (A) (A) (A) (A) (A) (A) (A)
 The electronic state is 1-A.
 Alpha  occ. eigenvalues --  -89.91828 -19.63353 -19.63330 -19.62759 -19.62287
 Alpha  occ. eigenvalues --  -19.57746 -14.79014 -14.76068 -10.66017 -10.63434
 Alpha  occ. eigenvalues --  -10.62911 -10.59498 -10.59123 -10.59057 -10.58379
 Alpha  occ. eigenvalues --  -10.57601 -10.56819 -10.56743 -10.55299 -10.55246
 Alpha  occ. eigenvalues --  -10.55004 -10.53851 -10.53423 -10.53263  -8.27761
 Alpha  occ. eigenvalues --   -6.19698  -6.19462  -6.19269  -1.19250  -1.18648
 Alpha  occ. eigenvalues --   -1.15923  -1.15048  -1.13792  -1.08375  -1.00682
 Alpha  occ. eigenvalues --   -0.92600  -0.91827  -0.90055  -0.88525  -0.87521
 Alpha  occ. eigenvalues --   -0.85607  -0.82754  -0.78885  -0.76484  -0.75532
 Alpha  occ. eigenvalues --   -0.73461  -0.70785  -0.67677  -0.67263  -0.66359
 Alpha  occ. eigenvalues --   -0.63425  -0.63210  -0.61661  -0.60445  -0.58742
 Alpha  occ. eigenvalues --   -0.58119  -0.57009  -0.56541  -0.56009  -0.54967
 Alpha  occ. eigenvalues --   -0.53878  -0.52971  -0.52398  -0.51644  -0.51205
 Alpha  occ. eigenvalues --   -0.50578  -0.50388  -0.49923  -0.49294  -0.48878
 Alpha  occ. eigenvalues --   -0.48390  -0.48119  -0.47847  -0.47160  -0.46559
 Alpha  occ. eigenvalues --   -0.45898  -0.44743  -0.44289  -0.43849  -0.43637
 Alpha  occ. eigenvalues --   -0.43421  -0.43213  -0.41358  -0.41261  -0.37819
 Alpha  occ. eigenvalues --   -0.36197  -0.35649  -0.34391  -0.34337  -0.33771
 Alpha  occ. eigenvalues --   -0.33455  -0.32933  -0.32512  -0.30753  -0.24398
 Alpha virt. eigenvalues --   -0.03082   0.00308   0.04411   0.04748   0.06060
 Alpha virt. eigenvalues --    0.07199   0.07421   0.08101   0.08583   0.09166
 Alpha virt. eigenvalues --    0.09256   0.09601   0.10378   0.10824   0.11244
 Alpha virt. eigenvalues --    0.11731   0.12203   0.12596   0.12972   0.13014
 Alpha virt. eigenvalues --    0.13634   0.13879   0.13930   0.14164   0.14735
 Alpha virt. eigenvalues --    0.15288   0.16038   0.16295   0.17108   0.17281
 Alpha virt. eigenvalues --    0.17922   0.18275   0.18715   0.18945   0.19557
 Alpha virt. eigenvalues --    0.20330   0.20613   0.21198   0.21763   0.22375
 Alpha virt. eigenvalues --    0.22961   0.23313   0.23506   0.24256   0.24816
 Alpha virt. eigenvalues --    0.24992   0.25568   0.25823   0.26275   0.26898
 Alpha virt. eigenvalues --    0.27307   0.27565   0.28140   0.28825   0.28970
 Alpha virt. eigenvalues --    0.29319   0.30151   0.30204   0.30702   0.31099
 Alpha virt. eigenvalues --    0.31510   0.31941   0.32953   0.33307   0.33794
 Alpha virt. eigenvalues --    0.34198   0.34997   0.35216   0.35541   0.36103
 Alpha virt. eigenvalues --    0.36573   0.37078   0.37350   0.37731   0.38394
 Alpha virt. eigenvalues --    0.38457   0.39113   0.39946   0.40154   0.40228
 Alpha virt. eigenvalues --    0.40825   0.41096   0.41626   0.41859   0.42522
 Alpha virt. eigenvalues --    0.42636   0.42990   0.43576   0.43843   0.44115
 Alpha virt. eigenvalues --    0.44478   0.44846   0.45215   0.45471   0.45909
 Alpha virt. eigenvalues --    0.46636   0.46804   0.47296   0.47515   0.47657
 Alpha virt. eigenvalues --    0.47768   0.47998   0.48713   0.49198   0.49301
 Alpha virt. eigenvalues --    0.50123   0.50384   0.50680   0.50865   0.51329
 Alpha virt. eigenvalues --    0.51870   0.51957   0.52344   0.52521   0.52754
 Alpha virt. eigenvalues --    0.53159   0.53473   0.54297   0.54573   0.55007
 Alpha virt. eigenvalues --    0.55360   0.55616   0.56277   0.56931   0.57735
 Alpha virt. eigenvalues --    0.58016   0.58485   0.58651   0.59231   0.59902
 Alpha virt. eigenvalues --    0.60523   0.61262   0.61739   0.62173   0.62488
 Alpha virt. eigenvalues --    0.62926   0.63643   0.64710   0.65245   0.65645
 Alpha virt. eigenvalues --    0.65966   0.66094   0.66836   0.67538   0.67832
 Alpha virt. eigenvalues --    0.68476   0.68672   0.69405   0.70664   0.71113
 Alpha virt. eigenvalues --    0.71286   0.72557   0.72730   0.73594   0.74136
 Alpha virt. eigenvalues --    0.74635   0.74975   0.75320   0.76327   0.76398
 Alpha virt. eigenvalues --    0.76864   0.77727   0.79246   0.80469   0.81200
 Alpha virt. eigenvalues --    0.81441   0.81832   0.82424   0.83132   0.84064
 Alpha virt. eigenvalues --    0.84217   0.84838   0.85882   0.86644   0.87439
 Alpha virt. eigenvalues --    0.87590   0.88037   0.88504   0.89514   0.89991
 Alpha virt. eigenvalues --    0.90978   0.91318   0.91649   0.92497   0.92992
 Alpha virt. eigenvalues --    0.93311   0.93903   0.94920   0.95362   0.95967
 Alpha virt. eigenvalues --    0.96343   0.97197   0.98218   0.98611   0.99297
 Alpha virt. eigenvalues --    0.99864   1.00289   1.00914   1.01957   1.02993
 Alpha virt. eigenvalues --    1.03665   1.04566   1.05139   1.06019   1.06413
 Alpha virt. eigenvalues --    1.07162   1.07470   1.08764   1.09135   1.09734
 Alpha virt. eigenvalues --    1.10539   1.11354   1.11574   1.11810   1.12613
 Alpha virt. eigenvalues --    1.13196   1.13824   1.15109   1.15732   1.15897
 Alpha virt. eigenvalues --    1.16727   1.17932   1.18181   1.18984   1.20165
 Alpha virt. eigenvalues --    1.21097   1.21887   1.22856   1.22905   1.23404
 Alpha virt. eigenvalues --    1.24987   1.25627   1.26270   1.26849   1.28616
 Alpha virt. eigenvalues --    1.29267   1.30117   1.30531   1.31474   1.31682
 Alpha virt. eigenvalues --    1.32703   1.33924   1.34124   1.35379   1.36086
 Alpha virt. eigenvalues --    1.37278   1.37446   1.38211   1.38704   1.39363
 Alpha virt. eigenvalues --    1.40871   1.41774   1.42337   1.43360   1.44698
 Alpha virt. eigenvalues --    1.45758   1.46970   1.47939   1.48462   1.49687
 Alpha virt. eigenvalues --    1.50142   1.50981   1.51292   1.52109   1.52616
 Alpha virt. eigenvalues --    1.53381   1.53737   1.54789   1.54991   1.55169
 Alpha virt. eigenvalues --    1.55908   1.56492   1.57371   1.57971   1.58277
 Alpha virt. eigenvalues --    1.58664   1.59177   1.59889   1.60029   1.60191
 Alpha virt. eigenvalues --    1.60995   1.61289   1.61804   1.61929   1.62226
 Alpha virt. eigenvalues --    1.62976   1.63333   1.63786   1.64407   1.65432
 Alpha virt. eigenvalues --    1.65960   1.67151   1.67779   1.68355   1.68604
 Alpha virt. eigenvalues --    1.69102   1.69427   1.70052   1.70613   1.70667
 Alpha virt. eigenvalues --    1.71573   1.72606   1.73129   1.73744   1.73902
 Alpha virt. eigenvalues --    1.75175   1.75408   1.76034   1.76386   1.77455
 Alpha virt. eigenvalues --    1.78136   1.78331   1.79264   1.79602   1.80020
 Alpha virt. eigenvalues --    1.82165   1.82332   1.83634   1.84401   1.84635
 Alpha virt. eigenvalues --    1.84756   1.85598   1.86607   1.86932   1.87719
 Alpha virt. eigenvalues --    1.88438   1.88741   1.89649   1.90975   1.91709
 Alpha virt. eigenvalues --    1.92260   1.93424   1.93580   1.93813   1.95158
 Alpha virt. eigenvalues --    1.95585   1.96101   1.96850   1.97210   1.97926
 Alpha virt. eigenvalues --    1.98152   1.99384   2.00079   2.01448   2.01768
 Alpha virt. eigenvalues --    2.02692   2.03033   2.03516   2.04062   2.05011
 Alpha virt. eigenvalues --    2.05312   2.06118   2.06614   2.07961   2.08508
 Alpha virt. eigenvalues --    2.09656   2.09927   2.11182   2.12061   2.12990
 Alpha virt. eigenvalues --    2.13207   2.15099   2.15518   2.16562   2.16932
 Alpha virt. eigenvalues --    2.18087   2.19109   2.19739   2.20259   2.20604
 Alpha virt. eigenvalues --    2.20937   2.21618   2.22128   2.22607   2.23598
 Alpha virt. eigenvalues --    2.24144   2.24726   2.25392   2.26312   2.27012
 Alpha virt. eigenvalues --    2.28079   2.28813   2.29463   2.30287   2.31068
 Alpha virt. eigenvalues --    2.31235   2.31547   2.32364   2.32896   2.33918
 Alpha virt. eigenvalues --    2.34427   2.34727   2.35454   2.35937   2.36688
 Alpha virt. eigenvalues --    2.36890   2.37197   2.38379   2.38524   2.39443
 Alpha virt. eigenvalues --    2.40465   2.40631   2.40878   2.41752   2.43038
 Alpha virt. eigenvalues --    2.43528   2.44672   2.45066   2.45218   2.46568
 Alpha virt. eigenvalues --    2.47460   2.48563   2.49657   2.50333   2.50790
 Alpha virt. eigenvalues --    2.52330   2.52784   2.53315   2.55028   2.55237
 Alpha virt. eigenvalues --    2.55676   2.56940   2.57849   2.58443   2.58856
 Alpha virt. eigenvalues --    2.59149   2.59696   2.60559   2.61821   2.62259
 Alpha virt. eigenvalues --    2.62531   2.63352   2.63824   2.64350   2.64563
 Alpha virt. eigenvalues --    2.65342   2.65888   2.66228   2.67371   2.67741
 Alpha virt. eigenvalues --    2.67883   2.68183   2.69288   2.70676   2.71253
 Alpha virt. eigenvalues --    2.71857   2.72341   2.72656   2.73188   2.74038
 Alpha virt. eigenvalues --    2.75200   2.75916   2.76585   2.77048   2.78447
 Alpha virt. eigenvalues --    2.79828   2.80227   2.80938   2.81940   2.82629
 Alpha virt. eigenvalues --    2.83206   2.83756   2.84031   2.85425   2.86083
 Alpha virt. eigenvalues --    2.86320   2.87659   2.88442   2.88770   2.90165
 Alpha virt. eigenvalues --    2.90547   2.90947   2.91733   2.92059   2.92422
 Alpha virt. eigenvalues --    2.92933   2.94475   2.94975   2.95776   2.97099
 Alpha virt. eigenvalues --    2.97964   2.98271   2.98893   3.00046   3.00483
 Alpha virt. eigenvalues --    3.01380   3.02271   3.02950   3.03242   3.04009
 Alpha virt. eigenvalues --    3.05219   3.05402   3.06075   3.06342   3.06991
 Alpha virt. eigenvalues --    3.08078   3.08565   3.08700   3.09145   3.09547
 Alpha virt. eigenvalues --    3.10124   3.10882   3.11667   3.12220   3.12707
 Alpha virt. eigenvalues --    3.13015   3.13574   3.14311   3.14390   3.14825
 Alpha virt. eigenvalues --    3.15773   3.16051   3.16546   3.17650   3.17952
 Alpha virt. eigenvalues --    3.18455   3.18963   3.19217   3.19881   3.20816
 Alpha virt. eigenvalues --    3.21069   3.21460   3.22867   3.23783   3.24261
 Alpha virt. eigenvalues --    3.24464   3.25333   3.25673   3.26597   3.26935
 Alpha virt. eigenvalues --    3.27700   3.29010   3.29784   3.30248   3.30463
 Alpha virt. eigenvalues --    3.31475   3.32226   3.32616   3.33752   3.34202
 Alpha virt. eigenvalues --    3.34659   3.35191   3.35606   3.35926   3.36467
 Alpha virt. eigenvalues --    3.37562   3.37978   3.38107   3.38718   3.39079
 Alpha virt. eigenvalues --    3.40162   3.40655   3.41177   3.41803   3.42362
 Alpha virt. eigenvalues --    3.42605   3.43954   3.44992   3.45079   3.46125
 Alpha virt. eigenvalues --    3.46671   3.46941   3.47568   3.49497   3.49684
 Alpha virt. eigenvalues --    3.50188   3.50476   3.52069   3.52651   3.53446
 Alpha virt. eigenvalues --    3.54238   3.55287   3.55762   3.56301   3.56768
 Alpha virt. eigenvalues --    3.58311   3.58926   3.59495   3.59832   3.60584
 Alpha virt. eigenvalues --    3.61839   3.62881   3.63304   3.64217   3.65424
 Alpha virt. eigenvalues --    3.66217   3.66262   3.66967   3.68131   3.68213
 Alpha virt. eigenvalues --    3.69376   3.69876   3.71666   3.73024   3.73778
 Alpha virt. eigenvalues --    3.74823   3.75225   3.76690   3.77409   3.78097
 Alpha virt. eigenvalues --    3.79228   3.80239   3.81412   3.81882   3.82130
 Alpha virt. eigenvalues --    3.84667   3.84886   3.86686   3.86891   3.88473
 Alpha virt. eigenvalues --    3.89738   3.90780   3.91958   3.93652   3.94421
 Alpha virt. eigenvalues --    3.95244   3.96577   3.97582   3.98564   4.00290
 Alpha virt. eigenvalues --    4.01455   4.02251   4.03133   4.05008   4.05940
 Alpha virt. eigenvalues --    4.07954   4.09919   4.11149   4.12823   4.13502
 Alpha virt. eigenvalues --    4.14295   4.15695   4.16426   4.18077   4.18428
 Alpha virt. eigenvalues --    4.19239   4.20064   4.21066   4.21966   4.24187
 Alpha virt. eigenvalues --    4.25691   4.26943   4.29170   4.30627   4.32978
 Alpha virt. eigenvalues --    4.34157   4.35475   4.37076   4.38295   4.38561
 Alpha virt. eigenvalues --    4.39965   4.40400   4.41113   4.42084   4.43326
 Alpha virt. eigenvalues --    4.44263   4.47256   4.47368   4.49492   4.51031
 Alpha virt. eigenvalues --    4.52474   4.52861   4.53664   4.56347   4.59061
 Alpha virt. eigenvalues --    4.62423   4.64883   4.65492   4.66898   4.68157
 Alpha virt. eigenvalues --    4.69338   4.69834   4.72078   4.73495   4.74127
 Alpha virt. eigenvalues --    4.75702   4.76332   4.79246   4.82428   4.84384
 Alpha virt. eigenvalues --    4.86207   4.87739   4.90024   4.90732   4.92654
 Alpha virt. eigenvalues --    4.93239   4.94597   4.97517   4.99274   5.00568
 Alpha virt. eigenvalues --    5.02927   5.04476   5.04951   5.06838   5.08447
 Alpha virt. eigenvalues --    5.13324   5.13898   5.14657   5.19954   5.21221
 Alpha virt. eigenvalues --    5.21872   5.23984   5.24606   5.25711   5.28771
 Alpha virt. eigenvalues --    5.30031   5.30868   5.31089   5.34491   5.38881
 Alpha virt. eigenvalues --    5.40324   5.41812   5.44359   5.47302   5.49277
 Alpha virt. eigenvalues --    5.50014   5.51090   5.53601   5.55391   5.56138
 Alpha virt. eigenvalues --    5.64325   5.68717   5.75962   5.77126   5.79529
 Alpha virt. eigenvalues --    5.79972   5.81766   5.82393   5.83880   5.88444
 Alpha virt. eigenvalues --    5.89606   5.91403   5.93972   5.96348   5.97303
 Alpha virt. eigenvalues --    5.99505   6.05945   6.07112   6.16149   6.18629
 Alpha virt. eigenvalues --    6.21865   6.25661   6.28509   6.29520   6.38595
 Alpha virt. eigenvalues --    6.38970   6.43317   6.44311   6.48361   6.53720
 Alpha virt. eigenvalues --    6.56301   6.62400   6.72065   6.76132   6.77336
 Alpha virt. eigenvalues --    6.77707   6.82618   6.84221   6.85610   6.86830
 Alpha virt. eigenvalues --    6.87027   6.97934   7.00444   7.04052   7.08828
 Alpha virt. eigenvalues --    7.11340   7.13098   7.14673   7.18054   7.22786
 Alpha virt. eigenvalues --    7.30706   7.35593   9.02893   9.39888   9.55225
 Alpha virt. eigenvalues --   19.98812  22.33856  22.46236  22.48593  22.51567
 Alpha virt. eigenvalues --   22.57676  22.66392  22.74338  22.76956  22.84834
 Alpha virt. eigenvalues --   22.91789  23.00752  23.01938  23.08636  23.09781
 Alpha virt. eigenvalues --   23.28170  23.50019  32.18335  33.23766  44.16623
 Alpha virt. eigenvalues --   44.19623  44.25400  44.28180  44.53970
          Condensed to atoms (all electrons):
               1          2          3          4          5          6
     1  C    5.148638   0.425358   0.410820   0.013541  -0.007465  -0.000253
     2  H    0.425358   0.500149  -0.016287  -0.002175   0.000457  -0.000006
     3  H    0.410820  -0.016287   0.521918  -0.000994   0.000316  -0.000013
     4  C    0.013541  -0.002175  -0.000994   5.626619   0.541807   0.193396
     5  H   -0.007465   0.000457   0.000316   0.541807   0.525857  -0.038083
     6  O   -0.000253  -0.000006  -0.000013   0.193396  -0.038083   8.137505
     7  H    0.000037  -0.000003  -0.000002  -0.053623  -0.008569   0.321114
     8  C   -0.012482   0.010712  -0.000899  -0.027055  -0.100812  -0.055196
     9  H    0.004738  -0.000333  -0.001757  -0.069353   0.002313   0.001332
    10  O    0.005509  -0.000184  -0.000033   0.059042   0.005823  -0.019997
[...]
 (Enter /storage/apps/GAUSSIAN/G16_RevA03/g16/l716.exe)
 Dipole        =-8.92534177D-01-8.35629478D-01 1.56555581D+00
 ***** Axes restored to original set *****
 -------------------------------------------------------------------
 Center     Atomic                   Forces (Hartrees/Bohr)
 Number     Number              X              Y              Z
 -------------------------------------------------------------------
      1        6           0.000282881   -0.000022144    0.000046043
      2        1           0.000009107   -0.000001817   -0.000000717
      3        1           0.000002029   -0.000004474   -0.000000255
      4        6           0.000017467   -0.000074294   -0.000067315
      5        1          -0.000006580   -0.000017905    0.000015979
      6        8          -0.000079880   -0.000088049   -0.000122835
      7        1          -0.000036789   -0.000012151   -0.000000075
      8        6           0.000007431    0.000010030    0.000008498
      9        1          -0.000013241    0.000006250    0.000015691
     10        8          -0.000045328    0.000101121   -0.000006906
     11        1          -0.000016078   -0.000012656    0.000022558
     12        6           0.000032474   -0.000076756   -0.000090718
     13        1           0.000013244    0.000001829   -0.000022556
     14        6           0.000091348    0.000045325    0.000020572
     15        1          -0.000015702    0.000011150   -0.000009012
     16        8           0.000054273   -0.000170596   -0.000053437
     17        7           0.000116900   -0.000042109   -0.000031405
     18        6           0.000007298   -0.000079352   -0.000141127
     19        1          -0.000020102    0.000028163   -0.000024798
     20        6           0.000140146   -0.000040817   -0.000091185
     21        1           0.000005657    0.000046192    0.000013399
     22        6           0.000077330    0.000004124    0.000202392
     23        1           0.000003756    0.000037599   -0.000078466
     24        1          -0.000001606   -0.000014660   -0.000090553
     25        6           0.000011947   -0.000033348    0.000117819
     26        6          -0.000028391    0.000005217    0.000064468
     27        1           0.000010701    0.000015401    0.000035237
     28        6          -0.000364511   -0.000829978   -0.000546289
     29        8           0.000125788    0.000722769    0.001103088
     30        7           0.000233198    0.000099263   -0.000080489
     31        1           0.000013367    0.000044865   -0.000000117
     32        1           0.000114636    0.000039300   -0.000028911
     33        1          -0.000027827   -0.000001906    0.000013076
     34        6           0.000009203    0.000056759   -0.000322932
     35        6          -0.000072579   -0.000019500    0.000096000
     36        6          -0.000125907    0.000046006    0.000001139
     37        6          -0.000116174    0.000106508    0.000115088
     38        6          -0.000219085    0.000040004    0.000213610
     39        8          -0.000285351    0.000044122    0.000202414
     40       16           0.000000498    0.000129318   -0.000588433
     41        1           0.000047527    0.000089276    0.000010734
     42        1           0.000031186   -0.000023856   -0.000075160
     43        1          -0.000024187    0.000018590    0.000047816
     44        1           0.000008030   -0.000057534    0.000018717
     45        1          -0.000015083   -0.000005656    0.000016475
     46        1           0.000050902    0.000004408   -0.000010302
     47        1           0.000015253   -0.000069573    0.000051451
     48        1          -0.000019177   -0.000054458    0.000031729
 -------------------------------------------------------------------
 Cartesian Forces:  Max     0.001103088 RMS     0.000169291
 Leave Link  716 at Sat Aug 13 20:35:03 2022, MaxMem=  2684354560 cpu:               0.4 elap:               0.0
 (Enter /storage/apps/GAUSSIAN/G16_RevA03/g16/l103.exe)

 GradGradGradGradGradGradGradGradGradGradGradGradGradGradGradGradGradGrad
 Berny optimization.
 Search for a local minimum.
 Step number   1 out of a maximum of    2
 All quantities printed in internal units (Hartrees-Bohrs-Radians)
 Second derivative matrix not updated -- first step.
 ITU=  0
     Eigenvalues ---    0.00039   0.00093   0.00104   0.00127   0.00187
     Eigenvalues ---    0.00236   0.00307   0.00393   0.00420   0.00458
     Eigenvalues ---    0.00521   0.00728   0.00840   0.00907   0.00938
     Eigenvalues ---    0.00994   0.01086   0.01176   0.01380   0.01527
     Eigenvalues ---    0.01698   0.01884   0.02360   0.02497   0.02633
     Eigenvalues ---    0.02942   0.03210   0.03353   0.03756   0.03895
     Eigenvalues ---    0.04362   0.04630   0.04915   0.05079   0.05238
     Eigenvalues ---    0.05321   0.05548   0.05737   0.05834   0.05896
     Eigenvalues ---    0.06073   0.06178   0.06312   0.06394   0.06664
     Eigenvalues ---    0.06950   0.07347   0.07633   0.07817   0.08082
     Eigenvalues ---    0.08477   0.08787   0.09017   0.09664   0.10296
     Eigenvalues ---    0.10525   0.11551   0.12119   0.12199   0.12501
     Eigenvalues ---    0.12950   0.13123   0.13216   0.13540   0.13659
     Eigenvalues ---    0.14031   0.14083   0.15380   0.15983   0.16575
     Eigenvalues ---    0.16950   0.18159   0.18892   0.19638   0.19860
     Eigenvalues ---    0.19937   0.20353   0.21722   0.21852   0.22218
     Eigenvalues ---    0.24214   0.26821   0.27404   0.27710   0.31863
     Eigenvalues ---    0.32966   0.34212   0.34750   0.35365   0.37089
     Eigenvalues ---    0.38077   0.38077   0.38077   0.38077   0.40180
     Eigenvalues ---    0.43175   0.45150   0.48071   0.56610   0.56760
     Eigenvalues ---    0.61568   0.66424   0.69441   0.70063   0.74174
     Eigenvalues ---    0.79025   0.82516   0.87504   0.89174   0.91163
     Eigenvalues ---    0.91304   0.91979   0.93904   0.94481   0.94892
     Eigenvalues ---    0.95556   0.97130   0.99575   1.01431   1.02973
     Eigenvalues ---    1.05429   1.06778   1.09658   1.11377   1.14073
     Eigenvalues ---    1.19487   1.19984   1.24637   1.25994   1.29943
     Eigenvalues ---    1.34020   1.42310   1.51689   1.63642   1.70029
     Eigenvalues ---    1.79480   2.17755   2.27610
 Quadratic step=1.014D+00 exceeds max=3.000D-01 adjusted using Lamda=-1.308D-03.
 Angle between NR and scaled steps=  22.60 degrees.
 Angle between quadratic step and forces=  65.89 degrees.
 Linear search not attempted -- first point.
 Variable       Old X    -DE/DX   Delta X   Delta X   Delta X     New X
                                 (Linear)    (Quad)   (Total)
    X1        6.95192   0.00028   0.00000   0.00458   0.00458   6.95649
    Y1       -6.85864  -0.00002   0.00000  -0.01227  -0.01227  -6.87091
    Z1       -0.83003   0.00005   0.00000   0.02605   0.02605  -0.80397
    X2        7.27318   0.00001   0.00000   0.00466   0.00466   7.27785
    Y2       -7.05379  -0.00000   0.00000  -0.03131  -0.03131  -7.08510
    Z2       -2.85365  -0.00000   0.00000   0.02810   0.02810  -2.82555
    X3        8.32481   0.00000   0.00000   0.00136   0.00136   8.32617
    Y3       -8.02204  -0.00000   0.00000  -0.00536  -0.00536  -8.02740
    Z3        0.17467  -0.00000   0.00000   0.03832   0.03832   0.21300
    X4        3.61890   0.00002   0.00000   0.00112   0.00112   3.62001
    Y4       -2.78263  -0.00007   0.00000   0.00009   0.00009  -2.78254
    Z4        2.26956  -0.00007   0.00000  -0.01195  -0.01195   2.25761
    X5        2.42327  -0.00001   0.00000   0.00662   0.00662   2.42989
    Y5       -4.45252  -0.00002   0.00000  -0.00512  -0.00512  -4.45764
    Z5        2.00390   0.00002   0.00000  -0.00544  -0.00544   1.99846
    X6        2.81420  -0.00008   0.00000  -0.00893  -0.00893   2.80526
    Y6       -1.33969  -0.00009   0.00000   0.00819   0.00819  -1.33150
    Z6        4.32884  -0.00012   0.00000  -0.02175  -0.02175   4.30709
    X7        1.03908  -0.00004   0.00000  -0.01085  -0.01085   1.02823
    Y7       -0.89628  -0.00001   0.00000  -0.00084  -0.00084  -0.89712
    Z7        4.11013  -0.00000   0.00000  -0.02607  -0.02607   4.08406
    X8        6.36279   0.00001   0.00000   0.00312   0.00312   6.36591
    Y8       -3.57590   0.00001   0.00000   0.01404   0.01404  -3.56186
    Z8        2.63844   0.00001   0.00000  -0.00232  -0.00232   2.63612
    X9        6.54629  -0.00001   0.00000   0.00643   0.00643   6.55272
    Y9       -5.24191   0.00001   0.00000   0.02484   0.02484  -5.21707
    Z9        3.85020   0.00002   0.00000   0.01231   0.01231   3.86251
   X10        7.77043  -0.00005   0.00000  -0.00639  -0.00639   7.76404
   Y10       -1.53364   0.00010   0.00000   0.02837   0.02837  -1.50526
   Z10        3.60546  -0.00001   0.00000  -0.01836  -0.01836   3.58711
   X11        6.73601  -0.00002   0.00000  -0.01092  -0.01092   6.72509
   Y11       -0.73154  -0.00001   0.00000   0.03169   0.03169  -0.69985
   Z11        4.87802   0.00002   0.00000  -0.02387  -0.02387   4.85415
   X12        3.78570   0.00003   0.00000   0.00458   0.00458   3.79028
   Y12       -1.30581  -0.00008   0.00000  -0.01059  -0.01059  -1.31640
   Z12       -0.22469  -0.00009   0.00000  -0.01701  -0.01701  -0.24170
   X13        4.35834   0.00001   0.00000   0.00479   0.00479   4.36313
   Y13        0.63914   0.00000   0.00000  -0.00990  -0.00990   0.62924
   Z13        0.18718  -0.00002   0.00000  -0.02087  -0.02087   0.16631
   X14        7.21297   0.00009   0.00000   0.00550   0.00550   7.21846
   Y14       -4.11030   0.00005   0.00000  -0.00572  -0.00572  -4.11602
   Z14       -0.06462   0.00002   0.00000   0.00230   0.00230  -0.06231
   X15        9.16041  -0.00002   0.00000   0.00536   0.00536   9.16578
   Y15       -3.47057   0.00001   0.00000  -0.00744  -0.00744  -3.47801
   Z15       -0.29254  -0.00001   0.00000  -0.00063  -0.00063  -0.29317
   X16        5.63538   0.00005   0.00000   0.00567   0.00567   5.64105
   Y16       -2.58052  -0.00017   0.00000  -0.01763  -0.01763  -2.59814
   Z16       -1.65638  -0.00005   0.00000  -0.01010  -0.01010  -1.66647
   X17        1.46987   0.00012   0.00000   0.00378   0.00378   1.47365
   Y17       -1.17478  -0.00004   0.00000  -0.00920  -0.00920  -1.18398
   Z17       -1.64719  -0.00003   0.00000  -0.01462  -0.01462  -1.66181
   X18        0.36052   0.00001   0.00000   0.00708   0.00708   0.36760
   Y18       -3.39414  -0.00008   0.00000  -0.00550  -0.00550  -3.39964
   Z18       -2.53538  -0.00014   0.00000  -0.02824  -0.02824  -2.56362
   X19        1.38642  -0.00002   0.00000   0.00791   0.00791   1.39433
   Y19       -5.10398   0.00003   0.00000  -0.00716  -0.00716  -5.11115
   Z19       -2.09531  -0.00002   0.00000  -0.03719  -0.03719  -2.13250
   X20       -1.75198   0.00014   0.00000   0.00701   0.00701  -1.74498
   Y20       -3.41559  -0.00004   0.00000   0.00031   0.00031  -3.41529
   Z20       -3.89193  -0.00009   0.00000  -0.02811  -0.02811  -3.92004
   X21       -2.47458   0.00001   0.00000   0.00759   0.00759  -2.46699
   Y21       -5.21700   0.00005   0.00000   0.00321   0.00321  -5.21379
   Z21       -4.53246   0.00001   0.00000  -0.03684  -0.03684  -4.56930
   X22       -3.15101   0.00008   0.00000   0.00297   0.00297  -3.14804
   Y22       -1.05062   0.00000   0.00000   0.00293   0.00293  -1.04770
   Z22       -4.61082   0.00020   0.00000  -0.01240  -0.01240  -4.62323
   X23       -3.35579   0.00000   0.00000   0.00723   0.00723  -3.34856
   Y23       -0.96935   0.00004   0.00000   0.02044   0.02044  -0.94892
   Z23       -6.67574  -0.00008   0.00000  -0.01227  -0.01227  -6.68801
   X24       -5.08421  -0.00000   0.00000   0.00087   0.00087  -5.08334
   Y24       -1.10882  -0.00001   0.00000  -0.01030  -0.01030  -1.11912
   Z24       -3.85608  -0.00009   0.00000  -0.01841  -0.01841  -3.87449
   X25       -1.77291   0.00001   0.00000  -0.00793  -0.00793  -1.78085
   Y25        1.24895  -0.00003   0.00000  -0.00167  -0.00167   1.24727
   Z25       -3.63675   0.00012   0.00000   0.01432   0.01432  -3.62242
   X26        0.37114  -0.00003   0.00000  -0.00604  -0.00604   0.36511
   Y26        1.06675   0.00001   0.00000  -0.00729  -0.00729   1.05946
   Z26       -2.28607   0.00006   0.00000   0.00983   0.00983  -2.27624
   X27        1.29208   0.00001   0.00000  -0.01334  -0.01334   1.27874
   Y27        2.77211   0.00002   0.00000  -0.01040  -0.01040   2.76171
   Z27       -1.62359   0.00004   0.00000   0.02787   0.02787  -1.59572
   X28       -2.76425  -0.00036   0.00000  -0.02214  -0.02214  -2.78639
   Y28        3.81956  -0.00083   0.00000  -0.00070  -0.00070   3.81886
   Z28       -4.07385  -0.00055   0.00000   0.05249   0.05249  -4.02136
   X29       -1.71097   0.00013   0.00000  -0.06510  -0.06510  -1.77607
   Y29        5.74621   0.00072   0.00000  -0.00771  -0.00771   5.73849
   Z29       -3.38894   0.00110   0.00000   0.14177   0.14177  -3.24717
   X30       -5.07429   0.00023   0.00000   0.00848   0.00848  -5.06582
   Y30        3.92017   0.00010   0.00000   0.00618   0.00618   3.92635
   Z30       -5.25680  -0.00008   0.00000  -0.00626  -0.00626  -5.26306
   X31       -5.64823   0.00001   0.00000   0.00428   0.00428  -5.64394
   Y31        5.64716   0.00004   0.00000   0.01444   0.01444   5.66160
   Z31       -5.81162  -0.00000   0.00000   0.02365   0.02365  -5.78796
   X32       -5.76131   0.00011   0.00000   0.05031   0.05031  -5.71100
   Y32        2.41938   0.00004   0.00000   0.02341   0.02341   2.44279
   Z32       -6.19400  -0.00003   0.00000  -0.06453  -0.06453  -6.25854
   X33        5.06170  -0.00003   0.00000   0.00303   0.00303   5.06473
   Y33       -7.56961  -0.00000   0.00000  -0.00591  -0.00591  -7.57552
   Z33       -0.40185   0.00001   0.00000   0.03174   0.03174  -0.37012
   X34        0.43759   0.00001   0.00000   0.00025   0.00025   0.43784
   Y34        4.20606   0.00006   0.00000   0.00030   0.00030   4.20636
   Z34        5.12365  -0.00032   0.00000  -0.00716  -0.00716   5.11649
   X35       -3.27307  -0.00007   0.00000   0.00035   0.00035  -3.27272
   Y35        1.74870  -0.00002   0.00000  -0.00034  -0.00034   1.74837
   Z35        2.53809   0.00010   0.00000   0.00377   0.00377   2.54186
   X36       -5.65377  -0.00013   0.00000   0.00869   0.00869  -5.64509
   Y36        1.66477   0.00005   0.00000  -0.00190  -0.00190   1.66287
   Z36        1.08381   0.00000   0.00000  -0.00953  -0.00953   1.07429
   X37       -9.28490  -0.00012   0.00000   0.00230   0.00230  -9.28259
   Y37       -0.77289   0.00011   0.00000   0.00124   0.00124  -0.77165
   Z37       -0.68976   0.00012   0.00000  -0.00066  -0.00066  -0.69042
   X38       -6.84159  -0.00022   0.00000  -0.00735  -0.00735  -6.84895
   Y38       -0.51319   0.00004   0.00000   0.00218   0.00218  -0.51101
   Z38        0.68873   0.00021   0.00000   0.01626   0.01626   0.70499
   X39       -2.11496  -0.00029   0.00000  -0.04247  -0.04247  -2.15742
   Y39       -0.12220   0.00004   0.00000  -0.00125  -0.00125  -0.12345
   Z39        3.20514   0.00020   0.00000   0.07534   0.07534   3.28048
   X40       -2.33620   0.00000   0.00000   0.05708   0.05708  -2.27912
   Y40        4.84071   0.00013   0.00000   0.00481   0.00481   4.84552
   Z40        3.27164  -0.00059   0.00000  -0.09088  -0.09088   3.18076
   X41        1.02241   0.00005   0.00000  -0.00327  -0.00327   1.01914
   Y41        6.00207   0.00009   0.00000   0.00394   0.00394   6.00602
   Z41        5.93215   0.00001   0.00000  -0.01217  -0.01217   5.91998
   X42        1.94303   0.00003   0.00000   0.02391   0.02391   1.96694
   Y42        3.45101  -0.00002   0.00000  -0.03134  -0.03134   3.41966
   Z42        3.94655  -0.00008   0.00000   0.04360   0.04360   3.99015
   X43      -10.76604  -0.00002   0.00000  -0.01215  -0.01215 -10.77819
   Y43       -1.42125   0.00002   0.00000   0.02192   0.02192  -1.39933
   Z43        0.59475   0.00005   0.00000  -0.00697  -0.00697   0.58778
   X44       -9.87161   0.00001   0.00000   0.01905   0.01905  -9.85256
   Y44        1.01494  -0.00006   0.00000  -0.00464  -0.00464   1.01030
   Z44       -1.52531   0.00002   0.00000  -0.02464  -0.02464  -1.54995
   X45       -9.13764  -0.00002   0.00000   0.00747   0.00747  -9.13017
   Y45       -2.19414  -0.00001   0.00000  -0.01453  -0.01453  -2.20867
   Z45       -2.17929   0.00002   0.00000   0.01464   0.01464  -2.16465
   X46       -5.97526   0.00005   0.00000  -0.02428  -0.02428  -5.99953
   Y46       -2.21853   0.00000   0.00000   0.00557   0.00557  -2.21296
   Z46        1.43639  -0.00001   0.00000   0.04378   0.04378   1.48017
   X47       -6.39222   0.00002   0.00000   0.03001   0.03001  -6.36221
   Y47        3.44555  -0.00007   0.00000  -0.00695  -0.00695   3.43861
   Z47        0.38566   0.00005   0.00000  -0.04408  -0.04408   0.34158
   X48       -0.00222  -0.00002   0.00000  -0.05525  -0.05525  -0.05746
   Y48        2.87125  -0.00005   0.00000   0.02332   0.02332   2.89457
   Z48        6.62354   0.00003   0.00000  -0.00210  -0.00210   6.62145
         Item               Value     Threshold  Converged?
 Maximum Force            0.001103     0.000450     NO 
 RMS     Force            0.000169     0.000300     YES
 Maximum Displacement     0.141769     0.001800     NO 
 RMS     Displacement     0.025035     0.001200     NO 
 Predicted change in Energy=-1.836762D-04
 GradGradGradGradGradGradGradGradGradGradGradGradGradGradGradGradGradGrad

 Leave Link  103 at Sat Aug 13 20:35:03 2022, MaxMem=  2684354560 cpu:               1.0 elap:               0.1
 (Enter /storage/apps/GAUSSIAN/G16_RevA03/g16/l9999.exe)

 Test job not archived.
 1\1\GINC-T001\Force\RM062X\def2TZVP\C16H24N2O5S1\LV87696\13-Aug-2022\0
 \\#P M062X/Def2TZVP scf=(direct,conver=8) EmpiricalDispersion=GD3 Forc
 e Charge Prop=(Field,Read)\\Gaussian run\\0,1\C,3.678796,-3.629438,-0.
 439231\H,3.848803,-3.732706,-1.510088\H,4.405301,-4.245081,0.092434\C,
 1.915037,-1.472505,1.201001\H,1.282337,-2.356173,1.060418\O,1.489208,-
 0.708934,2.290723\H,0.549857,-0.47429,2.174985\C,3.367045,-1.892285,1.
 396201\H,3.464146,-2.773897,2.037438\O,4.111937,-0.811566,1.907929\H,3
 .564544,-0.387114,2.581339\C,2.003304,-0.691004,-0.118901\H,2.306332,0
 .338217,0.099051\C,3.816937,-2.175078,-0.034193\H,4.847482,-1.836549,-
 0.154804\O,2.982115,-1.365551,-0.876517\N,0.777823,-0.621666,-0.871654
 \C,0.190781,-1.796099,-1.341664\H,0.733664,-2.700912,-1.108791\C,-0.92
 711,-1.807454,-2.059519\H,-1.309491,-2.760719,-2.398475\C,-1.667442,-0
 .555966,-2.439943\H,-1.775808,-0.51296,-3.532652\H,-2.690448,-0.586762
 ,-2.040552\C,-0.938186,0.660915,-1.924484\C,0.1964,0.564501,-1.209735\
 H,0.683739,1.46694,-0.859166\C,-1.462776,2.021226,-2.155789\O,-0.90540
 6,3.040761,-1.793352\N,-2.685201,2.074465,-2.781778\H,-2.988913,2.9883
 48,-3.075375\H,-3.048754,1.280279,-3.277725\H,2.678534,-4.005667,-0.21
 2652\C,0.231565,2.225751,2.711317\C,-1.732034,0.925374,1.343099\C,-2.9
 91848,0.880958,0.573529\C,-4.913355,-0.408998,-0.365003\C,-3.620415,-0
 .271569,0.364459\O,-1.119187,-0.064664,1.696086\S,-1.236264,2.561595,1
 .731279\H,0.541035,3.17616,3.13916\H,1.028208,1.826194,2.088424\H,-5.6
 97144,-0.752093,0.314728\H,-5.223832,0.537085,-0.80716\H,-4.835429,-1.
 161088,-1.15323\H,-3.16197,-1.173998,0.760105\H,-3.382616,1.823309,0.2
 0408\H,-0.001173,1.5194,3.505028\\Version=ES64L-G16RevA.03\State=1-A\H
 F=-1507.9336042\RMSD=1.596e-09\RMSF=1.693e-04\Dipole=-1.6100444,-1.156
 6963,-0.1251786\Quadrupole=3.8739586,-3.0050021,-0.8689566,-2.0365917,
 8.1497711,4.8396805\PG=C01 [X(C16H24N2O5S1)]\\@


 NEVER LOSE YOUR IGNORANCE, IT CAN'T BE REPLACED.
   -- ANDY CAPP
 Job cpu time:       0 days  3 hours 17 minutes  1.2 seconds.
 Elapsed time:       0 days  0 hours 12 minutes 20.3 seconds.
 File lengths (MBytes):  RWF=    435 Int=      0 D2E=      0 Chk=     48 Scr=      1
 Normal termination of Gaussian 16 at Sat Aug 13 20:35:03 2022.
