 Entering Gaussian System, Link 0=g16
 Initial command:
 /storage/apps/GAUSSIAN/G16_RevA03/g16/l1.exe "/scratch/tmp/1019303/Gau-212810.inp" -scrdir="/scratch/tmp/1019303/"
 Entering Link 1 = /storage/apps/GAUSSIAN/G16_RevA03/g16/l1.exe PID=    212811.
  
 Copyright (c) 1988,1990,1992,1993,1995,1998,2003,2009,2016,
            Gaussian, Inc.  All Rights Reserved.
  
 This is part of the Gaussian(R) 16 program.  It is based on
 the Gaussian(R) 09 system (copyright 2009, Gaussian, Inc.),
 the Gaussian(R) 03 system (copyright 2003, Gaussian, Inc.),
 the Gaussian(R) 98 system (copyright 1998, Gaussian, Inc.),
 the Gaussian(R) 94 system (copyright 1995, Gaussian, Inc.),
 the Gaussian 92(TM) system (copyright 1992, Gaussian, Inc.),
 the Gaussian 90(TM) system (copyright 1990, Gaussian, Inc.),
 the Gaussian 88(TM) system (copyright 1988, Gaussian, Inc.),
 the Gaussian 86(TM) system (copyright 1986, Carnegie Mellon
 University), and the Gaussian 82(TM) system (copyright 1983,
 Carnegie Mellon University). Gaussian is a federally registered
 trademark of Gaussian, Inc.
  
 This software contains proprietary and confidential information,
 including trade secrets, belonging to Gaussian, Inc.
  
 This software is provided under written license and may be
 used, copied, transmitted, or stored only in accord with that
 written license.
  
 The following legend is applicable only to US Government
 contracts under FAR:
  
                    RESTRICTED RIGHTS LEGEND
  
 Use, reproduction and disclosure by the US Government is
 subject to restrictions as set forth in subparagraphs (a)
 and (c) of the Commercial Computer Software - Restricted
 Rights clause in FAR 52.227-19.
  
 Gaussian, Inc.
 340 Quinnipiac St., Bldg. 40, Wallingford CT 06492
  
  
 ---------------------------------------------------------------
 Warning -- This program may not be used in any manner that
 competes with the business of Gaussian, Inc. or will provide
 assistance to any competitor of Gaussian, Inc.  The licensee
 of this program is prohibited from giving any competitor of
 Gaussian, Inc. access to this program.  By using this program,
 the user acknowledges that Gaussian, Inc. is engaged in the
 business of creating and licensing software in the field of
 computational chemistry and represents and warrants to the
 licensee that it is not a competitor of Gaussian, Inc. and that
 it will not use this program in any manner prohibited above.
 ---------------------------------------------------------------
  

 Cite this work as:
 Gaussian 16, Revision A.03,
 M. J. Frisch, G. W. Trucks, H. B. Schlegel, G. E. Scuseria, 
 M. A. Robb, J. R. Cheeseman, G. Scalmani, V. Barone, 
 G. A. Petersson, H. Nakatsuji, X. Li, M. Caricato, A. V. Marenich, 
 J. Bloino, B. G. Janesko, R. Gomperts, B. Mennucci, H. P. Hratchian, 
 J. V. Ortiz, A. F. Izmaylov, J. L. Sonnenberg, D. Williams-Young, 
 F. Ding, F. Lipparini, F. Egidi, J. Goings, B. Peng, A. Petrone, 
 T. Henderson, D. Ranasinghe, V. G. Zakrzewski, J. Gao, N. Rega, 
 G. Zheng, W. Liang, M. Hada, M. Ehara, K. Toyota, R. Fukuda, 
 J. Hasegawa, M. Ishida, T. Nakajima, Y. Honda, O. Kitao, H. Nakai, 
 T. Vreven, K. Throssell, J. A. Montgomery, Jr., J. E. Peralta, 
 F. Ogliaro, M. J. Bearpark, J. J. Heyd, E. N. Brothers, K. N. Kudin, 
 V. N. Staroverov, T. A. Keith, R. Kobayashi, J. Normand, 
 K. Raghavachari, A. P. Rendell, J. C. Burant, S. S. Iyengar, 
 J. Tomasi, M. Cossi, J. M. Millam, M. Klene, C. Adamo, R. Cammi, 
 J. W. Ochterski, R. L. Martin, K. Morokuma, O. Farkas, 
 J. B. Foresman, and D. J. Fox, Gaussian, Inc., Wallingford CT, 2016.
 
 ******************************************
 Gaussian 16:  ES64L-G16RevA.03 25-Dec-2016
                13-Aug-2022 
 ******************************************
 %NProcShared=16
 Will use up to   16 processors via shared memory.
 %mem=20GB
 ----------------------------------------------------------------------
 #P M062X/Def2TZVP scf=(direct,conver=8) EmpiricalDispersion=GD3 Force 
 Charge Prop=(Field,Read)
 ----------------------------------------------------------------------
 1/10=7,18=10,28=-2,30=1,38=1,125=101/1,3;
 2/12=2,17=6,18=5,29=2,40=1/2;
 3/5=44,7=101,11=2,25=1,30=1,71=1,74=-55,124=31/1,2,3;
 4//1;
 5/5=2,6=8,38=5/2;
 6/7=2,8=2,9=2,10=2,14=2,15=1,28=1/1,2;
 7/7=1,16=-2,29=1/1,2,3,16;
 1/10=7,18=10,28=-2,30=1/3;
 99/12=1/99;
 Leave Link    1 at Sat Aug 13 20:34:15 2022, MaxMem=  2684354560 cpu:               0.6 elap:               0.0
 (Enter /storage/apps/GAUSSIAN/G16_RevA03/g16/l101.exe)
 ------------
 Gaussian run
 ------------
 Symbolic Z-matrix:
 Charge =  0 Multiplicity = 1
 C                     3.59922  -3.61567  -0.44448 
 H                     3.74948  -3.71129  -1.5191 
 H                     4.33502  -4.23685   0.06676 
 C                     1.86281  -1.43867   1.24129 
 H                     1.2147   -2.31183   1.0883 
 O                     1.46696  -0.68033   2.32617 
 H                     0.52783  -0.37441   2.16928 
 C                     3.3177   -1.88444   1.40715 
 H                     3.40158  -2.77062   2.04362 
 O                     4.07979  -0.81748   1.91398 
 H                     3.53341  -0.37972   2.58202 
 C                     1.97383  -0.65957  -0.08101 
 H                     2.25942   0.37632   0.11874 
 C                     3.75371  -2.16906  -0.02491 
 H                     4.78132  -1.83109  -0.16152 
 O                     2.91332  -1.33645  -0.8563 
 N                     0.71998  -0.60106  -0.85986 
 C                     0.19604  -1.76489  -1.32938 
 H                     0.76451  -2.65616  -1.11603 
 C                    -0.95018  -1.75647  -2.06246 
 H                    -1.34697  -2.68867  -2.43669 
 C                    -1.59616  -0.5419   -2.32496 
 H                    -2.43734  -0.51599  -3.00526 
 H                    -2.86058  -0.68763  -0.99643 
 C                    -1.02426   0.6464   -1.85635 
 C                     0.14236   0.56989  -1.1227 
 H                     0.61076   1.46817  -0.74047 
 C                    -1.53638   2.01825  -2.1645 
 O                    -0.83172   2.99319  -2.04417 
 N                    -2.80654   2.0675   -2.6722 
 H                    -3.18162   3.00027  -2.75719 
 H                    -3.46318   1.3641   -2.36944 
 H                     2.60496  -3.99457  -0.19611 
 C                     0.20225   2.20014   2.84456 
 C                    -1.66076   0.89815   1.23844 
 C                    -2.80817   0.86166   0.46941 
 C                    -4.85102  -0.39989  -0.3716 
 C                    -3.36472  -0.39945  -0.04192 
 O                    -0.92385  -0.08322   1.53372 
 S                    -1.21527   2.55613   1.79725 
 H                     0.44351   3.12998   3.35621 
 H                     1.0647    1.87722   2.26623 
 H                    -5.46349  -0.39788   0.53072 
 H                    -5.12866   0.48946  -0.94531 
 H                    -5.12208  -1.27666  -0.9623 
 H                    -3.09826  -1.23031   0.61907 
 H                    -3.34706   1.78885   0.31037 
 H                    -0.0466    1.43794   3.58004 
 
 ITRead=  0  0  0  0  0  0  0  0  0  0  0  0  0  0  0  0  0  0  0  0
 ITRead=  0  0  0  0  0  0  0  0  0  0  0  0  0  0  0  0  0  0  0  0
 ITRead=  0  0  0  0  0  0  0  0
 MicOpt= -1 -1 -1 -1 -1 -1 -1 -1 -1 -1 -1 -1 -1 -1 -1 -1 -1 -1 -1 -1
 MicOpt= -1 -1 -1 -1 -1 -1 -1 -1 -1 -1 -1 -1 -1 -1 -1 -1 -1 -1 -1 -1
 MicOpt= -1 -1 -1 -1 -1 -1 -1 -1
 NAtoms=     48 NQM=       48 NQMF=       0 NMMI=      0 NMMIF=      0
                NMic=       0 NMicF=      0.
                    Isotopes and Nuclear Properties:
 (Nuclear quadrupole moments (NQMom) in fm**2, nuclear magnetic moments (NMagM)
  in nuclear magnetons)

  Atom         1           2           3           4           5           6           7           8           9          10
 IAtWgt=          12           1           1          12           1          16           1          12           1          16
 AtmWgt=  12.0000000   1.0078250   1.0078250  12.0000000   1.0078250  15.9949146   1.0078250  12.0000000   1.0078250  15.9949146
 NucSpn=           0           1           1           0           1           0           1           0           1           0
 AtZEff=  -0.0000000  -0.0000000  -0.0000000  -0.0000000  -0.0000000  -0.0000000  -0.0000000  -0.0000000  -0.0000000  -0.0000000
 NQMom=    0.0000000   0.0000000   0.0000000   0.0000000   0.0000000   0.0000000   0.0000000   0.0000000   0.0000000   0.0000000
 NMagM=    0.0000000   2.7928460   2.7928460   0.0000000   2.7928460   0.0000000   2.7928460   0.0000000   2.7928460   0.0000000
 AtZNuc=   6.0000000   1.0000000   1.0000000   6.0000000   1.0000000   8.0000000   1.0000000   6.0000000   1.0000000   8.0000000

  Atom        11          12          13          14          15          16          17          18          19          20
 IAtWgt=           1          12           1          12           1          16          14          12           1          12
 AtmWgt=   1.0078250  12.0000000   1.0078250  12.0000000   1.0078250  15.9949146  14.0030740  12.0000000   1.0078250  12.0000000
 NucSpn=           1           0           1           0           1           0           2           0           1           0
 AtZEff=  -0.0000000  -0.0000000  -0.0000000  -0.0000000  -0.0000000  -0.0000000  -0.0000000  -0.0000000  -0.0000000  -0.0000000
 NQMom=    0.0000000   0.0000000   0.0000000   0.0000000   0.0000000   0.0000000   2.0440000   0.0000000   0.0000000   0.0000000
 NMagM=    2.7928460   0.0000000   2.7928460   0.0000000   2.7928460   0.0000000   0.4037610   0.0000000   2.7928460   0.0000000
 AtZNuc=   1.0000000   6.0000000   1.0000000   6.0000000   1.0000000   8.0000000   7.0000000   6.0000000   1.0000000   6.0000000

  Atom        21          22          23          24          25          26          27          28          29          30
 IAtWgt=           1          12           1           1          12          12           1          12          16          14
 AtmWgt=   1.0078250  12.0000000   1.0078250   1.0078250  12.0000000  12.0000000   1.0078250  12.0000000  15.9949146  14.0030740
 NucSpn=           1           0           1           1           0           0           1           0           0           2
 AtZEff=  -0.0000000  -0.0000000  -0.0000000  -0.0000000  -0.0000000  -0.0000000  -0.0000000  -0.0000000  -0.0000000  -0.0000000
 NQMom=    0.0000000   0.0000000   0.0000000   0.0000000   0.0000000   0.0000000   0.0000000   0.0000000   0.0000000   2.0440000
 NMagM=    2.7928460   0.0000000   2.7928460   2.7928460   0.0000000   0.0000000   2.7928460   0.0000000   0.0000000   0.4037610
 AtZNuc=   1.0000000   6.0000000   1.0000000   1.0000000   6.0000000   6.0000000   1.0000000   6.0000000   8.0000000   7.0000000

  Atom        31          32          33          34          35          36          37          38          39          40
 IAtWgt=           1           1           1          12          12          12          12          12          16          32
 AtmWgt=   1.0078250   1.0078250   1.0078250  12.0000000  12.0000000  12.0000000  12.0000000  12.0000000  15.9949146  31.9720718
 NucSpn=           1           1           1           0           0           0           0           0           0           0
 AtZEff=  -0.0000000  -0.0000000  -0.0000000  -0.0000000  -0.0000000  -0.0000000  -0.0000000  -0.0000000  -0.0000000  -0.0000000
 NQMom=    0.0000000   0.0000000   0.0000000   0.0000000   0.0000000   0.0000000   0.0000000   0.0000000   0.0000000   0.0000000
 NMagM=    2.7928460   2.7928460   2.7928460   0.0000000   0.0000000   0.0000000   0.0000000   0.0000000   0.0000000   0.0000000
 AtZNuc=   1.0000000   1.0000000   1.0000000   6.0000000   6.0000000   6.0000000   6.0000000   6.0000000   8.0000000  16.0000000

  Atom        41          42          43          44          45          46          47          48
 IAtWgt=           1           1           1           1           1           1           1           1
 AtmWgt=   1.0078250   1.0078250   1.0078250   1.0078250   1.0078250   1.0078250   1.0078250   1.0078250
 NucSpn=           1           1           1           1           1           1           1           1
 AtZEff=  -0.0000000  -0.0000000  -0.0000000  -0.0000000  -0.0000000  -0.0000000  -0.0000000  -0.0000000
 NQMom=    0.0000000   0.0000000   0.0000000   0.0000000   0.0000000   0.0000000   0.0000000   0.0000000
 NMagM=    2.7928460   2.7928460   2.7928460   2.7928460   2.7928460   2.7928460   2.7928460   2.7928460
 AtZNuc=   1.0000000   1.0000000   1.0000000   1.0000000   1.0000000   1.0000000   1.0000000   1.0000000
 Background charge distribution read from input stream:
 Leave Link  101 at Sat Aug 13 20:34:15 2022, MaxMem=  2684354560 cpu:               1.5 elap:               0.1
 (Enter /storage/apps/GAUSSIAN/G16_RevA03/g16/l103.exe)

 GradGradGradGradGradGradGradGradGradGradGradGradGradGradGradGradGradGrad
 Berny optimization.
 Initialization pass.
 Trust Radius=3.00D-01 FncErr=1.00D-07 GrdErr=1.00D-07 EigMax=2.50D+02 EigMin=1.00D-04
 Number of steps in this run=      2 maximum allowed number of steps=      2.
 GradGradGradGradGradGradGradGradGradGradGradGradGradGradGradGradGradGrad

 Leave Link  103 at Sat Aug 13 20:34:16 2022, MaxMem=  2684354560 cpu:               0.3 elap:               0.0
 (Enter /storage/apps/GAUSSIAN/G16_RevA03/g16/l202.exe)
 ---------------------------------------------------------------------------------------------------
                            Z-MATRIX (ANGSTROMS AND DEGREES)
   CD    Cent   Atom    N1       Length/X        N2       Alpha/Y        N3        Beta/Z          J
 ---------------------------------------------------------------------------------------------------
      1      1  C        0   3.599224         -3.615668         -0.444475
      2      2  H        0   3.749475         -3.711291         -1.519098
      3      3  H        0   4.335023         -4.236849          0.066761
      4      4  C        0   1.862811         -1.438673          1.241291
      5      5  H        0   1.214702         -2.311831          1.088298
      6      6  O        0   1.466956         -0.680325          2.326167
      7      7  H        0   0.527828         -0.374411          2.169276
      8      8  C        0   3.317704         -1.884440          1.407147
      9      9  H        0   3.401582         -2.770615          2.043624
     10     10  O        0   4.079788         -0.817479          1.913977
     11     11  H        0   3.533413         -0.379718          2.582022
     12     12  C        0   1.973834         -0.659573         -0.081006
     13     13  H        0   2.259422          0.376318          0.118743
     14     14  C        0   3.753714         -2.169057         -0.024911
     15     15  H        0   4.781323         -1.831092         -0.161522
     16     16  O        0   2.913321         -1.336450         -0.856296
     17     17  N        0   0.719977         -0.601063         -0.859860
     18     18  C        0   0.196040         -1.764893         -1.329378
     19     19  H        0   0.764514         -2.656156         -1.116030
     20     20  C        0  -0.950177         -1.756466         -2.062460
     21     21  H        0  -1.346965         -2.688667         -2.436692
     22     22  C        0  -1.596156         -0.541895         -2.324956
     23     23  H        0  -2.437339         -0.515994         -3.005259
     24     24  H        0  -2.860577         -0.687633         -0.996429
     25     25  C        0  -1.024259          0.646400         -1.856352
     26     26  C        0   0.142356          0.569890         -1.122701
     27     27  H        0   0.610758          1.468169         -0.740467
     28     28  C        0  -1.536377          2.018254         -2.164498
     29     29  O        0  -0.831720          2.993191         -2.044172
     30     30  N        0  -2.806539          2.067500         -2.672203
     31     31  H        0  -3.181622          3.000273         -2.757194
     32     32  H        0  -3.463180          1.364095         -2.369441
     33     33  H        0   2.604963         -3.994570         -0.196105
     34     34  C        0   0.202247          2.200143          2.844563
     35     35  C        0  -1.660755          0.898154          1.238435
     36     36  C        0  -2.808169          0.861655          0.469409
     37     37  C        0  -4.851022         -0.399887         -0.371604
     38     38  C        0  -3.364721         -0.399452         -0.041918
     39     39  O        0  -0.923849         -0.083217          1.533722
     40     40  S        0  -1.215272          2.556133          1.797253
     41     41  H        0   0.443514          3.129980          3.356211
     42     42  H        0   1.064700          1.877224          2.266225
     43     43  H        0  -5.463485         -0.397883          0.530718
     44     44  H        0  -5.128662          0.489455         -0.945308
     45     45  H        0  -5.122078         -1.276657         -0.962297
     46     46  H        0  -3.098259         -1.230313          0.619065
     47     47  H        0  -3.347058          1.788849          0.310374
     48     48  H        0  -0.046601          1.437943          3.580039
 ---------------------------------------------------------------------------------------------------
                         Z-Matrix orientation:                         
 ---------------------------------------------------------------------
 Center     Atomic      Atomic             Coordinates (Angstroms)
 Number     Number       Type             X           Y           Z
 ---------------------------------------------------------------------
      1          6           0        3.599224   -3.615668   -0.444475
      2          1           0        3.749475   -3.711291   -1.519098
      3          1           0        4.335023   -4.236849    0.066761
      4          6           0        1.862811   -1.438673    1.241291
      5          1           0        1.214702   -2.311831    1.088298
      6          8           0        1.466956   -0.680325    2.326167
      7          1           0        0.527828   -0.374411    2.169276
      8          6           0        3.317704   -1.884440    1.407147
      9          1           0        3.401582   -2.770615    2.043624
     10          8           0        4.079788   -0.817479    1.913977
     11          1           0        3.533413   -0.379718    2.582022
     12          6           0        1.973834   -0.659573   -0.081006
     13          1           0        2.259422    0.376318    0.118743
     14          6           0        3.753714   -2.169057   -0.024911
     15          1           0        4.781323   -1.831092   -0.161522
     16          8           0        2.913321   -1.336450   -0.856296
     17          7           0        0.719977   -0.601063   -0.859860
     18          6           0        0.196040   -1.764893   -1.329378
     19          1           0        0.764514   -2.656156   -1.116030
     20          6           0       -0.950177   -1.756466   -2.062460
     21          1           0       -1.346965   -2.688667   -2.436692
     22          6           0       -1.596156   -0.541895   -2.324956
     23          1           0       -2.437339   -0.515994   -3.005259
     24          1           0       -2.860577   -0.687633   -0.996429
     25          6           0       -1.024259    0.646400   -1.856352
     26          6           0        0.142356    0.569890   -1.122701
     27          1           0        0.610758    1.468169   -0.740467
     28          6           0       -1.536377    2.018254   -2.164498
     29          8           0       -0.831720    2.993191   -2.044172
     30          7           0       -2.806539    2.067500   -2.672203
     31          1           0       -3.181622    3.000273   -2.757194
     32          1           0       -3.463180    1.364095   -2.369441
     33          1           0        2.604963   -3.994570   -0.196105
     34          6           0        0.202247    2.200143    2.844563
     35          6           0       -1.660755    0.898154    1.238435
     36          6           0       -2.808169    0.861655    0.469409
     37          6           0       -4.851022   -0.399887   -0.371604
     38          6           0       -3.364721   -0.399452   -0.041918
     39          8           0       -0.923849   -0.083217    1.533722
     40         16           0       -1.215272    2.556133    1.797253
     41          1           0        0.443514    3.129980    3.356211
     42          1           0        1.064700    1.877224    2.266225
     43          1           0       -5.463485   -0.397883    0.530718
     44          1           0       -5.128662    0.489455   -0.945308
     45          1           0       -5.122078   -1.276657   -0.962297
     46          1           0       -3.098259   -1.230313    0.619065
     47          1           0       -3.347058    1.788849    0.310374
     48          1           0       -0.046601    1.437943    3.580039
 ---------------------------------------------------------------------
                    Distance matrix (angstroms):
                    1          2          3          4          5
     1  C    0.000000
     2  H    1.089281   0.000000
     3  H    1.090242   1.770318   0.000000
     4  C    3.255187   4.042776   3.914223   0.000000
     5  H    3.120149   3.896418   3.806000   1.098115   0.000000
     6  O    4.565004   5.402102   5.097017   1.381575   2.063435
     7  H    5.174062   5.926034   5.816677   1.943191   2.322478
     8  C    2.550472   3.476596   2.892300   1.530663   2.169550
     9  H    2.635112   3.701201   2.632326   2.187607   2.430139
    10  O    3.690948   4.502139   3.894797   2.398619   3.335199
    11  H    4.431184   5.288218   4.674032   2.389531   3.367595
    12  C    3.393008   3.812347   4.288817   1.538763   2.161830
    13  H    4.248322   4.648799   5.058867   2.170624   3.042634
    14  C    1.514128   2.147347   2.149904   2.390030   2.776004
    15  H    2.159197   2.538281   2.457430   3.261838   3.809717
    16  O    2.415553   2.603523   3.359403   2.348168   2.760094
    17  N    4.189326   4.391580   5.210194   2.534264   2.639470
    18  C    3.973674   4.056028   5.019059   3.081052   2.679920
    19  H    3.067121   3.191515   4.079966   2.871495   2.276025
    20  C    5.174124   5.118917   6.214436   4.350709   3.862953
    21  H    5.412305   5.278394   6.399151   5.039118   4.373751
    22  C    6.322678   6.266598   7.385924   5.048443   4.762762
    23  H    7.252978   7.120061   8.315465   6.113576   5.772317
    24  H    7.113865   7.287556   8.093452   5.280326   4.857160
    25  C    6.444782   6.472383   7.501092   4.719968   4.736564
    26  C    5.470724   5.612214   6.488298   3.547217   3.787183
    27  H    5.904569   6.106113   6.860685   3.734265   4.242350
    28  C    7.814983   7.822050   8.864433   5.924882   6.074434
    29  O    8.115991   8.137145   9.133715   6.139722   6.491800
    30  N    8.848445   8.815066   9.912046   7.029332   7.034933
    31  H    9.751883   9.727182  10.809746   7.819107   7.895183
    32  H    8.853309   8.860306   9.905434   7.018481   6.881204
    33  H    1.092616   1.772136   1.766608   3.024815   2.532613
    34  C    7.495391   8.159008   8.138236   4.309169   4.946457
    35  C    7.132612   7.623750   7.980628   4.228036   4.312169
    36  C    7.869961   8.238246   8.785332   5.263589   5.161156
    37  C    9.041748   9.287125   9.964831   6.982554   6.525324
    38  C    7.681317   7.985119   8.603690   5.482125   5.089764
    39  O    6.070392   6.657521   6.860056   3.112596   3.120661
    40  S    8.142226   8.656067   8.941196   5.073674   5.486754
    41  H    8.361070   9.027791   8.957371   5.230667   5.945710
    42  H    6.628995   7.264171   7.274238   3.561270   4.354101
    43  H    9.666325  10.002952  10.533930   7.433893   6.969381
    44  H    9.658098   9.838537  10.626550   7.574932   7.226412
    45  H    9.044347   9.216394   9.962854   7.326031   6.740275
    46  H    7.188694   7.590682   8.037287   5.004278   4.471185
    47  H    8.833427   9.162930   9.766409   6.198890   6.183073
    48  H    7.418068   8.180831   7.984048   4.170194   4.675517
                    6          7          8          9         10
     6  O    0.000000
     7  H    1.000080   0.000000
     8  C    2.391602   3.262581   0.000000
     9  H    2.862153   3.743801   1.094278   0.000000
    10  O    2.648698   3.588580   1.405722   2.071596   0.000000
    11  H    2.103823   3.033798   1.921211   2.454311   0.967701
    12  C    2.460048   2.689985   2.349656   3.317984   2.905156
    13  H    2.572395   2.786880   2.809087   3.861720   2.821657
    14  C    3.601826   4.294363   1.523779   2.182821   2.385870
    15  H    4.300917   5.064263   2.146101   2.765693   2.413972
    16  O    3.556760   3.971169   2.363682   3.271814   3.050310
    17  N    3.273382   3.043675   3.678935   4.508678   4.362263
    18  C    4.019269   3.779432   4.153029   4.760685   5.147858
    19  H    4.030639   4.006946   3.671614   4.117116   4.853114
    20  C    5.124515   4.690646   5.501760   6.068462   6.480301
    21  H    5.885271   5.485032   6.097624   6.529062   7.202730
    22  C    5.570885   4.973679   6.314827   7.002076   7.089488
    23  H    6.610191   5.965574   7.379871   8.041613   8.170846
    24  H    5.455936   4.647697   6.736518   7.266042   7.527017
    25  C    5.045772   4.433589   5.992347   6.817175   6.512267
    26  C    3.900294   3.446361   4.744123   5.639782   5.162323
    27  H    3.841008   3.445081   4.814539   5.788536   4.929952
    28  C    6.038908   5.363524   7.179817   8.063808   7.497776
    29  O    6.154551   5.562577   7.274655   8.237256   7.369604
    30  N    7.127202   6.365599   8.352561   9.175355   8.762286
    31  H    7.810034   7.029838   9.134736   9.984467   9.440505
    32  H    7.108771   6.288919   8.414035   9.148548   8.944456
    33  H    4.317538   4.797402   2.744279   2.673771   4.089188
    34  C    3.188310   2.681482   5.334422   5.965374   5.000736
    35  C    3.668424   2.697366   5.705817   6.303606   6.029394
    36  C    4.909373   3.942877   6.778400   7.364275   7.235345
    37  C    6.875570   5.948844   8.490933   8.919594   9.228089
    38  C    5.388118   4.476823   6.997127   7.466911   7.708501
    39  O    2.588524   1.611238   4.609902   5.117759   5.071501
    40  S    4.236597   3.429998   6.357574   7.053388   6.279534
    41  H    4.077603   3.700903   6.099527   6.729790   5.557424
    42  H    2.589683   2.316785   4.468127   5.207012   4.059096
    43  H    7.164804   6.211381   8.949149   9.300976   9.652125
    44  H    7.454737   6.514812   9.083530   9.608685   9.730321
    45  H    7.388165   6.522441   8.787126   9.160800   9.651846
    46  H    4.904882   4.035372   6.497195   6.830068   7.305586
    47  H    5.773645   4.811440   7.688629   8.326885   8.032592
    48  H    2.889656   2.367456   5.203675   5.653538   4.988966
                   11         12         13         14         15
    11  H    0.000000
    12  C    3.098762   0.000000
    13  H    2.874437   1.092946   0.000000
    14  C    3.169600   2.334451   2.955077   0.000000
    15  H    3.345265   3.043178   3.363212   1.090350   0.000000
    16  O    3.622414   1.393511   2.076502   1.445924   2.053488
    17  N    4.450951   1.477225   2.069500   3.515580   4.300602
    18  C    5.325018   2.437359   3.307474   3.810778   4.732134
    19  H    5.150200   2.553443   3.599349   3.219180   4.210293
    20  C    6.600699   3.698537   4.428085   5.142803   6.038976
    21  H    7.371352   4.549086   5.378699   5.666005   6.593007
    22  C    7.100508   4.218292   4.656207   6.046402   6.856728
    23  H    8.178396   5.294367   5.710970   7.067123   7.869270
    24  H    7.333705   4.920398   5.346961   6.847431   7.771950
    25  C    6.443947   3.721019   3.841420   5.840377   6.535686
    26  C    5.111359   2.439471   2.461833   4.663569   5.311176
    27  H    4.795366   2.611542   2.156032   4.860001   5.349197
    28  C    7.347278   4.881934   4.724112   7.077886   7.664379
    29  O    7.199484   5.006779   4.591447   7.193916   7.637037
    30  N    8.590154   6.083025   6.026063   8.245816   8.892592
    31  H    9.220806   6.865507   6.690375   9.071176   9.668924
    32  H    8.747010   6.236448   6.317827   8.370397   9.113504
    33  H    4.652651   3.396141   4.395815   2.163662   3.068937
    34  C    4.221525   4.458189   3.871486   6.319550   6.801128
    35  C    5.515212   4.168654   4.110208   6.349827   7.135057
    36  C    6.798515   5.048232   5.102842   7.244852   8.077707
    37  C    8.889492   6.835974   7.169473   8.791566   9.740357
    38  C    7.380359   5.345031   5.679667   7.335115   8.271755
    39  O    4.588467   3.366912   3.513766   5.353472   6.203056
    40  S    5.637827   4.902960   4.431985   7.094965   7.683989
    41  H    4.739707   5.340136   4.621837   7.104168   7.470158
    42  H    3.359771   3.573704   2.879541   5.371451   5.784363
    43  H    9.227803   7.467021   7.772542   9.402262  10.367708
    44  H    9.393033   7.246567   7.465172   9.317265  10.208186
    45  H    9.395968   7.177007   7.641172   8.969657   9.951180
    46  H    6.968198   5.151890   5.615722   6.945897   7.940911
    47  H    7.563329   5.870250   5.784858   8.136240   8.910513
    48  H    4.137201   4.678139   4.292477   6.359914   6.927822
                   16         17         18         19         20
    16  O    0.000000
    17  N    2.313345   0.000000
    18  C    2.791234   1.359948   0.000000
    19  H    2.535046   2.071476   1.078439   0.000000
    20  C    4.069135   2.360216   1.360623   2.155304   0.000000
    21  H    4.740905   3.334177   2.111958   2.490692   1.080041
    22  C    4.808707   2.741255   2.387230   3.391808   1.400491
    23  H    5.824153   3.818196   3.361995   4.289679   2.153901
    24  H    5.811927   3.584203   3.257952   4.126823   2.434842
    25  C    4.520657   2.364639   2.753392   3.828141   2.412827
    26  C    3.373922   1.331864   2.344527   3.285498   2.736550
    27  H    3.630579   2.075549   3.312325   4.144242   3.818698
    28  C    5.724093   3.695137   4.243925   5.314461   3.821329
    29  O    5.846552   4.090113   4.920019   5.943444   4.751169
    30  N    6.899362   4.779344   5.050336   6.122664   4.294250
    31  H    7.718090   5.638437   6.012825   7.089471   5.299865
    32  H    7.088181   4.862045   4.925666   5.967148   4.018373
    33  H    2.756182   3.938227   3.472561   2.454560   4.596891
    34  C    5.792562   4.673066   5.757025   6.291747   6.407941
    35  C    5.504864   3.509755   4.139223   4.904952   4.295094
    36  C    6.270934   4.044047   4.377175   5.258581   4.088649
    37  C    7.835630   5.595971   5.315393   6.097472   4.462723
    38  C    6.399608   4.170663   4.025047   4.826698   3.428425
    39  O    4.691125   2.949502   3.504216   4.061006   3.966482
    40  S    6.264089   4.557776   5.517145   6.290845   5.793632
    41  H    6.617716   5.636698   6.780543   7.320065   7.428440
    42  H    4.847189   4.004141   5.191141   5.664035   6.000079
    43  H    8.542575   6.341151   6.112192   6.826386   5.379616
    44  H    8.247141   5.950051   5.795002   6.682330   4.873595
    45  H    8.036321   5.881881   5.353083   6.048026   4.341121
    46  H    6.190884   4.142717   3.864533   4.468176   3.475870
    47  H    7.093727   4.860237   5.279338   6.220749   4.893326
    48  H    6.011611   4.945492   5.866806   6.282724   6.546640
                   21         22         23         24         25
    21  H    0.000000
    22  C    2.164073   0.000000
    23  H    2.496536   1.082161   0.000000
    24  H    2.893012   1.839833   2.060094   0.000000
    25  C    3.400530   1.399536   2.160542   2.427174   0.000000
    26  C    3.816129   2.388285   3.373128   3.258054   1.380249
    27  H    4.897871   3.379561   4.284516   4.094284   2.143312
    28  C    4.718588   2.565869   2.817982   3.231055   1.496396
    29  O    5.718659   3.627676   3.976944   4.331569   2.362155
    30  N    4.980657   2.897335   2.630908   3.225197   2.421087
    31  H    5.986044   3.904803   3.602725   4.099270   3.317597
    32  H    4.572501   2.668437   2.234133   2.541236   2.593585
    33  H    4.726875   5.839724   6.739187   6.438049   6.120970
    34  C    7.361533   6.121842   6.968876   5.698540   5.100690
    35  C    5.144930   3.843913   4.540026   2.991473   3.169576
    36  C    4.815114   3.353715   3.756162   2.133476   2.939019
    37  C    4.667067   3.798671   3.574281   2.105962   4.235954
    38  C    3.879019   2.891431   3.107251   1.117274   3.140659
    39  O    4.767765   3.943574   4.804196   3.243131   3.469153
    40  S    6.741777   5.170634   5.830569   4.586252   4.127032
    41  H    8.403582   7.065308   7.877864   6.666083   5.957629
    42  H    6.984334   5.831915   6.766115   5.712373   4.782710
    43  H    5.567670   4.809558   4.655603   3.031710   5.147364
    44  H    5.160031   3.930103   3.535187   2.555848   4.207227
    45  H    4.291747   3.850823   3.458341   2.337199   4.614066
    46  H    3.812018   3.376017   3.752705   1.720702   3.735133
    47  H    5.620933   3.929757   4.139241   2.842070   3.375691
    48  H    7.410864   6.417932   7.273214   5.777594   5.580027
                   26         27         28         29         30
    26  C    0.000000
    27  H    1.082778   0.000000
    28  C    2.449744   2.634511   0.000000
    29  O    2.769534   2.471049   1.208934   0.000000
    30  N    3.652366   3.970985   1.368759   2.269634   0.000000
    31  H    4.430255   4.560337   2.005612   2.455706   1.008948
    32  H    3.896795   4.388776   2.045115   3.111966   1.008772
    33  H    5.268521   5.840779   7.561701   8.003433   8.494946
    34  C    4.289580   3.681726   5.305336   5.059421   6.285308
    35  C    2.988968   3.066063   3.584696   3.981455   4.239491
    36  C    3.365344   3.677053   3.145257   3.842901   3.365084
    37  C    5.141832   5.784180   4.477583   5.519534   3.944701
    38  C    3.795696   4.447518   3.700472   4.683497   3.649085
    39  O    2.935971   3.151786   4.297465   4.719544   5.085264
    40  S    3.783444   3.310298   4.010972   3.885187   4.769374
    41  H    5.167728   4.424066   5.969433   5.550592   6.930619
    42  H    3.747621   3.068157   5.139727   4.839557   6.277800
    43  H    5.924174   6.480316   5.340794   6.291477   4.836960
    44  H    5.274616   5.825872   4.090008   5.093123   3.296156
    45  H    5.581194   6.359928   5.015873   6.148921   4.412356
    46  H    4.095860   4.784030   4.554216   5.483431   4.668310
    47  H    3.964287   4.107482   3.075091   3.649829   3.043940
    48  H    4.785915   4.370333   5.962877   5.887865   6.863245
                   31         32         33         34         35
    31  H    0.000000
    32  H    1.704906   0.000000
    33  H    9.432474   8.382186   0.000000
    34  C    6.593213   6.428077   7.307063   0.000000
    35  C    4.764136   4.059878   6.647782   2.783092   0.000000
    36  C    3.888974   2.956443   7.302591   4.061467   1.381771
    37  C    4.476497   3.004845   8.279146   6.529886   3.801965
    38  C    4.354811   2.921841   6.970350   5.273796   2.495313
    39  O    5.746078   4.876228   5.544682   2.863587   1.262265
    40  S    4.980641   4.882150   7.840879   1.798040   1.805444
    41  H    7.108597   7.152880   8.249244   1.088389   3.727462
    42  H    6.672873   6.500338   6.550835   1.087463   3.072952
    43  H    5.250212   3.939125   8.863649   6.648619   4.079379
    44  H    3.657609   2.359445   8.970883   6.760781   4.118513
    45  H    5.027838   3.421340   8.226862   7.411394   4.642605
    46  H    5.413311   3.974329   6.390020   5.254922   2.642046
    47  H    3.302255   2.715752   8.314506   4.380507   2.120908
    48  H    7.240839   6.861106   7.127570   1.088025   2.894819
                   36         37         38         39         40
    36  C    0.000000
    37  C    2.544020   0.000000
    38  C    1.470237   1.522427   0.000000
    39  O    2.361399   4.376441   2.922414   0.000000
    40  S    2.678012   5.163397   4.091230   2.668435   0.000000
    41  H    4.904321   7.374868   6.205387   3.939008   2.347599
    42  H    4.388513   6.865795   5.489130   2.886904   2.424691
    43  H    2.939540   1.090550   2.175483   4.659756   5.327066
    44  H    2.743109   1.094143   2.172040   4.914671   5.206479
    45  H    3.460684   1.091382   2.169076   5.027876   6.129317
    46  H    2.117281   2.177891   1.094637   2.623068   4.389868
    47  H    1.084150   2.741818   2.216548   3.297446   2.709990
    48  H    4.199331   6.486568   5.244475   2.696462   2.407170
                   41         42         43         44         45
    41  H    0.000000
    42  H    1.772946   0.000000
    43  H    7.437867   7.127783   0.000000
    44  H    7.518283   7.113198   1.754459   0.000000
    45  H    8.309258   7.658103   1.765757   1.766206   0.000000
    46  H    6.248862   5.449784   2.508992   3.086649   2.568793
    47  H    5.044224   4.826673   3.051166   2.537573   3.764002
    48  H    1.775754   1.775969   6.481608   6.870643   7.332280
                   46         47         48
    46  H    0.000000
    47  H    3.045083   0.000000
    48  H    5.019918   4.659062   0.000000
 Stoichiometry    C16H24N2O5S
 Framework group  C1[X(C16H24N2O5S)]
 Deg. of freedom   138
 Full point group                 C1      NOp   1
 Largest Abelian subgroup         C1      NOp   1
 Largest concise Abelian subgroup C1      NOp   1
                         Standard orientation:                         
 ---------------------------------------------------------------------
 Center     Atomic      Atomic             Coordinates (Angstroms)
 Number     Number       Type             X           Y           Z
 ---------------------------------------------------------------------
      1          6           0       -4.678239   -1.977640   -0.533564
      2          1           0       -4.635151   -2.918678    0.013358
      3          1           0       -5.702909   -1.816462   -0.869273
      4          6           0       -2.518491    0.452719   -0.691956
      5          1           0       -2.326205   -0.199548   -1.554180
      6          8           0       -2.047593    1.735666   -0.894570
      7          1           0       -1.062750    1.685799   -1.061175
      8          6           0       -4.015730    0.480175   -0.375017
      9          1           0       -4.622559    0.548012   -1.283093
     10          8           0       -4.289408    1.543393    0.502892
     11          1           0       -3.750803    2.291425    0.208280
     12          6           0       -1.990972   -0.231709    0.581258
     13          1           0       -1.804318    0.515375    1.356858
     14          6           0       -4.234421   -0.837463    0.358404
     15          1           0       -4.941838   -0.681917    1.173407
     16          8           0       -2.957762   -1.163600    0.953780
     17          7           0       -0.721329   -0.963981    0.396926
     18          6           0       -0.705725   -2.026957   -0.451187
     19          1           0       -1.649030   -2.275185   -0.911175
     20          6           0        0.438552   -2.738201   -0.641070
     21          1           0        0.430874   -3.586082   -1.310046
     22          6           0        1.606901   -2.364989    0.034985
     23          1           0        2.484418   -2.995979   -0.018755
     24          1           0        2.366723   -1.436778   -1.360034
     25          6           0        1.561157   -1.285513    0.924557
     26          6           0        0.367935   -0.608451    1.075871
     27          1           0        0.296462    0.234234    1.752024
     28          6           0        2.694829   -0.854831    1.801199
     29          8           0        2.506775   -0.170618    2.779980
     30          7           0        3.919607   -1.365648    1.465809
     31          1           0        4.688560   -0.970517    1.985962
     32          1           0        4.104983   -1.544866    0.490546
     33          1           0       -4.041000   -2.058287   -1.417437
     34          6           0        0.261487    3.602699    0.266316
     35          6           0        1.602698    1.394179   -0.767701
     36          6           0        2.734701    0.628586   -0.971981
     37          6           0        4.095678   -0.931063   -2.450924
     38          6           0        2.742449   -0.524419   -1.884184
     39          8           0        0.455766    1.181239   -1.249902
     40         16           0        1.863223    2.789816    0.347625
     41          1           0        0.374993    4.551238    0.787834
     42          1           0       -0.516319    3.019020    0.753054
     43          1           0        4.444708   -0.225141   -3.205346
     44          1           0        4.859046   -0.961329   -1.667660
     45          1           0        4.048218   -1.920212   -2.909669
     46          1           0        1.997912   -0.390493   -2.675360
     47          1           0        3.657875    0.944256   -0.499239
     48          1           0       -0.020489    3.791102   -0.767508
 ---------------------------------------------------------------------
 Rotational constants (GHZ):           0.3334709           0.1647929           0.1402602
 Leave Link  202 at Sat Aug 13 20:34:16 2022, MaxMem=  2684354560 cpu:               0.2 elap:               0.0
 (Enter /storage/apps/GAUSSIAN/G16_RevA03/g16/l301.exe)
 Standard basis: def2TZVP (5D, 7F)
 Ernie: Thresh=  0.10000D-02 Tol=  0.10000D-05 Strict=F.
 There are  1014 symmetry adapted cartesian basis functions of A   symmetry.
 There are   894 symmetry adapted basis functions of A   symmetry.
   894 basis functions,  1434 primitive gaussians,  1014 cartesian basis functions
    95 alpha electrons       95 beta electrons
       nuclear repulsion energy      2499.0035022242 Hartrees.
 IExCor= 4336 DFT=T Ex+Corr=M062X ExCW=0 ScaHFX=  0.540000
 ScaDFX=  1.000000  1.000000  1.000000  1.000000 ScalE2=  1.000000  1.000000
 IRadAn=      5 IRanWt=     -1 IRanGd=            0 ICorTp=0 IEmpDi=131
 NAtoms=   48 NActive=   48 NUniq=   48 SFac= 1.00D+00 NAtFMM=   60 NAOKFM=F Big=F
 Integral buffers will be    131072 words long.
 Raffenetti 2 integral format.
 Two-electron integral symmetry is turned on.
 R6Disp:  Grimme-D3 Dispersion energy=       -0.0042673796 Hartrees.
 Nuclear repulsion after empirical dispersion term =     2498.9992348446 Hartrees.
 Leave Link  301 at Sat Aug 13 20:34:16 2022, MaxMem=  2684354560 cpu:               0.9 elap:               0.1
 (Enter /storage/apps/GAUSSIAN/G16_RevA03/g16/l302.exe)
 NPDir=0 NMtPBC=     1 NCelOv=     1 NCel=       1 NClECP=     1 NCelD=      1
         NCelK=      1 NCelE2=     1 NClLst=     1 CellRange=     0.0.
 One-electron integrals computed using PRISM.
 One-electron integral symmetry used in STVInt
   1 Symmetry operations used in ECPInt.
 ECPInt:  NShTT=   65703 NPrTT=  200010 LenC2=   56966 LenP2D=  121511.
 LDataN:  DoStor=T MaxTD1= 6 Len=  172
 NBasis=   894 RedAO= T EigKep=  1.67D-05  NBF=   894
 NBsUse=   894 1.00D-06 EigRej= -1.00D+00 NBFU=   894
 Precomputing XC quadrature grid using
 IXCGrd= 4 IRadAn=           5 IRanWt=          -1 IRanGd=           0 AccXCQ= 0.00D+00.
 Generated NRdTot=       0 NPtTot=           0 NUsed=           0 NTot=          32
 NSgBfM=   998   997   997   998   998 MxSgAt=    48 MxSgA2=    48.
 Leave Link  302 at Sat Aug 13 20:34:17 2022, MaxMem=  2684354560 cpu:              18.7 elap:               1.2
 (Enter /storage/apps/GAUSSIAN/G16_RevA03/g16/l303.exe)
 DipDrv:  MaxL=1.
 Leave Link  303 at Sat Aug 13 20:34:17 2022, MaxMem=  2684354560 cpu:               2.0 elap:               0.2
 (Enter /storage/apps/GAUSSIAN/G16_RevA03/g16/l401.exe)
 ExpMin= 9.52D-02 ExpMax= 6.07D+04 ExpMxC= 2.07D+03 IAcc=3 IRadAn=         5 AccDes= 0.00D+00
 Harris functional with IExCor= 1009 and IRadAn=       5 diagonalized for initial guess.
 HarFok:  IExCor= 1009 AccDes= 0.00D+00 IRadAn=         5 IDoV= 1 UseB2=F ITyADJ=14
 ICtDFT=  3500011 ScaDFX=  1.000000  1.000000  1.000000  1.000000
 FoFCou: FMM=F IPFlag=           0 FMFlag=      100000 FMFlg1=           0
         NFxFlg=           0 DoJE=T BraDBF=F KetDBF=T FulRan=T
         wScrn=  0.000000 ICntrl=       500 IOpCl=  0 I1Cent=   200000004 NGrid=           0
         NMat0=    1 NMatS0=      1 NMatT0=    0 NMatD0=    1 NMtDS0=    0 NMtDT0=    0
 Petite list used in FoFCou.
 Harris En= -1507.23840067352    
 JPrj=0 DoOrth=F DoCkMO=F.
 Leave Link  401 at Sat Aug 13 20:34:21 2022, MaxMem=  2684354560 cpu:              60.5 elap:               3.8
 (Enter /storage/apps/GAUSSIAN/G16_RevA03/g16/l502.exe)
 Integral symmetry usage will be decided dynamically.
 Closed shell SCF:
 Using DIIS extrapolation, IDIIS=  1040.
 NGot=  2684354560 LenX=  2682272944 LenY=  2681243734
 Requested convergence on RMS density matrix=1.00D-08 within 128 cycles.
 Requested convergence on MAX density matrix=1.00D-06.
 Requested convergence on             energy=1.00D-06.
 No special actions if energy rises.
 Fock matrices will be formed incrementally for  20 cycles.
 Integral accuracy reduced to 1.0D-05 until final iterations.

 Cycle   1  Pass 0  IDiag  1:
 FoFJK:  IHMeth= 1 ICntrl=       0 DoSepK=F KAlg= 0 I1Cent=           0 FoldK=F
 IRaf= 800000000 NMat=       1 IRICut=       1 DoRegI=T DoRafI=F ISym2E= 0 IDoP0=0 IntGTp=1.
 FoFCou: FMM=F IPFlag=           0 FMFlag=      100000 FMFlg1=           0
         NFxFlg=           0 DoJE=F BraDBF=F KetDBF=F FulRan=T
         wScrn=  0.000000 ICntrl=         0 IOpCl=  0 I1Cent=           0 NGrid=           0
         NMat0=    1 NMatS0=      1 NMatT0=    0 NMatD0=    1 NMtDS0=    0 NMtDT0=    0
 Symmetry not used in FoFCou.
 E= -1507.15625969641    
 DIIS: error= 1.75D-02 at cycle   1 NSaved=   1.
 NSaved= 1 IEnMin= 1 EnMin= -1507.15625969641     IErMin= 1 ErrMin= 1.75D-02
 ErrMax= 1.75D-02  0.00D+00 EMaxC= 1.00D-01 BMatC= 9.96D-01 BMatP= 9.96D-01
 IDIUse=3 WtCom= 8.25D-01 WtEn= 1.75D-01
 Coeff-Com:  0.100D+01
 Coeff-En:   0.100D+01
 Coeff:      0.100D+01
 Gap=     0.179 Goal=   None    Shift=    0.000
 GapD=    0.179 DampG=1.000 DampE=0.500 DampFc=0.5000 IDamp=-1.
 Damping current iteration by 5.00D-01
 RMSDP=4.04D-03 MaxDP=1.12D+00              OVMax= 5.31D-01

 Cycle   2  Pass 0  IDiag  1:
 RMSU=  2.02D-03    CP:  1.01D+00
 E= -1507.46343700979     Delta-E=       -0.307177313384 Rises=F Damp=T
 DIIS: error= 7.44D-03 at cycle   2 NSaved=   2.
 NSaved= 2 IEnMin= 2 EnMin= -1507.46343700979     IErMin= 2 ErrMin= 7.44D-03
 ErrMax= 7.44D-03  0.00D+00 EMaxC= 1.00D-01 BMatC= 9.89D-02 BMatP= 9.96D-01
 IDIUse=3 WtCom= 9.26D-01 WtEn= 7.44D-02
 Coeff-Com:  0.152D-01 0.985D+00
 Coeff-En:   0.127D+00 0.873D+00
 Coeff:      0.236D-01 0.976D+00
 Gap=     0.169 Goal=   None    Shift=    0.000
 RMSDP=1.36D-03 MaxDP=2.67D-01 DE=-3.07D-01 OVMax= 4.27D-01

 Cycle   3  Pass 0  IDiag  1:
 RMSU=  1.17D-03    CP:  1.00D+00  6.62D-01
 E= -1507.82569601406     Delta-E=       -0.362259004268 Rises=F Damp=F
 DIIS: error= 7.71D-03 at cycle   3 NSaved=   3.
 NSaved= 3 IEnMin= 3 EnMin= -1507.82569601406     IErMin= 2 ErrMin= 7.44D-03
 ErrMax= 7.71D-03  0.00D+00 EMaxC= 1.00D-01 BMatC= 7.29D-02 BMatP= 9.89D-02
 IDIUse=3 WtCom= 9.23D-01 WtEn= 7.71D-02
 Coeff-Com: -0.723D-01 0.486D+00 0.586D+00
 Coeff-En:   0.000D+00 0.000D+00 0.100D+01
 Coeff:     -0.668D-01 0.449D+00 0.618D+00
 Gap=     0.132 Goal=   None    Shift=    0.000
 RMSDP=6.02D-04 MaxDP=3.09D-02 DE=-3.62D-01 OVMax= 1.73D-01

 Cycle   4  Pass 0  IDiag  1:
 RMSU=  4.92D-04    CP:  1.00D+00  8.01D-01  8.29D-01
 E= -1507.88923235393     Delta-E=       -0.063536339865 Rises=F Damp=F
 DIIS: error= 4.12D-03 at cycle   4 NSaved=   4.
 NSaved= 4 IEnMin= 4 EnMin= -1507.88923235393     IErMin= 4 ErrMin= 4.12D-03
 ErrMax= 4.12D-03  0.00D+00 EMaxC= 1.00D-01 BMatC= 1.08D-02 BMatP= 7.29D-02
 IDIUse=3 WtCom= 9.59D-01 WtEn= 4.12D-02
 Coeff-Com: -0.365D-01 0.105D+00 0.310D+00 0.621D+00
 Coeff-En:   0.000D+00 0.000D+00 0.903D-01 0.910D+00
 Coeff:     -0.350D-01 0.101D+00 0.301D+00 0.633D+00
 Gap=     0.153 Goal=   None    Shift=    0.000
 RMSDP=2.11D-04 MaxDP=1.45D-02 DE=-6.35D-02 OVMax= 6.70D-02

 Cycle   5  Pass 0  IDiag  1:
 RMSU=  1.59D-04    CP:  1.00D+00  7.78D-01  9.04D-01  8.06D-01
 E= -1507.89925260612     Delta-E=       -0.010020252189 Rises=F Damp=F
 DIIS: error= 9.34D-04 at cycle   5 NSaved=   5.
 NSaved= 5 IEnMin= 5 EnMin= -1507.89925260612     IErMin= 5 ErrMin= 9.34D-04
 ErrMax= 9.34D-04  0.00D+00 EMaxC= 1.00D-01 BMatC= 9.69D-04 BMatP= 1.08D-02
 IDIUse=3 WtCom= 9.91D-01 WtEn= 9.34D-03
 Coeff-Com: -0.117D-01 0.217D-01 0.103D+00 0.321D+00 0.566D+00
 Coeff-En:   0.000D+00 0.000D+00 0.000D+00 0.000D+00 0.100D+01
 Coeff:     -0.116D-01 0.215D-01 0.102D+00 0.318D+00 0.570D+00
 Gap=     0.151 Goal=   None    Shift=    0.000
 RMSDP=7.37D-05 MaxDP=7.73D-03 DE=-1.00D-02 OVMax= 1.00D-02

 Cycle   6  Pass 0  IDiag  1:
 RMSU=  6.23D-05    CP:  1.00D+00  7.77D-01  8.97D-01  8.81D-01  9.35D-01
 E= -1507.90014994299     Delta-E=       -0.000897336871 Rises=F Damp=F
 DIIS: error= 2.02D-04 at cycle   6 NSaved=   6.
 NSaved= 6 IEnMin= 6 EnMin= -1507.90014994299     IErMin= 6 ErrMin= 2.02D-04
 ErrMax= 2.02D-04  0.00D+00 EMaxC= 1.00D-01 BMatC= 1.01D-04 BMatP= 9.69D-04
 IDIUse=3 WtCom= 9.98D-01 WtEn= 2.02D-03
 Coeff-Com: -0.230D-03-0.400D-02-0.789D-03 0.608D-01 0.275D+00 0.669D+00
 Coeff-En:   0.000D+00 0.000D+00 0.000D+00 0.000D+00 0.000D+00 0.100D+01
 Coeff:     -0.229D-03-0.399D-02-0.788D-03 0.606D-01 0.275D+00 0.670D+00
 Gap=     0.153 Goal=   None    Shift=    0.000
 RMSDP=3.95D-05 MaxDP=4.13D-03 DE=-8.97D-04 OVMax= 5.80D-03

 Cycle   7  Pass 0  IDiag  1:
 RMSU=  2.37D-05    CP:  1.00D+00  7.77D-01  9.05D-01  9.02D-01  1.11D+00
                    CP:  1.09D+00
 E= -1507.90024680300     Delta-E=       -0.000096860016 Rises=F Damp=F
 DIIS: error= 8.27D-05 at cycle   7 NSaved=   7.
 NSaved= 7 IEnMin= 7 EnMin= -1507.90024680300     IErMin= 7 ErrMin= 8.27D-05
 ErrMax= 8.27D-05  0.00D+00 EMaxC= 1.00D-01 BMatC= 1.35D-05 BMatP= 1.01D-04
 IDIUse=1 WtCom= 1.00D+00 WtEn= 0.00D+00
 Coeff-Com:  0.136D-02-0.430D-02-0.150D-01-0.134D-01 0.501D-01 0.312D+00
 Coeff-Com:  0.670D+00
 Coeff:      0.136D-02-0.430D-02-0.150D-01-0.134D-01 0.501D-01 0.312D+00
 Coeff:      0.670D+00
 Gap=     0.153 Goal=   None    Shift=    0.000
 RMSDP=1.94D-05 MaxDP=2.68D-03 DE=-9.69D-05 OVMax= 2.28D-03

 Cycle   8  Pass 0  IDiag  1:
 RMSU=  1.26D-05    CP:  1.00D+00  7.75D-01  9.05D-01  9.15D-01  1.17D+00
                    CP:  1.21D+00  1.16D+00
 E= -1507.90025243830     Delta-E=       -0.000005635298 Rises=F Damp=F
 DIIS: error= 3.01D-05 at cycle   8 NSaved=   8.
 NSaved= 8 IEnMin= 8 EnMin= -1507.90025243830     IErMin= 8 ErrMin= 3.01D-05
 ErrMax= 3.01D-05  0.00D+00 EMaxC= 1.00D-01 BMatC= 2.29D-06 BMatP= 1.35D-05
 IDIUse=1 WtCom= 1.00D+00 WtEn= 0.00D+00
 Coeff-Com:  0.709D-03-0.142D-02-0.823D-02-0.169D-01-0.252D-01 0.430D-01
 Coeff-Com:  0.317D+00 0.691D+00
 Coeff:      0.709D-03-0.142D-02-0.823D-02-0.169D-01-0.252D-01 0.430D-01
 Coeff:      0.317D+00 0.691D+00
 Gap=     0.153 Goal=   None    Shift=    0.000
 RMSDP=1.77D-05 MaxDP=3.53D-03 DE=-5.64D-06 OVMax= 1.41D-03

 Cycle   9  Pass 0  IDiag  1:
 RMSU=  1.27D-05    CP:  1.00D+00  7.72D-01  9.03D-01  9.18D-01  1.18D+00
                    CP:  1.29D+00  1.31D+00  1.67D+00
 E= -1507.90024963787     Delta-E=        0.000002800436 Rises=F Damp=F
 DIIS: error= 1.66D-05 at cycle   9 NSaved=   9.
 NSaved= 9 IEnMin= 8 EnMin= -1507.90025243830     IErMin= 9 ErrMin= 1.66D-05
 ErrMax= 1.66D-05  0.00D+00 EMaxC= 1.00D-01 BMatC= 5.29D-07 BMatP= 2.29D-06
 IDIUse=1 WtCom= 1.00D+00 WtEn= 0.00D+00
 Coeff-Com:  0.217D-03-0.270D-03-0.326D-02-0.742D-02-0.198D-01-0.469D-02
 Coeff-Com:  0.897D-01 0.347D+00 0.599D+00
 Coeff:      0.217D-03-0.270D-03-0.326D-02-0.742D-02-0.198D-01-0.469D-02
 Coeff:      0.897D-01 0.347D+00 0.599D+00
 Gap=     0.153 Goal=   None    Shift=    0.000
 RMSDP=1.84D-05 MaxDP=2.13D-03 DE= 2.80D-06 OVMax= 5.89D-04

 Cycle  10  Pass 0  IDiag  1:
 RMSU=  1.05D-05    CP:  1.00D+00  7.70D-01  9.02D-01  9.20D-01  1.18D+00
                    CP:  1.34D+00  1.42D+00  2.25D+00  1.95D+00
 E= -1507.90024791043     Delta-E=        0.000001727438 Rises=F Damp=F
 DIIS: error= 2.62D-05 at cycle  10 NSaved=  10.
 NSaved=10 IEnMin= 8 EnMin= -1507.90025243830     IErMin= 9 ErrMin= 1.66D-05
 ErrMax= 2.62D-05  0.00D+00 EMaxC= 1.00D-01 BMatC= 4.35D-07 BMatP= 5.29D-07
 IDIUse=1 WtCom= 1.00D+00 WtEn= 0.00D+00
 Coeff-Com:  0.223D-03-0.278D-03-0.333D-02-0.760D-02-0.202D-01-0.481D-02
 Coeff-Com:  0.922D-01 0.356D+00 0.613D+00-0.252D-01
 Coeff:      0.223D-03-0.278D-03-0.333D-02-0.760D-02-0.202D-01-0.481D-02
 Coeff:      0.922D-01 0.356D+00 0.613D+00-0.252D-01
 Gap=     0.153 Goal=   None    Shift=    0.000
 RMSDP=1.10D-06 MaxDP=1.31D-04 DE= 1.73D-06 OVMax= 8.62D-06

 Initial convergence to 1.0D-05 achieved.  Increase integral accuracy.
 Cycle  11  Pass 1  IDiag  1:
 E= -1507.90017438900     Delta-E=        0.000073521425 Rises=F Damp=F
 DIIS: error= 3.30D-04 at cycle   1 NSaved=   1.
 NSaved= 1 IEnMin= 1 EnMin= -1507.90017438900     IErMin= 1 ErrMin= 3.30D-04
 ErrMax= 3.30D-04  0.00D+00 EMaxC= 1.00D-01 BMatC= 9.73D-05 BMatP= 9.73D-05
 IDIUse=3 WtCom= 9.97D-01 WtEn= 3.30D-03
 Coeff-Com:  0.100D+01
 Coeff-En:   0.100D+01
 Coeff:      0.100D+01
 Gap=     0.153 Goal=   None    Shift=    0.000
 RMSDP=1.10D-06 MaxDP=1.31D-04 DE= 7.35D-05 OVMax= 1.11D-03

 Cycle  12  Pass 1  IDiag  1:
 RMSU=  5.97D-04    CP:  9.91D-01
 E= -1507.90023594808     Delta-E=       -0.000061559077 Rises=F Damp=F
 DIIS: error= 1.60D-05 at cycle   2 NSaved=   2.
 NSaved= 2 IEnMin= 2 EnMin= -1507.90023594808     IErMin= 2 ErrMin= 1.60D-05
 ErrMax= 1.60D-05  0.00D+00 EMaxC= 1.00D-01 BMatC= 1.67D-07 BMatP= 9.73D-05
 IDIUse=1 WtCom= 1.00D+00 WtEn= 0.00D+00
 Coeff-Com: -0.145D-01 0.101D+01
 Coeff:     -0.145D-01 0.101D+01
 Gap=     0.153 Goal=   None    Shift=    0.000
 RMSDP=2.29D-05 MaxDP=2.14D-03 DE=-6.16D-05 OVMax= 5.90D-04

 Cycle  13  Pass 1  IDiag  1:
 RMSU=  9.03D-06    CP:  9.91D-01  1.04D+00
 E= -1507.90023582386     Delta-E=        0.000000124220 Rises=F Damp=F
 DIIS: error= 2.07D-05 at cycle   3 NSaved=   3.
 NSaved= 3 IEnMin= 2 EnMin= -1507.90023594808     IErMin= 2 ErrMin= 1.60D-05
 ErrMax= 2.07D-05  0.00D+00 EMaxC= 1.00D-01 BMatC= 3.40D-07 BMatP= 1.67D-07
 IDIUse=1 WtCom= 1.00D+00 WtEn= 0.00D+00
 Coeff-Com: -0.104D-01 0.619D+00 0.392D+00
 Coeff:     -0.104D-01 0.619D+00 0.392D+00
 Gap=     0.153 Goal=   None    Shift=    0.000
 RMSDP=1.15D-06 MaxDP=7.52D-05 DE= 1.24D-07 OVMax= 2.51D-04

 Cycle  14  Pass 1  IDiag  1:
 RMSU=  1.11D-06    CP:  9.91D-01  1.04D+00  1.00D+00
 E= -1507.90023618098     Delta-E=       -0.000000357122 Rises=F Damp=F
 DIIS: error= 1.28D-06 at cycle   4 NSaved=   4.
 NSaved= 4 IEnMin= 4 EnMin= -1507.90023618098     IErMin= 4 ErrMin= 1.28D-06
 ErrMax= 1.28D-06  0.00D+00 EMaxC= 1.00D-01 BMatC= 1.02D-09 BMatP= 1.67D-07
 IDIUse=1 WtCom= 1.00D+00 WtEn= 0.00D+00
 Coeff-Com: -0.703D-04-0.626D-02 0.683D-02 0.100D+01
 Coeff:     -0.703D-04-0.626D-02 0.683D-02 0.100D+01
 Gap=     0.153 Goal=   None    Shift=    0.000
 RMSDP=6.15D-07 MaxDP=4.97D-05 DE=-3.57D-07 OVMax= 7.47D-05

 Cycle  15  Pass 1  IDiag  1:
 RMSU=  2.76D-07    CP:  9.91D-01  1.04D+00  1.04D+00  1.04D+00
 E= -1507.90023618430     Delta-E=       -0.000000003319 Rises=F Damp=F
 DIIS: error= 5.46D-07 at cycle   5 NSaved=   5.
 NSaved= 5 IEnMin= 5 EnMin= -1507.90023618430     IErMin= 5 ErrMin= 5.46D-07
 ErrMax= 5.46D-07  0.00D+00 EMaxC= 1.00D-01 BMatC= 1.05D-09 BMatP= 1.02D-09
 IDIUse=1 WtCom= 1.00D+00 WtEn= 0.00D+00
 Coeff-Com:  0.680D-03-0.461D-01-0.344D-01 0.521D+00 0.559D+00
 Coeff:      0.680D-03-0.461D-01-0.344D-01 0.521D+00 0.559D+00
 Gap=     0.153 Goal=   None    Shift=    0.000
 RMSDP=1.04D-07 MaxDP=9.90D-06 DE=-3.32D-09 OVMax= 1.96D-05

 Cycle  16  Pass 1  IDiag  1:
 RMSU=  6.70D-08    CP:  9.91D-01  1.04D+00  1.04D+00  1.04D+00  1.16D+00
 E= -1507.90023618557     Delta-E=       -0.000000001269 Rises=F Damp=F
 DIIS: error= 2.57D-07 at cycle   6 NSaved=   6.
 NSaved= 6 IEnMin= 6 EnMin= -1507.90023618557     IErMin= 6 ErrMin= 2.57D-07
 ErrMax= 2.57D-07  0.00D+00 EMaxC= 1.00D-01 BMatC= 1.26D-10 BMatP= 1.02D-09
 IDIUse=1 WtCom= 1.00D+00 WtEn= 0.00D+00
 Coeff-Com:  0.140D-03-0.693D-02-0.202D-01-0.113D+00 0.748D-01 0.106D+01
 Coeff:      0.140D-03-0.693D-02-0.202D-01-0.113D+00 0.748D-01 0.106D+01
 Gap=     0.153 Goal=   None    Shift=    0.000
 RMSDP=9.23D-08 MaxDP=9.10D-06 DE=-1.27D-09 OVMax= 2.35D-05

 Cycle  17  Pass 1  IDiag  1:
 RMSU=  4.26D-08    CP:  9.91D-01  1.04D+00  1.05D+00  1.05D+00  1.43D+00
                    CP:  1.45D+00
 E= -1507.90023618594     Delta-E=       -0.000000000370 Rises=F Damp=F
 DIIS: error= 1.07D-07 at cycle   7 NSaved=   7.
 NSaved= 7 IEnMin= 7 EnMin= -1507.90023618594     IErMin= 7 ErrMin= 1.07D-07
 ErrMax= 1.07D-07  0.00D+00 EMaxC= 1.00D-01 BMatC= 4.44D-11 BMatP= 1.26D-10
 IDIUse=1 WtCom= 1.00D+00 WtEn= 0.00D+00
 Coeff-Com: -0.715D-04 0.625D-02-0.668D-02-0.170D+00-0.711D-01 0.630D+00
 Coeff-Com:  0.612D+00
 Coeff:     -0.715D-04 0.625D-02-0.668D-02-0.170D+00-0.711D-01 0.630D+00
 Coeff:      0.612D+00
 Gap=     0.153 Goal=   None    Shift=    0.000
 RMSDP=3.08D-08 MaxDP=3.82D-06 DE=-3.70D-10 OVMax= 9.22D-06

 Cycle  18  Pass 1  IDiag  1:
 RMSU=  1.32D-08    CP:  9.91D-01  1.04D+00  1.05D+00  1.05D+00  1.50D+00
                    CP:  1.65D+00  1.26D+00
 E= -1507.90023618601     Delta-E=       -0.000000000071 Rises=F Damp=F
 DIIS: error= 3.28D-08 at cycle   8 NSaved=   8.
 NSaved= 8 IEnMin= 8 EnMin= -1507.90023618601     IErMin= 8 ErrMin= 3.28D-08
 ErrMax= 3.28D-08  0.00D+00 EMaxC= 1.00D-01 BMatC= 2.74D-12 BMatP= 4.44D-11
 IDIUse=1 WtCom= 1.00D+00 WtEn= 0.00D+00
 Coeff-Com: -0.406D-04 0.296D-02-0.750D-03-0.473D-01-0.349D-01 0.935D-01
 Coeff-Com:  0.223D+00 0.763D+00
 Coeff:     -0.406D-04 0.296D-02-0.750D-03-0.473D-01-0.349D-01 0.935D-01
 Coeff:      0.223D+00 0.763D+00
 Gap=     0.153 Goal=   None    Shift=    0.000
 RMSDP=1.05D-08 MaxDP=9.00D-07 DE=-7.09D-11 OVMax= 2.50D-06

 Cycle  19  Pass 1  IDiag  1:
 RMSU=  3.97D-09    CP:  9.91D-01  1.04D+00  1.05D+00  1.05D+00  1.52D+00
                    CP:  1.71D+00  1.41D+00  1.11D+00
 E= -1507.90023618605     Delta-E=       -0.000000000040 Rises=F Damp=F
 DIIS: error= 1.50D-08 at cycle   9 NSaved=   9.
 NSaved= 9 IEnMin= 9 EnMin= -1507.90023618605     IErMin= 9 ErrMin= 1.50D-08
 ErrMax= 1.50D-08  0.00D+00 EMaxC= 1.00D-01 BMatC= 4.37D-13 BMatP= 2.74D-12
 IDIUse=1 WtCom= 1.00D+00 WtEn= 0.00D+00
 Coeff-Com: -0.732D-05 0.366D-03 0.529D-03 0.606D-02-0.373D-02-0.558D-01
 Coeff-Com:  0.577D-02 0.330D+00 0.716D+00
 Coeff:     -0.732D-05 0.366D-03 0.529D-03 0.606D-02-0.373D-02-0.558D-01
 Coeff:      0.577D-02 0.330D+00 0.716D+00
 Gap=     0.153 Goal=   None    Shift=    0.000
 RMSDP=3.60D-09 MaxDP=4.14D-07 DE=-3.96D-11 OVMax= 8.92D-07

 SCF Done:  E(RM062X) =  -1507.90023619     A.U. after   19 cycles
            NFock= 19  Conv=0.36D-08     -V/T= 2.0037
 KE= 1.502300866306D+03 PE=-8.535416487012D+03 EE= 3.026216149675D+03
 Leave Link  502 at Sat Aug 13 20:43:29 2022, MaxMem=  2684354560 cpu:            8759.9 elap:             548.3
 (Enter /storage/apps/GAUSSIAN/G16_RevA03/g16/l601.exe)
 Copying SCF densities to generalized density rwf, IOpCl= 0 IROHF=0.

 **********************************************************************

            Population analysis using the SCF density.

 **********************************************************************

 Orbital symmetries:
       Occupied  (A) (A) (A) (A) (A) (A) (A) (A) (A) (A) (A) (A)
                 (A) (A) (A) (A) (A) (A) (A) (A) (A) (A) (A) (A)
                 (A) (A) (A) (A) (A) (A) (A) (A) (A) (A) (A) (A)
                 (A) (A) (A) (A) (A) (A) (A) (A) (A) (A) (A) (A)
                 (A) (A) (A) (A) (A) (A) (A) (A) (A) (A) (A) (A)
                 (A) (A) (A) (A) (A) (A) (A) (A) (A) (A) (A) (A)
                 (A) (A) (A) (A) (A) (A) (A) (A) (A) (A) (A) (A)
                 (A) (A) (A) (A) (A) (A) (A) (A) (A) (A) (A)
       Virtual   (A) (A) (A) (A) (A) (A) (A) (A) (A) (A) (A) (A)
                 (A) (A) (A) (A) (A) (A) (A) (A) (A) (A) (A) (A)
                 (A) (A) (A) (A) (A) (A) (A) (A) (A) (A) (A) (A)
                 (A) (A) (A) (A) (A) (A) (A) (A) (A) (A) (A) (A)
                 (A) (A) (A) (A) (A) (A) (A) (A) (A) (A) (A) (A)
                 (A) (A) (A) (A) (A) (A) (A) (A) (A) (A) (A) (A)
                 (A) (A) (A) (A) (A) (A) (A) (A) (A) (A) (A) (A)
                 (A) (A) (A) (A) (A) (A) (A) (A) (A) (A) (A) (A)
                 (A) (A) (A) (A) (A) (A) (A) (A) (A) (A) (A) (A)
                 (A) (A) (A) (A) (A) (A) (A) (A) (A) (A) (A) (A)
                 (A) (A) (A) (A) (A) (A) (A) (A) (A) (A) (A) (A)
                 (A) (A) (A) (A) (A) (A) (A) (A) (A) (A) (A) (A)
                 (A) (A) (A) (A) (A) (A) (A) (A) (A) (A) (A) (A)
                 (A) (A) (A) (A) (A) (A) (A) (A) (A) (A) (A) (A)
                 (A) (A) (A) (A) (A) (A) (A) (A) (A) (A) (A) (A)
                 (A) (A) (A) (A) (A) (A) (A) (A) (A) (A) (A) (A)
                 (A) (A) (A) (A) (A) (A) (A) (A) (A) (A) (A) (A)
                 (A) (A) (A) (A) (A) (A) (A) (A) (A) (A) (A) (A)
                 (A) (A) (A) (A) (A) (A) (A) (A) (A) (A) (A) (A)
                 (A) (A) (A) (A) (A) (A) (A) (A) (A) (A) (A) (A)
                 (A) (A) (A) (A) (A) (A) (A) (A) (A) (A) (A) (A)
                 (A) (A) (A) (A) (A) (A) (A) (A) (A) (A) (A) (A)
                 (A) (A) (A) (A) (A) (A) (A) (A) (A) (A) (A) (A)
                 (A) (A) (A) (A) (A) (A) (A) (A) (A) (A) (A) (A)
                 (A) (A) (A) (A) (A) (A) (A) (A) (A) (A) (A) (A)
                 (A) (A) (A) (A) (A) (A) (A) (A) (A) (A) (A) (A)
                 (A) (A) (A) (A) (A) (A) (A) (A) (A) (A) (A) (A)
                 (A) (A) (A) (A) (A) (A) (A) (A) (A) (A) (A) (A)
                 (A) (A) (A) (A) (A) (A) (A) (A) (A) (A) (A) (A)
                 (A) (A) (A) (A) (A) (A) (A) (A) (A) (A) (A) (A)
                 (A) (A) (A) (A) (A) (A) (A) (A) (A) (A) (A) (A)
                 (A) (A) (A) (A) (A) (A) (A) (A) (A) (A) (A) (A)
                 (A) (A) (A) (A) (A) (A) (A) (A) (A) (A) (A) (A)
                 (A) (A) (A) (A) (A) (A) (A) (A) (A) (A) (A) (A)
                 (A) (A) (A) (A) (A) (A) (A) (A) (A) (A) (A) (A)
                 (A) (A) (A) (A) (A) (A) (A) (A) (A) (A) (A) (A)
                 (A) (A) (A) (A) (A) (A) (A) (A) (A) (A) (A) (A)
                 (A) (A) (A) (A) (A) (A) (A) (A) (A) (A) (A) (A)
                 (A) (A) (A) (A) (A) (A) (A) (A) (A) (A) (A) (A)
                 (A) (A) (A) (A) (A) (A) (A) (A) (A) (A) (A) (A)
                 (A) (A) (A) (A) (A) (A) (A) (A) (A) (A) (A) (A)
                 (A) (A) (A) (A) (A) (A) (A) (A) (A) (A) (A) (A)
                 (A) (A) (A) (A) (A) (A) (A) (A) (A) (A) (A) (A)
                 (A) (A) (A) (A) (A) (A) (A) (A) (A) (A) (A) (A)
                 (A) (A) (A) (A) (A) (A) (A) (A) (A) (A) (A) (A)
                 (A) (A) (A) (A) (A) (A) (A) (A) (A) (A) (A) (A)
                 (A) (A) (A) (A) (A) (A) (A) (A) (A) (A) (A) (A)
                 (A) (A) (A) (A) (A) (A) (A) (A) (A) (A) (A) (A)
                 (A) (A) (A) (A) (A) (A) (A) (A) (A) (A) (A) (A)
                 (A) (A) (A) (A) (A) (A) (A) (A) (A) (A) (A) (A)
                 (A) (A) (A) (A) (A) (A) (A) (A) (A) (A) (A) (A)
                 (A) (A) (A) (A) (A) (A) (A) (A) (A) (A) (A) (A)
                 (A) (A) (A) (A) (A) (A) (A) (A) (A) (A) (A) (A)
                 (A) (A) (A) (A) (A) (A) (A) (A) (A) (A) (A) (A)
                 (A) (A) (A) (A) (A) (A) (A) (A) (A) (A) (A) (A)
                 (A) (A) (A) (A) (A) (A) (A) (A) (A) (A) (A) (A)
                 (A) (A) (A) (A) (A) (A) (A) (A) (A) (A) (A) (A)
                 (A) (A) (A) (A) (A) (A) (A) (A) (A) (A) (A) (A)
                 (A) (A) (A) (A) (A) (A) (A) (A) (A) (A) (A) (A)
                 (A) (A) (A) (A) (A) (A) (A) (A) (A) (A) (A) (A)
                 (A) (A) (A) (A) (A) (A) (A) (A) (A) (A) (A) (A)
                 (A) (A) (A) (A) (A) (A) (A) (A) (A) (A) (A) (A)
                 (A) (A) (A) (A) (A) (A) (A) (A) (A) (A) (A) (A)
                 (A) (A) (A) (A) (A) (A) (A) (A) (A) (A) (A) (A)
                 (A) (A) (A) (A) (A) (A) (A) (A) (A) (A) (A) (A)
                 (A) (A) (A) (A) (A) (A) (A) (A) (A) (A) (A) (A)
                 (A) (A) (A) (A) (A) (A) (A)
 The electronic state is 1-A.
 Alpha  occ. eigenvalues --  -89.87167 -19.66308 -19.63216 -19.61955 -19.60895
 Alpha  occ. eigenvalues --  -19.57484 -14.87301 -14.77774 -10.66373 -10.66082
 Alpha  occ. eigenvalues --  -10.63868 -10.62895 -10.61060 -10.61060 -10.60482
 Alpha  occ. eigenvalues --  -10.60416 -10.59722 -10.59275 -10.59178 -10.55004
 Alpha  occ. eigenvalues --  -10.53920 -10.52663 -10.52614 -10.49716  -8.23077
 Alpha  occ. eigenvalues --   -6.15044  -6.14816  -6.14553  -1.22199  -1.18221
 Alpha  occ. eigenvalues --   -1.17008  -1.15240  -1.13935  -1.11100  -1.03058
 Alpha  occ. eigenvalues --   -0.97402  -0.92806  -0.90543  -0.88496  -0.87656
 Alpha  occ. eigenvalues --   -0.85844  -0.81343  -0.80277  -0.79436  -0.76672
 Alpha  occ. eigenvalues --   -0.73103  -0.72293  -0.69799  -0.69050  -0.66979
 Alpha  occ. eigenvalues --   -0.66252  -0.64010  -0.62803  -0.61964  -0.60993
 Alpha  occ. eigenvalues --   -0.59997  -0.58202  -0.57865  -0.57349  -0.56082
 Alpha  occ. eigenvalues --   -0.55625  -0.54254  -0.52955  -0.52788  -0.52059
 Alpha  occ. eigenvalues --   -0.51736  -0.51191  -0.50310  -0.50111  -0.48718
 Alpha  occ. eigenvalues --   -0.48455  -0.48223  -0.47707  -0.47127  -0.46344
 Alpha  occ. eigenvalues --   -0.45658  -0.45559  -0.45012  -0.44314  -0.43496
 Alpha  occ. eigenvalues --   -0.43369  -0.40942  -0.39818  -0.38944  -0.37918
 Alpha  occ. eigenvalues --   -0.37452  -0.36857  -0.36740  -0.36439  -0.35995
 Alpha  occ. eigenvalues --   -0.34773  -0.34070  -0.29641  -0.28313  -0.21517
 Alpha virt. eigenvalues --   -0.06233  -0.03794   0.03728   0.04732   0.05288
 Alpha virt. eigenvalues --    0.06221   0.07067   0.07301   0.08181   0.08816
 Alpha virt. eigenvalues --    0.09337   0.10060   0.10290   0.10697   0.11356
 Alpha virt. eigenvalues --    0.11498   0.11986   0.12604   0.12843   0.13250
 Alpha virt. eigenvalues --    0.13839   0.13997   0.14334   0.14510   0.15106
 Alpha virt. eigenvalues --    0.15445   0.15639   0.16150   0.16389   0.16750
 Alpha virt. eigenvalues --    0.17612   0.17714   0.18470   0.18981   0.19548
 Alpha virt. eigenvalues --    0.20674   0.21037   0.21367   0.21633   0.22135
 Alpha virt. eigenvalues --    0.22844   0.23176   0.23644   0.23683   0.24122
 Alpha virt. eigenvalues --    0.24752   0.25408   0.25761   0.25859   0.26277
 Alpha virt. eigenvalues --    0.26645   0.27012   0.27865   0.28183   0.28705
 Alpha virt. eigenvalues --    0.29155   0.29486   0.29943   0.30561   0.31519
 Alpha virt. eigenvalues --    0.31718   0.31879   0.32532   0.33021   0.33428
 Alpha virt. eigenvalues --    0.33999   0.34545   0.35070   0.35714   0.36208
 Alpha virt. eigenvalues --    0.36800   0.36962   0.37321   0.37665   0.38172
 Alpha virt. eigenvalues --    0.38772   0.39165   0.39529   0.39724   0.39869
 Alpha virt. eigenvalues --    0.40308   0.40586   0.41152   0.41723   0.42026
 Alpha virt. eigenvalues --    0.42666   0.42947   0.43220   0.43669   0.44167
 Alpha virt. eigenvalues --    0.44301   0.44484   0.45056   0.45320   0.45664
 Alpha virt. eigenvalues --    0.45750   0.46275   0.46544   0.46963   0.47484
 Alpha virt. eigenvalues --    0.47749   0.48134   0.48469   0.48857   0.49205
 Alpha virt. eigenvalues --    0.49458   0.49715   0.49908   0.50634   0.50800
 Alpha virt. eigenvalues --    0.51215   0.51443   0.52100   0.52970   0.53404
 Alpha virt. eigenvalues --    0.53719   0.54041   0.54193   0.54836   0.55159
 Alpha virt. eigenvalues --    0.55498   0.55876   0.55991   0.56562   0.57650
 Alpha virt. eigenvalues --    0.58186   0.58691   0.59306   0.59770   0.60042
 Alpha virt. eigenvalues --    0.60682   0.61342   0.61696   0.61871   0.63007
 Alpha virt. eigenvalues --    0.63374   0.63694   0.64455   0.64983   0.65506
 Alpha virt. eigenvalues --    0.65928   0.66068   0.67008   0.67289   0.67502
 Alpha virt. eigenvalues --    0.67955   0.68476   0.68923   0.69324   0.70875
 Alpha virt. eigenvalues --    0.71555   0.71883   0.72620   0.73198   0.73727
 Alpha virt. eigenvalues --    0.74123   0.74551   0.75212   0.75889   0.77155
 Alpha virt. eigenvalues --    0.77798   0.78425   0.79539   0.80127   0.81205
 Alpha virt. eigenvalues --    0.82004   0.82275   0.82406   0.83037   0.83929
 Alpha virt. eigenvalues --    0.84939   0.86013   0.86638   0.87246   0.87623
 Alpha virt. eigenvalues --    0.87836   0.88846   0.89540   0.89728   0.90148
 Alpha virt. eigenvalues --    0.90611   0.91335   0.91963   0.92450   0.93013
 Alpha virt. eigenvalues --    0.93480   0.94640   0.95033   0.95352   0.95810
 Alpha virt. eigenvalues --    0.96665   0.97613   0.98261   0.98948   0.99715
 Alpha virt. eigenvalues --    1.00020   1.01155   1.01742   1.02003   1.02774
 Alpha virt. eigenvalues --    1.03370   1.03531   1.04320   1.05669   1.06505
 Alpha virt. eigenvalues --    1.07217   1.07978   1.08671   1.08962   1.09442
 Alpha virt. eigenvalues --    1.09931   1.10903   1.11933   1.12359   1.12967
 Alpha virt. eigenvalues --    1.14146   1.15032   1.16125   1.16795   1.17467
 Alpha virt. eigenvalues --    1.17894   1.18339   1.18732   1.19213   1.19985
 Alpha virt. eigenvalues --    1.21249   1.21824   1.22632   1.23555   1.24083
 Alpha virt. eigenvalues --    1.24536   1.25978   1.26185   1.27243   1.28134
 Alpha virt. eigenvalues --    1.28563   1.29066   1.29315   1.29918   1.31483
 Alpha virt. eigenvalues --    1.31848   1.32582   1.33519   1.34118   1.34614
 Alpha virt. eigenvalues --    1.35592   1.36231   1.37839   1.39183   1.39951
 Alpha virt. eigenvalues --    1.40501   1.41238   1.42613   1.42775   1.44018
 Alpha virt. eigenvalues --    1.45005   1.45385   1.45994   1.47612   1.50314
 Alpha virt. eigenvalues --    1.50992   1.52184   1.52937   1.53174   1.53289
 Alpha virt. eigenvalues --    1.54047   1.54469   1.54745   1.55329   1.56022
 Alpha virt. eigenvalues --    1.56670   1.56960   1.57219   1.58008   1.58876
 Alpha virt. eigenvalues --    1.59510   1.59686   1.60181   1.60688   1.61167
 Alpha virt. eigenvalues --    1.61313   1.61613   1.62517   1.62898   1.63347
 Alpha virt. eigenvalues --    1.63416   1.64209   1.64536   1.64744   1.65547
 Alpha virt. eigenvalues --    1.66042   1.67225   1.67448   1.68338   1.68665
 Alpha virt. eigenvalues --    1.69600   1.70112   1.70453   1.71252   1.71503
 Alpha virt. eigenvalues --    1.72038   1.72656   1.73097   1.74296   1.75037
 Alpha virt. eigenvalues --    1.75851   1.76614   1.77286   1.78100   1.78138
 Alpha virt. eigenvalues --    1.78518   1.79103   1.80126   1.80798   1.80999
 Alpha virt. eigenvalues --    1.82779   1.83291   1.84095   1.84286   1.84884
 Alpha virt. eigenvalues --    1.86327   1.86701   1.87089   1.88225   1.89120
 Alpha virt. eigenvalues --    1.89375   1.89498   1.90253   1.91401   1.91665
 Alpha virt. eigenvalues --    1.92761   1.93185   1.94340   1.94440   1.94554
 Alpha virt. eigenvalues --    1.95015   1.96517   1.97050   1.97996   1.98105
 Alpha virt. eigenvalues --    1.99439   2.00229   2.00524   2.01491   2.02741
 Alpha virt. eigenvalues --    2.03207   2.03706   2.03954   2.04602   2.04880
 Alpha virt. eigenvalues --    2.06039   2.06567   2.07482   2.09022   2.09655
 Alpha virt. eigenvalues --    2.10336   2.10981   2.11607   2.12624   2.13687
 Alpha virt. eigenvalues --    2.13962   2.14717   2.16710   2.16932   2.17477
 Alpha virt. eigenvalues --    2.17949   2.18735   2.19135   2.19985   2.20466
 Alpha virt. eigenvalues --    2.21238   2.21678   2.22725   2.22936   2.23485
 Alpha virt. eigenvalues --    2.23699   2.24404   2.25389   2.26504   2.27035
 Alpha virt. eigenvalues --    2.27936   2.28270   2.29111   2.29930   2.30324
 Alpha virt. eigenvalues --    2.31103   2.32117   2.33162   2.34020   2.34607
 Alpha virt. eigenvalues --    2.35036   2.35554   2.36245   2.36486   2.36904
 Alpha virt. eigenvalues --    2.37685   2.38178   2.38919   2.39082   2.39741
 Alpha virt. eigenvalues --    2.40481   2.41725   2.42439   2.42737   2.43808
 Alpha virt. eigenvalues --    2.45134   2.45697   2.45953   2.46516   2.47345
 Alpha virt. eigenvalues --    2.48219   2.50031   2.50693   2.51702   2.52074
 Alpha virt. eigenvalues --    2.54097   2.54199   2.54596   2.55581   2.56212
 Alpha virt. eigenvalues --    2.56836   2.57732   2.57994   2.58238   2.58562
 Alpha virt. eigenvalues --    2.59928   2.60252   2.60463   2.61459   2.61633
 Alpha virt. eigenvalues --    2.62055   2.63534   2.64090   2.64220   2.65644
 Alpha virt. eigenvalues --    2.66226   2.66615   2.67113   2.67684   2.68513
 Alpha virt. eigenvalues --    2.69420   2.69716   2.70125   2.70460   2.71129
 Alpha virt. eigenvalues --    2.72118   2.72339   2.73035   2.74240   2.74700
 Alpha virt. eigenvalues --    2.74997   2.76359   2.77105   2.77228   2.78711
 Alpha virt. eigenvalues --    2.79445   2.79757   2.80669   2.80968   2.81994
 Alpha virt. eigenvalues --    2.82417   2.82945   2.83849   2.84226   2.84550
 Alpha virt. eigenvalues --    2.85448   2.86299   2.86755   2.87618   2.87979
 Alpha virt. eigenvalues --    2.88748   2.89891   2.90389   2.90602   2.91653
 Alpha virt. eigenvalues --    2.92724   2.93884   2.94294   2.95272   2.95758
 Alpha virt. eigenvalues --    2.97240   2.97812   2.98688   2.99435   2.99585
 Alpha virt. eigenvalues --    3.00593   3.01619   3.02194   3.03032   3.03408
 Alpha virt. eigenvalues --    3.04063   3.04647   3.05587   3.05944   3.06740
 Alpha virt. eigenvalues --    3.08471   3.08547   3.08884   3.09863   3.10102
 Alpha virt. eigenvalues --    3.10407   3.10813   3.11531   3.12560   3.13049
 Alpha virt. eigenvalues --    3.13628   3.14284   3.14379   3.15037   3.15953
 Alpha virt. eigenvalues --    3.16266   3.16585   3.17322   3.17756   3.18497
 Alpha virt. eigenvalues --    3.19822   3.20119   3.20685   3.21037   3.21393
 Alpha virt. eigenvalues --    3.21876   3.22739   3.23623   3.24221   3.25138
 Alpha virt. eigenvalues --    3.25793   3.26811   3.27042   3.27655   3.28517
 Alpha virt. eigenvalues --    3.29168   3.30143   3.30577   3.30810   3.31620
 Alpha virt. eigenvalues --    3.32109   3.32880   3.33055   3.33860   3.34605
 Alpha virt. eigenvalues --    3.35238   3.35739   3.36279   3.36487   3.37012
 Alpha virt. eigenvalues --    3.38463   3.38932   3.39572   3.40075   3.40704
 Alpha virt. eigenvalues --    3.41125   3.41781   3.41943   3.43083   3.43510
 Alpha virt. eigenvalues --    3.44261   3.44713   3.45049   3.45569   3.45840
 Alpha virt. eigenvalues --    3.46622   3.47546   3.48639   3.48887   3.49961
 Alpha virt. eigenvalues --    3.50228   3.51438   3.53006   3.53130   3.54293
 Alpha virt. eigenvalues --    3.54485   3.55660   3.56132   3.56380   3.57139
 Alpha virt. eigenvalues --    3.57876   3.58230   3.59420   3.59977   3.60216
 Alpha virt. eigenvalues --    3.60771   3.61522   3.62502   3.63795   3.64429
 Alpha virt. eigenvalues --    3.66266   3.66823   3.67768   3.68645   3.69862
 Alpha virt. eigenvalues --    3.70794   3.71199   3.73064   3.73741   3.74512
 Alpha virt. eigenvalues --    3.76057   3.76527   3.77881   3.78962   3.79579
 Alpha virt. eigenvalues --    3.80553   3.80969   3.82252   3.82993   3.85597
 Alpha virt. eigenvalues --    3.86083   3.86922   3.88145   3.88646   3.89567
 Alpha virt. eigenvalues --    3.91696   3.92237   3.93513   3.94309   3.94949
 Alpha virt. eigenvalues --    3.96930   3.97584   3.97903   3.98272   3.99598
 Alpha virt. eigenvalues --    4.00876   4.01383   4.04533   4.06170   4.07364
 Alpha virt. eigenvalues --    4.09146   4.09463   4.11485   4.12909   4.13643
 Alpha virt. eigenvalues --    4.14166   4.15771   4.16759   4.17951   4.19601
 Alpha virt. eigenvalues --    4.20273   4.20455   4.21593   4.23475   4.25474
 Alpha virt. eigenvalues --    4.26735   4.27233   4.28132   4.29581   4.31076
 Alpha virt. eigenvalues --    4.31827   4.32961   4.35114   4.36293   4.37190
 Alpha virt. eigenvalues --    4.39375   4.39958   4.41257   4.43084   4.43894
 Alpha virt. eigenvalues --    4.45005   4.46241   4.46500   4.47810   4.49983
 Alpha virt. eigenvalues --    4.50777   4.52032   4.55290   4.57269   4.57381
 Alpha virt. eigenvalues --    4.59656   4.61169   4.63287   4.65036   4.67395
 Alpha virt. eigenvalues --    4.67971   4.72996   4.73739   4.75562   4.75687
 Alpha virt. eigenvalues --    4.78036   4.80323   4.80829   4.83226   4.83633
 Alpha virt. eigenvalues --    4.85339   4.87073   4.88967   4.90445   4.91343
 Alpha virt. eigenvalues --    4.92604   4.93364   4.95142   4.97725   4.98184
 Alpha virt. eigenvalues --    4.99897   5.03054   5.04668   5.05473   5.07089
 Alpha virt. eigenvalues --    5.09137   5.13247   5.15905   5.19317   5.20775
 Alpha virt. eigenvalues --    5.21762   5.25376   5.26404   5.27148   5.27790
 Alpha virt. eigenvalues --    5.30672   5.31535   5.32078   5.35162   5.38062
 Alpha virt. eigenvalues --    5.39757   5.42460   5.43305   5.45525   5.47386
 Alpha virt. eigenvalues --    5.48835   5.49431   5.51013   5.53331   5.58081
 Alpha virt. eigenvalues --    5.64377   5.67277   5.72673   5.74687   5.77834
 Alpha virt. eigenvalues --    5.79999   5.81086   5.83512   5.84327   5.86831
 Alpha virt. eigenvalues --    5.89400   5.90633   5.91934   5.94170   5.95786
 Alpha virt. eigenvalues --    5.97452   6.03754   6.06133   6.15302   6.17269
 Alpha virt. eigenvalues --    6.20267   6.22879   6.26048   6.26920   6.38414
 Alpha virt. eigenvalues --    6.41777   6.44031   6.47843   6.48941   6.55129
 Alpha virt. eigenvalues --    6.59337   6.66995   6.73113   6.75201   6.76288
 Alpha virt. eigenvalues --    6.78039   6.80708   6.84074   6.85215   6.86993
 Alpha virt. eigenvalues --    6.88900   6.95514   6.99914   7.07535   7.09144
 Alpha virt. eigenvalues --    7.09610   7.12300   7.16876   7.19456   7.21814
 Alpha virt. eigenvalues --    7.32345   7.40021   9.06317   9.42629   9.59110
 Alpha virt. eigenvalues --   19.83771  22.36277  22.46907  22.49663  22.60590
 Alpha virt. eigenvalues --   22.65011  22.71262  22.74985  22.76748  22.82239
 Alpha virt. eigenvalues --   22.86602  22.95490  22.97506  23.07472  23.18188
 Alpha virt. eigenvalues --   23.29317  23.52275  32.19129  33.17079  44.14272
 Alpha virt. eigenvalues --   44.22665  44.26062  44.35332  44.51571
          Condensed to atoms (all electrons):
               1          2          3          4          5          6
     1  C    5.147070   0.428930   0.412851   0.007498  -0.006702  -0.000253
     2  H    0.428930   0.496431  -0.013938  -0.002303   0.000467  -0.000005
     3  H    0.412851  -0.013938   0.506022  -0.000722   0.000208  -0.000009
     4  C    0.007498  -0.002303  -0.000722   5.599299   0.542664   0.229831
     5  H   -0.006702   0.000467   0.000208   0.542664   0.527214  -0.035206
     6  O   -0.000253  -0.000005  -0.000009   0.229831  -0.035206   8.168912
     7  H    0.000002  -0.000003  -0.000003  -0.056125  -0.006922   0.308895
     8  C   -0.006884   0.011003  -0.000874  -0.052235  -0.106324  -0.061336
     9  H    0.006893  -0.000298  -0.002021  -0.074486   0.002101   0.001290
    10  O    0.005250  -0.000190  -0.000016   0.050557   0.005626  -0.022204
[...]
 ***** Axes restored to original set *****
 -------------------------------------------------------------------
 Center     Atomic                   Forces (Hartrees/Bohr)
 Number     Number              X              Y              Z
 -------------------------------------------------------------------
      1        6          -0.000061657   -0.000014967    0.000064793
      2        1          -0.000008860    0.000015392   -0.000002368
      3        1          -0.000002857   -0.000012621   -0.000006253
      4        6          -0.000319445    0.000155848    0.000119445
      5        1          -0.000049597    0.000006482    0.000002678
      6        8          -0.000827862    0.000396026   -0.000248657
      7        1          -0.000015485   -0.000000290   -0.000016046
      8        6          -0.000350298    0.000039225    0.000201588
      9        1          -0.000021248    0.000004815    0.000025682
     10        8          -0.000425912    0.000157618    0.000041049
     11        1          -0.000027759    0.000006342    0.000016261
     12        6           0.000122834    0.000082554    0.000215489
     13        1           0.000020493    0.000005413   -0.000017704
     14        6          -0.000209999   -0.000004451    0.000238547
     15        1          -0.000004779    0.000002330    0.000017619
     16        8          -0.000147409   -0.000019854    0.000160411
     17        7           0.000071226    0.000005447    0.000083647
     18        6           0.000866967    0.000030631   -0.000160333
     19        1          -0.000030954    0.000001238    0.000059267
     20        6           0.002081671    0.000239051   -0.002532879
     21        1           0.000156380    0.000015232   -0.000151773
     22        6           0.003431391    0.000355191   -0.004406612
     23        1           0.000449542    0.000031537   -0.000099982
     24        1          -0.001216437    0.000214440    0.002241335
     25        6           0.000522002   -0.000210035   -0.000672864
     26        6          -0.000221423   -0.000185848    0.001288501
     27        1          -0.000087478   -0.000018286    0.000195409
     28        6          -0.000108981   -0.000144759    0.000066960
     29        8           0.000250144   -0.000587227   -0.000139854
     30        7          -0.000464866   -0.000358771    0.000652019
     31        1           0.000022876    0.000008378    0.000061362
     32        1          -0.000003842    0.000054282    0.000206374
     33        1          -0.000037701   -0.000010113    0.000015672
     34        6          -0.000079437   -0.000005744    0.000290286
     35        6          -0.000191806   -0.000092156   -0.000462341
     36        6          -0.000098160   -0.000722027   -0.000027837
     37        6          -0.002943839    0.002049483    0.003380342
     38        6          -0.001208651   -0.002729360    0.000218622
     39        8           0.001260397    0.000232074   -0.001478934
     40       16           0.000671250    0.000535710   -0.000320006
     41        1          -0.000018858   -0.000016395    0.000004200
     42        1          -0.000001677    0.000001459    0.000021824
     43        1           0.000010216    0.000638486    0.000098339
     44        1           0.000027437   -0.000103688   -0.000141003
     45        1          -0.000363689   -0.000022335    0.000567230
     46        1          -0.000358457    0.000078423    0.000288972
     47        1          -0.000043353   -0.000092535    0.000062903
     48        1          -0.000012053   -0.000011645   -0.000021379
 -------------------------------------------------------------------
 Cartesian Forces:  Max     0.004406612 RMS     0.000812937
 Leave Link  716 at Sat Aug 13 20:46:50 2022, MaxMem=  2684354560 cpu:               0.4 elap:               0.0
 (Enter /storage/apps/GAUSSIAN/G16_RevA03/g16/l103.exe)

 GradGradGradGradGradGradGradGradGradGradGradGradGradGradGradGradGradGrad
 Berny optimization.
 Search for a local minimum.
 Step number   1 out of a maximum of    2
 All quantities printed in internal units (Hartrees-Bohrs-Radians)
 Second derivative matrix not updated -- first step.
 ITU=  0
     Eigenvalues ---    0.00025   0.00091   0.00109   0.00128   0.00187
     Eigenvalues ---    0.00221   0.00332   0.00375   0.00451   0.00501
     Eigenvalues ---    0.00608   0.00626   0.00807   0.00926   0.00961
     Eigenvalues ---    0.00979   0.01115   0.01170   0.01377   0.01509
     Eigenvalues ---    0.01720   0.02149   0.02362   0.02440   0.02672
     Eigenvalues ---    0.03054   0.03128   0.03313   0.03738   0.04277
     Eigenvalues ---    0.04402   0.04604   0.04830   0.05014   0.05256
     Eigenvalues ---    0.05331   0.05568   0.05741   0.05827   0.05976
     Eigenvalues ---    0.06168   0.06300   0.06474   0.06888   0.07024
     Eigenvalues ---    0.07051   0.07135   0.07656   0.08050   0.08327
     Eigenvalues ---    0.08578   0.08753   0.09315   0.09407   0.10175
     Eigenvalues ---    0.10784   0.10857   0.11193   0.12279   0.12569
     Eigenvalues ---    0.12820   0.13086   0.13234   0.13290   0.13728
     Eigenvalues ---    0.13848   0.14047   0.15440   0.16071   0.16540
     Eigenvalues ---    0.17380   0.18138   0.18693   0.19305   0.19829
     Eigenvalues ---    0.20299   0.20701   0.21293   0.21931   0.22494
     Eigenvalues ---    0.25135   0.26254   0.27197   0.27935   0.30606
     Eigenvalues ---    0.33105   0.33463   0.33807   0.34807   0.37687
     Eigenvalues ---    0.37874   0.37874   0.37874   0.37874   0.40308
     Eigenvalues ---    0.43643   0.48156   0.48694   0.57085   0.59610
     Eigenvalues ---    0.59937   0.61775   0.69602   0.72216   0.73556
     Eigenvalues ---    0.79308   0.79973   0.82771   0.87486   0.90892
     Eigenvalues ---    0.91292   0.92289   0.93234   0.93526   0.95480
     Eigenvalues ---    0.96148   0.99990   1.01172   1.02320   1.04105
     Eigenvalues ---    1.05893   1.08524   1.11579   1.12519   1.13149
     Eigenvalues ---    1.20582   1.20899   1.27363   1.27492   1.30427
     Eigenvalues ---    1.32484   1.36968   1.43922   1.54549   1.72776
     Eigenvalues ---    1.82291   1.90727   2.34808
 Quadratic step=8.170D+00 exceeds max=3.000D-01 adjusted using Lamda=-1.082D-02.
 Angle between NR and scaled steps=  45.02 degrees.
 Angle between quadratic step and forces=  56.27 degrees.
 Linear search not attempted -- first point.
 Variable       Old X    -DE/DX   Delta X   Delta X   Delta X     New X
                                 (Linear)    (Quad)   (Total)
    X1        6.80155  -0.00006   0.00000  -0.02356  -0.02356   6.77799
    Y1       -6.83262  -0.00001   0.00000  -0.01293  -0.01293  -6.84556
    Z1       -0.83994   0.00006   0.00000   0.00980   0.00980  -0.83014
    X2        7.08548  -0.00001   0.00000  -0.02753  -0.02753   7.05795
    Y2       -7.01332   0.00002   0.00000  -0.01644  -0.01644  -7.02976
    Z2       -2.87068  -0.00000   0.00000   0.00907   0.00907  -2.86161
    X3        8.19201  -0.00000   0.00000  -0.01856  -0.01856   8.17345
    Y3       -8.00648  -0.00001   0.00000  -0.01067  -0.01067  -8.01715
    Z3        0.12616  -0.00001   0.00000   0.00595   0.00595   0.13211
    X4        3.52020  -0.00032   0.00000  -0.00682  -0.00682   3.51338
    Y4       -2.71870   0.00016   0.00000   0.01183   0.01183  -2.70687
    Z4        2.34570   0.00012   0.00000   0.01403   0.01403   2.35973
    X5        2.29545  -0.00005   0.00000  -0.00996  -0.00996   2.28549
    Y5       -4.36873   0.00001   0.00000   0.01337   0.01337  -4.35536
    Z5        2.05659   0.00000   0.00000   0.02085   0.02085   2.07744
    X6        2.77215  -0.00083   0.00000  -0.00059  -0.00059   2.77155
    Y6       -1.28563   0.00040   0.00000   0.02642   0.02642  -1.25921
    Z6        4.39582  -0.00025   0.00000   0.00652   0.00652   4.40234
    X7        0.99745  -0.00002   0.00000   0.00263   0.00263   1.00008
    Y7       -0.70753  -0.00000   0.00000   0.03130   0.03130  -0.67623
    Z7        4.09934  -0.00002   0.00000   0.00113   0.00113   4.10046
    X8        6.26955  -0.00035   0.00000  -0.00713  -0.00713   6.26242
    Y8       -3.56108   0.00004   0.00000   0.00521   0.00521  -3.55587
    Z8        2.65912   0.00020   0.00000   0.00433   0.00433   2.66345
    X9        6.42806  -0.00002   0.00000  -0.00044  -0.00044   6.42762
    Y9       -5.23570   0.00000   0.00000   0.01087   0.01087  -5.22483
    Z9        3.86189   0.00003   0.00000   0.01106   0.01106   3.87295
   X10        7.70968  -0.00043   0.00000   0.00260   0.00260   7.71228
   Y10       -1.54481   0.00016   0.00000   0.00885   0.00885  -1.53596
   Z10        3.61689   0.00004   0.00000  -0.01875  -0.01875   3.59814
   X11        6.67718  -0.00003   0.00000   0.01530   0.01530   6.69248
   Y11       -0.71756   0.00001   0.00000   0.01786   0.01786  -0.69971
   Z11        4.87931   0.00002   0.00000  -0.01487  -0.01487   4.86444
   X12        3.73001   0.00012   0.00000  -0.00794  -0.00794   3.72207
   Y12       -1.24641   0.00008   0.00000   0.00085   0.00085  -1.24556
   Z12       -0.15308   0.00022   0.00000   0.00987   0.00987  -0.14321
   X13        4.26969   0.00002   0.00000   0.00395   0.00395   4.27364
   Y13        0.71114   0.00001   0.00000   0.00025   0.00025   0.71139
   Z13        0.22439  -0.00002   0.00000  -0.00369  -0.00369   0.22070
   X14        7.09349  -0.00021   0.00000  -0.01989  -0.01989   7.07360
   Y14       -4.09892  -0.00000   0.00000  -0.01083  -0.01083  -4.10975
   Z14       -0.04707   0.00024   0.00000   0.00290   0.00290  -0.04418
   X15        9.03539  -0.00000   0.00000  -0.01921  -0.01921   9.01618
   Y15       -3.46026   0.00000   0.00000  -0.01500  -0.01500  -3.47526
   Z15       -0.30523   0.00002   0.00000  -0.00957  -0.00957  -0.31481
   X16        5.50538  -0.00015   0.00000  -0.02345  -0.02345   5.48192
   Y16       -2.52552  -0.00002   0.00000  -0.01376  -0.01376  -2.53928
   Z16       -1.61816   0.00016   0.00000   0.00536   0.00536  -1.61280
   X17        1.36056   0.00007   0.00000  -0.00600  -0.00600   1.35456
   Y17       -1.13584   0.00001   0.00000  -0.00104  -0.00104  -1.13688
   Z17       -1.62490   0.00008   0.00000   0.01216   0.01216  -1.61274
   X18        0.37046   0.00087   0.00000   0.01669   0.01669   0.38715
   Y18       -3.33516   0.00003   0.00000  -0.00063  -0.00063  -3.33580
   Z18       -2.51216  -0.00016   0.00000  -0.01248  -0.01248  -2.52464
   X19        1.44472  -0.00003   0.00000   0.01140   0.01140   1.45612
   Y19       -5.01941   0.00000   0.00000   0.00010   0.00010  -5.01931
   Z19       -2.10899   0.00006   0.00000   0.00399   0.00399  -2.10500
   X20       -1.79557   0.00208   0.00000   0.04918   0.04918  -1.74639
   Y20       -3.31924   0.00024   0.00000   0.00068   0.00068  -3.31856
   Z20       -3.89748  -0.00253   0.00000  -0.06223  -0.06223  -3.95971
   X21       -2.54539   0.00016   0.00000   0.05550   0.05550  -2.48990
   Y21       -5.08084   0.00002   0.00000   0.00057   0.00057  -5.08028
   Z21       -4.60468  -0.00015   0.00000  -0.06777  -0.06777  -4.67245
   X22       -3.01630   0.00343   0.00000   0.05562   0.05562  -2.96068
   Y22       -1.02403   0.00036   0.00000   0.00013   0.00013  -1.02390
   Z22       -4.39353  -0.00441   0.00000  -0.07717  -0.07717  -4.47070
   X23       -4.60590   0.00045   0.00000   0.06810   0.06810  -4.53781
   Y23       -0.97509   0.00003   0.00000   0.00358   0.00358  -0.97150
   Z23       -5.67912  -0.00010   0.00000  -0.09057  -0.09057  -5.76968
   X24       -5.40571  -0.00122   0.00000  -0.01999  -0.01999  -5.42569
   Y24       -1.29944   0.00021   0.00000  -0.04284  -0.04284  -1.34228
   Z24       -1.88298   0.00224   0.00000   0.04350   0.04350  -1.83948
   X25       -1.93557   0.00052   0.00000   0.00911   0.00911  -1.92646
   Y25        1.22152  -0.00021   0.00000  -0.00444  -0.00444   1.21708
   Z25       -3.50800  -0.00067   0.00000  -0.01235  -0.01235  -3.52035
   X26        0.26901  -0.00022   0.00000  -0.01232  -0.01232   0.25670
   Y26        1.07694  -0.00019   0.00000  -0.00307  -0.00307   1.07386
   Z26       -2.12160   0.00129   0.00000   0.02153   0.02153  -2.10007
   X27        1.15417  -0.00009   0.00000  -0.02544  -0.02544   1.12872
   Y27        2.77444  -0.00002   0.00000  -0.00445  -0.00445   2.76999
   Z27       -1.39928   0.00020   0.00000   0.04151   0.04151  -1.35777
   X28       -2.90333  -0.00011   0.00000  -0.01585  -0.01585  -2.91918
   Y28        3.81395  -0.00014   0.00000  -0.00649  -0.00649   3.80746
   Z28       -4.09031   0.00007   0.00000   0.02558   0.02558  -4.06473
   X29       -1.57172   0.00025   0.00000  -0.02147  -0.02147  -1.59319
   Y29        5.65631  -0.00059   0.00000  -0.00371  -0.00371   5.65260
   Z29       -3.86293  -0.00014   0.00000   0.03026   0.03026  -3.83266
   X30       -5.30359  -0.00046   0.00000  -0.02471  -0.02471  -5.32830
   Y30        3.90701  -0.00036   0.00000  -0.00600  -0.00600   3.90100
   Z30       -5.04973   0.00065   0.00000   0.04800   0.04800  -5.00173
   X31       -6.01239   0.00002   0.00000  -0.02197  -0.02197  -6.03437
   Y31        5.66969   0.00001   0.00000  -0.00492  -0.00492   5.66477
   Z31       -5.21034   0.00006   0.00000   0.04748   0.04748  -5.16286
   X32       -6.54446  -0.00000   0.00000  -0.02014  -0.02014  -6.56460
   Y32        2.57777   0.00005   0.00000  -0.00806  -0.00806   2.56971
   Z32       -4.47759   0.00021   0.00000   0.04944   0.04944  -4.42815
   X33        4.92267  -0.00004   0.00000  -0.02143  -0.02143   4.90124
   Y33       -7.54864  -0.00001   0.00000  -0.01268  -0.01268  -7.56133
   Z33       -0.37058   0.00002   0.00000   0.01598   0.01598  -0.35461
   X34        0.38219  -0.00008   0.00000  -0.00585  -0.00585   0.37634
   Y34        4.15767  -0.00001   0.00000   0.00730   0.00730   4.16496
   Z34        5.37545   0.00029   0.00000   0.00809   0.00809   5.38353
   X35       -3.13837  -0.00019   0.00000   0.02669   0.02669  -3.11168
   Y35        1.69727  -0.00009   0.00000  -0.00218  -0.00218   1.69508
   Z35        2.34030  -0.00046   0.00000  -0.02395  -0.02395   2.31636
   X36       -5.30667  -0.00010   0.00000   0.00800   0.00800  -5.29867
   Y36        1.62829  -0.00072   0.00000  -0.01992  -0.01992   1.60837
   Z36        0.88705  -0.00003   0.00000   0.00209   0.00209   0.88915
   X37       -9.16710  -0.00294   0.00000  -0.01607  -0.01607  -9.18318
   Y37       -0.75568   0.00205   0.00000   0.01720   0.01720  -0.73847
   Z37       -0.70223   0.00338   0.00000   0.01408   0.01408  -0.68815
   X38       -6.35840  -0.00121   0.00000  -0.01907  -0.01907  -6.37747
   Y38       -0.75485  -0.00273   0.00000  -0.02339  -0.02339  -0.77824
   Z38       -0.07921   0.00022   0.00000   0.03410   0.03410  -0.04511
   X39       -1.74582   0.00126   0.00000   0.05727   0.05727  -1.68855
   Y39       -0.15726   0.00023   0.00000   0.01212   0.01212  -0.14514
   Z39        2.89831  -0.00148   0.00000  -0.05213  -0.05213   2.84618
   X40       -2.29653   0.00067   0.00000   0.01595   0.01595  -2.28058
   Y40        4.83039   0.00054   0.00000   0.00422   0.00422   4.83461
   Z40        3.39632  -0.00032   0.00000  -0.02190  -0.02190   3.37441
   X41        0.83812  -0.00002   0.00000  -0.01788  -0.01788   0.82024
   Y41        5.91480  -0.00002   0.00000   0.00814   0.00814   5.92294
   Z41        6.34232   0.00000   0.00000   0.01139   0.01139   6.35371
   X42        2.01199  -0.00000   0.00000   0.00559   0.00559   2.01758
   Y42        3.54744   0.00000   0.00000   0.00790   0.00790   3.55534
   Z42        4.28254   0.00002   0.00000   0.02444   0.02444   4.30699
   X43      -10.32449   0.00001   0.00000  -0.03635  -0.03635 -10.36084
   Y43       -0.75189   0.00064   0.00000   0.06059   0.06059  -0.69130
   Z43        1.00291   0.00010   0.00000  -0.00500  -0.00500   0.99792
   X44       -9.69177   0.00003   0.00000   0.03225   0.03225  -9.65952
   Y44        0.92494  -0.00010   0.00000   0.00255   0.00255   0.92748
   Z44       -1.78637  -0.00014   0.00000  -0.03312  -0.03312  -1.81949
   X45       -9.67932  -0.00036   0.00000  -0.01695  -0.01695  -9.69628
   Y45       -2.41253  -0.00002   0.00000   0.00805   0.00805  -2.40448
   Z45       -1.81848   0.00057   0.00000   0.02506   0.02506  -1.79342
   X46       -5.85486  -0.00036   0.00000  -0.03206  -0.03206  -5.88692
   Y46       -2.32495   0.00008   0.00000  -0.02044  -0.02044  -2.34540
   Z46        1.16986   0.00029   0.00000   0.04012   0.04012   1.20998
   X47       -6.32502  -0.00004   0.00000   0.01518   0.01518  -6.30984
   Y47        3.38043  -0.00009   0.00000  -0.01897  -0.01897   3.36147
   Z47        0.58652   0.00006   0.00000  -0.01595  -0.01595   0.57058
   X48       -0.08806  -0.00001   0.00000  -0.02052  -0.02052  -0.10858
   Y48        2.71732  -0.00001   0.00000   0.00616   0.00616   2.72348
   Z48        6.76529  -0.00002   0.00000   0.00161   0.00161   6.76691
         Item               Value     Threshold  Converged?
 Maximum Force            0.004407     0.000450     NO 
 RMS     Force            0.000813     0.000300     NO 
 Maximum Displacement     0.090568     0.001800     NO 
 RMS     Displacement     0.025024     0.001200     NO 
 Predicted change in Energy=-1.301307D-03
 GradGradGradGradGradGradGradGradGradGradGradGradGradGradGradGradGradGrad

 Leave Link  103 at Sat Aug 13 20:46:50 2022, MaxMem=  2684354560 cpu:               0.9 elap:               0.1
 (Enter /storage/apps/GAUSSIAN/G16_RevA03/g16/l9999.exe)

 Test job not archived.
 1\1\GINC-T066\Force\RM062X\def2TZVP\C16H24N2O5S1\LV87696\13-Aug-2022\0
 \\#P M062X/Def2TZVP scf=(direct,conver=8) EmpiricalDispersion=GD3 Forc
 e Charge Prop=(Field,Read)\\Gaussian run\\0,1\C,3.599224,-3.615668,-0.
 444475\H,3.749475,-3.711291,-1.519098\H,4.335023,-4.236849,0.066761\C,
 1.862811,-1.438673,1.241291\H,1.214702,-2.311831,1.088298\O,1.466956,-
 0.680325,2.326167\H,0.527828,-0.374411,2.169276\C,3.317704,-1.88444,1.
 407147\H,3.401582,-2.770615,2.043624\O,4.079788,-0.817479,1.913977\H,3
 .533413,-0.379718,2.582022\C,1.973834,-0.659573,-0.081006\H,2.259422,0
 .376318,0.118743\C,3.753714,-2.169057,-0.024911\H,4.781323,-1.831092,-
 0.161522\O,2.913321,-1.33645,-0.856296\N,0.719977,-0.601063,-0.85986\C
 ,0.19604,-1.764893,-1.329378\H,0.764514,-2.656156,-1.11603\C,-0.950177
 ,-1.756466,-2.06246\H,-1.346965,-2.688667,-2.436692\C,-1.596156,-0.541
 895,-2.324956\H,-2.437339,-0.515994,-3.005259\H,-2.860577,-0.687633,-0
 .996429\C,-1.024259,0.6464,-1.856352\C,0.142356,0.56989,-1.122701\H,0.
 610758,1.468169,-0.740467\C,-1.536377,2.018254,-2.164498\O,-0.83172,2.
 993191,-2.044172\N,-2.806539,2.0675,-2.672203\H,-3.181622,3.000273,-2.
 757194\H,-3.46318,1.364095,-2.369441\H,2.604963,-3.99457,-0.196105\C,0
 .202247,2.200143,2.844563\C,-1.660755,0.898154,1.238435\C,-2.808169,0.
 861655,0.469409\C,-4.851022,-0.399887,-0.371604\C,-3.364721,-0.399452,
 -0.041918\O,-0.923849,-0.083217,1.533722\S,-1.215272,2.556133,1.797253
 \H,0.443514,3.12998,3.356211\H,1.0647,1.877224,2.266225\H,-5.463485,-0
 .397883,0.530718\H,-5.128662,0.489455,-0.945308\H,-5.122078,-1.276657,
 -0.962297\H,-3.098259,-1.230313,0.619065\H,-3.347058,1.788849,0.310374
 \H,-0.046601,1.437943,3.580039\\Version=ES64L-G16RevA.03\State=1-A\HF=
 -1507.9002362\RMSD=3.604e-09\RMSF=8.129e-04\Dipole=-0.1624964,-2.20761
 54,-1.5879935\Quadrupole=2.2641381,1.1068314,-3.3709695,-3.7985354,9.5
 293322,4.7959375\PG=C01 [X(C16H24N2O5S1)]\\@


 WE ARE REACHING THE STAGE WHERE THE PROBLEMS WE MUST SOLVE ARE 
 GOING TO BECOME INSOLUBLE WITHOUT COMPUTERS.
 I DO NOT FEAR COMPUTERS.  I FEAR THE LACK OF THEM.

                                   -- ISSAC ASIMOV
 Job cpu time:       0 days  3 hours 20 minutes 52.4 seconds.
 Elapsed time:       0 days  0 hours 12 minutes 34.8 seconds.
 File lengths (MBytes):  RWF=    435 Int=      0 D2E=      0 Chk=     48 Scr=      1
 Normal termination of Gaussian 16 at Sat Aug 13 20:46:50 2022.
