 Entering Gaussian System, Link 0=g16
 Initial command:
 /storage/apps/GAUSSIAN/G16_RevA03/g16/l1.exe "/scratch/tmp/1019304/Gau-131488.inp" -scrdir="/scratch/tmp/1019304/"
 Entering Link 1 = /storage/apps/GAUSSIAN/G16_RevA03/g16/l1.exe PID=    131491.
  
 Copyright (c) 1988,1990,1992,1993,1995,1998,2003,2009,2016,
            Gaussian, Inc.  All Rights Reserved.
  
 This is part of the Gaussian(R) 16 program.  It is based on
 the Gaussian(R) 09 system (copyright 2009, Gaussian, Inc.),
 the Gaussian(R) 03 system (copyright 2003, Gaussian, Inc.),
 the Gaussian(R) 98 system (copyright 1998, Gaussian, Inc.),
 the Gaussian(R) 94 system (copyright 1995, Gaussian, Inc.),
 the Gaussian 92(TM) system (copyright 1992, Gaussian, Inc.),
 the Gaussian 90(TM) system (copyright 1990, Gaussian, Inc.),
 the Gaussian 88(TM) system (copyright 1988, Gaussian, Inc.),
 the Gaussian 86(TM) system (copyright 1986, Carnegie Mellon
 University), and the Gaussian 82(TM) system (copyright 1983,
 Carnegie Mellon University). Gaussian is a federally registered
 trademark of Gaussian, Inc.
  
 This software contains proprietary and confidential information,
 including trade secrets, belonging to Gaussian, Inc.
  
 This software is provided under written license and may be
 used, copied, transmitted, or stored only in accord with that
 written license.
  
 The following legend is applicable only to US Government
 contracts under FAR:
  
                    RESTRICTED RIGHTS LEGEND
  
 Use, reproduction and disclosure by the US Government is
 subject to restrictions as set forth in subparagraphs (a)
 and (c) of the Commercial Computer Software - Restricted
 Rights clause in FAR 52.227-19.
  
 Gaussian, Inc.
 340 Quinnipiac St., Bldg. 40, Wallingford CT 06492
  
  
 ---------------------------------------------------------------
 Warning -- This program may not be used in any manner that
 competes with the business of Gaussian, Inc. or will provide
 assistance to any competitor of Gaussian, Inc.  The licensee
 of this program is prohibited from giving any competitor of
 Gaussian, Inc. access to this program.  By using this program,
 the user acknowledges that Gaussian, Inc. is engaged in the
 business of creating and licensing software in the field of
 computational chemistry and represents and warrants to the
 licensee that it is not a competitor of Gaussian, Inc. and that
 it will not use this program in any manner prohibited above.
 ---------------------------------------------------------------
  

 Cite this work as:
 Gaussian 16, Revision A.03,
 M. J. Frisch, G. W. Trucks, H. B. Schlegel, G. E. Scuseria, 
 M. A. Robb, J. R. Cheeseman, G. Scalmani, V. Barone, 
 G. A. Petersson, H. Nakatsuji, X. Li, M. Caricato, A. V. Marenich, 
 J. Bloino, B. G. Janesko, R. Gomperts, B. Mennucci, H. P. Hratchian, 
 J. V. Ortiz, A. F. Izmaylov, J. L. Sonnenberg, D. Williams-Young, 
 F. Ding, F. Lipparini, F. Egidi, J. Goings, B. Peng, A. Petrone, 
 T. Henderson, D. Ranasinghe, V. G. Zakrzewski, J. Gao, N. Rega, 
 G. Zheng, W. Liang, M. Hada, M. Ehara, K. Toyota, R. Fukuda, 
 J. Hasegawa, M. Ishida, T. Nakajima, Y. Honda, O. Kitao, H. Nakai, 
 T. Vreven, K. Throssell, J. A. Montgomery, Jr., J. E. Peralta, 
 F. Ogliaro, M. J. Bearpark, J. J. Heyd, E. N. Brothers, K. N. Kudin, 
 V. N. Staroverov, T. A. Keith, R. Kobayashi, J. Normand, 
 K. Raghavachari, A. P. Rendell, J. C. Burant, S. S. Iyengar, 
 J. Tomasi, M. Cossi, J. M. Millam, M. Klene, C. Adamo, R. Cammi, 
 J. W. Ochterski, R. L. Martin, K. Morokuma, O. Farkas, 
 J. B. Foresman, and D. J. Fox, Gaussian, Inc., Wallingford CT, 2016.
 
 ******************************************
 Gaussian 16:  ES64L-G16RevA.03 25-Dec-2016
                13-Aug-2022 
 ******************************************
 %NProcShared=16
 Will use up to   16 processors via shared memory.
 %mem=20GB
 ----------------------------------------------------------------------
 #P M062X/Def2TZVP scf=(direct,conver=8) EmpiricalDispersion=GD3 Force 
 Charge Prop=(Field,Read)
 ----------------------------------------------------------------------
 1/10=7,18=10,28=-2,30=1,38=1,125=101/1,3;
 2/12=2,17=6,18=5,29=2,40=1/2;
 3/5=44,7=101,11=2,25=1,30=1,71=1,74=-55,124=31/1,2,3;
 4//1;
 5/5=2,6=8,38=5/2;
 6/7=2,8=2,9=2,10=2,14=2,15=1,28=1/1,2;
 7/7=1,16=-2,29=1/1,2,3,16;
 1/10=7,18=10,28=-2,30=1/3;
 99/12=1/99;
 Leave Link    1 at Sat Aug 13 20:34:15 2022, MaxMem=  2684354560 cpu:               0.7 elap:               0.1
 (Enter /storage/apps/GAUSSIAN/G16_RevA03/g16/l101.exe)
 ------------
 Gaussian run
 ------------
 Symbolic Z-matrix:
 Charge =  0 Multiplicity = 1
 C                     3.59908  -3.61571  -0.44438 
 H                     3.74937  -3.71124  -1.51902 
 H                     4.33495  -4.23686   0.06678 
 C                     1.86247  -1.4385    1.2415 
 H                     1.21445  -2.31171   1.08834 
 O                     1.46644  -0.68003   2.32602 
 H                     0.52715  -0.3739    2.16875 
 C                     3.31739  -1.88439   1.40733 
 H                     3.40131  -2.77053   2.04385 
 O                     4.07949  -0.81739   1.91398 
 H                     3.53314  -0.37951   2.58199 
 C                     1.97397  -0.65952  -0.08075 
 H                     2.25947   0.37637   0.11886 
 C                     3.75349  -2.16915  -0.02469 
 H                     4.7811   -1.83114  -0.16129 
 O                     2.91311  -1.33648  -0.85616 
 N                     0.7199   -0.60111  -0.85985 
 C                     0.19684  -1.76478  -1.32943 
 H                     0.76466  -2.65619  -1.11524 
 C                    -0.94856  -1.75603  -2.06475 
 H                    -1.34539  -2.68845  -2.43861 
 C                    -1.59221  -0.5415   -2.32938 
 H                    -2.43496  -0.51564  -3.00735 
 H                    -2.86547  -0.69038  -0.98863 
 C                    -1.02395   0.646    -1.85691 
 C                     0.1421    0.56969  -1.12142 
 H                     0.60964   1.4679   -0.73819 
 C                    -1.53665   2.01813  -2.16436 
 O                    -0.83161   2.9927   -2.04425 
 N                    -2.80694   2.06724  -2.67155 
 H                    -3.18179   3.00012  -2.75655 
 H                    -3.4634    1.3643   -2.36753 
 H                     2.60487  -3.99472  -0.19603 
 C                     0.20228   2.20018   2.84484 
 C                    -1.66115   0.89814   1.2379 
 C                    -2.80808   0.86113   0.46969 
 C                    -4.8536   -0.39813  -0.3684 
 C                    -3.36614  -0.40183  -0.04131 
 O                    -0.92287  -0.08308   1.53274 
 S                    -1.21499   2.55641   1.79716 
 H                     0.44339   3.13002   3.35654 
 H                     1.06486   1.87731   2.26667 
 H                    -5.46514  -0.39129   0.5338 
 H                    -5.12872   0.48929  -0.94622 
 H                    -5.12665  -1.27638  -0.95593 
 H                    -3.10239  -1.23033   0.62346 
 H                    -3.34776   1.78791   0.31113 
 H                    -0.04673   1.43792   3.58019 
 
 ITRead=  0  0  0  0  0  0  0  0  0  0  0  0  0  0  0  0  0  0  0  0
 ITRead=  0  0  0  0  0  0  0  0  0  0  0  0  0  0  0  0  0  0  0  0
 ITRead=  0  0  0  0  0  0  0  0
 MicOpt= -1 -1 -1 -1 -1 -1 -1 -1 -1 -1 -1 -1 -1 -1 -1 -1 -1 -1 -1 -1
 MicOpt= -1 -1 -1 -1 -1 -1 -1 -1 -1 -1 -1 -1 -1 -1 -1 -1 -1 -1 -1 -1
 MicOpt= -1 -1 -1 -1 -1 -1 -1 -1
 NAtoms=     48 NQM=       48 NQMF=       0 NMMI=      0 NMMIF=      0
                NMic=       0 NMicF=      0.
                    Isotopes and Nuclear Properties:
 (Nuclear quadrupole moments (NQMom) in fm**2, nuclear magnetic moments (NMagM)
  in nuclear magnetons)

  Atom         1           2           3           4           5           6           7           8           9          10
 IAtWgt=          12           1           1          12           1          16           1          12           1          16
 AtmWgt=  12.0000000   1.0078250   1.0078250  12.0000000   1.0078250  15.9949146   1.0078250  12.0000000   1.0078250  15.9949146
 NucSpn=           0           1           1           0           1           0           1           0           1           0
 AtZEff=  -0.0000000  -0.0000000  -0.0000000  -0.0000000  -0.0000000  -0.0000000  -0.0000000  -0.0000000  -0.0000000  -0.0000000
 NQMom=    0.0000000   0.0000000   0.0000000   0.0000000   0.0000000   0.0000000   0.0000000   0.0000000   0.0000000   0.0000000
 NMagM=    0.0000000   2.7928460   2.7928460   0.0000000   2.7928460   0.0000000   2.7928460   0.0000000   2.7928460   0.0000000
 AtZNuc=   6.0000000   1.0000000   1.0000000   6.0000000   1.0000000   8.0000000   1.0000000   6.0000000   1.0000000   8.0000000

  Atom        11          12          13          14          15          16          17          18          19          20
 IAtWgt=           1          12           1          12           1          16          14          12           1          12
 AtmWgt=   1.0078250  12.0000000   1.0078250  12.0000000   1.0078250  15.9949146  14.0030740  12.0000000   1.0078250  12.0000000
 NucSpn=           1           0           1           0           1           0           2           0           1           0
 AtZEff=  -0.0000000  -0.0000000  -0.0000000  -0.0000000  -0.0000000  -0.0000000  -0.0000000  -0.0000000  -0.0000000  -0.0000000
 NQMom=    0.0000000   0.0000000   0.0000000   0.0000000   0.0000000   0.0000000   2.0440000   0.0000000   0.0000000   0.0000000
 NMagM=    2.7928460   0.0000000   2.7928460   0.0000000   2.7928460   0.0000000   0.4037610   0.0000000   2.7928460   0.0000000
 AtZNuc=   1.0000000   6.0000000   1.0000000   6.0000000   1.0000000   8.0000000   7.0000000   6.0000000   1.0000000   6.0000000

  Atom        21          22          23          24          25          26          27          28          29          30
 IAtWgt=           1          12           1           1          12          12           1          12          16          14
 AtmWgt=   1.0078250  12.0000000   1.0078250   1.0078250  12.0000000  12.0000000   1.0078250  12.0000000  15.9949146  14.0030740
 NucSpn=           1           0           1           1           0           0           1           0           0           2
 AtZEff=  -0.0000000  -0.0000000  -0.0000000  -0.0000000  -0.0000000  -0.0000000  -0.0000000  -0.0000000  -0.0000000  -0.0000000
 NQMom=    0.0000000   0.0000000   0.0000000   0.0000000   0.0000000   0.0000000   0.0000000   0.0000000   0.0000000   2.0440000
 NMagM=    2.7928460   0.0000000   2.7928460   2.7928460   0.0000000   0.0000000   2.7928460   0.0000000   0.0000000   0.4037610
 AtZNuc=   1.0000000   6.0000000   1.0000000   1.0000000   6.0000000   6.0000000   1.0000000   6.0000000   8.0000000   7.0000000

  Atom        31          32          33          34          35          36          37          38          39          40
 IAtWgt=           1           1           1          12          12          12          12          12          16          32
 AtmWgt=   1.0078250   1.0078250   1.0078250  12.0000000  12.0000000  12.0000000  12.0000000  12.0000000  15.9949146  31.9720718
 NucSpn=           1           1           1           0           0           0           0           0           0           0
 AtZEff=  -0.0000000  -0.0000000  -0.0000000  -0.0000000  -0.0000000  -0.0000000  -0.0000000  -0.0000000  -0.0000000  -0.0000000
 NQMom=    0.0000000   0.0000000   0.0000000   0.0000000   0.0000000   0.0000000   0.0000000   0.0000000   0.0000000   0.0000000
 NMagM=    2.7928460   2.7928460   2.7928460   0.0000000   0.0000000   0.0000000   0.0000000   0.0000000   0.0000000   0.0000000
 AtZNuc=   1.0000000   1.0000000   1.0000000   6.0000000   6.0000000   6.0000000   6.0000000   6.0000000   8.0000000  16.0000000

  Atom        41          42          43          44          45          46          47          48
 IAtWgt=           1           1           1           1           1           1           1           1
 AtmWgt=   1.0078250   1.0078250   1.0078250   1.0078250   1.0078250   1.0078250   1.0078250   1.0078250
 NucSpn=           1           1           1           1           1           1           1           1
 AtZEff=  -0.0000000  -0.0000000  -0.0000000  -0.0000000  -0.0000000  -0.0000000  -0.0000000  -0.0000000
 NQMom=    0.0000000   0.0000000   0.0000000   0.0000000   0.0000000   0.0000000   0.0000000   0.0000000
 NMagM=    2.7928460   2.7928460   2.7928460   2.7928460   2.7928460   2.7928460   2.7928460   2.7928460
 AtZNuc=   1.0000000   1.0000000   1.0000000   1.0000000   1.0000000   1.0000000   1.0000000   1.0000000
 Background charge distribution read from input stream:
 Leave Link  101 at Sat Aug 13 20:34:15 2022, MaxMem=  2684354560 cpu:               2.2 elap:               0.2
 (Enter /storage/apps/GAUSSIAN/G16_RevA03/g16/l103.exe)

 GradGradGradGradGradGradGradGradGradGradGradGradGradGradGradGradGradGrad
 Berny optimization.
 Initialization pass.
 Trust Radius=3.00D-01 FncErr=1.00D-07 GrdErr=1.00D-07 EigMax=2.50D+02 EigMin=1.00D-04
 Number of steps in this run=      2 maximum allowed number of steps=      2.
 GradGradGradGradGradGradGradGradGradGradGradGradGradGradGradGradGradGrad

 Leave Link  103 at Sat Aug 13 20:34:16 2022, MaxMem=  2684354560 cpu:               0.6 elap:               0.1
 (Enter /storage/apps/GAUSSIAN/G16_RevA03/g16/l202.exe)
 ---------------------------------------------------------------------------------------------------
                            Z-MATRIX (ANGSTROMS AND DEGREES)
   CD    Cent   Atom    N1       Length/X        N2       Alpha/Y        N3        Beta/Z          J
 ---------------------------------------------------------------------------------------------------
      1      1  C        0   3.599077         -3.615713         -0.444384
      2      2  H        0   3.749372         -3.711237         -1.519016
      3      3  H        0   4.334954         -4.236863          0.066782
      4      4  C        0   1.862471         -1.438503          1.241502
      5      5  H        0   1.214448         -2.311711          1.088337
      6      6  O        0   1.466437         -0.680029          2.326018
      7      7  H        0   0.527145         -0.373902          2.168752
      8      8  C        0   3.317387         -1.884388          1.407329
      9      9  H        0   3.401306         -2.770534          2.043845
     10     10  O        0   4.079490         -0.817390          1.913982
     11     11  H        0   3.533139         -0.379511          2.581986
     12     12  C        0   1.973966         -0.659518         -0.080747
     13     13  H        0   2.259473          0.376372          0.118864
     14     14  C        0   3.753491         -2.169151         -0.024688
     15     15  H        0   4.781099         -1.831137         -0.161288
     16     16  O        0   2.913105         -1.336481         -0.856161
     17     17  N        0   0.719904         -0.601107         -0.859851
     18     18  C        0   0.196844         -1.764782         -1.329433
     19     19  H        0   0.764664         -2.656193         -1.115239
     20     20  C        0  -0.948557         -1.756033         -2.064749
     21     21  H        0  -1.345393         -2.688448         -2.438613
     22     22  C        0  -1.592210         -0.541498         -2.329381
     23     23  H        0  -2.434956         -0.515644         -3.007354
     24     24  H        0  -2.865470         -0.690383         -0.988629
     25     25  C        0  -1.023950          0.646003         -1.856914
     26     26  C        0   0.142096          0.569686         -1.121424
     27     27  H        0   0.609641          1.467902         -0.738193
     28     28  C        0  -1.536650          2.018133         -2.164361
     29     29  O        0  -0.831608          2.992701         -2.044251
     30     30  N        0  -2.806940          2.067235         -2.671548
     31     31  H        0  -3.181792          3.000120         -2.756550
     32     32  H        0  -3.463395          1.364302         -2.367531
     33     33  H        0   2.604866         -3.994717         -0.196033
     34     34  C        0   0.202276          2.200183          2.844841
     35     35  C        0  -1.661151          0.898137          1.237904
     36     36  C        0  -2.808081          0.861128          0.469688
     37     37  C        0  -4.853599         -0.398129         -0.368400
     38     38  C        0  -3.366141         -0.401834         -0.041313
     39     39  O        0  -0.922873         -0.083082          1.532738
     40     40  S        0  -1.214989          2.556406          1.797161
     41     41  H        0   0.443390          3.130016          3.356544
     42     42  H        0   1.064860          1.877305          2.266668
     43     43  H        0  -5.465139         -0.391288          0.533803
     44     44  H        0  -5.128723          0.489287         -0.946221
     45     45  H        0  -5.126647         -1.276381         -0.955928
     46     46  H        0  -3.102390         -1.230325          0.623459
     47     47  H        0  -3.347764          1.787914          0.311131
     48     48  H        0  -0.046732          1.437918          3.580187
 ---------------------------------------------------------------------------------------------------
                         Z-Matrix orientation:                         
 ---------------------------------------------------------------------
 Center     Atomic      Atomic             Coordinates (Angstroms)
 Number     Number       Type             X           Y           Z
 ---------------------------------------------------------------------
      1          6           0        3.599077   -3.615713   -0.444384
      2          1           0        3.749372   -3.711237   -1.519016
      3          1           0        4.334954   -4.236863    0.066782
      4          6           0        1.862471   -1.438503    1.241502
      5          1           0        1.214448   -2.311711    1.088337
      6          8           0        1.466437   -0.680029    2.326018
      7          1           0        0.527145   -0.373902    2.168752
      8          6           0        3.317387   -1.884388    1.407329
      9          1           0        3.401306   -2.770534    2.043845
     10          8           0        4.079490   -0.817390    1.913982
     11          1           0        3.533139   -0.379511    2.581986
     12          6           0        1.973966   -0.659518   -0.080747
     13          1           0        2.259473    0.376372    0.118864
     14          6           0        3.753491   -2.169151   -0.024688
     15          1           0        4.781099   -1.831137   -0.161288
     16          8           0        2.913105   -1.336481   -0.856161
     17          7           0        0.719904   -0.601107   -0.859851
     18          6           0        0.196844   -1.764782   -1.329433
     19          1           0        0.764664   -2.656193   -1.115239
     20          6           0       -0.948557   -1.756033   -2.064749
     21          1           0       -1.345393   -2.688448   -2.438613
     22          6           0       -1.592210   -0.541498   -2.329381
     23          1           0       -2.434956   -0.515644   -3.007354
     24          1           0       -2.865470   -0.690383   -0.988629
     25          6           0       -1.023950    0.646003   -1.856914
     26          6           0        0.142096    0.569686   -1.121424
     27          1           0        0.609641    1.467902   -0.738193
     28          6           0       -1.536650    2.018133   -2.164361
     29          8           0       -0.831608    2.992701   -2.044251
     30          7           0       -2.806940    2.067235   -2.671548
     31          1           0       -3.181792    3.000120   -2.756550
     32          1           0       -3.463395    1.364302   -2.367531
     33          1           0        2.604866   -3.994717   -0.196033
     34          6           0        0.202276    2.200183    2.844841
     35          6           0       -1.661151    0.898137    1.237904
     36          6           0       -2.808081    0.861128    0.469688
     37          6           0       -4.853599   -0.398129   -0.368400
     38          6           0       -3.366141   -0.401834   -0.041313
     39          8           0       -0.922873   -0.083082    1.532738
     40         16           0       -1.214989    2.556406    1.797161
     41          1           0        0.443390    3.130016    3.356544
     42          1           0        1.064860    1.877305    2.266668
     43          1           0       -5.465139   -0.391288    0.533803
     44          1           0       -5.128723    0.489287   -0.946221
     45          1           0       -5.126647   -1.276381   -0.955928
     46          1           0       -3.102390   -1.230325    0.623459
     47          1           0       -3.347764    1.787914    0.311131
     48          1           0       -0.046732    1.437918    3.580187
 ---------------------------------------------------------------------
                    Distance matrix (angstroms):
                    1          2          3          4          5
     1  C    0.000000
     2  H    1.089288   0.000000
     3  H    1.090244   1.770295   0.000000
     4  C    3.255496   4.043040   3.914583   0.000000
     5  H    3.120274   3.896512   3.806224   1.098128   0.000000
     6  O    4.565251   5.402250   5.097412   1.381413   2.063429
     7  H    5.174416   5.926229   5.817229   1.943261   2.322668
     8  C    2.550623   3.476706   2.892516   1.530716   2.169496
     9  H    2.635285   3.701358   2.632603   2.187710   2.430198
    10  O    3.690975   4.502089   3.894895   2.398580   3.335139
    11  H    4.431283   5.288230   4.674219   2.389455   3.367597
    12  C    3.392979   3.812305   4.288756   1.538698   2.161797
    13  H    4.248356   4.648763   5.058880   2.170645   3.042654
    14  C    1.514110   2.147338   2.149860   2.390197   2.775948
    15  H    2.159174   2.538240   2.457352   3.261958   3.809661
    16  O    2.415578   2.603495   3.359419   2.348282   2.759997
    17  N    4.189284   4.391479   5.210178   2.534241   2.639351
    18  C    3.972964   4.055254   5.018422   3.080662   2.679601
    19  H    3.066696   3.191338   4.079542   2.870919   2.275241
    20  C    5.173487   5.117732   6.213971   4.351322   3.863848
    21  H    5.411520   5.277157   6.398510   5.039444   4.374253
    22  C    6.320876   6.263899   7.384348   5.048826   4.763589
    23  H    7.251813   7.118488   8.314413   6.113291   5.772234
    24  H    7.116469   7.291296   8.095525   5.280776   4.856771
    25  C    6.444365   6.471810   7.500723   4.719828   4.736349
    26  C    5.470527   5.612203   6.488051   3.546256   3.786216
    27  H    5.904760   6.106642   6.860779   3.733091   4.241165
    28  C    7.815001   7.822032   8.864463   5.924716   6.074219
    29  O    8.115521   8.136586   9.133259   6.139202   6.491243
    30  N    8.848345   8.815004   9.911950   7.028909   7.034448
    31  H    9.751694   9.727016  10.809560   7.818592   7.894658
    32  H    8.853110   8.860309   9.905210   7.017527   6.880284
    33  H    1.092601   1.772157   1.766610   3.025209   2.532860
    34  C    7.495459   8.159046   8.138317   4.308942   4.946411
    35  C    7.132667   7.623693   7.980791   4.227980   4.312141
    36  C    7.869518   8.237819   8.784919   5.262894   5.160463
    37  C    9.044686   9.290410   9.967686   6.984251   6.527256
    38  C    7.681520   7.985379   8.603836   5.482580   5.089748
    39  O    6.069310   6.656319   6.859130   3.111290   3.119683
    40  S    8.142162   8.655938   8.941173   5.073344   5.486635
    41  H    8.361236   9.027920   8.957550   5.230541   5.945728
    42  H    6.629126   7.264283   7.274343   3.561142   4.354158
    43  H    9.670252  10.007164  10.537949   7.435816   6.972260
    44  H    9.658020   9.838347  10.626563   7.574913   7.226398
    45  H    9.048337   9.221134   9.966558   7.328216   6.742434
    46  H    7.193054   7.595510   8.041346   5.007510   4.474438
    47  H    8.833379   9.162938   9.766361   6.198541   6.182617
    48  H    7.418105   8.180836   7.984130   4.169928   4.675426
                    6          7          8          9         10
     6  O    0.000000
     7  H    1.000358   0.000000
     8  C    2.391754   3.262941   0.000000
     9  H    2.862438   3.744362   1.094280   0.000000
    10  O    2.648903   3.588975   1.405697   2.071610   0.000000
    11  H    2.104065   3.034270   1.921203   2.454377   0.967712
    12  C    2.459781   2.689817   2.349352   3.317767   2.904668
    13  H    2.572240   2.786739   2.808978   3.861651   2.821343
    14  C    3.601933   4.294579   1.523794   2.182779   2.385786
    15  H    4.301014   5.064459   2.146124   2.765666   2.413852
    16  O    3.556690   3.971078   2.363691   3.271832   3.050181
    17  N    3.273118   3.043224   3.678836   4.508634   4.362080
    18  C    4.018815   3.779014   4.152344   4.760159   5.147061
    19  H    4.029883   4.006228   3.670889   4.116402   4.852365
    20  C    5.125311   4.691536   5.501825   6.068860   6.480170
    21  H    5.885732   5.485557   6.097483   6.529190   7.202451
    22  C    5.572006   4.975234   6.314309   7.002065   7.088754
    23  H    6.610049   5.965418   7.379183   8.041212   8.169982
    24  H    5.454577   4.645326   6.737506   7.266045   7.528197
    25  C    5.045524   4.433068   5.992109   6.817003   6.512010
    26  C    3.898785   3.444398   4.743368   5.639011   5.161467
    27  H    3.838893   3.442292   4.813834   5.787700   4.929142
    28  C    6.038387   5.362551   7.179716   8.063730   7.497606
    29  O    6.153796   5.561440   7.274171   8.236806   7.369076
    30  N    7.126351   6.364258   8.352242   9.175035   8.761910
    31  H    7.809099   7.028431   9.134311   9.984058   9.439993
    32  H    7.107175   6.286782   8.413237   9.147744   8.943503
    33  H    4.317860   4.797857   2.744439   2.673947   4.089265
    34  C    3.187931   2.681147   5.334236   5.965184   5.000503
    35  C    3.668298   2.696887   5.705873   6.303742   6.029517
    36  C    4.908424   3.941554   6.777786   7.363656   7.234780
    37  C    6.876206   5.948961   8.492773   8.921361   9.229579
    38  C    5.388456   4.476923   6.997576   7.467058   7.709299
    39  O    2.587362   1.609858   4.608713   5.116850   5.070325
    40  S    4.236065   3.429259   6.357283   7.053178   6.279144
    41  H    4.077383   3.700717   6.099471   6.729705   5.557358
    42  H    2.589352   2.316605   4.467961   5.206826   4.058788
    43  H    7.165344   6.211347   8.951266   9.303488   9.653310
    44  H    7.454595   6.514368   9.083518   9.608763   9.730332
    45  H    7.388881   6.522535   8.789560   9.162811   9.654015
    46  H    4.906701   4.036696   6.500445   6.832847   7.308582
    47  H    5.772958   4.810314   7.688413   8.326565   8.032487
    48  H    2.889346   2.367314   5.203492   5.653351   4.988824
                   11         12         13         14         15
    11  H    0.000000
    12  C    3.098318   0.000000
    13  H    2.874118   1.092898   0.000000
    14  C    3.169561   2.334276   2.955061   0.000000
    15  H    3.345172   3.042889   3.363061   1.090363   0.000000
    16  O    3.622304   1.393387   2.076481   1.446007   2.053518
    17  N    4.450802   1.477527   2.069691   3.515524   4.300496
    18  C    5.324382   2.437004   3.307044   3.809936   4.731211
    19  H    5.149486   2.553291   3.599155   3.218633   4.209809
    20  C    6.600951   3.698615   4.427954   5.142156   6.038026
    21  H    7.371410   4.549091   5.378556   5.665273   6.592048
    22  C    7.100491   4.217570   4.655304   6.044616   6.854405
    23  H    8.177861   5.293800   5.710218   7.065922   7.867786
    24  H    7.334039   4.923956   5.350659   6.850298   7.775335
    25  C    6.443801   3.721109   3.841519   5.840042   6.535286
    26  C    5.110322   2.439200   2.461498   4.663286   5.310947
    27  H    4.794097   2.611424   2.155906   4.860148   5.349536
    28  C    7.347058   4.882181   4.724304   7.077933   7.664407
    29  O    7.198951   5.006525   4.591190   7.193503   7.636586
    30  N    8.589691   6.083132   6.026106   8.245732   8.892528
    31  H    9.220204   6.865472   6.690248   9.070975   9.668716
    32  H    8.745861   6.236195   6.317387   8.370045   9.113178
    33  H    4.652827   3.396304   4.396007   2.163652   3.068921
    34  C    4.221204   4.458233   3.871601   6.319526   6.801027
    35  C    5.515396   4.168837   4.110448   6.349862   7.135073
    36  C    6.797945   5.048100   5.102761   7.244393   8.077257
    37  C    8.890585   6.838619   7.171685   8.794126   9.742885
    38  C    7.381210   5.346466   5.681443   7.335724   8.272534
    39  O    4.587465   3.365604   3.512473   5.352162   6.201670
    40  S    5.637400   4.902871   4.431830   7.094774   7.683692
    41  H    4.739543   5.340243   4.622043   7.104271   7.470201
    42  H    3.359322   3.573836   2.879750   5.371485   5.784284
    43  H    9.228445   7.469264   7.773745   9.405097  10.370232
    44  H    9.393131   7.246861   7.465427   9.317201  10.208088
    45  H    9.397505   7.180889   7.644707   8.973355   9.955031
    46  H    6.970650   5.156658   5.620113   6.950151   7.945200
    47  H    7.563157   5.870630   5.785372   8.136274   8.910619
    48  H    4.137019   4.678130   4.292577   6.359856   6.927720
                   16         17         18         19         20
    16  O    0.000000
    17  N    2.313205   0.000000
    18  C    2.790251   1.359499   0.000000
    19  H    2.534672   2.071378   1.078384   0.000000
    20  C    4.068064   2.359957   1.361143   2.155686   0.000000
    21  H    4.739913   3.333907   2.112329   2.490923   1.080116
    22  C    4.806271   2.740245   2.386846   3.391302   1.399791
    23  H    5.822642   3.817357   3.361865   4.289478   2.153242
    24  H    5.816091   3.588797   3.263165   4.130171   2.442990
    25  C    4.520194   2.364412   2.753263   3.828018   2.412189
    26  C    3.373771   1.331555   2.344356   3.285411   2.736486
    27  H    3.631037   2.075514   3.312131   4.144195   3.818572
    28  C    5.724084   3.695159   4.244120   5.314699   3.821008
    29  O    5.846046   4.089676   4.919586   5.943160   4.750218
    30  N    6.899263   4.779218   5.050579   6.122845   4.294086
    31  H    7.717860   5.638221   6.012997   7.089591   5.299709
    32  H    7.087893   4.861679   4.926070   5.967336   4.019027
    33  H    2.756265   3.938315   3.472143   2.454166   4.596805
    34  C    5.792582   4.673319   5.757216   6.291494   6.409379
    35  C    5.504766   3.509663   4.139384   4.904602   4.296502
    36  C    6.270513   4.043820   4.377421   5.258141   4.090322
    37  C    7.838374   5.598809   5.319615   6.100943   4.468876
    38  C    6.400506   4.171987   4.026381   4.826904   3.431160
    39  O    4.689624   2.948143   3.503413   4.059614   3.967535
    40  S    6.263852   4.557786   5.517384   6.290651   5.795038
    41  H    6.617852   5.636996   6.780724   7.319855   7.429765
    42  H    4.847318   4.004578   5.191357   5.663922   6.001347
    43  H    8.545195   6.343584   6.116877   6.830782   5.386512
    44  H    8.246971   5.950030   5.795631   6.682411   4.875075
    45  H    8.040596   5.886203   5.358880   6.052835   4.349251
    46  H    6.195702   4.148018   3.870966   4.473285   3.484513
    47  H    7.093863   4.860509   5.279900   6.220666   4.894953
    48  H    6.011581   4.945634   5.866940   6.282287   6.548276
                   21         22         23         24         25
    21  H    0.000000
    22  C    2.163849   0.000000
    23  H    2.496336   1.081913   0.000000
    24  H    2.899198   1.854986   2.071503   0.000000
    25  C    3.400039   1.398679   2.159600   2.435373   0.000000
    26  C    3.816156   2.387825   3.372813   3.263566   1.380736
    27  H    4.897839   3.379011   4.284054   4.098452   2.143752
    28  C    4.718442   2.565547   2.817378   3.237926   1.496705
    29  O    5.717950   3.626345   3.975774   4.337746   2.362008
    30  N    4.980652   2.897954   2.631046   3.231114   2.421277
    31  H    5.986088   3.905420   3.602952   4.104317   3.317754
    32  H    4.573376   2.671116   2.236349   2.545705   2.593757
    33  H    4.726526   5.838779   6.738492   6.439830   6.120712
    34  C    7.362668   6.124506   6.969856   5.697537   5.101530
    35  C    5.145879   3.847444   4.540899   2.988516   3.169778
    36  C    4.816343   3.358644   3.758263   2.130063   2.939809
    37  C    4.673206   3.808236   3.581581   2.103034   4.239351
    38  C    3.880602   2.898550   3.110861   1.109657   3.143283
    39  O    4.768447   3.946406   4.804783   3.240338   3.468648
    40  S    6.742943   5.173747   5.831739   4.585450   4.127760
    41  H    8.404648   7.067774   7.878763   6.665173   5.958486
    42  H    6.985348   5.833892   6.766847   5.712922   4.783635
    43  H    5.575348   4.818710   4.662324   3.027464   5.149336
    44  H    5.161281   3.934790   3.537589   2.552594   4.207503
    45  H    4.300020   3.862470   3.468756   2.336105   4.619465
    46  H    3.819613   3.387387   3.760192   1.716536   3.740691
    47  H    5.622135   3.934518   4.141490   2.839708   3.377054
    48  H    7.412110   6.421027   7.274319   5.774862   5.580695
                   26         27         28         29         30
    26  C    0.000000
    27  H    1.082708   0.000000
    28  C    2.450287   2.635009   0.000000
    29  O    2.769605   2.471436   1.208840   0.000000
    30  N    3.652718   3.971157   1.368681   2.269785   0.000000
    31  H    4.430449   4.560309   2.005362   2.455767   1.008967
    32  H    3.896635   4.388063   2.044779   3.111671   1.008699
    33  H    5.268336   5.840810   7.561801   8.003079   8.494886
    34  C    4.288753   3.679717   5.305574   5.059666   6.285189
    35  C    2.987643   3.063672   3.584034   3.980940   4.238330
    36  C    3.364539   3.675320   3.145379   3.843168   3.364827
    37  C    5.143995   5.784964   4.479503   5.521106   3.946052
    38  C    3.797133   4.448415   3.702784   4.685988   3.650636
    39  O    2.933401   3.148218   4.296553   4.718434   5.084249
    40  S    3.782443   3.307890   4.010843   3.885071   4.768958
    41  H    5.167036   4.422345   5.969693   5.550951   6.930515
    42  H    3.747069   3.066598   5.140205   4.839909   6.277968
    43  H    5.924891   6.479006   5.340264   6.290259   4.835766
    44  H    5.274343   5.824928   4.089526   5.092931   3.295049
    45  H    5.585249   6.362664   5.020180   6.152794   4.416351
    46  H    4.100164   4.786826   4.558066   5.486992   4.671002
    47  H    3.964267   4.106646   3.075906   3.651079   3.044156
    48  H    4.784833   4.368081   5.962913   5.887927   6.862870
                   31         32         33         34         35
    31  H    0.000000
    32  H    1.704857   0.000000
    33  H    9.432359   8.382021   0.000000
    34  C    6.592981   6.426870   7.307266   0.000000
    35  C    4.763018   4.057654   6.647939   2.783870   0.000000
    36  C    3.888902   2.955069   7.302220   4.061609   1.380932
    37  C    4.477309   3.005887   8.282141   6.529779   3.801610
    38  C    4.356580   2.922325   6.970342   5.275792   2.496660
    39  O    5.745158   4.874553   5.543869   2.863717   1.262843
    40  S    4.980108   4.880687   7.841003   1.798101   1.806014
    41  H    7.108357   7.151626   8.249521   1.088377   3.728138
    42  H    6.672892   6.499544   6.551119   1.087467   3.073802
    43  H    5.248023   3.937869   8.868052   6.646519   4.077830
    44  H    3.656790   2.357772   8.970924   6.761573   4.118448
    45  H    5.031219   3.425235   8.230619   7.411462   4.642315
    46  H    5.415481   3.975982   6.394232   5.255829   2.642927
    47  H    3.302674   2.714415   8.314436   4.380917   2.120206
    48  H    7.240394   6.859618   7.127716   1.088020   2.895514
                   36         37         38         39         40
    36  C    0.000000
    37  C    2.544064   0.000000
    38  C    1.472286   1.523001   0.000000
    39  O    2.361274   4.377692   2.923833   0.000000
    40  S    2.678450   5.163179   4.093730   2.668735   0.000000
    41  H    4.904473   7.374355   6.207409   3.939155   2.347536
    42  H    4.388784   6.866538   5.491359   2.886668   2.424732
    43  H    2.938131   1.089953   2.176387   4.661013   5.324354
    44  H    2.743801   1.094110   2.172476   4.915488   5.207345
    45  H    3.460791   1.091362   2.168118   5.028831   6.129504
    46  H    2.117649   2.177858   1.094479   2.625500   4.390808
    47  H    1.084127   2.740089   2.218006   3.297430   2.710645
    48  H    4.199159   6.486014   5.245801   2.696871   2.407285
                   41         42         43         44         45
    41  H    0.000000
    42  H    1.772947   0.000000
    43  H    7.434929   7.126726   0.000000
    44  H    7.519021   7.114051   1.754725   0.000000
    45  H    8.308975   7.659348   1.765578   1.765696   0.000000
    46  H    6.249391   5.451924   2.508905   3.086582   2.567918
    47  H    5.044663   4.827356   3.046602   2.537554   3.762947
    48  H    1.775790   1.775959   6.479628   6.871310   7.331391
                   46         47         48
    46  H    0.000000
    47  H    3.044261   0.000000
    48  H    5.019841   4.658974   0.000000
 Stoichiometry    C16H24N2O5S
 Framework group  C1[X(C16H24N2O5S)]
 Deg. of freedom   138
 Full point group                 C1      NOp   1
 Largest Abelian subgroup         C1      NOp   1
 Largest concise Abelian subgroup C1      NOp   1
                         Standard orientation:                         
 ---------------------------------------------------------------------
 Center     Atomic      Atomic             Coordinates (Angstroms)
 Number     Number       Type             X           Y           Z
 ---------------------------------------------------------------------
      1          6           0       -4.678391   -1.976803   -0.534956
      2          1           0       -4.635492   -2.917999    0.011723
      3          1           0       -5.703037   -1.815394   -0.870634
      4          6           0       -2.518042    0.453510   -0.692201
      5          1           0       -2.325806   -0.198633   -1.554547
      6          8           0       -2.046654    1.736213   -0.894105
      7          1           0       -1.061483    1.686053   -1.060351
      8          6           0       -4.015384    0.480974   -0.375490
      9          1           0       -4.622123    0.549281   -1.283593
     10          8           0       -4.288982    1.543781    0.502900
     11          1           0       -3.750195    2.291877    0.208743
     12          6           0       -1.991244   -0.231439    0.580953
     13          1           0       -1.804481    0.515211    1.356878
     14          6           0       -4.234504   -0.836937    0.357344
     15          1           0       -4.941976   -0.681555    1.172348
     16          8           0       -2.957922   -1.163511    0.952847
     17          7           0       -0.721498   -0.964102    0.396460
     18          6           0       -0.706617   -2.026664   -0.451466
     19          1           0       -1.649573   -2.274017   -0.912511
     20          6           0        0.437475   -2.739634   -0.639718
     21          1           0        0.429628   -3.587078   -1.309365
     22          6           0        1.604195   -2.368446    0.038809
     23          1           0        2.482491   -2.997742   -0.017031
     24          1           0        2.368062   -1.432008   -1.368516
     25          6           0        1.560502   -1.286783    0.924473
     26          6           0        0.367566   -0.608011    1.074823
     27          1           0        0.296642    0.235166    1.750307
     28          6           0        2.694618   -0.855897    1.800968
     29          8           0        2.506082   -0.172362    2.780012
     30          7           0        3.919305   -1.366417    1.465112
     31          1           0        4.688104   -0.971513    1.985701
     32          1           0        4.104575   -1.543980    0.489602
     33          1           0       -4.041143   -2.057282   -1.418820
     34          6           0        0.261870    3.602767    0.267616
     35          6           0        1.603401    1.393690   -0.766892
     36          6           0        2.734505    0.628463   -0.971846
     37          6           0        4.098205   -0.927386   -2.452358
     38          6           0        2.742592   -0.525059   -1.886695
     39          8           0        0.455470    1.180908   -1.248296
     40         16           0        1.863443    2.789465    0.349297
     41          1           0        0.375565    4.551130    0.789389
     42          1           0       -0.516204    3.019190    0.754057
     43          1           0        4.448865   -0.218670   -3.202530
     44          1           0        4.859245   -0.962318   -1.667071
     45          1           0        4.051070   -1.914667   -2.915096
     46          1           0        2.000837   -0.386521   -2.679469
     47          1           0        3.658070    0.943944   -0.499799
     48          1           0       -0.019820    3.791430   -0.766233
 ---------------------------------------------------------------------
 Rotational constants (GHZ):           0.3334061           0.1647871           0.1402527
 Leave Link  202 at Sat Aug 13 20:34:16 2022, MaxMem=  2684354560 cpu:               0.4 elap:               0.1
 (Enter /storage/apps/GAUSSIAN/G16_RevA03/g16/l301.exe)
 Standard basis: def2TZVP (5D, 7F)
 Ernie: Thresh=  0.10000D-02 Tol=  0.10000D-05 Strict=F.
 There are  1014 symmetry adapted cartesian basis functions of A   symmetry.
 There are   894 symmetry adapted basis functions of A   symmetry.
   894 basis functions,  1434 primitive gaussians,  1014 cartesian basis functions
    95 alpha electrons       95 beta electrons
       nuclear repulsion energy      2498.9104404590 Hartrees.
 IExCor= 4336 DFT=T Ex+Corr=M062X ExCW=0 ScaHFX=  0.540000
 ScaDFX=  1.000000  1.000000  1.000000  1.000000 ScalE2=  1.000000  1.000000
 IRadAn=      5 IRanWt=     -1 IRanGd=            0 ICorTp=0 IEmpDi=131
 NAtoms=   48 NActive=   48 NUniq=   48 SFac= 1.00D+00 NAtFMM=   60 NAOKFM=F Big=F
 Integral buffers will be    131072 words long.
 Raffenetti 2 integral format.
 Two-electron integral symmetry is turned on.
 R6Disp:  Grimme-D3 Dispersion energy=       -0.0042677390 Hartrees.
 Nuclear repulsion after empirical dispersion term =     2498.9061727199 Hartrees.
 Leave Link  301 at Sat Aug 13 20:34:16 2022, MaxMem=  2684354560 cpu:               1.6 elap:               0.1
 (Enter /storage/apps/GAUSSIAN/G16_RevA03/g16/l302.exe)
 NPDir=0 NMtPBC=     1 NCelOv=     1 NCel=       1 NClECP=     1 NCelD=      1
         NCelK=      1 NCelE2=     1 NClLst=     1 CellRange=     0.0.
 One-electron integrals computed using PRISM.
 One-electron integral symmetry used in STVInt
   1 Symmetry operations used in ECPInt.
 ECPInt:  NShTT=   65703 NPrTT=  200010 LenC2=   56966 LenP2D=  121512.
 LDataN:  DoStor=T MaxTD1= 6 Len=  172
 NBasis=   894 RedAO= T EigKep=  1.66D-05  NBF=   894
 NBsUse=   894 1.00D-06 EigRej= -1.00D+00 NBFU=   894
 Precomputing XC quadrature grid using
 IXCGrd= 4 IRadAn=           5 IRanWt=          -1 IRanGd=           0 AccXCQ= 0.00D+00.
 Generated NRdTot=       0 NPtTot=           0 NUsed=           0 NTot=          32
 NSgBfM=   998   997   997   998   998 MxSgAt=    48 MxSgA2=    48.
 Leave Link  302 at Sat Aug 13 20:34:17 2022, MaxMem=  2684354560 cpu:              19.0 elap:               1.2
 (Enter /storage/apps/GAUSSIAN/G16_RevA03/g16/l303.exe)
 DipDrv:  MaxL=1.
 Leave Link  303 at Sat Aug 13 20:34:17 2022, MaxMem=  2684354560 cpu:               2.1 elap:               0.2
 (Enter /storage/apps/GAUSSIAN/G16_RevA03/g16/l401.exe)
 ExpMin= 9.52D-02 ExpMax= 6.07D+04 ExpMxC= 2.07D+03 IAcc=3 IRadAn=         5 AccDes= 0.00D+00
 Harris functional with IExCor= 1009 and IRadAn=       5 diagonalized for initial guess.
 HarFok:  IExCor= 1009 AccDes= 0.00D+00 IRadAn=         5 IDoV= 1 UseB2=F ITyADJ=14
 ICtDFT=  3500011 ScaDFX=  1.000000  1.000000  1.000000  1.000000
 FoFCou: FMM=F IPFlag=           0 FMFlag=      100000 FMFlg1=           0
         NFxFlg=           0 DoJE=T BraDBF=F KetDBF=T FulRan=T
         wScrn=  0.000000 ICntrl=       500 IOpCl=  0 I1Cent=   200000004 NGrid=           0
         NMat0=    1 NMatS0=      1 NMatT0=    0 NMatD0=    1 NMtDS0=    0 NMtDT0=    0
 Petite list used in FoFCou.
 Harris En= -1507.23923276839    
 JPrj=0 DoOrth=F DoCkMO=F.
 Leave Link  401 at Sat Aug 13 20:34:21 2022, MaxMem=  2684354560 cpu:              61.3 elap:               3.9
 (Enter /storage/apps/GAUSSIAN/G16_RevA03/g16/l502.exe)
 Integral symmetry usage will be decided dynamically.
 Closed shell SCF:
 Using DIIS extrapolation, IDIIS=  1040.
 NGot=  2684354560 LenX=  2682272944 LenY=  2681243734
 Requested convergence on RMS density matrix=1.00D-08 within 128 cycles.
 Requested convergence on MAX density matrix=1.00D-06.
 Requested convergence on             energy=1.00D-06.
 No special actions if energy rises.
 Fock matrices will be formed incrementally for  20 cycles.
 Integral accuracy reduced to 1.0D-05 until final iterations.

 Cycle   1  Pass 0  IDiag  1:
 FoFJK:  IHMeth= 1 ICntrl=       0 DoSepK=F KAlg= 0 I1Cent=           0 FoldK=F
 IRaf= 800000000 NMat=       1 IRICut=       1 DoRegI=T DoRafI=F ISym2E= 0 IDoP0=0 IntGTp=1.
 FoFCou: FMM=F IPFlag=           0 FMFlag=      100000 FMFlg1=           0
         NFxFlg=           0 DoJE=F BraDBF=F KetDBF=F FulRan=T
         wScrn=  0.000000 ICntrl=         0 IOpCl=  0 I1Cent=           0 NGrid=           0
         NMat0=    1 NMatS0=      1 NMatT0=    0 NMatD0=    1 NMtDS0=    0 NMtDT0=    0
 Symmetry not used in FoFCou.
 E= -1507.15618075409    
 DIIS: error= 1.76D-02 at cycle   1 NSaved=   1.
 NSaved= 1 IEnMin= 1 EnMin= -1507.15618075409     IErMin= 1 ErrMin= 1.76D-02
 ErrMax= 1.76D-02  0.00D+00 EMaxC= 1.00D-01 BMatC= 9.96D-01 BMatP= 9.96D-01
 IDIUse=3 WtCom= 8.24D-01 WtEn= 1.76D-01
 Coeff-Com:  0.100D+01
 Coeff-En:   0.100D+01
 Coeff:      0.100D+01
 Gap=     0.178 Goal=   None    Shift=    0.000
 GapD=    0.178 DampG=1.000 DampE=0.500 DampFc=0.5000 IDamp=-1.
 Damping current iteration by 5.00D-01
 RMSDP=4.03D-03 MaxDP=1.10D+00              OVMax= 5.36D-01

 Cycle   2  Pass 0  IDiag  1:
 RMSU=  2.01D-03    CP:  1.01D+00
 E= -1507.46252817951     Delta-E=       -0.306347425418 Rises=F Damp=T
 DIIS: error= 7.55D-03 at cycle   2 NSaved=   2.
 NSaved= 2 IEnMin= 2 EnMin= -1507.46252817951     IErMin= 2 ErrMin= 7.55D-03
 ErrMax= 7.55D-03  0.00D+00 EMaxC= 1.00D-01 BMatC= 9.92D-02 BMatP= 9.96D-01
 IDIUse=3 WtCom= 9.24D-01 WtEn= 7.55D-02
 Coeff-Com:  0.157D-01 0.984D+00
 Coeff-En:   0.129D+00 0.871D+00
 Coeff:      0.243D-01 0.976D+00
 Gap=     0.167 Goal=   None    Shift=    0.000
 RMSDP=1.36D-03 MaxDP=2.60D-01 DE=-3.06D-01 OVMax= 4.30D-01

 Cycle   3  Pass 0  IDiag  1:
 RMSU=  1.17D-03    CP:  1.00D+00  6.61D-01
 E= -1507.82508032305     Delta-E=       -0.362552143543 Rises=F Damp=F
 DIIS: error= 7.77D-03 at cycle   3 NSaved=   3.
 NSaved= 3 IEnMin= 3 EnMin= -1507.82508032305     IErMin= 2 ErrMin= 7.55D-03
 ErrMax= 7.77D-03  0.00D+00 EMaxC= 1.00D-01 BMatC= 7.36D-02 BMatP= 9.92D-02
 IDIUse=3 WtCom= 9.22D-01 WtEn= 7.77D-02
 Coeff-Com: -0.721D-01 0.487D+00 0.585D+00
 Coeff-En:   0.000D+00 0.000D+00 0.100D+01
 Coeff:     -0.665D-01 0.449D+00 0.617D+00
 Gap=     0.132 Goal=   None    Shift=    0.000
 RMSDP=6.04D-04 MaxDP=3.09D-02 DE=-3.63D-01 OVMax= 1.74D-01

 Cycle   4  Pass 0  IDiag  1:
 RMSU=  4.94D-04    CP:  1.00D+00  8.01D-01  8.28D-01
 E= -1507.88950413354     Delta-E=       -0.064423810485 Rises=F Damp=F
 DIIS: error= 4.10D-03 at cycle   4 NSaved=   4.
 NSaved= 4 IEnMin= 4 EnMin= -1507.88950413354     IErMin= 4 ErrMin= 4.10D-03
 ErrMax= 4.10D-03  0.00D+00 EMaxC= 1.00D-01 BMatC= 1.07D-02 BMatP= 7.36D-02
 IDIUse=3 WtCom= 9.59D-01 WtEn= 4.10D-02
 Coeff-Com: -0.365D-01 0.106D+00 0.308D+00 0.623D+00
 Coeff-En:   0.000D+00 0.000D+00 0.861D-01 0.914D+00
 Coeff:     -0.350D-01 0.101D+00 0.299D+00 0.635D+00
 Gap=     0.152 Goal=   None    Shift=    0.000
 RMSDP=2.13D-04 MaxDP=1.47D-02 DE=-6.44D-02 OVMax= 6.66D-02

 Cycle   5  Pass 0  IDiag  1:
 RMSU=  1.63D-04    CP:  1.00D+00  7.79D-01  9.04D-01  8.13D-01
 E= -1507.89944257403     Delta-E=       -0.009938440497 Rises=F Damp=F
 DIIS: error= 9.43D-04 at cycle   5 NSaved=   5.
 NSaved= 5 IEnMin= 5 EnMin= -1507.89944257403     IErMin= 5 ErrMin= 9.43D-04
 ErrMax= 9.43D-04  0.00D+00 EMaxC= 1.00D-01 BMatC= 9.79D-04 BMatP= 1.07D-02
 IDIUse=3 WtCom= 9.91D-01 WtEn= 9.43D-03
 Coeff-Com: -0.117D-01 0.216D-01 0.102D+00 0.321D+00 0.567D+00
 Coeff-En:   0.000D+00 0.000D+00 0.000D+00 0.000D+00 0.100D+01
 Coeff:     -0.116D-01 0.214D-01 0.101D+00 0.318D+00 0.571D+00
 Gap=     0.151 Goal=   None    Shift=    0.000
 RMSDP=7.42D-05 MaxDP=7.62D-03 DE=-9.94D-03 OVMax= 9.78D-03

 Cycle   6  Pass 0  IDiag  1:
 RMSU=  6.28D-05    CP:  1.00D+00  7.79D-01  8.96D-01  8.88D-01  9.41D-01
 E= -1507.90035050799     Delta-E=       -0.000907933954 Rises=F Damp=F
 DIIS: error= 1.99D-04 at cycle   6 NSaved=   6.
 NSaved= 6 IEnMin= 6 EnMin= -1507.90035050799     IErMin= 6 ErrMin= 1.99D-04
 ErrMax= 1.99D-04  0.00D+00 EMaxC= 1.00D-01 BMatC= 1.02D-04 BMatP= 9.79D-04
 IDIUse=3 WtCom= 9.98D-01 WtEn= 1.99D-03
 Coeff-Com: -0.238D-03-0.400D-02-0.150D-02 0.605D-01 0.275D+00 0.670D+00
 Coeff-En:   0.000D+00 0.000D+00 0.000D+00 0.000D+00 0.000D+00 0.100D+01
 Coeff:     -0.237D-03-0.400D-02-0.150D-02 0.603D-01 0.275D+00 0.670D+00
 Gap=     0.152 Goal=   None    Shift=    0.000
 RMSDP=4.03D-05 MaxDP=4.37D-03 DE=-9.08D-04 OVMax= 5.90D-03

 Cycle   7  Pass 0  IDiag  1:
 RMSU=  2.37D-05    CP:  1.00D+00  7.79D-01  9.04D-01  9.11D-01  1.12D+00
                    CP:  1.09D+00
 E= -1507.90044868020     Delta-E=       -0.000098172209 Rises=F Damp=F
 DIIS: error= 8.55D-05 at cycle   7 NSaved=   7.
 NSaved= 7 IEnMin= 7 EnMin= -1507.90044868020     IErMin= 7 ErrMin= 8.55D-05
 ErrMax= 8.55D-05  0.00D+00 EMaxC= 1.00D-01 BMatC= 1.37D-05 BMatP= 1.02D-04
 IDIUse=1 WtCom= 1.00D+00 WtEn= 0.00D+00
 Coeff-Com:  0.137D-02-0.430D-02-0.152D-01-0.137D-01 0.501D-01 0.312D+00
 Coeff-Com:  0.670D+00
 Coeff:      0.137D-02-0.430D-02-0.152D-01-0.137D-01 0.501D-01 0.312D+00
 Coeff:      0.670D+00
 Gap=     0.152 Goal=   None    Shift=    0.000
 RMSDP=2.00D-05 MaxDP=2.30D-03 DE=-9.82D-05 OVMax= 2.38D-03

 Cycle   8  Pass 0  IDiag  1:
 RMSU=  1.23D-05    CP:  1.00D+00  7.77D-01  9.04D-01  9.23D-01  1.18D+00
                    CP:  1.21D+00  1.16D+00
 E= -1507.90045468613     Delta-E=       -0.000006005931 Rises=F Damp=F
 DIIS: error= 3.05D-05 at cycle   8 NSaved=   8.
 NSaved= 8 IEnMin= 8 EnMin= -1507.90045468613     IErMin= 8 ErrMin= 3.05D-05
 ErrMax= 3.05D-05  0.00D+00 EMaxC= 1.00D-01 BMatC= 2.36D-06 BMatP= 1.37D-05
 IDIUse=1 WtCom= 1.00D+00 WtEn= 0.00D+00
 Coeff-Com:  0.711D-03-0.141D-02-0.828D-02-0.170D-01-0.253D-01 0.430D-01
 Coeff-Com:  0.318D+00 0.691D+00
 Coeff:      0.711D-03-0.141D-02-0.828D-02-0.170D-01-0.253D-01 0.430D-01
 Coeff:      0.318D+00 0.691D+00
 Gap=     0.152 Goal=   None    Shift=    0.000
 RMSDP=1.79D-05 MaxDP=2.66D-03 DE=-6.01D-06 OVMax= 1.48D-03

 Cycle   9  Pass 0  IDiag  1:
 RMSU=  1.27D-05    CP:  1.00D+00  7.74D-01  9.01D-01  9.27D-01  1.20D+00
                    CP:  1.31D+00  1.32D+00  1.62D+00
 E= -1507.90045097131     Delta-E=        0.000003714812 Rises=F Damp=F
 DIIS: error= 1.69D-05 at cycle   9 NSaved=   9.
 NSaved= 9 IEnMin= 8 EnMin= -1507.90045468613     IErMin= 9 ErrMin= 1.69D-05
 ErrMax= 1.69D-05  0.00D+00 EMaxC= 1.00D-01 BMatC= 5.52D-07 BMatP= 2.36D-06
 IDIUse=1 WtCom= 1.00D+00 WtEn= 0.00D+00
 Coeff-Com:  0.218D-03-0.269D-03-0.329D-02-0.749D-02-0.200D-01-0.500D-02
 Coeff-Com:  0.902D-01 0.348D+00 0.598D+00
 Coeff:      0.218D-03-0.269D-03-0.329D-02-0.749D-02-0.200D-01-0.500D-02
 Coeff:      0.902D-01 0.348D+00 0.598D+00
 Gap=     0.152 Goal=   None    Shift=    0.000
 RMSDP=1.88D-05 MaxDP=1.84D-03 DE= 3.71D-06 OVMax= 6.22D-04

 Cycle  10  Pass 0  IDiag  1:
 RMSU=  9.96D-06    CP:  1.00D+00  7.72D-01  8.99D-01  9.28D-01  1.21D+00
                    CP:  1.37D+00  1.45D+00  2.27D+00  1.95D+00
 E= -1507.90044768217     Delta-E=        0.000003289144 Rises=F Damp=F
 DIIS: error= 2.70D-05 at cycle  10 NSaved=  10.
 NSaved=10 IEnMin= 8 EnMin= -1507.90045468613     IErMin= 9 ErrMin= 1.69D-05
 ErrMax= 2.70D-05  0.00D+00 EMaxC= 1.00D-01 BMatC= 4.61D-07 BMatP= 5.52D-07
 IDIUse=1 WtCom= 1.00D+00 WtEn= 0.00D+00
 Coeff-Com:  0.227D-03-0.281D-03-0.340D-02-0.779D-02-0.207D-01-0.523D-02
 Coeff-Com:  0.942D-01 0.362D+00 0.622D+00-0.415D-01
 Coeff:      0.227D-03-0.281D-03-0.340D-02-0.779D-02-0.207D-01-0.523D-02
 Coeff:      0.942D-01 0.362D+00 0.622D+00-0.415D-01
 Gap=     0.152 Goal=   None    Shift=    0.000
 RMSDP=1.84D-06 MaxDP=2.04D-04 DE= 3.29D-06 OVMax= 1.52D-05

 Initial convergence to 1.0D-05 achieved.  Increase integral accuracy.
 Cycle  11  Pass 1  IDiag  1:
 E= -1507.90037901630     Delta-E=        0.000068665866 Rises=F Damp=F
 DIIS: error= 3.34D-04 at cycle   1 NSaved=   1.
 NSaved= 1 IEnMin= 1 EnMin= -1507.90037901630     IErMin= 1 ErrMin= 3.34D-04
 ErrMax= 3.34D-04  0.00D+00 EMaxC= 1.00D-01 BMatC= 9.71D-05 BMatP= 9.71D-05
 IDIUse=3 WtCom= 9.97D-01 WtEn= 3.34D-03
 Coeff-Com:  0.100D+01
 Coeff-En:   0.100D+01
 Coeff:      0.100D+01
 Gap=     0.152 Goal=   None    Shift=    0.000
 RMSDP=1.84D-06 MaxDP=2.04D-04 DE= 6.87D-05 OVMax= 1.15D-03

 Cycle  12  Pass 1  IDiag  1:
 RMSU=  6.01D-04    CP:  9.91D-01
 E= -1507.90044054040     Delta-E=       -0.000061524092 Rises=F Damp=F
 DIIS: error= 1.65D-05 at cycle   2 NSaved=   2.
 NSaved= 2 IEnMin= 2 EnMin= -1507.90044054040     IErMin= 2 ErrMin= 1.65D-05
 ErrMax= 1.65D-05  0.00D+00 EMaxC= 1.00D-01 BMatC= 1.74D-07 BMatP= 9.71D-05
 IDIUse=1 WtCom= 1.00D+00 WtEn= 0.00D+00
 Coeff-Com: -0.144D-01 0.101D+01
 Coeff:     -0.144D-01 0.101D+01
 Gap=     0.152 Goal=   None    Shift=    0.000
 RMSDP=2.30D-05 MaxDP=2.17D-03 DE=-6.15D-05 OVMax= 6.14D-04

 Cycle  13  Pass 1  IDiag  1:
 RMSU=  9.06D-06    CP:  9.90D-01  1.04D+00
 E= -1507.90044040986     Delta-E=        0.000000130539 Rises=F Damp=F
 DIIS: error= 2.12D-05 at cycle   3 NSaved=   3.
 NSaved= 3 IEnMin= 2 EnMin= -1507.90044054040     IErMin= 2 ErrMin= 1.65D-05
 ErrMax= 2.12D-05  0.00D+00 EMaxC= 1.00D-01 BMatC= 3.58D-07 BMatP= 1.74D-07
 IDIUse=1 WtCom= 1.00D+00 WtEn= 0.00D+00
 Coeff-Com: -0.104D-01 0.619D+00 0.391D+00
 Coeff:     -0.104D-01 0.619D+00 0.391D+00
 Gap=     0.152 Goal=   None    Shift=    0.000
 RMSDP=1.18D-06 MaxDP=7.51D-05 DE= 1.31D-07 OVMax= 2.54D-04

 Cycle  14  Pass 1  IDiag  1:
 RMSU=  1.14D-06    CP:  9.90D-01  1.04D+00  9.99D-01
 E= -1507.90044078561     Delta-E=       -0.000000375758 Rises=F Damp=F
 DIIS: error= 1.31D-06 at cycle   4 NSaved=   4.
 NSaved= 4 IEnMin= 4 EnMin= -1507.90044078561     IErMin= 4 ErrMin= 1.31D-06
 ErrMax= 1.31D-06  0.00D+00 EMaxC= 1.00D-01 BMatC= 1.11D-09 BMatP= 1.74D-07
 IDIUse=1 WtCom= 1.00D+00 WtEn= 0.00D+00
 Coeff-Com: -0.866D-04-0.548D-02 0.313D-02 0.100D+01
 Coeff:     -0.866D-04-0.548D-02 0.313D-02 0.100D+01
 Gap=     0.152 Goal=   None    Shift=    0.000
 RMSDP=6.28D-07 MaxDP=5.24D-05 DE=-3.76D-07 OVMax= 8.10D-05

 Cycle  15  Pass 1  IDiag  1:
 RMSU=  2.93D-07    CP:  9.90D-01  1.04D+00  1.04D+00  1.04D+00
 E= -1507.90044078945     Delta-E=       -0.000000003839 Rises=F Damp=F
 DIIS: error= 6.02D-07 at cycle   5 NSaved=   5.
 NSaved= 5 IEnMin= 5 EnMin= -1507.90044078945     IErMin= 5 ErrMin= 6.02D-07
 ErrMax= 6.02D-07  0.00D+00 EMaxC= 1.00D-01 BMatC= 1.17D-09 BMatP= 1.11D-09
 IDIUse=1 WtCom= 1.00D+00 WtEn= 0.00D+00
 Coeff-Com:  0.738D-03-0.496D-01-0.395D-01 0.523D+00 0.565D+00
 Coeff:      0.738D-03-0.496D-01-0.395D-01 0.523D+00 0.565D+00
 Gap=     0.152 Goal=   None    Shift=    0.000
 RMSDP=1.13D-07 MaxDP=9.97D-06 DE=-3.84D-09 OVMax= 2.25D-05

 Cycle  16  Pass 1  IDiag  1:
 RMSU=  7.12D-08    CP:  9.90D-01  1.04D+00  1.04D+00  1.05D+00  1.18D+00
 E= -1507.90044079097     Delta-E=       -0.000000001512 Rises=F Damp=F
 DIIS: error= 2.82D-07 at cycle   6 NSaved=   6.
 NSaved= 6 IEnMin= 6 EnMin= -1507.90044079097     IErMin= 6 ErrMin= 2.82D-07
 ErrMax= 2.82D-07  0.00D+00 EMaxC= 1.00D-01 BMatC= 1.44D-10 BMatP= 1.11D-09
 IDIUse=1 WtCom= 1.00D+00 WtEn= 0.00D+00
 Coeff-Com:  0.143D-03-0.691D-02-0.206D-01-0.129D+00 0.676D-01 0.109D+01
 Coeff:      0.143D-03-0.691D-02-0.206D-01-0.129D+00 0.676D-01 0.109D+01
 Gap=     0.152 Goal=   None    Shift=    0.000
 RMSDP=1.04D-07 MaxDP=1.05D-05 DE=-1.51D-09 OVMax= 2.71D-05

 Cycle  17  Pass 1  IDiag  1:
 RMSU=  4.55D-08    CP:  9.90D-01  1.04D+00  1.05D+00  1.06D+00  1.46D+00
                    CP:  1.48D+00
 E= -1507.90044079145     Delta-E=       -0.000000000481 Rises=F Damp=F
 DIIS: error= 1.11D-07 at cycle   7 NSaved=   7.
 NSaved= 7 IEnMin= 7 EnMin= -1507.90044079145     IErMin= 7 ErrMin= 1.11D-07
 ErrMax= 1.11D-07  0.00D+00 EMaxC= 1.00D-01 BMatC= 4.96D-11 BMatP= 1.44D-10
 IDIUse=1 WtCom= 1.00D+00 WtEn= 0.00D+00
 Coeff-Com: -0.757D-04 0.658D-02-0.616D-02-0.175D+00-0.714D-01 0.645D+00
 Coeff-Com:  0.602D+00
 Coeff:     -0.757D-04 0.658D-02-0.616D-02-0.175D+00-0.714D-01 0.645D+00
 Coeff:      0.602D+00
 Gap=     0.152 Goal=   None    Shift=    0.000
 RMSDP=3.24D-08 MaxDP=4.04D-06 DE=-4.81D-10 OVMax= 9.73D-06

 Cycle  18  Pass 1  IDiag  1:
 RMSU=  1.35D-08    CP:  9.90D-01  1.04D+00  1.05D+00  1.06D+00  1.53D+00
                    CP:  1.68D+00  1.25D+00
 E= -1507.90044079147     Delta-E=       -0.000000000025 Rises=F Damp=F
 DIIS: error= 3.29D-08 at cycle   8 NSaved=   8.
 NSaved= 8 IEnMin= 8 EnMin= -1507.90044079147     IErMin= 8 ErrMin= 3.29D-08
 ErrMax= 3.29D-08  0.00D+00 EMaxC= 1.00D-01 BMatC= 2.82D-12 BMatP= 4.96D-11
 IDIUse=1 WtCom= 1.00D+00 WtEn= 0.00D+00
 Coeff-Com: -0.421D-04 0.306D-02-0.515D-03-0.475D-01-0.340D-01 0.996D-01
 Coeff-Com:  0.217D+00 0.763D+00
 Coeff:     -0.421D-04 0.306D-02-0.515D-03-0.475D-01-0.340D-01 0.996D-01
 Coeff:      0.217D+00 0.763D+00
 Gap=     0.152 Goal=   None    Shift=    0.000
 RMSDP=1.07D-08 MaxDP=9.22D-07 DE=-2.50D-11 OVMax= 2.62D-06

 Cycle  19  Pass 1  IDiag  1:
 RMSU=  4.12D-09    CP:  9.90D-01  1.04D+00  1.05D+00  1.06D+00  1.55D+00
                    CP:  1.74D+00  1.39D+00  1.10D+00
 E= -1507.90044079154     Delta-E=       -0.000000000066 Rises=F Damp=F
 DIIS: error= 1.59D-08 at cycle   9 NSaved=   9.
 NSaved= 9 IEnMin= 9 EnMin= -1507.90044079154     IErMin= 9 ErrMin= 1.59D-08
 ErrMax= 1.59D-08  0.00D+00 EMaxC= 1.00D-01 BMatC= 4.65D-13 BMatP= 2.82D-12
 IDIUse=1 WtCom= 1.00D+00 WtEn= 0.00D+00
 Coeff-Com: -0.723D-05 0.350D-03 0.575D-03 0.681D-02-0.328D-02-0.556D-01
 Coeff-Com:  0.246D-02 0.329D+00 0.719D+00
 Coeff:     -0.723D-05 0.350D-03 0.575D-03 0.681D-02-0.328D-02-0.556D-01
 Coeff:      0.246D-02 0.329D+00 0.719D+00
 Gap=     0.152 Goal=   None    Shift=    0.000
 RMSDP=3.83D-09 MaxDP=4.92D-07 DE=-6.59D-11 OVMax= 9.39D-07

 SCF Done:  E(RM062X) =  -1507.90044079     A.U. after   19 cycles
            NFock= 19  Conv=0.38D-08     -V/T= 2.0037
 KE= 1.502308023754D+03 PE=-8.535232019587D+03 EE= 3.026117382321D+03
 Leave Link  502 at Sat Aug 13 20:43:30 2022, MaxMem=  2684354560 cpu:            8766.6 elap:             548.7
 (Enter /storage/apps/GAUSSIAN/G16_RevA03/g16/l601.exe)
 Copying SCF densities to generalized density rwf, IOpCl= 0 IROHF=0.

 **********************************************************************

            Population analysis using the SCF density.

 **********************************************************************

 Orbital symmetries:
       Occupied  (A) (A) (A) (A) (A) (A) (A) (A) (A) (A) (A) (A)
                 (A) (A) (A) (A) (A) (A) (A) (A) (A) (A) (A) (A)
                 (A) (A) (A) (A) (A) (A) (A) (A) (A) (A) (A) (A)
                 (A) (A) (A) (A) (A) (A) (A) (A) (A) (A) (A) (A)
                 (A) (A) (A) (A) (A) (A) (A) (A) (A) (A) (A) (A)
                 (A) (A) (A) (A) (A) (A) (A) (A) (A) (A) (A) (A)
                 (A) (A) (A) (A) (A) (A) (A) (A) (A) (A) (A) (A)
                 (A) (A) (A) (A) (A) (A) (A) (A) (A) (A) (A)
       Virtual   (A) (A) (A) (A) (A) (A) (A) (A) (A) (A) (A) (A)
                 (A) (A) (A) (A) (A) (A) (A) (A) (A) (A) (A) (A)
                 (A) (A) (A) (A) (A) (A) (A) (A) (A) (A) (A) (A)
                 (A) (A) (A) (A) (A) (A) (A) (A) (A) (A) (A) (A)
                 (A) (A) (A) (A) (A) (A) (A) (A) (A) (A) (A) (A)
                 (A) (A) (A) (A) (A) (A) (A) (A) (A) (A) (A) (A)
                 (A) (A) (A) (A) (A) (A) (A) (A) (A) (A) (A) (A)
                 (A) (A) (A) (A) (A) (A) (A) (A) (A) (A) (A) (A)
                 (A) (A) (A) (A) (A) (A) (A) (A) (A) (A) (A) (A)
                 (A) (A) (A) (A) (A) (A) (A) (A) (A) (A) (A) (A)
                 (A) (A) (A) (A) (A) (A) (A) (A) (A) (A) (A) (A)
                 (A) (A) (A) (A) (A) (A) (A) (A) (A) (A) (A) (A)
                 (A) (A) (A) (A) (A) (A) (A) (A) (A) (A) (A) (A)
                 (A) (A) (A) (A) (A) (A) (A) (A) (A) (A) (A) (A)
                 (A) (A) (A) (A) (A) (A) (A) (A) (A) (A) (A) (A)
                 (A) (A) (A) (A) (A) (A) (A) (A) (A) (A) (A) (A)
                 (A) (A) (A) (A) (A) (A) (A) (A) (A) (A) (A) (A)
                 (A) (A) (A) (A) (A) (A) (A) (A) (A) (A) (A) (A)
                 (A) (A) (A) (A) (A) (A) (A) (A) (A) (A) (A) (A)
                 (A) (A) (A) (A) (A) (A) (A) (A) (A) (A) (A) (A)
                 (A) (A) (A) (A) (A) (A) (A) (A) (A) (A) (A) (A)
                 (A) (A) (A) (A) (A) (A) (A) (A) (A) (A) (A) (A)
                 (A) (A) (A) (A) (A) (A) (A) (A) (A) (A) (A) (A)
                 (A) (A) (A) (A) (A) (A) (A) (A) (A) (A) (A) (A)
                 (A) (A) (A) (A) (A) (A) (A) (A) (A) (A) (A) (A)
                 (A) (A) (A) (A) (A) (A) (A) (A) (A) (A) (A) (A)
                 (A) (A) (A) (A) (A) (A) (A) (A) (A) (A) (A) (A)
                 (A) (A) (A) (A) (A) (A) (A) (A) (A) (A) (A) (A)
                 (A) (A) (A) (A) (A) (A) (A) (A) (A) (A) (A) (A)
                 (A) (A) (A) (A) (A) (A) (A) (A) (A) (A) (A) (A)
                 (A) (A) (A) (A) (A) (A) (A) (A) (A) (A) (A) (A)
                 (A) (A) (A) (A) (A) (A) (A) (A) (A) (A) (A) (A)
                 (A) (A) (A) (A) (A) (A) (A) (A) (A) (A) (A) (A)
                 (A) (A) (A) (A) (A) (A) (A) (A) (A) (A) (A) (A)
                 (A) (A) (A) (A) (A) (A) (A) (A) (A) (A) (A) (A)
                 (A) (A) (A) (A) (A) (A) (A) (A) (A) (A) (A) (A)
                 (A) (A) (A) (A) (A) (A) (A) (A) (A) (A) (A) (A)
                 (A) (A) (A) (A) (A) (A) (A) (A) (A) (A) (A) (A)
                 (A) (A) (A) (A) (A) (A) (A) (A) (A) (A) (A) (A)
                 (A) (A) (A) (A) (A) (A) (A) (A) (A) (A) (A) (A)
                 (A) (A) (A) (A) (A) (A) (A) (A) (A) (A) (A) (A)
                 (A) (A) (A) (A) (A) (A) (A) (A) (A) (A) (A) (A)
                 (A) (A) (A) (A) (A) (A) (A) (A) (A) (A) (A) (A)
                 (A) (A) (A) (A) (A) (A) (A) (A) (A) (A) (A) (A)
                 (A) (A) (A) (A) (A) (A) (A) (A) (A) (A) (A) (A)
                 (A) (A) (A) (A) (A) (A) (A) (A) (A) (A) (A) (A)
                 (A) (A) (A) (A) (A) (A) (A) (A) (A) (A) (A) (A)
                 (A) (A) (A) (A) (A) (A) (A) (A) (A) (A) (A) (A)
                 (A) (A) (A) (A) (A) (A) (A) (A) (A) (A) (A) (A)
                 (A) (A) (A) (A) (A) (A) (A) (A) (A) (A) (A) (A)
                 (A) (A) (A) (A) (A) (A) (A) (A) (A) (A) (A) (A)
                 (A) (A) (A) (A) (A) (A) (A) (A) (A) (A) (A) (A)
                 (A) (A) (A) (A) (A) (A) (A) (A) (A) (A) (A) (A)
                 (A) (A) (A) (A) (A) (A) (A) (A) (A) (A) (A) (A)
                 (A) (A) (A) (A) (A) (A) (A) (A) (A) (A) (A) (A)
                 (A) (A) (A) (A) (A) (A) (A) (A) (A) (A) (A) (A)
                 (A) (A) (A) (A) (A) (A) (A) (A) (A) (A) (A) (A)
                 (A) (A) (A) (A) (A) (A) (A) (A) (A) (A) (A) (A)
                 (A) (A) (A) (A) (A) (A) (A) (A) (A) (A) (A) (A)
                 (A) (A) (A) (A) (A) (A) (A) (A) (A) (A) (A) (A)
                 (A) (A) (A) (A) (A) (A) (A) (A) (A) (A) (A) (A)
                 (A) (A) (A) (A) (A) (A) (A) (A) (A) (A) (A) (A)
                 (A) (A) (A) (A) (A) (A) (A) (A) (A) (A) (A) (A)
                 (A) (A) (A) (A) (A) (A) (A) (A) (A) (A) (A) (A)
                 (A) (A) (A) (A) (A) (A) (A) (A) (A) (A) (A) (A)
                 (A) (A) (A) (A) (A) (A) (A) (A) (A) (A) (A) (A)
                 (A) (A) (A) (A) (A) (A) (A)
 The electronic state is 1-A.
 Alpha  occ. eigenvalues --  -89.87119 -19.66335 -19.63225 -19.61943 -19.60931
 Alpha  occ. eigenvalues --  -19.57421 -14.87379 -14.77791 -10.66404 -10.66108
 Alpha  occ. eigenvalues --  -10.63915 -10.62955 -10.61078 -10.61073 -10.60500
 Alpha  occ. eigenvalues --  -10.60428 -10.59647 -10.59331 -10.59242 -10.55020
 Alpha  occ. eigenvalues --  -10.53889 -10.52588 -10.52539 -10.49652  -8.23029
 Alpha  occ. eigenvalues --   -6.14995  -6.14768  -6.14505  -1.22232  -1.18257
 Alpha  occ. eigenvalues --   -1.17018  -1.15286  -1.13946  -1.11019  -1.03083
 Alpha  occ. eigenvalues --   -0.97449  -0.92857  -0.90562  -0.88461  -0.87663
 Alpha  occ. eigenvalues --   -0.85798  -0.81365  -0.80321  -0.79401  -0.76699
 Alpha  occ. eigenvalues --   -0.73124  -0.72255  -0.69820  -0.69073  -0.67006
 Alpha  occ. eigenvalues --   -0.66262  -0.64026  -0.62818  -0.62014  -0.61021
 Alpha  occ. eigenvalues --   -0.60009  -0.58220  -0.57851  -0.57366  -0.56100
 Alpha  occ. eigenvalues --   -0.55661  -0.54263  -0.52981  -0.52788  -0.52051
 Alpha  occ. eigenvalues --   -0.51756  -0.51177  -0.50290  -0.50130  -0.48727
 Alpha  occ. eigenvalues --   -0.48472  -0.48226  -0.47712  -0.47141  -0.46323
 Alpha  occ. eigenvalues --   -0.45667  -0.45569  -0.44989  -0.44268  -0.43479
 Alpha  occ. eigenvalues --   -0.43339  -0.40883  -0.39789  -0.38919  -0.37910
 Alpha  occ. eigenvalues --   -0.37448  -0.36918  -0.36760  -0.36470  -0.36027
 Alpha  occ. eigenvalues --   -0.34797  -0.34131  -0.29591  -0.28272  -0.21479
 Alpha virt. eigenvalues --   -0.06270  -0.03838   0.03720   0.04718   0.05268
 Alpha virt. eigenvalues --    0.06226   0.07070   0.07295   0.08179   0.08834
 Alpha virt. eigenvalues --    0.09342   0.10060   0.10290   0.10708   0.11345
 Alpha virt. eigenvalues --    0.11489   0.11976   0.12603   0.12853   0.13248
 Alpha virt. eigenvalues --    0.13828   0.14004   0.14339   0.14523   0.15127
 Alpha virt. eigenvalues --    0.15447   0.15630   0.16167   0.16383   0.16747
 Alpha virt. eigenvalues --    0.17607   0.17705   0.18489   0.18965   0.19546
 Alpha virt. eigenvalues --    0.20680   0.21021   0.21373   0.21633   0.22138
 Alpha virt. eigenvalues --    0.22839   0.23158   0.23646   0.23664   0.24123
 Alpha virt. eigenvalues --    0.24744   0.25408   0.25753   0.25840   0.26255
 Alpha virt. eigenvalues --    0.26643   0.27029   0.27850   0.28187   0.28716
 Alpha virt. eigenvalues --    0.29158   0.29477   0.29934   0.30535   0.31533
 Alpha virt. eigenvalues --    0.31693   0.31879   0.32534   0.33022   0.33444
 Alpha virt. eigenvalues --    0.33980   0.34538   0.35074   0.35726   0.36202
 Alpha virt. eigenvalues --    0.36790   0.36966   0.37339   0.37656   0.38175
 Alpha virt. eigenvalues --    0.38759   0.39152   0.39523   0.39717   0.39855
 Alpha virt. eigenvalues --    0.40292   0.40586   0.41169   0.41725   0.42020
 Alpha virt. eigenvalues --    0.42672   0.42950   0.43206   0.43672   0.44166
 Alpha virt. eigenvalues --    0.44280   0.44489   0.45048   0.45325   0.45665
 Alpha virt. eigenvalues --    0.45765   0.46270   0.46535   0.46955   0.47497
 Alpha virt. eigenvalues --    0.47749   0.48123   0.48473   0.48853   0.49198
 Alpha virt. eigenvalues --    0.49458   0.49699   0.49915   0.50630   0.50788
 Alpha virt. eigenvalues --    0.51239   0.51439   0.52093   0.52968   0.53402
 Alpha virt. eigenvalues --    0.53723   0.54040   0.54188   0.54856   0.55174
 Alpha virt. eigenvalues --    0.55520   0.55882   0.55987   0.56564   0.57633
 Alpha virt. eigenvalues --    0.58171   0.58710   0.59316   0.59809   0.60045
 Alpha virt. eigenvalues --    0.60682   0.61371   0.61693   0.61848   0.62996
 Alpha virt. eigenvalues --    0.63386   0.63654   0.64468   0.64982   0.65491
 Alpha virt. eigenvalues --    0.65923   0.66066   0.67008   0.67261   0.67497
 Alpha virt. eigenvalues --    0.67927   0.68444   0.68901   0.69335   0.70862
 Alpha virt. eigenvalues --    0.71575   0.71876   0.72617   0.73131   0.73704
 Alpha virt. eigenvalues --    0.74112   0.74527   0.75196   0.75890   0.77165
 Alpha virt. eigenvalues --    0.77746   0.78458   0.79532   0.80106   0.81205
 Alpha virt. eigenvalues --    0.81995   0.82257   0.82369   0.83028   0.83924
 Alpha virt. eigenvalues --    0.84820   0.86004   0.86633   0.87255   0.87608
 Alpha virt. eigenvalues --    0.87809   0.88851   0.89541   0.89727   0.90150
 Alpha virt. eigenvalues --    0.90609   0.91346   0.91992   0.92439   0.93014
 Alpha virt. eigenvalues --    0.93484   0.94633   0.95051   0.95421   0.95826
 Alpha virt. eigenvalues --    0.96653   0.97587   0.98255   0.98939   0.99720
 Alpha virt. eigenvalues --    1.00007   1.01164   1.01758   1.01988   1.02777
 Alpha virt. eigenvalues --    1.03380   1.03545   1.04310   1.05653   1.06489
 Alpha virt. eigenvalues --    1.07194   1.07975   1.08663   1.08962   1.09447
 Alpha virt. eigenvalues --    1.09965   1.10893   1.11958   1.12350   1.12970
 Alpha virt. eigenvalues --    1.14122   1.15023   1.16111   1.16762   1.17445
 Alpha virt. eigenvalues --    1.17887   1.18344   1.18743   1.19202   1.19973
 Alpha virt. eigenvalues --    1.21257   1.21780   1.22652   1.23586   1.24070
 Alpha virt. eigenvalues --    1.24529   1.25972   1.26179   1.27233   1.28113
 Alpha virt. eigenvalues --    1.28551   1.29058   1.29277   1.29899   1.31450
 Alpha virt. eigenvalues --    1.31835   1.32580   1.33505   1.34108   1.34566
 Alpha virt. eigenvalues --    1.35559   1.36187   1.37822   1.39187   1.39917
 Alpha virt. eigenvalues --    1.40459   1.41231   1.42615   1.42765   1.43982
 Alpha virt. eigenvalues --    1.45000   1.45365   1.46007   1.47592   1.50289
 Alpha virt. eigenvalues --    1.50985   1.52198   1.52932   1.53171   1.53287
 Alpha virt. eigenvalues --    1.54042   1.54477   1.54747   1.55311   1.56006
 Alpha virt. eigenvalues --    1.56666   1.56969   1.57204   1.58006   1.58865
 Alpha virt. eigenvalues --    1.59511   1.59656   1.60165   1.60679   1.61170
 Alpha virt. eigenvalues --    1.61316   1.61631   1.62512   1.62905   1.63319
 Alpha virt. eigenvalues --    1.63423   1.64202   1.64541   1.64761   1.65537
 Alpha virt. eigenvalues --    1.66031   1.67226   1.67466   1.68331   1.68672
 Alpha virt. eigenvalues --    1.69588   1.70101   1.70480   1.71272   1.71538
 Alpha virt. eigenvalues --    1.72049   1.72657   1.73108   1.74318   1.75031
 Alpha virt. eigenvalues --    1.75852   1.76622   1.77270   1.78102   1.78137
 Alpha virt. eigenvalues --    1.78516   1.79102   1.80124   1.80746   1.80952
 Alpha virt. eigenvalues --    1.82782   1.83316   1.84078   1.84286   1.84881
 Alpha virt. eigenvalues --    1.86302   1.86677   1.87097   1.88229   1.89122
 Alpha virt. eigenvalues --    1.89393   1.89486   1.90278   1.91399   1.91649
 Alpha virt. eigenvalues --    1.92721   1.93205   1.94352   1.94439   1.94546
 Alpha virt. eigenvalues --    1.95016   1.96515   1.97027   1.98010   1.98078
 Alpha virt. eigenvalues --    1.99411   2.00231   2.00490   2.01476   2.02747
 Alpha virt. eigenvalues --    2.03217   2.03695   2.03969   2.04590   2.04874
 Alpha virt. eigenvalues --    2.06031   2.06594   2.07497   2.09006   2.09644
 Alpha virt. eigenvalues --    2.10327   2.10970   2.11578   2.12609   2.13643
 Alpha virt. eigenvalues --    2.13976   2.14714   2.16691   2.16915   2.17455
 Alpha virt. eigenvalues --    2.17934   2.18745   2.19116   2.19977   2.20452
 Alpha virt. eigenvalues --    2.21228   2.21658   2.22742   2.22952   2.23443
 Alpha virt. eigenvalues --    2.23664   2.24419   2.25337   2.26472   2.26999
 Alpha virt. eigenvalues --    2.27917   2.28272   2.29124   2.29963   2.30295
 Alpha virt. eigenvalues --    2.31090   2.32104   2.33134   2.33983   2.34632
 Alpha virt. eigenvalues --    2.35035   2.35508   2.36241   2.36447   2.36929
 Alpha virt. eigenvalues --    2.37695   2.38141   2.38860   2.39056   2.39737
 Alpha virt. eigenvalues --    2.40480   2.41739   2.42411   2.42722   2.43792
 Alpha virt. eigenvalues --    2.45172   2.45700   2.45961   2.46486   2.47311
 Alpha virt. eigenvalues --    2.48196   2.50033   2.50699   2.51718   2.52012
 Alpha virt. eigenvalues --    2.54055   2.54161   2.54568   2.55620   2.56202
 Alpha virt. eigenvalues --    2.56829   2.57642   2.57939   2.58231   2.58540
 Alpha virt. eigenvalues --    2.59938   2.60243   2.60446   2.61415   2.61619
 Alpha virt. eigenvalues --    2.62088   2.63503   2.64047   2.64217   2.65620
 Alpha virt. eigenvalues --    2.66222   2.66582   2.67142   2.67618   2.68509
 Alpha virt. eigenvalues --    2.69407   2.69710   2.70125   2.70478   2.71118
 Alpha virt. eigenvalues --    2.72079   2.72323   2.73057   2.74185   2.74651
 Alpha virt. eigenvalues --    2.74974   2.76338   2.77090   2.77201   2.78662
 Alpha virt. eigenvalues --    2.79377   2.79719   2.80639   2.80948   2.81971
 Alpha virt. eigenvalues --    2.82391   2.82949   2.83820   2.84195   2.84540
 Alpha virt. eigenvalues --    2.85454   2.86315   2.86724   2.87500   2.87931
 Alpha virt. eigenvalues --    2.88719   2.89866   2.90365   2.90564   2.91658
 Alpha virt. eigenvalues --    2.92758   2.93851   2.94263   2.95266   2.95722
 Alpha virt. eigenvalues --    2.97222   2.97760   2.98645   2.99409   2.99574
 Alpha virt. eigenvalues --    3.00577   3.01610   3.02150   3.03017   3.03356
 Alpha virt. eigenvalues --    3.04039   3.04627   3.05602   3.05898   3.06748
 Alpha virt. eigenvalues --    3.08464   3.08521   3.08884   3.09866   3.10092
 Alpha virt. eigenvalues --    3.10405   3.10814   3.11525   3.12536   3.13053
 Alpha virt. eigenvalues --    3.13611   3.14272   3.14422   3.15005   3.15902
 Alpha virt. eigenvalues --    3.16245   3.16580   3.17325   3.17777   3.18504
 Alpha virt. eigenvalues --    3.19795   3.20145   3.20670   3.20993   3.21358
 Alpha virt. eigenvalues --    3.21881   3.22704   3.23635   3.24213   3.25141
 Alpha virt. eigenvalues --    3.25761   3.26795   3.26996   3.27604   3.28503
 Alpha virt. eigenvalues --    3.29148   3.30126   3.30546   3.30758   3.31589
 Alpha virt. eigenvalues --    3.32102   3.32856   3.33066   3.33843   3.34566
 Alpha virt. eigenvalues --    3.35220   3.35723   3.36231   3.36464   3.37030
 Alpha virt. eigenvalues --    3.38484   3.38923   3.39516   3.40080   3.40695
 Alpha virt. eigenvalues --    3.41132   3.41761   3.41942   3.43088   3.43476
 Alpha virt. eigenvalues --    3.44258   3.44683   3.45038   3.45573   3.45854
 Alpha virt. eigenvalues --    3.46618   3.47563   3.48599   3.48853   3.49993
 Alpha virt. eigenvalues --    3.50210   3.51421   3.53018   3.53155   3.54254
 Alpha virt. eigenvalues --    3.54462   3.55629   3.56125   3.56383   3.57094
 Alpha virt. eigenvalues --    3.57834   3.58218   3.59375   3.59954   3.60189
 Alpha virt. eigenvalues --    3.60806   3.61566   3.62531   3.63813   3.64446
 Alpha virt. eigenvalues --    3.66261   3.66835   3.67688   3.68654   3.69913
 Alpha virt. eigenvalues --    3.70782   3.71222   3.73022   3.73739   3.74507
 Alpha virt. eigenvalues --    3.76135   3.76508   3.77873   3.78961   3.79573
 Alpha virt. eigenvalues --    3.80519   3.80953   3.82250   3.82990   3.85586
 Alpha virt. eigenvalues --    3.86045   3.86893   3.88141   3.88616   3.89526
 Alpha virt. eigenvalues --    3.91632   3.92171   3.93456   3.94300   3.94876
 Alpha virt. eigenvalues --    3.96934   3.97563   3.97884   3.98272   3.99588
 Alpha virt. eigenvalues --    4.00841   4.01397   4.04471   4.06150   4.07363
 Alpha virt. eigenvalues --    4.09083   4.09539   4.11493   4.12936   4.13628
 Alpha virt. eigenvalues --    4.14186   4.15753   4.16776   4.17950   4.19587
 Alpha virt. eigenvalues --    4.20170   4.20504   4.21485   4.23482   4.25535
 Alpha virt. eigenvalues --    4.26723   4.27240   4.28194   4.29596   4.31094
 Alpha virt. eigenvalues --    4.31894   4.33011   4.35086   4.36325   4.37208
 Alpha virt. eigenvalues --    4.39375   4.39978   4.41218   4.43048   4.43918
 Alpha virt. eigenvalues --    4.44956   4.46193   4.46492   4.47794   4.50006
 Alpha virt. eigenvalues --    4.50772   4.52010   4.55478   4.57259   4.57382
 Alpha virt. eigenvalues --    4.59661   4.61186   4.63245   4.64955   4.67372
 Alpha virt. eigenvalues --    4.67955   4.73023   4.73728   4.75607   4.75738
 Alpha virt. eigenvalues --    4.78045   4.80318   4.80819   4.83156   4.83618
 Alpha virt. eigenvalues --    4.85320   4.87037   4.88958   4.90375   4.91260
 Alpha virt. eigenvalues --    4.92580   4.93362   4.95135   4.97725   4.98176
 Alpha virt. eigenvalues --    4.99889   5.03040   5.04676   5.05414   5.07053
 Alpha virt. eigenvalues --    5.09100   5.13217   5.15891   5.19269   5.20722
 Alpha virt. eigenvalues --    5.21714   5.25345   5.26446   5.27146   5.27849
 Alpha virt. eigenvalues --    5.30665   5.31531   5.32071   5.35096   5.38041
 Alpha virt. eigenvalues --    5.39744   5.42447   5.43295   5.45514   5.47356
 Alpha virt. eigenvalues --    5.48824   5.49419   5.50981   5.53320   5.58098
 Alpha virt. eigenvalues --    5.64381   5.67264   5.72642   5.74664   5.77808
 Alpha virt. eigenvalues --    5.80002   5.81071   5.83506   5.84345   5.86825
 Alpha virt. eigenvalues --    5.89379   5.90630   5.91909   5.94170   5.95758
 Alpha virt. eigenvalues --    5.97442   6.03734   6.06111   6.15285   6.17278
 Alpha virt. eigenvalues --    6.20256   6.22842   6.26000   6.26909   6.38400
 Alpha virt. eigenvalues --    6.41761   6.44084   6.47853   6.48965   6.55145
 Alpha virt. eigenvalues --    6.59282   6.67070   6.73122   6.75199   6.76280
 Alpha virt. eigenvalues --    6.78003   6.80688   6.84051   6.85205   6.87013
 Alpha virt. eigenvalues --    6.88942   6.95491   6.99909   7.07568   7.09113
 Alpha virt. eigenvalues --    7.09619   7.12255   7.16872   7.19436   7.21875
 Alpha virt. eigenvalues --    7.32333   7.40099   9.06355   9.42653   9.59129
 Alpha virt. eigenvalues --   19.83613  22.36307  22.46944  22.49644  22.60582
 Alpha virt. eigenvalues --   22.65023  22.71602  22.74966  22.76801  22.82210
 Alpha virt. eigenvalues --   22.86625  22.95474  22.97489  23.07440  23.18240
 Alpha virt. eigenvalues --   23.29303  23.52249  32.19098  33.17006  44.14229
 Alpha virt. eigenvalues --   44.22687  44.26065  44.35417  44.51547
          Condensed to atoms (all electrons):
               1          2          3          4          5          6
     1  C    5.146974   0.428957   0.412871   0.007426  -0.006693  -0.000253
     2  H    0.428957   0.496432  -0.013928  -0.002301   0.000468  -0.000005
     3  H    0.412871  -0.013928   0.505904  -0.000721   0.000207  -0.000009
     4  C    0.007426  -0.002301  -0.000721   5.599123   0.542762   0.230418
     5  H   -0.006693   0.000468   0.000207   0.542762   0.527347  -0.035207
     6  O   -0.000253  -0.000005  -0.000009   0.230418  -0.035207   8.169191
     7  H    0.000002  -0.000003  -0.000003  -0.056169  -0.006910   0.308664
     8  C   -0.006845   0.011000  -0.000872  -0.052652  -0.106414  -0.061402
     9  H    0.006909  -0.000298  -0.002023  -0.074491   0.002097   0.001289
    10  O    0.005248  -0.000190  -0.000016   0.050540   0.005628  -0.022213
[...]
 Dipole        =-5.64634545D-01-2.55168614D+00-8.36173122D-01
 ***** Axes restored to original set *****
 -------------------------------------------------------------------
 Center     Atomic                   Forces (Hartrees/Bohr)
 Number     Number              X              Y              Z
 -------------------------------------------------------------------
      1        6          -0.000054398   -0.000011452    0.000066145
      2        1          -0.000009968    0.000016119    0.000000490
      3        1          -0.000009043   -0.000012462   -0.000005501
      4        6          -0.000315760    0.000146962    0.000146290
      5        1          -0.000062680    0.000008036    0.000001950
      6        8          -0.000769882    0.000365688   -0.000215138
      7        1          -0.000075115    0.000026254   -0.000040595
      8        6          -0.000332348    0.000038108    0.000204958
      9        1          -0.000033616    0.000009605    0.000029519
     10        8          -0.000421158    0.000159863    0.000046662
     11        1          -0.000034642    0.000006219    0.000017312
     12        6           0.000120748    0.000071530    0.000216967
     13        1           0.000018420    0.000022331   -0.000017092
     14        6          -0.000193983   -0.000002367    0.000242983
     15        1          -0.000017860    0.000002718    0.000019473
     16        8          -0.000151043   -0.000014566    0.000172677
     17        7           0.000163704   -0.000109824    0.000082737
     18        6           0.000745844    0.000125834   -0.000289286
     19        1           0.000000722   -0.000002078    0.000093243
     20        6           0.002086492    0.000180294   -0.002405624
     21        1           0.000173923    0.000083943   -0.000182990
     22        6           0.003547766    0.000330537   -0.004371793
     23        1           0.000284699    0.000033642   -0.000152126
     24        1           0.000115722   -0.000678121   -0.000480761
     25        6           0.000646815   -0.000127148   -0.000579444
     26        6          -0.000341936   -0.000164152    0.001099822
     27        1          -0.000084450   -0.000000524    0.000267611
     28        6          -0.000142973   -0.000194310    0.000063628
     29        8           0.000262903   -0.000584141   -0.000147540
     30        7          -0.000369093   -0.000274918    0.000624220
     31        1          -0.000000151   -0.000004103    0.000065666
     32        1          -0.000062919    0.000005544    0.000238961
     33        1          -0.000045040   -0.000017294    0.000019943
     34        6          -0.000106459   -0.000024146    0.000248931
     35        6          -0.000109964   -0.000125704   -0.000388841
     36        6          -0.000164472   -0.000829314   -0.000106916
     37        6          -0.002401623    0.001775136    0.002940232
     38        6          -0.002582755   -0.001456429    0.002936778
     39        8           0.001282509    0.000223857   -0.001522798
     40       16           0.000638987    0.000521481   -0.000378796
     41        1          -0.000011685   -0.000011129    0.000015403
     42        1           0.000007671    0.000001185    0.000037136
     43        1          -0.000135281    0.000691308    0.000378819
     44        1          -0.000004610   -0.000039780   -0.000077399
     45        1          -0.000512700   -0.000053265    0.000571197
     46        1          -0.000444858   -0.000020601    0.000422919
     47        1          -0.000083801   -0.000078170    0.000105426
     48        1          -0.000010661   -0.000010196   -0.000015462
 -------------------------------------------------------------------
 Cartesian Forces:  Max     0.004371793 RMS     0.000794491
 Leave Link  716 at Sat Aug 13 20:46:51 2022, MaxMem=  2684354560 cpu:               0.4 elap:               0.0
 (Enter /storage/apps/GAUSSIAN/G16_RevA03/g16/l103.exe)

 GradGradGradGradGradGradGradGradGradGradGradGradGradGradGradGradGradGrad
 Berny optimization.
 Search for a local minimum.
 Step number   1 out of a maximum of    2
 All quantities printed in internal units (Hartrees-Bohrs-Radians)
 Second derivative matrix not updated -- first step.
 ITU=  0
     Eigenvalues ---    0.00025   0.00091   0.00108   0.00128   0.00186
     Eigenvalues ---    0.00220   0.00329   0.00371   0.00451   0.00499
     Eigenvalues ---    0.00608   0.00624   0.00806   0.00926   0.00960
     Eigenvalues ---    0.00978   0.01116   0.01170   0.01376   0.01509
     Eigenvalues ---    0.01720   0.02151   0.02361   0.02439   0.02673
     Eigenvalues ---    0.03050   0.03128   0.03312   0.03737   0.04281
     Eigenvalues ---    0.04402   0.04605   0.04833   0.05017   0.05263
     Eigenvalues ---    0.05333   0.05577   0.05741   0.05827   0.05978
     Eigenvalues ---    0.06168   0.06300   0.06474   0.06883   0.07027
     Eigenvalues ---    0.07052   0.07135   0.07658   0.08054   0.08327
     Eigenvalues ---    0.08588   0.08766   0.09313   0.09403   0.10184
     Eigenvalues ---    0.10785   0.10856   0.11194   0.12281   0.12569
     Eigenvalues ---    0.12824   0.13086   0.13238   0.13298   0.13731
     Eigenvalues ---    0.13851   0.14047   0.15458   0.16115   0.16538
     Eigenvalues ---    0.17401   0.18142   0.18692   0.19310   0.19835
     Eigenvalues ---    0.20314   0.20704   0.21312   0.21935   0.22499
     Eigenvalues ---    0.25141   0.26289   0.27165   0.27948   0.30611
     Eigenvalues ---    0.33125   0.33480   0.33828   0.34800   0.37686
     Eigenvalues ---    0.37886   0.37886   0.37886   0.37886   0.40308
     Eigenvalues ---    0.43652   0.48156   0.48729   0.57087   0.59664
     Eigenvalues ---    0.59963   0.61772   0.69601   0.72385   0.73574
     Eigenvalues ---    0.79309   0.80699   0.82778   0.87488   0.90894
     Eigenvalues ---    0.91291   0.92258   0.93213   0.93520   0.95480
     Eigenvalues ---    0.96592   0.99992   1.01088   1.02316   1.04110
     Eigenvalues ---    1.05916   1.08531   1.11584   1.12539   1.13077
     Eigenvalues ---    1.20596   1.20911   1.27383   1.27528   1.30245
     Eigenvalues ---    1.32571   1.37010   1.43902   1.54682   1.72720
     Eigenvalues ---    1.82447   1.90481   2.34893
 Quadratic step=8.266D+00 exceeds max=3.000D-01 adjusted using Lamda=-1.083D-02.
 Angle between NR and scaled steps=  44.90 degrees.
 Angle between quadratic step and forces=  55.69 degrees.
 Linear search not attempted -- first point.
 Variable       Old X    -DE/DX   Delta X   Delta X   Delta X     New X
                                 (Linear)    (Quad)   (Total)
    X1        6.80127  -0.00005   0.00000  -0.02323  -0.02323   6.77804
    Y1       -6.83271  -0.00001   0.00000  -0.01297  -0.01297  -6.84568
    Z1       -0.83976   0.00007   0.00000   0.00999   0.00999  -0.82977
    X2        7.08529  -0.00001   0.00000  -0.02708  -0.02708   7.05820
    Y2       -7.01322   0.00002   0.00000  -0.01643  -0.01643  -7.02965
    Z2       -2.87052   0.00000   0.00000   0.00927   0.00927  -2.86125
    X3        8.19188  -0.00001   0.00000  -0.01829  -0.01829   8.17359
    Y3       -8.00651  -0.00001   0.00000  -0.01073  -0.01073  -8.01724
    Z3        0.12620  -0.00001   0.00000   0.00617   0.00617   0.13237
    X4        3.51956  -0.00032   0.00000  -0.00689  -0.00689   3.51267
    Y4       -2.71838   0.00015   0.00000   0.01166   0.01166  -2.70671
    Z4        2.34610   0.00015   0.00000   0.01405   0.01405   2.36015
    X5        2.29497  -0.00006   0.00000  -0.01005  -0.01005   2.28492
    Y5       -4.36850   0.00001   0.00000   0.01323   0.01323  -4.35527
    Z5        2.05666   0.00000   0.00000   0.02070   0.02070   2.07736
    X6        2.77116  -0.00077   0.00000  -0.00086  -0.00086   2.77030
    Y6       -1.28507   0.00037   0.00000   0.02613   0.02613  -1.25894
    Z6        4.39554  -0.00022   0.00000   0.00656   0.00656   4.40210
    X7        0.99616  -0.00008   0.00000   0.00245   0.00245   0.99861
    Y7       -0.70657   0.00003   0.00000   0.03142   0.03142  -0.67516
    Z7        4.09835  -0.00004   0.00000   0.00057   0.00057   4.09892
    X8        6.26895  -0.00033   0.00000  -0.00713  -0.00713   6.26182
    Y8       -3.56098   0.00004   0.00000   0.00515   0.00515  -3.55583
    Z8        2.65947   0.00020   0.00000   0.00456   0.00456   2.66403
    X9        6.42754  -0.00003   0.00000  -0.00059  -0.00059   6.42695
    Y9       -5.23555   0.00001   0.00000   0.01083   0.01083  -5.22472
    Z9        3.86231   0.00003   0.00000   0.01132   0.01132   3.87363
   X10        7.70912  -0.00042   0.00000   0.00245   0.00245   7.71156
   Y10       -1.54464   0.00016   0.00000   0.00885   0.00885  -1.53579
   Z10        3.61690   0.00005   0.00000  -0.01840  -0.01840   3.59850
   X11        6.67667  -0.00003   0.00000   0.01497   0.01497   6.69163
   Y11       -0.71717   0.00001   0.00000   0.01784   0.01784  -0.69933
   Z11        4.87925   0.00002   0.00000  -0.01467  -0.01467   4.86458
   X12        3.73026   0.00012   0.00000  -0.00786  -0.00786   3.72240
   Y12       -1.24631   0.00007   0.00000   0.00069   0.00069  -1.24562
   Z12       -0.15259   0.00022   0.00000   0.00978   0.00978  -0.14281
   X13        4.26979   0.00002   0.00000   0.00395   0.00395   4.27373
   Y13        0.71124   0.00002   0.00000   0.00016   0.00016   0.71140
   Z13        0.22462  -0.00002   0.00000  -0.00378  -0.00378   0.22084
   X14        7.09307  -0.00019   0.00000  -0.01966  -0.01966   7.07341
   Y14       -4.09910  -0.00000   0.00000  -0.01086  -0.01086  -4.10997
   Z14       -0.04665   0.00024   0.00000   0.00319   0.00319  -0.04346
   X15        9.03497  -0.00002   0.00000  -0.01901  -0.01901   9.01596
   Y15       -3.46035   0.00000   0.00000  -0.01499  -0.01499  -3.47533
   Z15       -0.30479   0.00002   0.00000  -0.00919  -0.00919  -0.31398
   X16        5.50497  -0.00015   0.00000  -0.02313  -0.02313   5.48184
   Y16       -2.52558  -0.00001   0.00000  -0.01381  -0.01381  -2.53939
   Z16       -1.61791   0.00017   0.00000   0.00554   0.00554  -1.61237
   X17        1.36042   0.00016   0.00000  -0.00563  -0.00563   1.35479
   Y17       -1.13593  -0.00011   0.00000  -0.00115  -0.00115  -1.13707
   Z17       -1.62488   0.00008   0.00000   0.01147   0.01147  -1.61341
   X18        0.37198   0.00075   0.00000   0.01668   0.01668   0.38866
   Y18       -3.33495   0.00013   0.00000  -0.00042  -0.00042  -3.33537
   Z18       -2.51226  -0.00029   0.00000  -0.01331  -0.01331  -2.52557
   X19        1.44501   0.00000   0.00000   0.01163   0.01163   1.45663
   Y19       -5.01948  -0.00000   0.00000   0.00036   0.00036  -5.01912
   Z19       -2.10750   0.00009   0.00000   0.00315   0.00315  -2.10435
   X20       -1.79251   0.00209   0.00000   0.04886   0.04886  -1.74365
   Y20       -3.31842   0.00018   0.00000   0.00097   0.00097  -3.31745
   Z20       -3.90181  -0.00241   0.00000  -0.06213  -0.06213  -3.96394
   X21       -2.54242   0.00017   0.00000   0.05522   0.05522  -2.48721
   Y21       -5.08043   0.00008   0.00000   0.00127   0.00127  -5.07916
   Z21       -4.60831  -0.00018   0.00000  -0.06833  -0.06833  -4.67664
   X22       -3.00884   0.00355   0.00000   0.05534   0.05534  -2.95350
   Y22       -1.02328   0.00033   0.00000   0.00051   0.00051  -1.02277
   Z22       -4.40189  -0.00437   0.00000  -0.07658  -0.07658  -4.47848
   X23       -4.60140   0.00028   0.00000   0.06661   0.06661  -4.53479
   Y23       -0.97443   0.00003   0.00000   0.00387   0.00387  -0.97056
   Z23       -5.68308  -0.00015   0.00000  -0.08926  -0.08926  -5.77233
   X24       -5.41495   0.00012   0.00000  -0.01653  -0.01653  -5.43148
   Y24       -1.30463  -0.00068   0.00000  -0.04682  -0.04682  -1.35146
   Z24       -1.86824  -0.00048   0.00000   0.03746   0.03746  -1.83078
   X25       -1.93499   0.00065   0.00000   0.00926   0.00926  -1.92572
   Y25        1.22077  -0.00013   0.00000  -0.00425  -0.00425   1.21652
   Z25       -3.50906  -0.00058   0.00000  -0.01234  -0.01234  -3.52140
   X26        0.26852  -0.00034   0.00000  -0.01206  -0.01206   0.25647
   Y26        1.07655  -0.00016   0.00000  -0.00310  -0.00310   1.07345
   Z26       -2.11918   0.00110   0.00000   0.02088   0.02088  -2.09830
   X27        1.15205  -0.00008   0.00000  -0.02537  -0.02537   1.12668
   Y27        2.77393  -0.00000   0.00000  -0.00469  -0.00469   2.76925
   Z27       -1.39498   0.00027   0.00000   0.04184   0.04184  -1.35314
   X28       -2.90385  -0.00014   0.00000  -0.01596  -0.01596  -2.91980
   Y28        3.81372  -0.00019   0.00000  -0.00650  -0.00650   3.80722
   Z28       -4.09005   0.00006   0.00000   0.02574   0.02574  -4.06431
   X29       -1.57151   0.00026   0.00000  -0.02162  -0.02162  -1.59313
   Y29        5.65539  -0.00058   0.00000  -0.00366  -0.00366   5.65172
   Z29       -3.86307  -0.00015   0.00000   0.03024   0.03024  -3.83284
   X30       -5.30435  -0.00037   0.00000  -0.02471  -0.02471  -5.32906
   Y30        3.90651  -0.00027   0.00000  -0.00611  -0.00611   3.90040
   Z30       -5.04849   0.00062   0.00000   0.04801   0.04801  -5.00049
   X31       -6.01272  -0.00000   0.00000  -0.02222  -0.02222  -6.03494
   Y31        5.66941  -0.00000   0.00000  -0.00516  -0.00516   5.66425
   Z31       -5.20912   0.00007   0.00000   0.04733   0.04733  -5.16180
   X32       -6.54487  -0.00006   0.00000  -0.02018  -0.02018  -6.56505
   Y32        2.57816   0.00001   0.00000  -0.00832  -0.00832   2.56984
   Z32       -4.47399   0.00024   0.00000   0.04951   0.04951  -4.42447
   X33        4.92248  -0.00005   0.00000  -0.02111  -0.02111   4.90137
   Y33       -7.54892  -0.00002   0.00000  -0.01285  -0.01285  -7.56177
   Z33       -0.37045   0.00002   0.00000   0.01604   0.01604  -0.35441
   X34        0.38225  -0.00011   0.00000  -0.00612  -0.00612   0.37613
   Y34        4.15774  -0.00002   0.00000   0.00737   0.00737   4.16511
   Z34        5.37597   0.00025   0.00000   0.00794   0.00794   5.38391
   X35       -3.13912  -0.00011   0.00000   0.02687   0.02687  -3.11225
   Y35        1.69723  -0.00013   0.00000  -0.00236  -0.00236   1.69488
   Z35        2.33930  -0.00039   0.00000  -0.02384  -0.02384   2.31546
   X36       -5.30650  -0.00016   0.00000   0.00755   0.00755  -5.29895
   Y36        1.62730  -0.00083   0.00000  -0.01974  -0.01974   1.60755
   Z36        0.88758  -0.00011   0.00000   0.00304   0.00304   0.89062
   X37       -9.17197  -0.00240   0.00000  -0.01542  -0.01542  -9.18739
   Y37       -0.75235   0.00178   0.00000   0.01705   0.01705  -0.73530
   Z37       -0.69618   0.00294   0.00000   0.01358   0.01358  -0.68260
   X38       -6.36108  -0.00258   0.00000  -0.01955  -0.01955  -6.38063
   Y38       -0.75936  -0.00146   0.00000  -0.02286  -0.02286  -0.78222
   Z38       -0.07807   0.00294   0.00000   0.03568   0.03568  -0.04239
   X39       -1.74398   0.00128   0.00000   0.05818   0.05818  -1.68580
   Y39       -0.15700   0.00022   0.00000   0.01209   0.01209  -0.14491
   Z39        2.89646  -0.00152   0.00000  -0.05353  -0.05353   2.84293
   X40       -2.29600   0.00064   0.00000   0.01580   0.01580  -2.28020
   Y40        4.83091   0.00052   0.00000   0.00411   0.00411   4.83501
   Z40        3.39614  -0.00038   0.00000  -0.02227  -0.02227   3.37387
   X41        0.83789  -0.00001   0.00000  -0.01811  -0.01811   0.81977
   Y41        5.91487  -0.00001   0.00000   0.00826   0.00826   5.92313
   Z41        6.34295   0.00002   0.00000   0.01122   0.01122   6.35417
   X42        2.01229   0.00001   0.00000   0.00557   0.00557   2.01786
   Y42        3.54759   0.00000   0.00000   0.00792   0.00792   3.55552
   Z42        4.28338   0.00004   0.00000   0.02467   0.02467   4.30805
   X43      -10.32762  -0.00014   0.00000  -0.03576  -0.03576 -10.36337
   Y43       -0.73943   0.00069   0.00000   0.06214   0.06214  -0.67729
   Z43        1.00874   0.00038   0.00000  -0.00467  -0.00467   1.00408
   X44       -9.69188  -0.00000   0.00000   0.03317   0.03317  -9.65871
   Y44        0.92462  -0.00004   0.00000   0.00279   0.00279   0.92740
   Z44       -1.78810  -0.00008   0.00000  -0.03278  -0.03278  -1.82088
   X45       -9.68796  -0.00051   0.00000  -0.01862  -0.01862  -9.70658
   Y45       -2.41201  -0.00005   0.00000   0.00805   0.00805  -2.40397
   Z45       -1.80644   0.00057   0.00000   0.02526   0.02526  -1.78118
   X46       -5.86267  -0.00044   0.00000  -0.03469  -0.03469  -5.89736
   Y46       -2.32498  -0.00002   0.00000  -0.01962  -0.01962  -2.34460
   Z46        1.17817   0.00042   0.00000   0.04338   0.04338   1.22155
   X47       -6.32636  -0.00008   0.00000   0.01432   0.01432  -6.31204
   Y47        3.37867  -0.00008   0.00000  -0.01876  -0.01876   3.35991
   Z47        0.58795   0.00011   0.00000  -0.01406  -0.01406   0.57389
   X48       -0.08831  -0.00001   0.00000  -0.02079  -0.02079  -0.10910
   Y48        2.71727  -0.00001   0.00000   0.00640   0.00640   2.72367
   Z48        6.76557  -0.00002   0.00000   0.00162   0.00162   6.76720
         Item               Value     Threshold  Converged?
 Maximum Force            0.004372     0.000450     NO 
 RMS     Force            0.000794     0.000300     NO 
 Maximum Displacement     0.089258     0.001800     NO 
 RMS     Displacement     0.025027     0.001200     NO 
 Predicted change in Energy=-1.295404D-03
 GradGradGradGradGradGradGradGradGradGradGradGradGradGradGradGradGradGrad

 Leave Link  103 at Sat Aug 13 20:46:51 2022, MaxMem=  2684354560 cpu:               0.9 elap:               0.1
 (Enter /storage/apps/GAUSSIAN/G16_RevA03/g16/l9999.exe)

 Test job not archived.
 1\1\GINC-T065\Force\RM062X\def2TZVP\C16H24N2O5S1\LV87696\13-Aug-2022\0
 \\#P M062X/Def2TZVP scf=(direct,conver=8) EmpiricalDispersion=GD3 Forc
 e Charge Prop=(Field,Read)\\Gaussian run\\0,1\C,3.599077,-3.615713,-0.
 444384\H,3.749372,-3.711237,-1.519016\H,4.334954,-4.236863,0.066782\C,
 1.862471,-1.438503,1.241502\H,1.214448,-2.311711,1.088337\O,1.466437,-
 0.680029,2.326018\H,0.527145,-0.373902,2.168752\C,3.317387,-1.884388,1
 .407329\H,3.401306,-2.770534,2.043845\O,4.07949,-0.81739,1.913982\H,3.
 533139,-0.379511,2.581986\C,1.973966,-0.659518,-0.080747\H,2.259473,0.
 376372,0.118864\C,3.753491,-2.169151,-0.024688\H,4.781099,-1.831137,-0
 .161288\O,2.913105,-1.336481,-0.856161\N,0.719904,-0.601107,-0.859851\
 C,0.196844,-1.764782,-1.329433\H,0.764664,-2.656193,-1.115239\C,-0.948
 557,-1.756033,-2.064749\H,-1.345393,-2.688448,-2.438613\C,-1.59221,-0.
 541498,-2.329381\H,-2.434956,-0.515644,-3.007354\H,-2.86547,-0.690383,
 -0.988629\C,-1.02395,0.646003,-1.856914\C,0.142096,0.569686,-1.121424\
 H,0.609641,1.467902,-0.738193\C,-1.53665,2.018133,-2.164361\O,-0.83160
 8,2.992701,-2.044251\N,-2.80694,2.067235,-2.671548\H,-3.181792,3.00012
 ,-2.75655\H,-3.463395,1.364302,-2.367531\H,2.604866,-3.994717,-0.19603
 3\C,0.202276,2.200183,2.844841\C,-1.661151,0.898137,1.237904\C,-2.8080
 81,0.861128,0.469688\C,-4.853599,-0.398129,-0.3684\C,-3.366141,-0.4018
 34,-0.041313\O,-0.922873,-0.083082,1.532738\S,-1.214989,2.556406,1.797
 161\H,0.44339,3.130016,3.356544\H,1.06486,1.877305,2.266668\H,-5.46513
 9,-0.391288,0.533803\H,-5.128723,0.489287,-0.946221\H,-5.126647,-1.276
 381,-0.955928\H,-3.10239,-1.230325,0.623459\H,-3.347764,1.787914,0.311
 131\H,-0.046732,1.437918,3.580187\\Version=ES64L-G16RevA.03\State=1-A\
 HF=-1507.9004408\RMSD=3.826e-09\RMSF=7.945e-04\Dipole=-0.1450386,-2.21
 70957,-1.6101399\Quadrupole=2.1951319,1.1339122,-3.3290442,-3.8132362,
 9.5628385,4.7641167\PG=C01 [X(C16H24N2O5S1)]\\@


 AS FAR AS THE LAWS OF MATHEMATICS REFER TO REALITY,
 THEY ARE NOT CERTAIN; AND AS FAR AS THEY ARE CERTAIN,
 THEY DO NOT REFER TO REALITY.

                                         -- ALBERT EINSTEIN
 Job cpu time:       0 days  3 hours 21 minutes  9.7 seconds.
 Elapsed time:       0 days  0 hours 12 minutes 36.0 seconds.
 File lengths (MBytes):  RWF=    435 Int=      0 D2E=      0 Chk=     48 Scr=      1
 Normal termination of Gaussian 16 at Sat Aug 13 20:46:52 2022.
