 Entering Gaussian System, Link 0=g16
 Initial command:
 /storage/apps/GAUSSIAN/G16_RevA03/g16/l1.exe "/scratch/tmp/1019305/Gau-131489.inp" -scrdir="/scratch/tmp/1019305/"
 Entering Link 1 = /storage/apps/GAUSSIAN/G16_RevA03/g16/l1.exe PID=    131490.
  
 Copyright (c) 1988,1990,1992,1993,1995,1998,2003,2009,2016,
            Gaussian, Inc.  All Rights Reserved.
  
 This is part of the Gaussian(R) 16 program.  It is based on
 the Gaussian(R) 09 system (copyright 2009, Gaussian, Inc.),
 the Gaussian(R) 03 system (copyright 2003, Gaussian, Inc.),
 the Gaussian(R) 98 system (copyright 1998, Gaussian, Inc.),
 the Gaussian(R) 94 system (copyright 1995, Gaussian, Inc.),
 the Gaussian 92(TM) system (copyright 1992, Gaussian, Inc.),
 the Gaussian 90(TM) system (copyright 1990, Gaussian, Inc.),
 the Gaussian 88(TM) system (copyright 1988, Gaussian, Inc.),
 the Gaussian 86(TM) system (copyright 1986, Carnegie Mellon
 University), and the Gaussian 82(TM) system (copyright 1983,
 Carnegie Mellon University). Gaussian is a federally registered
 trademark of Gaussian, Inc.
  
 This software contains proprietary and confidential information,
 including trade secrets, belonging to Gaussian, Inc.
  
 This software is provided under written license and may be
 used, copied, transmitted, or stored only in accord with that
 written license.
  
 The following legend is applicable only to US Government
 contracts under FAR:
  
                    RESTRICTED RIGHTS LEGEND
  
 Use, reproduction and disclosure by the US Government is
 subject to restrictions as set forth in subparagraphs (a)
 and (c) of the Commercial Computer Software - Restricted
 Rights clause in FAR 52.227-19.
  
 Gaussian, Inc.
 340 Quinnipiac St., Bldg. 40, Wallingford CT 06492
  
  
 ---------------------------------------------------------------
 Warning -- This program may not be used in any manner that
 competes with the business of Gaussian, Inc. or will provide
 assistance to any competitor of Gaussian, Inc.  The licensee
 of this program is prohibited from giving any competitor of
 Gaussian, Inc. access to this program.  By using this program,
 the user acknowledges that Gaussian, Inc. is engaged in the
 business of creating and licensing software in the field of
 computational chemistry and represents and warrants to the
 licensee that it is not a competitor of Gaussian, Inc. and that
 it will not use this program in any manner prohibited above.
 ---------------------------------------------------------------
  

 Cite this work as:
 Gaussian 16, Revision A.03,
 M. J. Frisch, G. W. Trucks, H. B. Schlegel, G. E. Scuseria, 
 M. A. Robb, J. R. Cheeseman, G. Scalmani, V. Barone, 
 G. A. Petersson, H. Nakatsuji, X. Li, M. Caricato, A. V. Marenich, 
 J. Bloino, B. G. Janesko, R. Gomperts, B. Mennucci, H. P. Hratchian, 
 J. V. Ortiz, A. F. Izmaylov, J. L. Sonnenberg, D. Williams-Young, 
 F. Ding, F. Lipparini, F. Egidi, J. Goings, B. Peng, A. Petrone, 
 T. Henderson, D. Ranasinghe, V. G. Zakrzewski, J. Gao, N. Rega, 
 G. Zheng, W. Liang, M. Hada, M. Ehara, K. Toyota, R. Fukuda, 
 J. Hasegawa, M. Ishida, T. Nakajima, Y. Honda, O. Kitao, H. Nakai, 
 T. Vreven, K. Throssell, J. A. Montgomery, Jr., J. E. Peralta, 
 F. Ogliaro, M. J. Bearpark, J. J. Heyd, E. N. Brothers, K. N. Kudin, 
 V. N. Staroverov, T. A. Keith, R. Kobayashi, J. Normand, 
 K. Raghavachari, A. P. Rendell, J. C. Burant, S. S. Iyengar, 
 J. Tomasi, M. Cossi, J. M. Millam, M. Klene, C. Adamo, R. Cammi, 
 J. W. Ochterski, R. L. Martin, K. Morokuma, O. Farkas, 
 J. B. Foresman, and D. J. Fox, Gaussian, Inc., Wallingford CT, 2016.
 
 ******************************************
 Gaussian 16:  ES64L-G16RevA.03 25-Dec-2016
                13-Aug-2022 
 ******************************************
 %NProcShared=16
 Will use up to   16 processors via shared memory.
 %mem=20GB
 ----------------------------------------------------------------------
 #P M062X/Def2TZVP scf=(direct,conver=8) EmpiricalDispersion=GD3 Force 
 Charge Prop=(Field,Read)
 ----------------------------------------------------------------------
 1/10=7,18=10,28=-2,30=1,38=1,125=101/1,3;
 2/12=2,17=6,18=5,29=2,40=1/2;
 3/5=44,7=101,11=2,25=1,30=1,71=1,74=-55,124=31/1,2,3;
 4//1;
 5/5=2,6=8,38=5/2;
 6/7=2,8=2,9=2,10=2,14=2,15=1,28=1/1,2;
 7/7=1,16=-2,29=1/1,2,3,16;
 1/10=7,18=10,28=-2,30=1/3;
 99/12=1/99;
 Leave Link    1 at Sat Aug 13 20:34:15 2022, MaxMem=  2684354560 cpu:               0.7 elap:               0.1
 (Enter /storage/apps/GAUSSIAN/G16_RevA03/g16/l101.exe)
 ------------
 Gaussian run
 ------------
 Symbolic Z-matrix:
 Charge =  0 Multiplicity = 1
 C                     3.59905  -3.61572  -0.44432 
 H                     3.74937  -3.71112  -1.51896 
 H                     4.33496  -4.23686   0.0668 
 C                     1.86221  -1.43838   1.24162 
 H                     1.21418  -2.31158   1.08832 
 O                     1.46587  -0.67978   2.32586 
 H                     0.52657  -0.3734    2.16806 
 C                     3.3171   -1.88436   1.40752 
 H                     3.40098  -2.77045   2.0441 
 O                     4.0792   -0.81731   1.91406 
 H                     3.5328   -0.37931   2.58195 
 C                     1.97406  -0.65945  -0.08055 
 H                     2.25955   0.37645   0.11901 
 C                     3.75335  -2.16919  -0.02447 
 H                     4.78095  -1.83113  -0.16098 
 O                     2.91304  -1.33648  -0.85601 
 N                     0.72009  -0.60113  -0.8598 
 C                     0.19764  -1.76471  -1.32979 
 H                     0.76493  -2.65617  -1.11436 
 C                    -0.9465   -1.75582  -2.06714 
 H                    -1.3434   -2.68804  -2.44119 
 C                    -1.58905  -0.54121  -2.3332 
 H                    -2.43205  -0.51523  -3.01027 
 H                    -2.86773  -0.69584  -0.98703 
 C                    -1.02331   0.64588  -1.8575 
 C                     0.1418    0.56957  -1.1204 
 H                     0.60834   1.46761  -0.73535 
 C                    -1.53671   2.01793  -2.1643 
 O                    -0.83142   2.99231  -2.04437 
 N                    -2.80721   2.06699  -2.67105 
 H                    -3.18196   2.99995  -2.75588 
 H                    -3.46356   1.36455  -2.36539 
 H                     2.60487  -3.99486  -0.19601 
 C                     0.20221   2.20013   2.84509 
 C                    -1.66121   0.89797   1.23744 
 C                    -2.80829   0.86036   0.46961 
 C                    -4.85595  -0.39647  -0.36558 
 C                    -3.36854  -0.40317  -0.03865 
 O                    -0.92206  -0.08292   1.53161 
 S                    -1.21479   2.55653   1.79697 
 H                     0.44316   3.12995   3.35692 
 H                     1.06503   1.87734   2.26721 
 H                    -5.46695  -0.38338   0.53726 
 H                    -5.12871   0.48914  -0.94723 
 H                    -5.13222  -1.2766   -0.94903 
 H                    -3.10701  -1.23041   0.62813 
 H                    -3.34871   1.78695   0.31203 
 H                    -0.04696   1.43783   3.58033 
 
 ITRead=  0  0  0  0  0  0  0  0  0  0  0  0  0  0  0  0  0  0  0  0
 ITRead=  0  0  0  0  0  0  0  0  0  0  0  0  0  0  0  0  0  0  0  0
 ITRead=  0  0  0  0  0  0  0  0
 MicOpt= -1 -1 -1 -1 -1 -1 -1 -1 -1 -1 -1 -1 -1 -1 -1 -1 -1 -1 -1 -1
 MicOpt= -1 -1 -1 -1 -1 -1 -1 -1 -1 -1 -1 -1 -1 -1 -1 -1 -1 -1 -1 -1
 MicOpt= -1 -1 -1 -1 -1 -1 -1 -1
 NAtoms=     48 NQM=       48 NQMF=       0 NMMI=      0 NMMIF=      0
                NMic=       0 NMicF=      0.
                    Isotopes and Nuclear Properties:
 (Nuclear quadrupole moments (NQMom) in fm**2, nuclear magnetic moments (NMagM)
  in nuclear magnetons)

  Atom         1           2           3           4           5           6           7           8           9          10
 IAtWgt=          12           1           1          12           1          16           1          12           1          16
 AtmWgt=  12.0000000   1.0078250   1.0078250  12.0000000   1.0078250  15.9949146   1.0078250  12.0000000   1.0078250  15.9949146
 NucSpn=           0           1           1           0           1           0           1           0           1           0
 AtZEff=  -0.0000000  -0.0000000  -0.0000000  -0.0000000  -0.0000000  -0.0000000  -0.0000000  -0.0000000  -0.0000000  -0.0000000
 NQMom=    0.0000000   0.0000000   0.0000000   0.0000000   0.0000000   0.0000000   0.0000000   0.0000000   0.0000000   0.0000000
 NMagM=    0.0000000   2.7928460   2.7928460   0.0000000   2.7928460   0.0000000   2.7928460   0.0000000   2.7928460   0.0000000
 AtZNuc=   6.0000000   1.0000000   1.0000000   6.0000000   1.0000000   8.0000000   1.0000000   6.0000000   1.0000000   8.0000000

  Atom        11          12          13          14          15          16          17          18          19          20
 IAtWgt=           1          12           1          12           1          16          14          12           1          12
 AtmWgt=   1.0078250  12.0000000   1.0078250  12.0000000   1.0078250  15.9949146  14.0030740  12.0000000   1.0078250  12.0000000
 NucSpn=           1           0           1           0           1           0           2           0           1           0
 AtZEff=  -0.0000000  -0.0000000  -0.0000000  -0.0000000  -0.0000000  -0.0000000  -0.0000000  -0.0000000  -0.0000000  -0.0000000
 NQMom=    0.0000000   0.0000000   0.0000000   0.0000000   0.0000000   0.0000000   2.0440000   0.0000000   0.0000000   0.0000000
 NMagM=    2.7928460   0.0000000   2.7928460   0.0000000   2.7928460   0.0000000   0.4037610   0.0000000   2.7928460   0.0000000
 AtZNuc=   1.0000000   6.0000000   1.0000000   6.0000000   1.0000000   8.0000000   7.0000000   6.0000000   1.0000000   6.0000000

  Atom        21          22          23          24          25          26          27          28          29          30
 IAtWgt=           1          12           1           1          12          12           1          12          16          14
 AtmWgt=   1.0078250  12.0000000   1.0078250   1.0078250  12.0000000  12.0000000   1.0078250  12.0000000  15.9949146  14.0030740
 NucSpn=           1           0           1           1           0           0           1           0           0           2
 AtZEff=  -0.0000000  -0.0000000  -0.0000000  -0.0000000  -0.0000000  -0.0000000  -0.0000000  -0.0000000  -0.0000000  -0.0000000
 NQMom=    0.0000000   0.0000000   0.0000000   0.0000000   0.0000000   0.0000000   0.0000000   0.0000000   0.0000000   2.0440000
 NMagM=    2.7928460   0.0000000   2.7928460   2.7928460   0.0000000   0.0000000   2.7928460   0.0000000   0.0000000   0.4037610
 AtZNuc=   1.0000000   6.0000000   1.0000000   1.0000000   6.0000000   6.0000000   1.0000000   6.0000000   8.0000000   7.0000000

  Atom        31          32          33          34          35          36          37          38          39          40
 IAtWgt=           1           1           1          12          12          12          12          12          16          32
 AtmWgt=   1.0078250   1.0078250   1.0078250  12.0000000  12.0000000  12.0000000  12.0000000  12.0000000  15.9949146  31.9720718
 NucSpn=           1           1           1           0           0           0           0           0           0           0
 AtZEff=  -0.0000000  -0.0000000  -0.0000000  -0.0000000  -0.0000000  -0.0000000  -0.0000000  -0.0000000  -0.0000000  -0.0000000
 NQMom=    0.0000000   0.0000000   0.0000000   0.0000000   0.0000000   0.0000000   0.0000000   0.0000000   0.0000000   0.0000000
 NMagM=    2.7928460   2.7928460   2.7928460   0.0000000   0.0000000   0.0000000   0.0000000   0.0000000   0.0000000   0.0000000
 AtZNuc=   1.0000000   1.0000000   1.0000000   6.0000000   6.0000000   6.0000000   6.0000000   6.0000000   8.0000000  16.0000000

  Atom        41          42          43          44          45          46          47          48
 IAtWgt=           1           1           1           1           1           1           1           1
 AtmWgt=   1.0078250   1.0078250   1.0078250   1.0078250   1.0078250   1.0078250   1.0078250   1.0078250
 NucSpn=           1           1           1           1           1           1           1           1
 AtZEff=  -0.0000000  -0.0000000  -0.0000000  -0.0000000  -0.0000000  -0.0000000  -0.0000000  -0.0000000
 NQMom=    0.0000000   0.0000000   0.0000000   0.0000000   0.0000000   0.0000000   0.0000000   0.0000000
 NMagM=    2.7928460   2.7928460   2.7928460   2.7928460   2.7928460   2.7928460   2.7928460   2.7928460
 AtZNuc=   1.0000000   1.0000000   1.0000000   1.0000000   1.0000000   1.0000000   1.0000000   1.0000000
 Background charge distribution read from input stream:
 Leave Link  101 at Sat Aug 13 20:34:15 2022, MaxMem=  2684354560 cpu:               2.2 elap:               0.2
 (Enter /storage/apps/GAUSSIAN/G16_RevA03/g16/l103.exe)

 GradGradGradGradGradGradGradGradGradGradGradGradGradGradGradGradGradGrad
 Berny optimization.
 Initialization pass.
 Trust Radius=3.00D-01 FncErr=1.00D-07 GrdErr=1.00D-07 EigMax=2.50D+02 EigMin=1.00D-04
 Number of steps in this run=      2 maximum allowed number of steps=      2.
 GradGradGradGradGradGradGradGradGradGradGradGradGradGradGradGradGradGrad

 Leave Link  103 at Sat Aug 13 20:34:16 2022, MaxMem=  2684354560 cpu:               0.6 elap:               0.1
 (Enter /storage/apps/GAUSSIAN/G16_RevA03/g16/l202.exe)
 ---------------------------------------------------------------------------------------------------
                            Z-MATRIX (ANGSTROMS AND DEGREES)
   CD    Cent   Atom    N1       Length/X        N2       Alpha/Y        N3        Beta/Z          J
 ---------------------------------------------------------------------------------------------------
      1      1  C        0   3.599052         -3.615715         -0.444319
      2      2  H        0   3.749367         -3.711123         -1.518958
      3      3  H        0   4.334962         -4.236859          0.066796
      4      4  C        0   1.862205         -1.438381          1.241624
      5      5  H        0   1.214177         -2.311575          1.088317
      6      6  O        0   1.465870         -0.679778          2.325862
      7      7  H        0   0.526569         -0.373398          2.168056
      8      8  C        0   3.317100         -1.884355          1.407518
      9      9  H        0   3.400978         -2.770451          2.044099
     10     10  O        0   4.079196         -0.817305          1.914057
     11     11  H        0   3.532796         -0.379308          2.581946
     12     12  C        0   1.974061         -0.659452         -0.080548
     13     13  H        0   2.259553          0.376450          0.119006
     14     14  C        0   3.753350         -2.169190         -0.024472
     15     15  H        0   4.780946         -1.831130         -0.160983
     16     16  O        0   2.913044         -1.336480         -0.856011
     17     17  N        0   0.720087         -0.601129         -0.859795
     18     18  C        0   0.197637         -1.764711         -1.329787
     19     19  H        0   0.764933         -2.656166         -1.114364
     20     20  C        0  -0.946498         -1.755816         -2.067139
     21     21  H        0  -1.343395         -2.688036         -2.441188
     22     22  C        0  -1.589053         -0.541208         -2.333196
     23     23  H        0  -2.432050         -0.515233         -3.010266
     24     24  H        0  -2.867732         -0.695841         -0.987028
     25     25  C        0  -1.023308          0.645879         -1.857502
     26     26  C        0   0.141802          0.569574         -1.120402
     27     27  H        0   0.608343          1.467607         -0.735353
     28     28  C        0  -1.536713          2.017932         -2.164301
     29     29  O        0  -0.831424          2.992305         -2.044369
     30     30  N        0  -2.807211          2.066991         -2.671053
     31     31  H        0  -3.181964          2.999949         -2.755875
     32     32  H        0  -3.463563          1.364551         -2.365393
     33     33  H        0   2.604873         -3.994861         -0.196009
     34     34  C        0   0.202210          2.200134          2.845085
     35     35  C        0  -1.661207          0.897967          1.237441
     36     36  C        0  -2.808292          0.860361          0.469611
     37     37  C        0  -4.855945         -0.396465         -0.365581
     38     38  C        0  -3.368542         -0.403170         -0.038652
     39     39  O        0  -0.922057         -0.082923          1.531613
     40     40  S        0  -1.214793          2.556529          1.796970
     41     41  H        0   0.443164          3.129953          3.356922
     42     42  H        0   1.065029          1.877339          2.267205
     43     43  H        0  -5.466952         -0.383379          0.537261
     44     44  H        0  -5.128713          0.489135         -0.947226
     45     45  H        0  -5.132223         -1.276599         -0.949030
     46     46  H        0  -3.107008         -1.230409          0.628132
     47     47  H        0  -3.348714          1.786951          0.312028
     48     48  H        0  -0.046963          1.437831          3.580327
 ---------------------------------------------------------------------------------------------------
                         Z-Matrix orientation:                         
 ---------------------------------------------------------------------
 Center     Atomic      Atomic             Coordinates (Angstroms)
 Number     Number       Type             X           Y           Z
 ---------------------------------------------------------------------
      1          6           0        3.599052   -3.615715   -0.444319
      2          1           0        3.749367   -3.711123   -1.518958
      3          1           0        4.334962   -4.236859    0.066796
      4          6           0        1.862205   -1.438381    1.241624
      5          1           0        1.214177   -2.311575    1.088317
      6          8           0        1.465870   -0.679778    2.325862
      7          1           0        0.526569   -0.373398    2.168056
      8          6           0        3.317100   -1.884355    1.407518
      9          1           0        3.400978   -2.770451    2.044099
     10          8           0        4.079196   -0.817305    1.914057
     11          1           0        3.532796   -0.379308    2.581946
     12          6           0        1.974061   -0.659452   -0.080548
     13          1           0        2.259553    0.376450    0.119006
     14          6           0        3.753350   -2.169190   -0.024472
     15          1           0        4.780946   -1.831130   -0.160983
     16          8           0        2.913044   -1.336480   -0.856011
     17          7           0        0.720087   -0.601129   -0.859795
     18          6           0        0.197637   -1.764711   -1.329787
     19          1           0        0.764933   -2.656166   -1.114364
     20          6           0       -0.946498   -1.755816   -2.067139
     21          1           0       -1.343395   -2.688036   -2.441188
     22          6           0       -1.589053   -0.541208   -2.333196
     23          1           0       -2.432050   -0.515233   -3.010266
     24          1           0       -2.867732   -0.695841   -0.987028
     25          6           0       -1.023308    0.645879   -1.857502
     26          6           0        0.141802    0.569574   -1.120402
     27          1           0        0.608343    1.467607   -0.735353
     28          6           0       -1.536713    2.017932   -2.164301
     29          8           0       -0.831424    2.992305   -2.044369
     30          7           0       -2.807211    2.066991   -2.671053
     31          1           0       -3.181964    2.999949   -2.755875
     32          1           0       -3.463563    1.364551   -2.365393
     33          1           0        2.604873   -3.994861   -0.196009
     34          6           0        0.202210    2.200134    2.845085
     35          6           0       -1.661207    0.897967    1.237441
     36          6           0       -2.808292    0.860361    0.469611
     37          6           0       -4.855945   -0.396465   -0.365581
     38          6           0       -3.368542   -0.403170   -0.038652
     39          8           0       -0.922057   -0.082923    1.531613
     40         16           0       -1.214793    2.556529    1.796970
     41          1           0        0.443164    3.129953    3.356922
     42          1           0        1.065029    1.877339    2.267205
     43          1           0       -5.466952   -0.383379    0.537261
     44          1           0       -5.128713    0.489135   -0.947226
     45          1           0       -5.132223   -1.276599   -0.949030
     46          1           0       -3.107008   -1.230409    0.628132
     47          1           0       -3.348714    1.786951    0.312028
     48          1           0       -0.046963    1.437831    3.580327
 ---------------------------------------------------------------------
                    Distance matrix (angstroms):
                    1          2          3          4          5
     1  C    0.000000
     2  H    1.089287   0.000000
     3  H    1.090239   1.770293   0.000000
     4  C    3.255737   4.043210   3.914873   0.000000
     5  H    3.120478   3.896640   3.806511   1.098140   0.000000
     6  O    4.565533   5.402412   5.097832   1.381352   2.063402
     7  H    5.174676   5.926290   5.817687   1.943293   2.322751
     8  C    2.550766   3.476809   2.892724   1.530730   2.169491
     9  H    2.635513   3.701569   2.632946   2.187738   2.430264
    10  O    3.691013   4.502062   3.895015   2.398531   3.335120
    11  H    4.431365   5.288224   4.674414   2.389346   3.367577
    12  C    3.392995   3.812274   4.288753   1.538630   2.161754
    13  H    4.248408   4.648734   5.058920   2.170661   3.042672
    14  C    1.514105   2.147338   2.149851   2.390295   2.775963
    15  H    2.159143   2.538233   2.457299   3.261994   3.809648
    16  O    2.415576   2.603433   3.359408   2.348344   2.759958
    17  N    4.189127   4.391252   5.210031   2.534045   2.639108
    18  C    3.972391   4.054515   5.017910   3.080492   2.679485
    19  H    3.066256   3.191156   4.079073   2.870137   2.274284
    20  C    5.172504   5.116139   6.213137   4.351723   3.864491
    21  H    5.410717   5.275741   6.397857   5.039902   4.374963
    22  C    6.319564   6.261795   7.383207   5.049301   4.764352
    23  H    7.250604   7.116715   8.313318   6.113215   5.772365
    24  H    7.116143   7.291150   8.094946   5.281151   4.855887
    25  C    6.443949   6.471206   7.500341   4.719630   4.736108
    26  C    5.470494   5.612285   6.487976   3.545538   3.785426
    27  H    5.905015   6.107316   6.860908   3.731672   4.239696
    28  C    7.814883   7.821840   8.864354   5.924447   6.073841
    29  O    8.115122   8.136071   9.132873   6.138759   6.490712
    30  N    8.848260   8.814910   9.911860   7.028522   7.033937
    31  H    9.751537   9.726860  10.809396   7.818082   7.894058
    32  H    8.852915   8.860320   9.904965   7.016467   6.879191
    33  H    1.092612   1.772165   1.766589   3.025547   2.533176
    34  C    7.495520   8.159053   8.138391   4.308766   4.946294
    35  C    7.132459   7.623369   7.980657   4.227644   4.311755
    36  C    7.869217   8.237461   8.784645   5.262486   5.159867
    37  C    9.047472   9.293472   9.970373   6.985860   6.529000
    38  C    7.683253   7.987396   8.605363   5.483747   5.090519
    39  O    6.068390   6.655225   6.858361   3.110221   3.118797
    40  S    8.142056   8.655734   8.941107   5.073030   5.486394
    41  H    8.361405   9.028040   8.957731   5.230472   5.945692
    42  H    6.629274   7.264407   7.274454   3.561082   4.354196
    43  H    9.674912  10.012115  10.542683   7.438125   6.975607
    44  H    9.657981   9.838158  10.626590   7.574914   7.226318
    45  H    9.053251   9.226829   9.971090   7.331246   6.745276
    46  H    7.197991   7.600909   8.045916   5.011258   4.478094
    47  H    8.833590   9.163192   9.766540   6.198435   6.182274
    48  H    7.418189   8.180865   7.984252   4.169778   4.675322
                    6          7          8          9         10
     6  O    0.000000
     7  H    1.000529   0.000000
     8  C    2.391948   3.263200   0.000000
     9  H    2.862682   3.744790   1.094275   0.000000
    10  O    2.649145   3.589252   1.405691   2.071635   0.000000
    11  H    2.104292   3.034591   1.921190   2.454429   0.967714
    12  C    2.459569   2.689476   2.349145   3.317610   2.904300
    13  H    2.572113   2.786416   2.808898   3.861583   2.821056
    14  C    3.602080   4.294667   1.523824   2.182812   2.385721
    15  H    4.301132   5.064497   2.146130   2.765687   2.413728
    16  O    3.556668   3.970865   2.363682   3.271848   3.050038
    17  N    3.272734   3.042563   3.678567   4.508407   4.361720
    18  C    4.018615   3.778737   4.151891   4.759833   5.146514
    19  H    4.028967   4.005263   3.670032   4.115542   4.851503
    20  C    5.125996   4.692322   5.501639   6.068963   6.479840
    21  H    5.886411   5.486296   6.097430   6.529446   7.202242
    22  C    5.573022   4.976473   6.314058   7.002189   7.088331
    23  H    6.610228   5.965615   7.378620   8.040947   8.169243
    24  H    5.454870   4.645407   6.737846   7.265567   7.529333
    25  C    5.045187   4.432399   5.991793   6.816752   6.511614
    26  C    3.897534   3.442557   4.742854   5.638445   5.160857
    27  H    3.836359   3.438862   4.812994   5.786648   4.928186
    28  C    6.037773   5.361428   7.179501   8.063500   7.497333
    29  O    6.153103   5.560272   7.273760   8.236392   7.368613
    30  N    7.125526   6.362905   8.351950   9.174700   8.761564
    31  H    7.808124   7.026933   9.133898   9.983606   9.439499
    32  H    7.105383   6.284408   8.412350   9.146791   8.942449
    33  H    4.318210   4.798244   2.744595   2.674144   4.089360
    34  C    3.187526   2.680792   5.334059   5.964932   5.000277
    35  C    3.667772   2.696067   5.705592   6.303468   6.029278
    36  C    4.907765   3.940580   6.777430   7.363209   7.234534
    37  C    6.876734   5.949059   8.494490   8.922956   9.230959
    38  C    5.388783   4.476867   6.998795   7.467816   7.710602
    39  O    2.586361   1.608712   4.607712   5.116061   5.069331
    40  S    4.235489   3.428486   6.356979   7.052881   6.278757
    41  H    4.077139   3.700517   6.099424   6.729557   5.557287
    42  H    2.589008   2.316374   4.467799   5.206571   4.058451
    43  H    7.165959   6.211432   8.953762   9.306388   9.654678
    44  H    7.454394   6.513920   9.083503   9.608775   9.730330
    45  H    7.390260   6.523337   8.792823   9.165475   9.657042
    46  H    4.908838   4.038405   6.504172   6.835976   7.312030
    47  H    5.772391   4.809342   7.688411   8.326363   8.032589
    48  H    2.889051   2.367277   5.203358   5.653135   4.988715
                   11         12         13         14         15
    11  H    0.000000
    12  C    3.097904   0.000000
    13  H    2.873742   1.092895   0.000000
    14  C    3.169501   2.334164   2.955046   0.000000
    15  H    3.345045   3.042680   3.362919   1.090355   0.000000
    16  O    3.622129   1.393341   2.076497   1.446021   2.053485
    17  N    4.450406   1.477524   2.069702   3.515290   4.300211
    18  C    5.323935   2.436776   3.306822   3.809271   4.730458
    19  H    5.148578   2.552965   3.598868   3.218019   4.209273
    20  C    6.600973   3.698408   4.427703   5.141200   6.036780
    21  H    7.371522   4.548988   5.378374   5.664497   6.590992
    22  C    7.100575   4.217130   4.654800   6.043327   6.852685
    23  H    8.177451   5.293190   5.709517   7.064681   7.866213
    24  H    7.335157   4.926052   5.353706   6.850985   7.776471
    25  C    6.443430   3.720978   3.841400   5.839612   6.534762
    26  C    5.109462   2.439052   2.461361   4.663172   5.310887
    27  H    4.792493   2.611194   2.155701   4.860320   5.349970
    28  C    7.346669   4.882207   4.724361   7.077826   7.664292
    29  O    7.198401   5.006263   4.590972   7.193133   7.636188
    30  N    8.589183   6.083155   6.026148   8.245640   8.892465
    31  H    9.219529   6.865361   6.690127   9.070785   9.668543
    32  H    8.744498   6.235773   6.316854   8.369652   9.112833
    33  H    4.652988   3.396499   4.396230   2.163677   3.068917
    34  C    4.220849   4.458253   3.871691   6.319489   6.800909
    35  C    5.515142   4.168672   4.110381   6.349591   7.134767
    36  C    6.797657   5.048109   5.102955   7.244132   8.077023
    37  C    8.891523   6.841008   7.173739   8.796526   9.745245
    38  C    7.382179   5.348910   5.684023   7.337600   8.274551
    39  O    4.586585   3.364364   3.511285   5.351013   6.200432
    40  S    5.636925   4.902693   4.431635   7.094541   7.683360
    41  H    4.739338   5.340359   4.622245   7.104370   7.470231
    42  H    3.358778   3.574016   2.879985   5.371522   5.784192
    43  H    9.229096   7.471719   7.775034   9.408434  10.373184
    44  H    9.393135   7.247053   7.465656   9.317146  10.207994
    45  H    9.399759   7.185708   7.649289   8.978025   9.959892
    46  H    6.973432   5.161926   5.625050   6.954978   7.950056
    47  H    7.563094   5.871196   5.786141   8.136559   8.910983
    48  H    4.136839   4.678156   4.292702   6.359839   6.927641
                   16         17         18         19         20
    16  O    0.000000
    17  N    2.312967   0.000000
    18  C    2.789495   1.359327   0.000000
    19  H    2.534304   2.071230   1.078389   0.000000
    20  C    4.066785   2.359764   1.361180   2.155784   0.000000
    21  H    4.738857   3.333758   2.112468   2.491290   1.080034
    22  C    4.804520   2.739823   2.386640   3.391143   1.399620
    23  H    5.821107   3.816788   3.361615   4.289375   2.152998
    24  H    5.817642   3.591323   3.264422   4.129812   2.445675
    25  C    4.519690   2.364292   2.753204   3.827997   2.412050
    26  C    3.373830   1.331494   2.344322   3.285381   2.736448
    27  H    3.631681   2.075486   3.312086   4.144113   3.818591
    28  C    5.723988   3.695181   4.244146   5.314803   3.820860
    29  O    5.845649   4.089397   4.919227   5.942936   4.749570
    30  N    6.899225   4.779263   5.050747   6.123047   4.294277
    31  H    7.717721   5.638163   6.013104   7.089724   5.299902
    32  H    7.087660   4.861445   4.926372   5.967530   4.020107
    33  H    2.756367   3.938330   3.471859   2.453744   4.596377
    34  C    5.792614   4.673479   5.757567   6.291069   6.410851
    35  C    5.504459   3.509451   4.139543   4.903978   4.298095
    36  C    6.270333   4.043851   4.377721   5.257649   4.092158
    37  C    7.841004   5.601631   5.323578   6.104195   4.475144
    38  C    6.402926   4.174967   4.029697   4.828950   3.436671
    39  O    4.688300   2.946864   3.502818   4.058166   3.968650
    40  S    6.263614   4.557737   5.517670   6.290260   5.796520
    41  H    6.618016   5.637230   6.781096   7.319502   7.431173
    42  H    4.847501   4.004987   5.191844   5.663721   6.002716
    43  H    8.548330   6.346545   6.122215   6.835921   5.394533
    44  H    8.246881   5.950192   5.796221   6.682508   4.876980
    45  H    8.046028   5.891838   5.365691   6.058629   4.358912
    46  H    6.201206   4.154104   3.878093   4.478951   3.494044
    47  H    7.094346   4.861197   5.280764   6.220770   4.897170
    48  H    6.011617   4.945746   5.867310   6.281728   6.549994
                   21         22         23         24         25
    21  H    0.000000
    22  C    2.163534   0.000000
    23  H    2.496015   1.081546   0.000000
    24  H    2.899487   1.863089   2.077482   0.000000
    25  C    3.399726   1.398402   2.159074   2.441278   0.000000
    26  C    3.816059   2.387586   3.372404   3.267470   1.380804
    27  H    4.897808   3.378904   4.283792   4.102066   2.144001
    28  C    4.718069   2.565241   2.816773   3.243786   1.496743
    29  O    5.717154   3.625346   3.974643   4.343609   2.361663
    30  N    4.980550   2.898406   2.631291   3.236177   2.421515
    31  H    5.986029   3.905869   3.603275   4.109310   3.317908
    32  H    4.574311   2.673339   2.239078   2.549533   2.594087
    33  H    4.726250   5.838176   6.737837   6.438839   6.120517
    34  C    7.363952   6.126840   6.971204   5.700553   5.102149
    35  C    5.147109   3.850439   4.542505   2.990684   3.170037
    36  C    4.817655   3.362539   3.760766   2.132392   2.940684
    37  C    4.679471   3.816418   3.589392   2.104475   4.242808
    38  C    3.885101   2.906986   3.117702   1.111703   3.147831
    39  O    4.769412   3.948627   4.805792   3.241122   3.468069
    40  S    6.744181   5.176323   5.833263   4.589201   4.128246
    41  H    8.405883   7.069991   7.880058   6.668481   5.959143
    42  H    6.986567   5.835856   6.767988   5.716458   4.784439
    43  H    5.584472   4.827270   4.670435   3.029362   5.151721
    44  H    5.162845   3.938491   3.540746   2.552996   4.208031
    45  H    4.309746   3.874373   3.481279   2.338085   4.626492
    46  H    3.828281   3.398330   3.768950   1.718068   3.747084
    47  H    5.623790   3.938774   4.144630   2.843087   3.378819
    48  H    7.413647   6.423737   7.275920   5.776679   5.581256
                   26         27         28         29         30
    26  C    0.000000
    27  H    1.082768   0.000000
    28  C    2.450485   2.635529   0.000000
    29  O    2.769568   2.472075   1.208809   0.000000
    30  N    3.652869   3.971424   1.368711   2.269950   0.000000
    31  H    4.430453   4.560374   2.005285   2.455878   1.008982
    32  H    3.896235   4.387262   2.044528   3.111398   1.008785
    33  H    5.268329   5.840854   7.561785   8.002816   8.494854
    34  C    4.288060   3.677102   5.305751   5.059911   6.285071
    35  C    2.986320   3.060598   3.583527   3.980586   4.237484
    36  C    3.363890   3.673429   3.145533   3.843603   3.364480
    37  C    5.145917   5.785321   4.481295   5.522577   3.947294
    38  C    3.799859   4.449810   3.706173   4.689256   3.653262
    39  O    2.930995   3.144106   4.295483   4.717297   5.083142
    40  S    3.781455   3.304881   4.010659   3.884940   4.768508
    41  H    5.166507   4.420112   5.969959   5.551348   6.930462
    42  H    3.746796   3.064604   5.140727   4.840388   6.278264
    43  H    5.925714   6.477261   5.339617   6.288734   4.834440
    44  H    5.273973   5.823754   4.089127   5.092767   3.294022
    45  H    5.590444   6.366351   5.025785   6.157936   4.421610
    46  H    4.105128   4.789803   4.562371   5.491071   4.674115
    47  H    3.964538   4.105763   3.077159   3.652702   3.044736
    48  H    4.783969   4.365250   5.962937   5.888036   6.862548
                   31         32         33         34         35
    31  H    0.000000
    32  H    1.704788   0.000000
    33  H    9.432272   8.381852   0.000000
    34  C    6.592654   6.425354   7.307462   0.000000
    35  C    4.762101   4.055441   6.647856   2.784328   0.000000
    36  C    3.888602   2.953106   7.301958   4.062141   1.380862
    37  C    4.477873   3.006518   8.284987   6.529597   3.801524
    38  C    4.358822   2.923626   6.971850   5.276685   2.497271
    39  O    5.744026   4.872483   5.543210   2.863832   1.262943
    40  S    4.979436   4.878836   7.841079   1.798182   1.806429
    41  H    7.108076   7.150108   8.249805   1.088393   3.728584
    42  H    6.672971   6.498620   6.551433   1.087473   3.074402
    43  H    5.245267   3.936271   8.873266   6.643793   4.076248
    44  H    3.655849   2.355902   8.971003   6.762239   4.118678
    45  H    5.035580   3.430187   8.235208   7.412095   4.642989
    46  H    5.417846   3.977705   6.398983   5.256846   2.644160
    47  H    3.303210   2.712968   8.314605   4.381342   2.119991
    48  H    7.239883   6.857850   7.127909   1.088014   2.895920
                   36         37         38         39         40
    36  C    0.000000
    37  C    2.543627   0.000000
    38  C    1.472658   1.522923   0.000000
    39  O    2.361253   4.378713   2.924650   0.000000
    40  S    2.679199   5.162828   4.094870   2.668860   0.000000
    41  H    4.905056   7.373819   6.208219   3.939309   2.347570
    42  H    4.389556   6.867291   5.493109   2.886561   2.424873
    43  H    2.935973   1.090241   2.176096   4.662090   5.320788
    44  H    2.744010   1.094075   2.172537   4.916081   5.208023
    45  H    3.461184   1.091503   2.168464   5.030303   6.130224
    46  H    2.117942   2.177546   1.094224   2.628120   4.391760
    47  H    1.084185   2.738285   2.218107   3.297344   2.711258
    48  H    4.199400   6.485456   5.245873   2.697353   2.407421
                   41         42         43         44         45
    41  H    0.000000
    42  H    1.772919   0.000000
    43  H    7.431249   7.125330   0.000000
    44  H    7.519669   7.114922   1.754818   0.000000
    45  H    8.309264   7.661424   1.766054   1.765738   0.000000
    46  H    6.250022   5.454407   2.508994   3.086402   2.567308
    47  H    5.045134   4.828252   3.041052   2.537409   3.762514
    48  H    1.775785   1.775946   6.477140   6.871895   7.330967
                   46         47         48
    46  H    0.000000
    47  H    3.043486   0.000000
    48  H    5.019844   4.658886   0.000000
 Stoichiometry    C16H24N2O5S
 Framework group  C1[X(C16H24N2O5S)]
 Deg. of freedom   138
 Full point group                 C1      NOp   1
 Largest Abelian subgroup         C1      NOp   1
 Largest concise Abelian subgroup C1      NOp   1
                         Standard orientation:                         
 ---------------------------------------------------------------------
 Center     Atomic      Atomic             Coordinates (Angstroms)
 Number     Number       Type             X           Y           Z
 ---------------------------------------------------------------------
      1          6           0       -4.678640   -1.975824   -0.536522
      2          1           0       -4.635927   -2.917216    0.009832
      3          1           0       -5.703229   -1.814140   -0.872225
      4          6           0       -2.517637    0.454317   -0.692418
      5          1           0       -2.325341   -0.197577   -1.554954
      6          8           0       -2.045645    1.736848   -0.893591
      7          1           0       -1.060226    1.686290   -1.059274
      8          6           0       -4.015055    0.481877   -0.376014
      9          1           0       -4.621610    0.550769   -1.284189
     10          8           0       -4.288559    1.544260    0.502910
     11          1           0       -3.749494    2.292367    0.209287
     12          6           0       -1.991479   -0.231225    0.580598
     13          1           0       -1.804679    0.515001    1.356918
     14          6           0       -4.234648   -0.836335    0.356199
     15          1           0       -4.942198   -0.681114    1.171155
     16          8           0       -2.958239   -1.163404    0.951834
     17          7           0       -0.721909   -0.964162    0.396005
     18          6           0       -0.707476   -2.026583   -0.451828
     19          1           0       -1.650219   -2.272616   -0.914026
     20          6           0        0.435912   -2.741169   -0.638491
     21          1           0        0.428208   -3.588364   -1.308323
     22          6           0        1.601964   -2.371534    0.041678
     23          1           0        2.480261   -3.000139   -0.014816
     24          1           0        2.367146   -1.433566   -1.374590
     25          6           0        1.559652   -1.287993    0.924671
     26          6           0        0.367292   -0.607824    1.073899
     27          1           0        0.296823    0.236400    1.748217
     28          6           0        2.694156   -0.857238    1.800793
     29          8           0        2.505321   -0.174351    2.780194
     30          7           0        3.918884   -1.367472    1.464527
     31          1           0        4.687582   -0.972725    1.985414
     32          1           0        4.104070   -1.542968    0.488538
     33          1           0       -4.041364   -2.056109   -1.420397
     34          6           0        0.262354    3.602734    0.269135
     35          6           0        1.603766    1.393261   -0.765911
     36          6           0        2.734562    0.627942   -0.971747
     37          6           0        4.100608   -0.923899   -2.453552
     38          6           0        2.743683   -0.523358   -1.889977
     39          8           0        0.455399    1.180570   -1.246578
     40         16           0        1.863728    2.788895    0.351143
     41          1           0        0.376228    4.550934    0.791198
     42          1           0       -0.516105    3.019370    0.755228
     43          1           0        4.453752   -0.210976   -3.198974
     44          1           0        4.859430   -0.963286   -1.666381
     45          1           0        4.054498   -1.908819   -2.921723
     46          1           0        2.004150   -0.382178   -2.684007
     47          1           0        3.658464    0.943716   -0.500419
     48          1           0       -0.019015    3.791788   -0.764724
 ---------------------------------------------------------------------
 Rotational constants (GHZ):           0.3333401           0.1647749           0.1402438
 Leave Link  202 at Sat Aug 13 20:34:16 2022, MaxMem=  2684354560 cpu:               0.4 elap:               0.1
 (Enter /storage/apps/GAUSSIAN/G16_RevA03/g16/l301.exe)
 Standard basis: def2TZVP (5D, 7F)
 Ernie: Thresh=  0.10000D-02 Tol=  0.10000D-05 Strict=F.
 There are  1014 symmetry adapted cartesian basis functions of A   symmetry.
 There are   894 symmetry adapted basis functions of A   symmetry.
   894 basis functions,  1434 primitive gaussians,  1014 cartesian basis functions
    95 alpha electrons       95 beta electrons
       nuclear repulsion energy      2498.7820456838 Hartrees.
 IExCor= 4336 DFT=T Ex+Corr=M062X ExCW=0 ScaHFX=  0.540000
 ScaDFX=  1.000000  1.000000  1.000000  1.000000 ScalE2=  1.000000  1.000000
 IRadAn=      5 IRanWt=     -1 IRanGd=            0 ICorTp=0 IEmpDi=131
 NAtoms=   48 NActive=   48 NUniq=   48 SFac= 1.00D+00 NAtFMM=   60 NAOKFM=F Big=F
 Integral buffers will be    131072 words long.
 Raffenetti 2 integral format.
 Two-electron integral symmetry is turned on.
 R6Disp:  Grimme-D3 Dispersion energy=       -0.0042681692 Hartrees.
 Nuclear repulsion after empirical dispersion term =     2498.7777775146 Hartrees.
 Leave Link  301 at Sat Aug 13 20:34:16 2022, MaxMem=  2684354560 cpu:               1.6 elap:               0.1
 (Enter /storage/apps/GAUSSIAN/G16_RevA03/g16/l302.exe)
 NPDir=0 NMtPBC=     1 NCelOv=     1 NCel=       1 NClECP=     1 NCelD=      1
         NCelK=      1 NCelE2=     1 NClLst=     1 CellRange=     0.0.
 One-electron integrals computed using PRISM.
 One-electron integral symmetry used in STVInt
   1 Symmetry operations used in ECPInt.
 ECPInt:  NShTT=   65703 NPrTT=  200010 LenC2=   56968 LenP2D=  121504.
 LDataN:  DoStor=T MaxTD1= 6 Len=  172
 NBasis=   894 RedAO= T EigKep=  1.67D-05  NBF=   894
 NBsUse=   894 1.00D-06 EigRej= -1.00D+00 NBFU=   894
 Precomputing XC quadrature grid using
 IXCGrd= 4 IRadAn=           5 IRanWt=          -1 IRanGd=           0 AccXCQ= 0.00D+00.
 Generated NRdTot=       0 NPtTot=           0 NUsed=           0 NTot=          32
 NSgBfM=   998   997   997   997   998 MxSgAt=    48 MxSgA2=    48.
 Leave Link  302 at Sat Aug 13 20:34:17 2022, MaxMem=  2684354560 cpu:              19.2 elap:               1.2
 (Enter /storage/apps/GAUSSIAN/G16_RevA03/g16/l303.exe)
 DipDrv:  MaxL=1.
 Leave Link  303 at Sat Aug 13 20:34:17 2022, MaxMem=  2684354560 cpu:               2.1 elap:               0.2
 (Enter /storage/apps/GAUSSIAN/G16_RevA03/g16/l401.exe)
 ExpMin= 9.52D-02 ExpMax= 6.07D+04 ExpMxC= 2.07D+03 IAcc=3 IRadAn=         5 AccDes= 0.00D+00
 Harris functional with IExCor= 1009 and IRadAn=       5 diagonalized for initial guess.
 HarFok:  IExCor= 1009 AccDes= 0.00D+00 IRadAn=         5 IDoV= 1 UseB2=F ITyADJ=14
 ICtDFT=  3500011 ScaDFX=  1.000000  1.000000  1.000000  1.000000
 FoFCou: FMM=F IPFlag=           0 FMFlag=      100000 FMFlg1=           0
         NFxFlg=           0 DoJE=T BraDBF=F KetDBF=T FulRan=T
         wScrn=  0.000000 ICntrl=       500 IOpCl=  0 I1Cent=   200000004 NGrid=           0
         NMat0=    1 NMatS0=      1 NMatT0=    0 NMatD0=    1 NMtDS0=    0 NMtDT0=    0
 Petite list used in FoFCou.
 Harris En= -1507.23931893529    
 JPrj=0 DoOrth=F DoCkMO=F.
 Leave Link  401 at Sat Aug 13 20:34:21 2022, MaxMem=  2684354560 cpu:              61.1 elap:               3.9
 (Enter /storage/apps/GAUSSIAN/G16_RevA03/g16/l502.exe)
 Integral symmetry usage will be decided dynamically.
 Closed shell SCF:
 Using DIIS extrapolation, IDIIS=  1040.
 NGot=  2684354560 LenX=  2682272944 LenY=  2681243734
 Requested convergence on RMS density matrix=1.00D-08 within 128 cycles.
 Requested convergence on MAX density matrix=1.00D-06.
 Requested convergence on             energy=1.00D-06.
 No special actions if energy rises.
 Fock matrices will be formed incrementally for  20 cycles.
 Integral accuracy reduced to 1.0D-05 until final iterations.

 Cycle   1  Pass 0  IDiag  1:
 FoFJK:  IHMeth= 1 ICntrl=       0 DoSepK=F KAlg= 0 I1Cent=           0 FoldK=F
 IRaf= 800000000 NMat=       1 IRICut=       1 DoRegI=T DoRafI=F ISym2E= 0 IDoP0=0 IntGTp=1.
 FoFCou: FMM=F IPFlag=           0 FMFlag=      100000 FMFlg1=           0
         NFxFlg=           0 DoJE=F BraDBF=F KetDBF=F FulRan=T
         wScrn=  0.000000 ICntrl=         0 IOpCl=  0 I1Cent=           0 NGrid=           0
         NMat0=    1 NMatS0=      1 NMatT0=    0 NMatD0=    1 NMtDS0=    0 NMtDT0=    0
 Symmetry not used in FoFCou.
 E= -1507.15656555581    
 DIIS: error= 1.77D-02 at cycle   1 NSaved=   1.
 NSaved= 1 IEnMin= 1 EnMin= -1507.15656555581     IErMin= 1 ErrMin= 1.77D-02
 ErrMax= 1.77D-02  0.00D+00 EMaxC= 1.00D-01 BMatC= 9.96D-01 BMatP= 9.96D-01
 IDIUse=3 WtCom= 8.23D-01 WtEn= 1.77D-01
 Coeff-Com:  0.100D+01
 Coeff-En:   0.100D+01
 Coeff:      0.100D+01
 Gap=     0.178 Goal=   None    Shift=    0.000
 GapD=    0.178 DampG=1.000 DampE=0.500 DampFc=0.5000 IDamp=-1.
 Damping current iteration by 5.00D-01
 RMSDP=4.03D-03 MaxDP=1.09D+00              OVMax= 5.37D-01

 Cycle   2  Pass 0  IDiag  1:
 RMSU=  2.01D-03    CP:  1.01D+00
 E= -1507.46276303739     Delta-E=       -0.306197481589 Rises=F Damp=T
 DIIS: error= 7.58D-03 at cycle   2 NSaved=   2.
 NSaved= 2 IEnMin= 2 EnMin= -1507.46276303739     IErMin= 2 ErrMin= 7.58D-03
 ErrMax= 7.58D-03  0.00D+00 EMaxC= 1.00D-01 BMatC= 9.92D-02 BMatP= 9.96D-01
 IDIUse=3 WtCom= 9.24D-01 WtEn= 7.58D-02
 Coeff-Com:  0.156D-01 0.984D+00
 Coeff-En:   0.129D+00 0.871D+00
 Coeff:      0.243D-01 0.976D+00
 Gap=     0.166 Goal=   None    Shift=    0.000
 RMSDP=1.36D-03 MaxDP=2.56D-01 DE=-3.06D-01 OVMax= 4.31D-01

 Cycle   3  Pass 0  IDiag  1:
 RMSU=  1.17D-03    CP:  1.00D+00  6.62D-01
 E= -1507.82529643333     Delta-E=       -0.362533395933 Rises=F Damp=F
 DIIS: error= 7.79D-03 at cycle   3 NSaved=   3.
 NSaved= 3 IEnMin= 3 EnMin= -1507.82529643333     IErMin= 2 ErrMin= 7.58D-03
 ErrMax= 7.79D-03  0.00D+00 EMaxC= 1.00D-01 BMatC= 7.36D-02 BMatP= 9.92D-02
 IDIUse=3 WtCom= 9.22D-01 WtEn= 7.79D-02
 Coeff-Com: -0.721D-01 0.487D+00 0.585D+00
 Coeff-En:   0.000D+00 0.000D+00 0.100D+01
 Coeff:     -0.665D-01 0.449D+00 0.617D+00
 Gap=     0.131 Goal=   None    Shift=    0.000
 RMSDP=6.04D-04 MaxDP=3.10D-02 DE=-3.63D-01 OVMax= 1.73D-01

 Cycle   4  Pass 0  IDiag  1:
 RMSU=  4.93D-04    CP:  1.00D+00  8.02D-01  8.27D-01
 E= -1507.88973004253     Delta-E=       -0.064433609199 Rises=F Damp=F
 DIIS: error= 4.10D-03 at cycle   4 NSaved=   4.
 NSaved= 4 IEnMin= 4 EnMin= -1507.88973004253     IErMin= 4 ErrMin= 4.10D-03
 ErrMax= 4.10D-03  0.00D+00 EMaxC= 1.00D-01 BMatC= 1.07D-02 BMatP= 7.36D-02
 IDIUse=3 WtCom= 9.59D-01 WtEn= 4.10D-02
 Coeff-Com: -0.365D-01 0.106D+00 0.307D+00 0.623D+00
 Coeff-En:   0.000D+00 0.000D+00 0.853D-01 0.915D+00
 Coeff:     -0.350D-01 0.101D+00 0.298D+00 0.635D+00
 Gap=     0.152 Goal=   None    Shift=    0.000
 RMSDP=2.13D-04 MaxDP=1.47D-02 DE=-6.44D-02 OVMax= 6.65D-02

 Cycle   5  Pass 0  IDiag  1:
 RMSU=  1.64D-04    CP:  1.00D+00  7.80D-01  9.04D-01  8.15D-01
 E= -1507.89963532785     Delta-E=       -0.009905285324 Rises=F Damp=F
 DIIS: error= 9.46D-04 at cycle   5 NSaved=   5.
 NSaved= 5 IEnMin= 5 EnMin= -1507.89963532785     IErMin= 5 ErrMin= 9.46D-04
 ErrMax= 9.46D-04  0.00D+00 EMaxC= 1.00D-01 BMatC= 9.77D-04 BMatP= 1.07D-02
 IDIUse=3 WtCom= 9.91D-01 WtEn= 9.46D-03
 Coeff-Com: -0.117D-01 0.216D-01 0.101D+00 0.321D+00 0.568D+00
 Coeff-En:   0.000D+00 0.000D+00 0.000D+00 0.000D+00 0.100D+01
 Coeff:     -0.116D-01 0.214D-01 0.100D+00 0.318D+00 0.572D+00
 Gap=     0.151 Goal=   None    Shift=    0.000
 RMSDP=7.43D-05 MaxDP=7.70D-03 DE=-9.91D-03 OVMax= 9.67D-03

 Cycle   6  Pass 0  IDiag  1:
 RMSU=  6.28D-05    CP:  1.00D+00  7.80D-01  8.96D-01  8.91D-01  9.41D-01
 E= -1507.90054249382     Delta-E=       -0.000907165974 Rises=F Damp=F
 DIIS: error= 1.99D-04 at cycle   6 NSaved=   6.
 NSaved= 6 IEnMin= 6 EnMin= -1507.90054249382     IErMin= 6 ErrMin= 1.99D-04
 ErrMax= 1.99D-04  0.00D+00 EMaxC= 1.00D-01 BMatC= 1.02D-04 BMatP= 9.77D-04
 IDIUse=3 WtCom= 9.98D-01 WtEn= 1.99D-03
 Coeff-Com: -0.236D-03-0.401D-02-0.168D-02 0.603D-01 0.276D+00 0.670D+00
 Coeff-En:   0.000D+00 0.000D+00 0.000D+00 0.000D+00 0.000D+00 0.100D+01
 Coeff:     -0.235D-03-0.400D-02-0.167D-02 0.602D-01 0.275D+00 0.671D+00
 Gap=     0.152 Goal=   None    Shift=    0.000
 RMSDP=4.04D-05 MaxDP=4.51D-03 DE=-9.07D-04 OVMax= 5.93D-03

 Cycle   7  Pass 0  IDiag  1:
 RMSU=  2.36D-05    CP:  1.00D+00  7.80D-01  9.03D-01  9.13D-01  1.12D+00
                    CP:  1.09D+00
 E= -1507.90064064951     Delta-E=       -0.000098155687 Rises=F Damp=F
 DIIS: error= 8.61D-05 at cycle   7 NSaved=   7.
 NSaved= 7 IEnMin= 7 EnMin= -1507.90064064951     IErMin= 7 ErrMin= 8.61D-05
 ErrMax= 8.61D-05  0.00D+00 EMaxC= 1.00D-01 BMatC= 1.37D-05 BMatP= 1.02D-04
 IDIUse=1 WtCom= 1.00D+00 WtEn= 0.00D+00
 Coeff-Com:  0.137D-02-0.430D-02-0.153D-01-0.138D-01 0.501D-01 0.312D+00
 Coeff-Com:  0.670D+00
 Coeff:      0.137D-02-0.430D-02-0.153D-01-0.138D-01 0.501D-01 0.312D+00
 Coeff:      0.670D+00
 Gap=     0.152 Goal=   None    Shift=    0.000
 RMSDP=1.99D-05 MaxDP=2.30D-03 DE=-9.82D-05 OVMax= 2.40D-03

 Cycle   8  Pass 0  IDiag  1:
 RMSU=  1.25D-05    CP:  1.00D+00  7.78D-01  9.03D-01  9.26D-01  1.18D+00
                    CP:  1.21D+00  1.15D+00
 E= -1507.90064661138     Delta-E=       -0.000005961869 Rises=F Damp=F
 DIIS: error= 3.05D-05 at cycle   8 NSaved=   8.
 NSaved= 8 IEnMin= 8 EnMin= -1507.90064661138     IErMin= 8 ErrMin= 3.05D-05
 ErrMax= 3.05D-05  0.00D+00 EMaxC= 1.00D-01 BMatC= 2.37D-06 BMatP= 1.37D-05
 IDIUse=1 WtCom= 1.00D+00 WtEn= 0.00D+00
 Coeff-Com:  0.711D-03-0.141D-02-0.830D-02-0.171D-01-0.253D-01 0.429D-01
 Coeff-Com:  0.318D+00 0.690D+00
 Coeff:      0.711D-03-0.141D-02-0.830D-02-0.171D-01-0.253D-01 0.429D-01
 Coeff:      0.318D+00 0.690D+00
 Gap=     0.152 Goal=   None    Shift=    0.000
 RMSDP=1.85D-05 MaxDP=3.11D-03 DE=-5.96D-06 OVMax= 1.50D-03

 Cycle   9  Pass 0  IDiag  1:
 RMSU=  1.35D-05    CP:  1.00D+00  7.75D-01  9.00D-01  9.28D-01  1.19D+00
                    CP:  1.30D+00  1.29D+00  1.63D+00
 E= -1507.90064331976     Delta-E=        0.000003291620 Rises=F Damp=F
 DIIS: error= 1.70D-05 at cycle   9 NSaved=   9.
 NSaved= 9 IEnMin= 8 EnMin= -1507.90064661138     IErMin= 9 ErrMin= 1.70D-05
 ErrMax= 1.70D-05  0.00D+00 EMaxC= 1.00D-01 BMatC= 5.47D-07 BMatP= 2.37D-06
 IDIUse=1 WtCom= 1.00D+00 WtEn= 0.00D+00
 Coeff-Com:  0.215D-03-0.261D-03-0.326D-02-0.744D-02-0.200D-01-0.549D-02
 Coeff-Com:  0.886D-01 0.345D+00 0.602D+00
 Coeff:      0.215D-03-0.261D-03-0.326D-02-0.744D-02-0.200D-01-0.549D-02
 Coeff:      0.886D-01 0.345D+00 0.602D+00
 Gap=     0.152 Goal=   None    Shift=    0.000
 RMSDP=1.90D-05 MaxDP=2.14D-03 DE= 3.29D-06 OVMax= 6.36D-04

 Cycle  10  Pass 0  IDiag  1:
 RMSU=  1.01D-05    CP:  1.00D+00  7.73D-01  8.99D-01  9.29D-01  1.19D+00
                    CP:  1.35D+00  1.39D+00  2.19D+00  1.97D+00
 E= -1507.90064101692     Delta-E=        0.000002302840 Rises=F Damp=F
 DIIS: error= 2.68D-05 at cycle  10 NSaved=  10.
 NSaved=10 IEnMin= 8 EnMin= -1507.90064661138     IErMin= 9 ErrMin= 1.70D-05
 ErrMax= 2.68D-05  0.00D+00 EMaxC= 1.00D-01 BMatC= 4.42D-07 BMatP= 5.47D-07
 IDIUse=1 WtCom= 1.00D+00 WtEn= 0.00D+00
 Coeff-Com:  0.216D-03-0.263D-03-0.328D-02-0.749D-02-0.201D-01-0.553D-02
 Coeff-Com:  0.893D-01 0.348D+00 0.606D+00-0.709D-02
 Coeff:      0.216D-03-0.263D-03-0.328D-02-0.749D-02-0.201D-01-0.553D-02
 Coeff:      0.893D-01 0.348D+00 0.606D+00-0.709D-02
 Gap=     0.152 Goal=   None    Shift=    0.000
 RMSDP=3.14D-07 MaxDP=3.83D-05 DE= 2.30D-06 OVMax= 2.69D-06

 Initial convergence to 1.0D-05 achieved.  Increase integral accuracy.
 Cycle  11  Pass 1  IDiag  1:
 E= -1507.90057054500     Delta-E=        0.000070471923 Rises=F Damp=F
 DIIS: error= 3.38D-04 at cycle   1 NSaved=   1.
 NSaved= 1 IEnMin= 1 EnMin= -1507.90057054500     IErMin= 1 ErrMin= 3.38D-04
 ErrMax= 3.38D-04  0.00D+00 EMaxC= 1.00D-01 BMatC= 9.71D-05 BMatP= 9.71D-05
 IDIUse=3 WtCom= 9.97D-01 WtEn= 3.38D-03
 Coeff-Com:  0.100D+01
 Coeff-En:   0.100D+01
 Coeff:      0.100D+01
 Gap=     0.152 Goal=   None    Shift=    0.000
 RMSDP=3.14D-07 MaxDP=3.83D-05 DE= 7.05D-05 OVMax= 1.15D-03

 Cycle  12  Pass 1  IDiag  1:
 RMSU=  6.03D-04    CP:  9.91D-01
 E= -1507.90063211976     Delta-E=       -0.000061574761 Rises=F Damp=F
 DIIS: error= 1.59D-05 at cycle   2 NSaved=   2.
 NSaved= 2 IEnMin= 2 EnMin= -1507.90063211976     IErMin= 2 ErrMin= 1.59D-05
 ErrMax= 1.59D-05  0.00D+00 EMaxC= 1.00D-01 BMatC= 1.65D-07 BMatP= 9.71D-05
 IDIUse=1 WtCom= 1.00D+00 WtEn= 0.00D+00
 Coeff-Com: -0.146D-01 0.101D+01
 Coeff:     -0.146D-01 0.101D+01
 Gap=     0.152 Goal=   None    Shift=    0.000
 RMSDP=2.31D-05 MaxDP=2.21D-03 DE=-6.16D-05 OVMax= 5.94D-04

 Cycle  13  Pass 1  IDiag  1:
 RMSU=  9.10D-06    CP:  9.90D-01  1.04D+00
 E= -1507.90063200678     Delta-E=        0.000000112979 Rises=F Damp=F
 DIIS: error= 2.03D-05 at cycle   3 NSaved=   3.
 NSaved= 3 IEnMin= 2 EnMin= -1507.90063211976     IErMin= 2 ErrMin= 1.59D-05
 ErrMax= 2.03D-05  0.00D+00 EMaxC= 1.00D-01 BMatC= 3.32D-07 BMatP= 1.65D-07
 IDIUse=1 WtCom= 1.00D+00 WtEn= 0.00D+00
 Coeff-Com: -0.104D-01 0.618D+00 0.392D+00
 Coeff:     -0.104D-01 0.618D+00 0.392D+00
 Gap=     0.152 Goal=   None    Shift=    0.000
 RMSDP=1.15D-06 MaxDP=7.37D-05 DE= 1.13D-07 OVMax= 2.43D-04

 Cycle  14  Pass 1  IDiag  1:
 RMSU=  1.10D-06    CP:  9.90D-01  1.04D+00  1.00D+00
 E= -1507.90063235427     Delta-E=       -0.000000347492 Rises=F Damp=F
 DIIS: error= 1.32D-06 at cycle   4 NSaved=   4.
 NSaved= 4 IEnMin= 4 EnMin= -1507.90063235427     IErMin= 4 ErrMin= 1.32D-06
 ErrMax= 1.32D-06  0.00D+00 EMaxC= 1.00D-01 BMatC= 1.07D-09 BMatP= 1.65D-07
 IDIUse=1 WtCom= 1.00D+00 WtEn= 0.00D+00
 Coeff-Com: -0.447D-04-0.792D-02 0.393D-02 0.100D+01
 Coeff:     -0.447D-04-0.792D-02 0.393D-02 0.100D+01
 Gap=     0.152 Goal=   None    Shift=    0.000
 RMSDP=6.31D-07 MaxDP=5.06D-05 DE=-3.47D-07 OVMax= 8.18D-05

 Cycle  15  Pass 1  IDiag  1:
 RMSU=  2.91D-07    CP:  9.90D-01  1.04D+00  1.04D+00  1.04D+00
 E= -1507.90063235810     Delta-E=       -0.000000003826 Rises=F Damp=F
 DIIS: error= 6.03D-07 at cycle   5 NSaved=   5.
 NSaved= 5 IEnMin= 5 EnMin= -1507.90063235810     IErMin= 5 ErrMin= 6.03D-07
 ErrMax= 6.03D-07  0.00D+00 EMaxC= 1.00D-01 BMatC= 1.12D-09 BMatP= 1.07D-09
 IDIUse=1 WtCom= 1.00D+00 WtEn= 0.00D+00
 Coeff-Com:  0.733D-03-0.492D-01-0.385D-01 0.522D+00 0.565D+00
 Coeff:      0.733D-03-0.492D-01-0.385D-01 0.522D+00 0.565D+00
 Gap=     0.152 Goal=   None    Shift=    0.000
 RMSDP=1.11D-07 MaxDP=9.44D-06 DE=-3.83D-09 OVMax= 2.20D-05

 Cycle  16  Pass 1  IDiag  1:
 RMSU=  7.09D-08    CP:  9.90D-01  1.04D+00  1.05D+00  1.04D+00  1.18D+00
 E= -1507.90063235955     Delta-E=       -0.000000001450 Rises=F Damp=F
 DIIS: error= 2.79D-07 at cycle   6 NSaved=   6.
 NSaved= 6 IEnMin= 6 EnMin= -1507.90063235955     IErMin= 6 ErrMin= 2.79D-07
 ErrMax= 2.79D-07  0.00D+00 EMaxC= 1.00D-01 BMatC= 1.40D-10 BMatP= 1.07D-09
 IDIUse=1 WtCom= 1.00D+00 WtEn= 0.00D+00
 Coeff-Com:  0.134D-03-0.634D-02-0.212D-01-0.134D+00 0.641D-01 0.110D+01
 Coeff:      0.134D-03-0.634D-02-0.212D-01-0.134D+00 0.641D-01 0.110D+01
 Gap=     0.152 Goal=   None    Shift=    0.000
 RMSDP=1.04D-07 MaxDP=1.06D-05 DE=-1.45D-09 OVMax= 2.74D-05

 Cycle  17  Pass 1  IDiag  1:
 RMSU=  4.56D-08    CP:  9.90D-01  1.04D+00  1.05D+00  1.05D+00  1.46D+00
                    CP:  1.50D+00
 E= -1507.90063236003     Delta-E=       -0.000000000482 Rises=F Damp=F
 DIIS: error= 1.10D-07 at cycle   7 NSaved=   7.
 NSaved= 7 IEnMin= 7 EnMin= -1507.90063236003     IErMin= 7 ErrMin= 1.10D-07
 ErrMax= 1.10D-07  0.00D+00 EMaxC= 1.00D-01 BMatC= 4.82D-11 BMatP= 1.40D-10
 IDIUse=1 WtCom= 1.00D+00 WtEn= 0.00D+00
 Coeff-Com: -0.768D-04 0.664D-02-0.679D-02-0.176D+00-0.725D-01 0.647D+00
 Coeff-Com:  0.601D+00
 Coeff:     -0.768D-04 0.664D-02-0.679D-02-0.176D+00-0.725D-01 0.647D+00
 Coeff:      0.601D+00
 Gap=     0.152 Goal=   None    Shift=    0.000
 RMSDP=3.17D-08 MaxDP=3.86D-06 DE=-4.82D-10 OVMax= 9.61D-06

 Cycle  18  Pass 1  IDiag  1:
 RMSU=  1.31D-08    CP:  9.90D-01  1.04D+00  1.05D+00  1.05D+00  1.53D+00
                    CP:  1.71D+00  1.25D+00
 E= -1507.90063236010     Delta-E=       -0.000000000069 Rises=F Damp=F
 DIIS: error= 3.03D-08 at cycle   8 NSaved=   8.
 NSaved= 8 IEnMin= 8 EnMin= -1507.90063236010     IErMin= 8 ErrMin= 3.03D-08
 ErrMax= 3.03D-08  0.00D+00 EMaxC= 1.00D-01 BMatC= 2.67D-12 BMatP= 4.82D-11
 IDIUse=1 WtCom= 1.00D+00 WtEn= 0.00D+00
 Coeff-Com: -0.412D-04 0.298D-02-0.622D-03-0.455D-01-0.336D-01 0.940D-01
 Coeff-Com:  0.211D+00 0.771D+00
 Coeff:     -0.412D-04 0.298D-02-0.622D-03-0.455D-01-0.336D-01 0.940D-01
 Coeff:      0.211D+00 0.771D+00
 Gap=     0.152 Goal=   None    Shift=    0.000
 RMSDP=1.07D-08 MaxDP=9.28D-07 DE=-6.87D-11 OVMax= 2.65D-06

 Cycle  19  Pass 1  IDiag  1:
 RMSU=  4.10D-09    CP:  9.90D-01  1.04D+00  1.05D+00  1.05D+00  1.55D+00
                    CP:  1.77D+00  1.39D+00  1.11D+00
 E= -1507.90063236011     Delta-E=       -0.000000000013 Rises=F Damp=F
 DIIS: error= 1.49D-08 at cycle   9 NSaved=   9.
 NSaved= 9 IEnMin= 9 EnMin= -1507.90063236011     IErMin= 9 ErrMin= 1.49D-08
 ErrMax= 1.49D-08  0.00D+00 EMaxC= 1.00D-01 BMatC= 4.31D-13 BMatP= 2.67D-12
 IDIUse=1 WtCom= 1.00D+00 WtEn= 0.00D+00
 Coeff-Com: -0.650D-05 0.296D-03 0.616D-03 0.756D-02-0.297D-02-0.574D-01
 Coeff-Com: -0.125D-02 0.325D+00 0.728D+00
 Coeff:     -0.650D-05 0.296D-03 0.616D-03 0.756D-02-0.297D-02-0.574D-01
 Coeff:     -0.125D-02 0.325D+00 0.728D+00
 Gap=     0.152 Goal=   None    Shift=    0.000
 RMSDP=3.87D-09 MaxDP=5.29D-07 DE=-1.27D-11 OVMax= 9.39D-07

 SCF Done:  E(RM062X) =  -1507.90063236     A.U. after   19 cycles
            NFock= 19  Conv=0.39D-08     -V/T= 2.0037
 KE= 1.502304824333D+03 PE=-8.534972076728D+03 EE= 3.025988842521D+03
 Leave Link  502 at Sat Aug 13 20:43:24 2022, MaxMem=  2684354560 cpu:            8664.9 elap:             542.4
 (Enter /storage/apps/GAUSSIAN/G16_RevA03/g16/l601.exe)
 Copying SCF densities to generalized density rwf, IOpCl= 0 IROHF=0.

 **********************************************************************

            Population analysis using the SCF density.

 **********************************************************************

 Orbital symmetries:
       Occupied  (A) (A) (A) (A) (A) (A) (A) (A) (A) (A) (A) (A)
                 (A) (A) (A) (A) (A) (A) (A) (A) (A) (A) (A) (A)
                 (A) (A) (A) (A) (A) (A) (A) (A) (A) (A) (A) (A)
                 (A) (A) (A) (A) (A) (A) (A) (A) (A) (A) (A) (A)
                 (A) (A) (A) (A) (A) (A) (A) (A) (A) (A) (A) (A)
                 (A) (A) (A) (A) (A) (A) (A) (A) (A) (A) (A) (A)
                 (A) (A) (A) (A) (A) (A) (A) (A) (A) (A) (A) (A)
                 (A) (A) (A) (A) (A) (A) (A) (A) (A) (A) (A)
       Virtual   (A) (A) (A) (A) (A) (A) (A) (A) (A) (A) (A) (A)
                 (A) (A) (A) (A) (A) (A) (A) (A) (A) (A) (A) (A)
                 (A) (A) (A) (A) (A) (A) (A) (A) (A) (A) (A) (A)
                 (A) (A) (A) (A) (A) (A) (A) (A) (A) (A) (A) (A)
                 (A) (A) (A) (A) (A) (A) (A) (A) (A) (A) (A) (A)
                 (A) (A) (A) (A) (A) (A) (A) (A) (A) (A) (A) (A)
                 (A) (A) (A) (A) (A) (A) (A) (A) (A) (A) (A) (A)
                 (A) (A) (A) (A) (A) (A) (A) (A) (A) (A) (A) (A)
                 (A) (A) (A) (A) (A) (A) (A) (A) (A) (A) (A) (A)
                 (A) (A) (A) (A) (A) (A) (A) (A) (A) (A) (A) (A)
                 (A) (A) (A) (A) (A) (A) (A) (A) (A) (A) (A) (A)
                 (A) (A) (A) (A) (A) (A) (A) (A) (A) (A) (A) (A)
                 (A) (A) (A) (A) (A) (A) (A) (A) (A) (A) (A) (A)
                 (A) (A) (A) (A) (A) (A) (A) (A) (A) (A) (A) (A)
                 (A) (A) (A) (A) (A) (A) (A) (A) (A) (A) (A) (A)
                 (A) (A) (A) (A) (A) (A) (A) (A) (A) (A) (A) (A)
                 (A) (A) (A) (A) (A) (A) (A) (A) (A) (A) (A) (A)
                 (A) (A) (A) (A) (A) (A) (A) (A) (A) (A) (A) (A)
                 (A) (A) (A) (A) (A) (A) (A) (A) (A) (A) (A) (A)
                 (A) (A) (A) (A) (A) (A) (A) (A) (A) (A) (A) (A)
                 (A) (A) (A) (A) (A) (A) (A) (A) (A) (A) (A) (A)
                 (A) (A) (A) (A) (A) (A) (A) (A) (A) (A) (A) (A)
                 (A) (A) (A) (A) (A) (A) (A) (A) (A) (A) (A) (A)
                 (A) (A) (A) (A) (A) (A) (A) (A) (A) (A) (A) (A)
                 (A) (A) (A) (A) (A) (A) (A) (A) (A) (A) (A) (A)
                 (A) (A) (A) (A) (A) (A) (A) (A) (A) (A) (A) (A)
                 (A) (A) (A) (A) (A) (A) (A) (A) (A) (A) (A) (A)
                 (A) (A) (A) (A) (A) (A) (A) (A) (A) (A) (A) (A)
                 (A) (A) (A) (A) (A) (A) (A) (A) (A) (A) (A) (A)
                 (A) (A) (A) (A) (A) (A) (A) (A) (A) (A) (A) (A)
                 (A) (A) (A) (A) (A) (A) (A) (A) (A) (A) (A) (A)
                 (A) (A) (A) (A) (A) (A) (A) (A) (A) (A) (A) (A)
                 (A) (A) (A) (A) (A) (A) (A) (A) (A) (A) (A) (A)
                 (A) (A) (A) (A) (A) (A) (A) (A) (A) (A) (A) (A)
                 (A) (A) (A) (A) (A) (A) (A) (A) (A) (A) (A) (A)
                 (A) (A) (A) (A) (A) (A) (A) (A) (A) (A) (A) (A)
                 (A) (A) (A) (A) (A) (A) (A) (A) (A) (A) (A) (A)
                 (A) (A) (A) (A) (A) (A) (A) (A) (A) (A) (A) (A)
                 (A) (A) (A) (A) (A) (A) (A) (A) (A) (A) (A) (A)
                 (A) (A) (A) (A) (A) (A) (A) (A) (A) (A) (A) (A)
                 (A) (A) (A) (A) (A) (A) (A) (A) (A) (A) (A) (A)
                 (A) (A) (A) (A) (A) (A) (A) (A) (A) (A) (A) (A)
                 (A) (A) (A) (A) (A) (A) (A) (A) (A) (A) (A) (A)
                 (A) (A) (A) (A) (A) (A) (A) (A) (A) (A) (A) (A)
                 (A) (A) (A) (A) (A) (A) (A) (A) (A) (A) (A) (A)
                 (A) (A) (A) (A) (A) (A) (A) (A) (A) (A) (A) (A)
                 (A) (A) (A) (A) (A) (A) (A) (A) (A) (A) (A) (A)
                 (A) (A) (A) (A) (A) (A) (A) (A) (A) (A) (A) (A)
                 (A) (A) (A) (A) (A) (A) (A) (A) (A) (A) (A) (A)
                 (A) (A) (A) (A) (A) (A) (A) (A) (A) (A) (A) (A)
                 (A) (A) (A) (A) (A) (A) (A) (A) (A) (A) (A) (A)
                 (A) (A) (A) (A) (A) (A) (A) (A) (A) (A) (A) (A)
                 (A) (A) (A) (A) (A) (A) (A) (A) (A) (A) (A) (A)
                 (A) (A) (A) (A) (A) (A) (A) (A) (A) (A) (A) (A)
                 (A) (A) (A) (A) (A) (A) (A) (A) (A) (A) (A) (A)
                 (A) (A) (A) (A) (A) (A) (A) (A) (A) (A) (A) (A)
                 (A) (A) (A) (A) (A) (A) (A) (A) (A) (A) (A) (A)
                 (A) (A) (A) (A) (A) (A) (A) (A) (A) (A) (A) (A)
                 (A) (A) (A) (A) (A) (A) (A) (A) (A) (A) (A) (A)
                 (A) (A) (A) (A) (A) (A) (A) (A) (A) (A) (A) (A)
                 (A) (A) (A) (A) (A) (A) (A) (A) (A) (A) (A) (A)
                 (A) (A) (A) (A) (A) (A) (A) (A) (A) (A) (A) (A)
                 (A) (A) (A) (A) (A) (A) (A) (A) (A) (A) (A) (A)
                 (A) (A) (A) (A) (A) (A) (A) (A) (A) (A) (A) (A)
                 (A) (A) (A) (A) (A) (A) (A) (A) (A) (A) (A) (A)
                 (A) (A) (A) (A) (A) (A) (A) (A) (A) (A) (A) (A)
                 (A) (A) (A) (A) (A) (A) (A)
 The electronic state is 1-A.
 Alpha  occ. eigenvalues --  -89.87111 -19.66343 -19.63228 -19.61936 -19.60942
 Alpha  occ. eigenvalues --  -19.57412 -14.87401 -14.77794 -10.66411 -10.66114
 Alpha  occ. eigenvalues --  -10.63929 -10.62969 -10.61083 -10.61074 -10.60501
 Alpha  occ. eigenvalues --  -10.60431 -10.59635 -10.59344 -10.59259 -10.55025
 Alpha  occ. eigenvalues --  -10.53885 -10.52581 -10.52540 -10.49638  -8.23020
 Alpha  occ. eigenvalues --   -6.14987  -6.14760  -6.14496  -1.22242  -1.18267
 Alpha  occ. eigenvalues --   -1.17020  -1.15300  -1.13948  -1.11007  -1.03086
 Alpha  occ. eigenvalues --   -0.97460  -0.92872  -0.90565  -0.88439  -0.87664
 Alpha  occ. eigenvalues --   -0.85784  -0.81370  -0.80334  -0.79388  -0.76704
 Alpha  occ. eigenvalues --   -0.73129  -0.72234  -0.69826  -0.69077  -0.67007
 Alpha  occ. eigenvalues --   -0.66248  -0.64026  -0.62819  -0.62029  -0.61028
 Alpha  occ. eigenvalues --   -0.60012  -0.58223  -0.57850  -0.57369  -0.56104
 Alpha  occ. eigenvalues --   -0.55672  -0.54262  -0.52986  -0.52781  -0.52046
 Alpha  occ. eigenvalues --   -0.51760  -0.51166  -0.50284  -0.50129  -0.48730
 Alpha  occ. eigenvalues --   -0.48475  -0.48225  -0.47715  -0.47145  -0.46319
 Alpha  occ. eigenvalues --   -0.45669  -0.45571  -0.44982  -0.44252  -0.43469
 Alpha  occ. eigenvalues --   -0.43316  -0.40878  -0.39783  -0.38913  -0.37910
 Alpha  occ. eigenvalues --   -0.37448  -0.36925  -0.36763  -0.36479  -0.36038
 Alpha  occ. eigenvalues --   -0.34800  -0.34143  -0.29582  -0.28264  -0.21470
 Alpha virt. eigenvalues --   -0.06282  -0.03847   0.03723   0.04716   0.05264
 Alpha virt. eigenvalues --    0.06226   0.07069   0.07295   0.08176   0.08833
 Alpha virt. eigenvalues --    0.09343   0.10061   0.10289   0.10709   0.11341
 Alpha virt. eigenvalues --    0.11488   0.11975   0.12603   0.12855   0.13250
 Alpha virt. eigenvalues --    0.13823   0.14005   0.14336   0.14523   0.15131
 Alpha virt. eigenvalues --    0.15446   0.15623   0.16171   0.16379   0.16745
 Alpha virt. eigenvalues --    0.17607   0.17703   0.18493   0.18960   0.19546
 Alpha virt. eigenvalues --    0.20681   0.21014   0.21375   0.21630   0.22141
 Alpha virt. eigenvalues --    0.22832   0.23148   0.23645   0.23653   0.24126
 Alpha virt. eigenvalues --    0.24741   0.25410   0.25749   0.25835   0.26248
 Alpha virt. eigenvalues --    0.26643   0.27039   0.27838   0.28177   0.28723
 Alpha virt. eigenvalues --    0.29151   0.29479   0.29931   0.30523   0.31535
 Alpha virt. eigenvalues --    0.31683   0.31873   0.32534   0.33026   0.33444
 Alpha virt. eigenvalues --    0.33976   0.34540   0.35077   0.35724   0.36194
 Alpha virt. eigenvalues --    0.36780   0.36966   0.37346   0.37649   0.38178
 Alpha virt. eigenvalues --    0.38754   0.39145   0.39514   0.39716   0.39844
 Alpha virt. eigenvalues --    0.40288   0.40585   0.41169   0.41732   0.42020
 Alpha virt. eigenvalues --    0.42674   0.42952   0.43202   0.43676   0.44165
 Alpha virt. eigenvalues --    0.44270   0.44490   0.45042   0.45330   0.45666
 Alpha virt. eigenvalues --    0.45772   0.46268   0.46540   0.46948   0.47502
 Alpha virt. eigenvalues --    0.47751   0.48118   0.48476   0.48852   0.49196
 Alpha virt. eigenvalues --    0.49464   0.49683   0.49913   0.50624   0.50785
 Alpha virt. eigenvalues --    0.51258   0.51437   0.52092   0.52966   0.53399
 Alpha virt. eigenvalues --    0.53720   0.54041   0.54183   0.54852   0.55182
 Alpha virt. eigenvalues --    0.55504   0.55878   0.55988   0.56563   0.57624
 Alpha virt. eigenvalues --    0.58162   0.58721   0.59316   0.59812   0.60043
 Alpha virt. eigenvalues --    0.60680   0.61356   0.61685   0.61836   0.62988
 Alpha virt. eigenvalues --    0.63389   0.63611   0.64468   0.64984   0.65471
 Alpha virt. eigenvalues --    0.65916   0.66057   0.67006   0.67241   0.67493
 Alpha virt. eigenvalues --    0.67903   0.68413   0.68876   0.69344   0.70848
 Alpha virt. eigenvalues --    0.71584   0.71874   0.72612   0.73060   0.73670
 Alpha virt. eigenvalues --    0.74116   0.74513   0.75185   0.75898   0.77162
 Alpha virt. eigenvalues --    0.77703   0.78470   0.79512   0.80091   0.81202
 Alpha virt. eigenvalues --    0.81986   0.82220   0.82344   0.83018   0.83923
 Alpha virt. eigenvalues --    0.84756   0.86002   0.86633   0.87259   0.87591
 Alpha virt. eigenvalues --    0.87785   0.88855   0.89535   0.89727   0.90156
 Alpha virt. eigenvalues --    0.90607   0.91350   0.92008   0.92431   0.93012
 Alpha virt. eigenvalues --    0.93485   0.94630   0.95068   0.95446   0.95846
 Alpha virt. eigenvalues --    0.96643   0.97561   0.98252   0.98936   0.99724
 Alpha virt. eigenvalues --    0.99990   1.01156   1.01768   1.01975   1.02782
 Alpha virt. eigenvalues --    1.03378   1.03550   1.04304   1.05643   1.06487
 Alpha virt. eigenvalues --    1.07180   1.07971   1.08666   1.08960   1.09453
 Alpha virt. eigenvalues --    1.09993   1.10887   1.11973   1.12351   1.12975
 Alpha virt. eigenvalues --    1.14107   1.15029   1.16107   1.16739   1.17437
 Alpha virt. eigenvalues --    1.17887   1.18355   1.18750   1.19197   1.19963
 Alpha virt. eigenvalues --    1.21257   1.21753   1.22668   1.23617   1.24059
 Alpha virt. eigenvalues --    1.24527   1.25971   1.26178   1.27217   1.28095
 Alpha virt. eigenvalues --    1.28547   1.29065   1.29267   1.29888   1.31430
 Alpha virt. eigenvalues --    1.31833   1.32581   1.33501   1.34107   1.34548
 Alpha virt. eigenvalues --    1.35546   1.36167   1.37805   1.39189   1.39892
 Alpha virt. eigenvalues --    1.40431   1.41235   1.42619   1.42758   1.43951
 Alpha virt. eigenvalues --    1.45006   1.45349   1.46021   1.47592   1.50270
 Alpha virt. eigenvalues --    1.50976   1.52196   1.52941   1.53162   1.53276
 Alpha virt. eigenvalues --    1.54035   1.54480   1.54745   1.55297   1.55997
 Alpha virt. eigenvalues --    1.56655   1.56970   1.57188   1.58014   1.58849
 Alpha virt. eigenvalues --    1.59502   1.59603   1.60157   1.60675   1.61171
 Alpha virt. eigenvalues --    1.61312   1.61626   1.62498   1.62908   1.63301
 Alpha virt. eigenvalues --    1.63423   1.64185   1.64539   1.64754   1.65520
 Alpha virt. eigenvalues --    1.66018   1.67221   1.67471   1.68323   1.68670
 Alpha virt. eigenvalues --    1.69576   1.70090   1.70499   1.71281   1.71538
 Alpha virt. eigenvalues --    1.72051   1.72645   1.73111   1.74320   1.75022
 Alpha virt. eigenvalues --    1.75841   1.76627   1.77260   1.78091   1.78126
 Alpha virt. eigenvalues --    1.78512   1.79100   1.80114   1.80712   1.80939
 Alpha virt. eigenvalues --    1.82771   1.83291   1.84059   1.84281   1.84879
 Alpha virt. eigenvalues --    1.86284   1.86637   1.87103   1.88218   1.89122
 Alpha virt. eigenvalues --    1.89386   1.89497   1.90282   1.91399   1.91630
 Alpha virt. eigenvalues --    1.92680   1.93187   1.94345   1.94437   1.94534
 Alpha virt. eigenvalues --    1.95025   1.96518   1.96972   1.98032   1.98063
 Alpha virt. eigenvalues --    1.99369   2.00222   2.00469   2.01463   2.02738
 Alpha virt. eigenvalues --    2.03198   2.03682   2.03984   2.04589   2.04872
 Alpha virt. eigenvalues --    2.06031   2.06587   2.07510   2.08983   2.09616
 Alpha virt. eigenvalues --    2.10313   2.10959   2.11551   2.12593   2.13622
 Alpha virt. eigenvalues --    2.13987   2.14712   2.16670   2.16888   2.17435
 Alpha virt. eigenvalues --    2.17926   2.18746   2.19105   2.19952   2.20434
 Alpha virt. eigenvalues --    2.21220   2.21632   2.22736   2.22947   2.23376
 Alpha virt. eigenvalues --    2.23642   2.24432   2.25308   2.26458   2.26979
 Alpha virt. eigenvalues --    2.27904   2.28267   2.29121   2.29936   2.30262
 Alpha virt. eigenvalues --    2.31071   2.32094   2.33075   2.33958   2.34624
 Alpha virt. eigenvalues --    2.35033   2.35459   2.36235   2.36399   2.36947
 Alpha virt. eigenvalues --    2.37694   2.38100   2.38815   2.39024   2.39735
 Alpha virt. eigenvalues --    2.40477   2.41709   2.42396   2.42696   2.43789
 Alpha virt. eigenvalues --    2.45207   2.45682   2.45961   2.46478   2.47289
 Alpha virt. eigenvalues --    2.48144   2.50034   2.50698   2.51712   2.51970
 Alpha virt. eigenvalues --    2.54024   2.54135   2.54554   2.55625   2.56151
 Alpha virt. eigenvalues --    2.56824   2.57601   2.57908   2.58224   2.58521
 Alpha virt. eigenvalues --    2.59914   2.60186   2.60426   2.61380   2.61601
 Alpha virt. eigenvalues --    2.62105   2.63490   2.63999   2.64207   2.65611
 Alpha virt. eigenvalues --    2.66219   2.66560   2.67157   2.67581   2.68500
 Alpha virt. eigenvalues --    2.69393   2.69700   2.70100   2.70462   2.71120
 Alpha virt. eigenvalues --    2.72068   2.72302   2.73082   2.74155   2.74613
 Alpha virt. eigenvalues --    2.74959   2.76331   2.77067   2.77195   2.78648
 Alpha virt. eigenvalues --    2.79353   2.79691   2.80626   2.80947   2.81980
 Alpha virt. eigenvalues --    2.82361   2.82949   2.83812   2.84171   2.84550
 Alpha virt. eigenvalues --    2.85437   2.86332   2.86691   2.87415   2.87902
 Alpha virt. eigenvalues --    2.88717   2.89854   2.90361   2.90544   2.91676
 Alpha virt. eigenvalues --    2.92784   2.93832   2.94237   2.95198   2.95686
 Alpha virt. eigenvalues --    2.97180   2.97722   2.98616   2.99359   2.99554
 Alpha virt. eigenvalues --    3.00568   3.01600   3.02133   3.02993   3.03317
 Alpha virt. eigenvalues --    3.04005   3.04612   3.05599   3.05873   3.06752
 Alpha virt. eigenvalues --    3.08451   3.08504   3.08851   3.09860   3.10084
 Alpha virt. eigenvalues --    3.10403   3.10803   3.11508   3.12516   3.13049
 Alpha virt. eigenvalues --    3.13584   3.14250   3.14425   3.15007   3.15881
 Alpha virt. eigenvalues --    3.16226   3.16578   3.17328   3.17793   3.18506
 Alpha virt. eigenvalues --    3.19805   3.20150   3.20661   3.20965   3.21331
 Alpha virt. eigenvalues --    3.21880   3.22674   3.23647   3.24178   3.25144
 Alpha virt. eigenvalues --    3.25732   3.26777   3.26954   3.27561   3.28495
 Alpha virt. eigenvalues --    3.29116   3.30109   3.30516   3.30712   3.31574
 Alpha virt. eigenvalues --    3.32098   3.32821   3.33053   3.33818   3.34541
 Alpha virt. eigenvalues --    3.35183   3.35690   3.36181   3.36467   3.37038
 Alpha virt. eigenvalues --    3.38490   3.38917   3.39476   3.40080   3.40667
 Alpha virt. eigenvalues --    3.41135   3.41739   3.41920   3.43041   3.43457
 Alpha virt. eigenvalues --    3.44248   3.44670   3.45023   3.45567   3.45860
 Alpha virt. eigenvalues --    3.46602   3.47576   3.48565   3.48846   3.49991
 Alpha virt. eigenvalues --    3.50190   3.51416   3.53021   3.53153   3.54226
 Alpha virt. eigenvalues --    3.54454   3.55580   3.56117   3.56388   3.57044
 Alpha virt. eigenvalues --    3.57797   3.58216   3.59350   3.59929   3.60170
 Alpha virt. eigenvalues --    3.60786   3.61596   3.62512   3.63828   3.64459
 Alpha virt. eigenvalues --    3.66261   3.66825   3.67637   3.68660   3.69918
 Alpha virt. eigenvalues --    3.70782   3.71227   3.72994   3.73741   3.74514
 Alpha virt. eigenvalues --    3.76103   3.76503   3.77847   3.78966   3.79576
 Alpha virt. eigenvalues --    3.80497   3.80929   3.82240   3.82965   3.85592
 Alpha virt. eigenvalues --    3.86031   3.86886   3.88090   3.88569   3.89506
 Alpha virt. eigenvalues --    3.91592   3.92130   3.93437   3.94303   3.94823
 Alpha virt. eigenvalues --    3.96915   3.97549   3.97888   3.98263   3.99593
 Alpha virt. eigenvalues --    4.00807   4.01384   4.04415   4.06136   4.07349
 Alpha virt. eigenvalues --    4.09055   4.09529   4.11458   4.12913   4.13633
 Alpha virt. eigenvalues --    4.14194   4.15757   4.16795   4.17947   4.19511
 Alpha virt. eigenvalues --    4.20098   4.20521   4.21419   4.23475   4.25417
 Alpha virt. eigenvalues --    4.26711   4.27232   4.28193   4.29600   4.31102
 Alpha virt. eigenvalues --    4.31926   4.33033   4.35071   4.36337   4.37204
 Alpha virt. eigenvalues --    4.39377   4.39989   4.41206   4.43023   4.43917
 Alpha virt. eigenvalues --    4.44925   4.46167   4.46427   4.47788   4.49970
 Alpha virt. eigenvalues --    4.50747   4.51996   4.55386   4.57208   4.57368
 Alpha virt. eigenvalues --    4.59622   4.61119   4.63215   4.64916   4.67354
 Alpha virt. eigenvalues --    4.67934   4.72938   4.73718   4.75591   4.75739
 Alpha virt. eigenvalues --    4.78026   4.80332   4.80817   4.83115   4.83603
 Alpha virt. eigenvalues --    4.85311   4.87006   4.88956   4.90347   4.91202
 Alpha virt. eigenvalues --    4.92521   4.93367   4.95140   4.97714   4.98152
 Alpha virt. eigenvalues --    4.99887   5.03011   5.04679   5.05368   5.07012
 Alpha virt. eigenvalues --    5.09080   5.13214   5.15864   5.19250   5.20695
 Alpha virt. eigenvalues --    5.21696   5.25325   5.26460   5.27147   5.27865
 Alpha virt. eigenvalues --    5.30663   5.31535   5.32074   5.35051   5.38034
 Alpha virt. eigenvalues --    5.39742   5.42443   5.43294   5.45522   5.47341
 Alpha virt. eigenvalues --    5.48839   5.49416   5.50967   5.53320   5.58111
 Alpha virt. eigenvalues --    5.64388   5.67261   5.72638   5.74659   5.77801
 Alpha virt. eigenvalues --    5.80008   5.81068   5.83505   5.84356   5.86829
 Alpha virt. eigenvalues --    5.89360   5.90625   5.91907   5.94170   5.95747
 Alpha virt. eigenvalues --    5.97439   6.03726   6.06112   6.15285   6.17294
 Alpha virt. eigenvalues --    6.20263   6.22828   6.25998   6.26906   6.38387
 Alpha virt. eigenvalues --    6.41766   6.44098   6.47864   6.48993   6.55157
 Alpha virt. eigenvalues --    6.59253   6.67114   6.73134   6.75204   6.76279
 Alpha virt. eigenvalues --    6.77978   6.80684   6.84046   6.85204   6.87025
 Alpha virt. eigenvalues --    6.88963   6.95486   6.99909   7.07587   7.09096
 Alpha virt. eigenvalues --    7.09621   7.12226   7.16872   7.19436   7.21923
 Alpha virt. eigenvalues --    7.32336   7.40156   9.06354   9.42643   9.59113
 Alpha virt. eigenvalues --   19.83466  22.36308  22.46876  22.49634  22.60528
 Alpha virt. eigenvalues --   22.65010  22.71369  22.74959  22.76727  22.82236
 Alpha virt. eigenvalues --   22.86643  22.95486  22.97500  23.07446  23.18232
 Alpha virt. eigenvalues --   23.29320  23.52222  32.19073  33.16992  44.14206
 Alpha virt. eigenvalues --   44.22686  44.26067  44.35468  44.51547
          Condensed to atoms (all electrons):
               1          2          3          4          5          6
     1  C    5.146900   0.428963   0.412880   0.007377  -0.006690  -0.000253
     2  H    0.428963   0.496432  -0.013928  -0.002298   0.000468  -0.000005
     3  H    0.412880  -0.013928   0.505885  -0.000719   0.000206  -0.000009
     4  C    0.007377  -0.002298  -0.000719   5.598966   0.542804   0.230602
     5  H   -0.006690   0.000468   0.000206   0.542804   0.527428  -0.035220
     6  O   -0.000253  -0.000005  -0.000009   0.230602  -0.035220   8.169391
     7  H    0.000002  -0.000003  -0.000003  -0.056233  -0.006907   0.308586
     8  C   -0.006828   0.010996  -0.000873  -0.052681  -0.106438  -0.061389
     9  H    0.006909  -0.000298  -0.002022  -0.074504   0.002094   0.001287
    10  O    0.005248  -0.000190  -0.000016   0.050568   0.005629  -0.022214
[...]
 Dipole        =-5.69543252D-01-2.55473748D+00-8.34202323D-01
 ***** Axes restored to original set *****
 -------------------------------------------------------------------
 Center     Atomic                   Forces (Hartrees/Bohr)
 Number     Number              X              Y              Z
 -------------------------------------------------------------------
      1        6          -0.000068713   -0.000015156    0.000077524
      2        1          -0.000008549    0.000017375    0.000000616
      3        1          -0.000006132   -0.000013131   -0.000004550
      4        6          -0.000308315    0.000137183    0.000148465
      5        1          -0.000060344    0.000008228    0.000001628
      6        8          -0.000733197    0.000355871   -0.000190878
      7        1          -0.000059874    0.000018523   -0.000036434
      8        6          -0.000324749    0.000035930    0.000211113
      9        1          -0.000031584    0.000007445    0.000032736
     10        8          -0.000418186    0.000161026    0.000056879
     11        1          -0.000037019    0.000007896    0.000020989
     12        6           0.000112553    0.000068600    0.000224143
     13        1           0.000019896    0.000016032   -0.000013484
     14        6          -0.000194603   -0.000002272    0.000248048
     15        1          -0.000012282    0.000002840    0.000023857
     16        8          -0.000139275   -0.000010642    0.000189936
     17        7           0.000098733   -0.000045829    0.000082019
     18        6           0.000841653    0.000095240   -0.000326803
     19        1          -0.000002000    0.000003117    0.000070422
     20        6           0.001991324    0.000268487   -0.002428369
     21        1           0.000185773    0.000026541   -0.000212799
     22        6           0.003532505    0.000292065   -0.003914035
     23        1           0.000114507    0.000044318   -0.000328194
     24        1          -0.000422495   -0.000323773    0.000593350
     25        6           0.000549805   -0.000167819   -0.000639440
     26        6          -0.000215092   -0.000156721    0.001090125
     27        1          -0.000106274   -0.000030404    0.000239313
     28        6          -0.000098753   -0.000163700    0.000051284
     29        8           0.000234625   -0.000537681   -0.000150186
     30        7          -0.000369965   -0.000328003    0.000663117
     31        1           0.000005038   -0.000003605    0.000069916
     32        1          -0.000026049    0.000022494    0.000216412
     33        1          -0.000040474   -0.000013697    0.000018393
     34        6          -0.000113806   -0.000019497    0.000225194
     35        6          -0.000161226   -0.000093527   -0.000464629
     36        6          -0.000127596   -0.000721811    0.000050689
     37        6          -0.002548576    0.001691275    0.003109690
     38        6          -0.001843051   -0.001702540    0.001512117
     39        8           0.001253110    0.000179019   -0.001493238
     40       16           0.000595814    0.000443284   -0.000433633
     41        1          -0.000019528   -0.000016226    0.000010529
     42        1           0.000002600    0.000000080    0.000036777
     43        1          -0.000076635    0.000673228    0.000213373
     44        1           0.000002399   -0.000022333   -0.000092755
     45        1          -0.000466494    0.000034164    0.000641164
     46        1          -0.000418516   -0.000108482    0.000520477
     47        1          -0.000064496   -0.000100333    0.000094619
     48        1          -0.000016487   -0.000013078   -0.000015485
 -------------------------------------------------------------------
 Cartesian Forces:  Max     0.003914035 RMS     0.000739837
 Leave Link  716 at Sat Aug 13 20:46:44 2022, MaxMem=  2684354560 cpu:               0.8 elap:               0.1
 (Enter /storage/apps/GAUSSIAN/G16_RevA03/g16/l103.exe)

 GradGradGradGradGradGradGradGradGradGradGradGradGradGradGradGradGradGrad
 Berny optimization.
 Search for a local minimum.
 Step number   1 out of a maximum of    2
 All quantities printed in internal units (Hartrees-Bohrs-Radians)
 Second derivative matrix not updated -- first step.
 ITU=  0
     Eigenvalues ---    0.00025   0.00091   0.00108   0.00128   0.00186
     Eigenvalues ---    0.00220   0.00329   0.00371   0.00451   0.00498
     Eigenvalues ---    0.00609   0.00623   0.00807   0.00926   0.00960
     Eigenvalues ---    0.00977   0.01116   0.01169   0.01375   0.01509
     Eigenvalues ---    0.01720   0.02151   0.02360   0.02438   0.02673
     Eigenvalues ---    0.03049   0.03128   0.03312   0.03736   0.04277
     Eigenvalues ---    0.04402   0.04605   0.04830   0.05016   0.05260
     Eigenvalues ---    0.05332   0.05569   0.05741   0.05827   0.05977
     Eigenvalues ---    0.06168   0.06300   0.06474   0.06879   0.07029
     Eigenvalues ---    0.07053   0.07134   0.07660   0.08055   0.08329
     Eigenvalues ---    0.08588   0.08763   0.09310   0.09397   0.10191
     Eigenvalues ---    0.10781   0.10853   0.11195   0.12278   0.12569
     Eigenvalues ---    0.12824   0.13085   0.13239   0.13296   0.13726
     Eigenvalues ---    0.13852   0.14048   0.15457   0.16105   0.16537
     Eigenvalues ---    0.17408   0.18142   0.18691   0.19307   0.19836
     Eigenvalues ---    0.20310   0.20698   0.21302   0.21934   0.22500
     Eigenvalues ---    0.25143   0.26250   0.27153   0.27955   0.30613
     Eigenvalues ---    0.33135   0.33495   0.33846   0.34794   0.37689
     Eigenvalues ---    0.37883   0.37883   0.37883   0.37883   0.40280
     Eigenvalues ---    0.43661   0.48161   0.48752   0.57093   0.59609
     Eigenvalues ---    0.59957   0.61773   0.69602   0.72327   0.73586
     Eigenvalues ---    0.79315   0.80533   0.82762   0.87484   0.90890
     Eigenvalues ---    0.91289   0.92240   0.93199   0.93510   0.95471
     Eigenvalues ---    0.96459   0.99999   1.01061   1.02313   1.04116
     Eigenvalues ---    1.05939   1.08537   1.11588   1.12549   1.13033
     Eigenvalues ---    1.20583   1.20883   1.27392   1.27548   1.30183
     Eigenvalues ---    1.32614   1.37025   1.43887   1.54740   1.72746
     Eigenvalues ---    1.82494   1.90415   2.34910
 Quadratic step=8.136D+00 exceeds max=3.000D-01 adjusted using Lamda=-1.049D-02.
 Angle between NR and scaled steps=  44.23 degrees.
 Angle between quadratic step and forces=  54.68 degrees.
 Linear search not attempted -- first point.
 Variable       Old X    -DE/DX   Delta X   Delta X   Delta X     New X
                                 (Linear)    (Quad)   (Total)
    X1        6.80122  -0.00007   0.00000  -0.02368  -0.02368   6.77755
    Y1       -6.83271  -0.00002   0.00000  -0.01333  -0.01333  -6.84604
    Z1       -0.83964   0.00008   0.00000   0.01055   0.01055  -0.82909
    X2        7.08528  -0.00001   0.00000  -0.02754  -0.02754   7.05773
    Y2       -7.01301   0.00002   0.00000  -0.01696  -0.01696  -7.02997
    Z2       -2.87041   0.00000   0.00000   0.00984   0.00984  -2.86058
    X3        8.19189  -0.00001   0.00000  -0.01880  -0.01880   8.17309
    Y3       -8.00650  -0.00001   0.00000  -0.01119  -0.01119  -8.01769
    Z3        0.12623  -0.00000   0.00000   0.00674   0.00674   0.13297
    X4        3.51906  -0.00031   0.00000  -0.00675  -0.00675   3.51231
    Y4       -2.71815   0.00014   0.00000   0.01185   0.01185  -2.70629
    Z4        2.34633   0.00015   0.00000   0.01424   0.01424   2.36057
    X5        2.29446  -0.00006   0.00000  -0.01012  -0.01012   2.28434
    Y5       -4.36824   0.00001   0.00000   0.01353   0.01353  -4.35471
    Z5        2.05662   0.00000   0.00000   0.02112   0.02112   2.07774
    X6        2.77009  -0.00073   0.00000  -0.00013  -0.00013   2.76997
    Y6       -1.28459   0.00036   0.00000   0.02651   0.02651  -1.25809
    Z6        4.39524  -0.00019   0.00000   0.00683   0.00683   4.40207
    X7        0.99507  -0.00006   0.00000   0.00328   0.00328   0.99835
    Y7       -0.70562   0.00002   0.00000   0.03205   0.03205  -0.67357
    Z7        4.09703  -0.00004   0.00000   0.00091   0.00091   4.09794
    X8        6.26841  -0.00032   0.00000  -0.00709  -0.00709   6.26132
    Y8       -3.56091   0.00004   0.00000   0.00516   0.00516  -3.55575
    Z8        2.65982   0.00021   0.00000   0.00485   0.00485   2.66467
    X9        6.42692  -0.00003   0.00000  -0.00067  -0.00067   6.42625
    Y9       -5.23539   0.00001   0.00000   0.01097   0.01097  -5.22442
    Z9        3.86279   0.00003   0.00000   0.01180   0.01180   3.87459
   X10        7.70856  -0.00042   0.00000   0.00257   0.00257   7.71114
   Y10       -1.54448   0.00016   0.00000   0.00890   0.00890  -1.53558
   Z10        3.61704   0.00006   0.00000  -0.01829  -0.01829   3.59875
   X11        6.67602  -0.00004   0.00000   0.01502   0.01502   6.69103
   Y11       -0.71679   0.00001   0.00000   0.01827   0.01827  -0.69852
   Z11        4.87917   0.00002   0.00000  -0.01487  -0.01487   4.86430
   X12        3.73043   0.00011   0.00000  -0.00779  -0.00779   3.72265
   Y12       -1.24618   0.00007   0.00000   0.00067   0.00067  -1.24552
   Z12       -0.15221   0.00022   0.00000   0.00971   0.00971  -0.14250
   X13        4.26994   0.00002   0.00000   0.00414   0.00414   4.27408
   Y13        0.71139   0.00002   0.00000   0.00010   0.00010   0.71149
   Z13        0.22489  -0.00001   0.00000  -0.00396  -0.00396   0.22093
   X14        7.09280  -0.00019   0.00000  -0.01972  -0.01972   7.07309
   Y14       -4.09918  -0.00000   0.00000  -0.01119  -0.01119  -4.11036
   Z14       -0.04625   0.00025   0.00000   0.00355   0.00355  -0.04270
   X15        9.03468  -0.00001   0.00000  -0.01897  -0.01897   9.01570
   Y15       -3.46033   0.00000   0.00000  -0.01560  -0.01560  -3.47594
   Z15       -0.30421   0.00002   0.00000  -0.00890  -0.00890  -0.31312
   X16        5.50486  -0.00014   0.00000  -0.02292  -0.02292   5.48193
   Y16       -2.52558  -0.00001   0.00000  -0.01399  -0.01399  -2.53957
   Z16       -1.61763   0.00019   0.00000   0.00577   0.00577  -1.61185
   X17        1.36077   0.00010   0.00000  -0.00546  -0.00546   1.35530
   Y17       -1.13597  -0.00005   0.00000  -0.00102  -0.00102  -1.13699
   Z17       -1.62478   0.00008   0.00000   0.01098   0.01098  -1.61379
   X18        0.37348   0.00084   0.00000   0.01741   0.01741   0.39089
   Y18       -3.33482   0.00010   0.00000  -0.00013  -0.00013  -3.33495
   Z18       -2.51293  -0.00033   0.00000  -0.01492  -0.01492  -2.52785
   X19        1.44551  -0.00000   0.00000   0.01302   0.01302   1.45853
   Y19       -5.01943   0.00000   0.00000   0.00075   0.00075  -5.01868
   Z19       -2.10584   0.00007   0.00000   0.00004   0.00004  -2.10580
   X20       -1.78862   0.00199   0.00000   0.04883   0.04883  -1.73980
   Y20       -3.31801   0.00027   0.00000   0.00137   0.00137  -3.31665
   Z20       -3.90633  -0.00243   0.00000  -0.06263  -0.06263  -3.96895
   X21       -2.53865   0.00019   0.00000   0.05646   0.05646  -2.48219
   Y21       -5.07965   0.00003   0.00000   0.00159   0.00159  -5.07806
   Z21       -4.61318  -0.00021   0.00000  -0.07050  -0.07050  -4.68368
   X22       -3.00287   0.00353   0.00000   0.05374   0.05374  -2.94913
   Y22       -1.02273   0.00029   0.00000   0.00064   0.00064  -1.02209
   Z22       -4.40910  -0.00391   0.00000  -0.07432  -0.07432  -4.48342
   X23       -4.59591   0.00011   0.00000   0.06514   0.06514  -4.53077
   Y23       -0.97365   0.00004   0.00000   0.00410   0.00410  -0.96955
   Z23       -5.68858  -0.00033   0.00000  -0.08826  -0.08826  -5.77684
   X24       -5.41923  -0.00042   0.00000  -0.01733  -0.01733  -5.43656
   Y24       -1.31495  -0.00032   0.00000  -0.04547  -0.04547  -1.36042
   Z24       -1.86521   0.00059   0.00000   0.03920   0.03920  -1.82601
   X25       -1.93377   0.00055   0.00000   0.00859   0.00859  -1.92518
   Y25        1.22053  -0.00017   0.00000  -0.00419  -0.00419   1.21635
   Z25       -3.51017  -0.00064   0.00000  -0.01152  -0.01152  -3.52169
   X26        0.26797  -0.00022   0.00000  -0.01194  -0.01194   0.25603
   Y26        1.07634  -0.00016   0.00000  -0.00305  -0.00305   1.07329
   Z26       -2.11725   0.00109   0.00000   0.02057   0.02057  -2.09668
   X27        1.14960  -0.00011   0.00000  -0.02522  -0.02522   1.12438
   Y27        2.77338  -0.00003   0.00000  -0.00471  -0.00471   2.76867
   Z27       -1.38962   0.00024   0.00000   0.04113   0.04113  -1.34849
   X28       -2.90397  -0.00010   0.00000  -0.01607  -0.01607  -2.92003
   Y28        3.81334  -0.00016   0.00000  -0.00629  -0.00629   3.80705
   Z28       -4.08994   0.00005   0.00000   0.02611   0.02611  -4.06383
   X29       -1.57116   0.00023   0.00000  -0.02213  -0.02213  -1.59329
   Y29        5.65464  -0.00054   0.00000  -0.00313  -0.00313   5.65151
   Z29       -3.86330  -0.00015   0.00000   0.03067   0.03067  -3.83263
   X30       -5.30486  -0.00037   0.00000  -0.02466  -0.02466  -5.32952
   Y30        3.90605  -0.00033   0.00000  -0.00641  -0.00641   3.89964
   Z30       -5.04756   0.00066   0.00000   0.04818   0.04818  -4.99937
   X31       -6.01304   0.00001   0.00000  -0.02255  -0.02255  -6.03559
   Y31        5.66908  -0.00000   0.00000  -0.00563  -0.00563   5.66345
   Z31       -5.20785   0.00007   0.00000   0.04746   0.04746  -5.16039
   X32       -6.54519  -0.00003   0.00000  -0.01976  -0.01976  -6.56495
   Y32        2.57863   0.00002   0.00000  -0.00902  -0.00902   2.56960
   Z32       -4.46994   0.00022   0.00000   0.04928   0.04928  -4.42066
   X33        4.92250  -0.00004   0.00000  -0.02160  -0.02160   4.90089
   Y33       -7.54919  -0.00001   0.00000  -0.01302  -0.01302  -7.56221
   Z33       -0.37040   0.00002   0.00000   0.01663   0.01663  -0.35378
   X34        0.38212  -0.00011   0.00000  -0.00668  -0.00668   0.37544
   Y34        4.15765  -0.00002   0.00000   0.00716   0.00716   4.16481
   Z34        5.37643   0.00023   0.00000   0.00771   0.00771   5.38414
   X35       -3.13923  -0.00016   0.00000   0.02698   0.02698  -3.11225
   Y35        1.69691  -0.00009   0.00000  -0.00278  -0.00278   1.69413
   Z35        2.33842  -0.00046   0.00000  -0.02423  -0.02423   2.31419
   X36       -5.30690  -0.00013   0.00000   0.00795   0.00795  -5.29895
   Y36        1.62585  -0.00072   0.00000  -0.01970  -0.01970   1.60614
   Z36        0.88744   0.00005   0.00000   0.00272   0.00272   0.89016
   X37       -9.17641  -0.00255   0.00000  -0.01499  -0.01499  -9.19140
   Y37       -0.74921   0.00169   0.00000   0.01726   0.01726  -0.73195
   Z37       -0.69085   0.00311   0.00000   0.01409   0.01409  -0.67676
   X38       -6.36562  -0.00184   0.00000  -0.01848  -0.01848  -6.38410
   Y38       -0.76188  -0.00170   0.00000  -0.02259  -0.02259  -0.78448
   Z38       -0.07304   0.00151   0.00000   0.03418   0.03418  -0.03886
   X39       -1.74244   0.00125   0.00000   0.05765   0.05765  -1.68478
   Y39       -0.15670   0.00018   0.00000   0.01137   0.01137  -0.14533
   Z39        2.89433  -0.00149   0.00000  -0.05334  -0.05334   2.84099
   X40       -2.29563   0.00060   0.00000   0.01578   0.01578  -2.27984
   Y40        4.83114   0.00044   0.00000   0.00357   0.00357   4.83471
   Z40        3.39578  -0.00043   0.00000  -0.02325  -0.02325   3.37253
   X41        0.83746  -0.00002   0.00000  -0.01906  -0.01906   0.81840
   Y41        5.91475  -0.00002   0.00000   0.00816   0.00816   5.92291
   Z41        6.34366   0.00001   0.00000   0.01095   0.01095   6.35462
   X42        2.01261   0.00000   0.00000   0.00532   0.00532   2.01793
   Y42        3.54766   0.00000   0.00000   0.00768   0.00768   3.55534
   Z42        4.28440   0.00004   0.00000   0.02497   0.02497   4.30937
   X43      -10.33104  -0.00008   0.00000  -0.03468  -0.03468 -10.36572
   Y43       -0.72448   0.00067   0.00000   0.06307   0.06307  -0.66142
   Z43        1.01528   0.00021   0.00000  -0.00450  -0.00450   1.01077
   X44       -9.69186   0.00000   0.00000   0.03330   0.03330  -9.65857
   Y44        0.92433  -0.00002   0.00000   0.00235   0.00235   0.92668
   Z44       -1.79000  -0.00009   0.00000  -0.03269  -0.03269  -1.82269
   X45       -9.69850  -0.00047   0.00000  -0.01888  -0.01888  -9.71737
   Y45       -2.41242   0.00003   0.00000   0.00825   0.00825  -2.40417
   Z45       -1.79341   0.00064   0.00000   0.02688   0.02688  -1.76653
   X46       -5.87139  -0.00042   0.00000  -0.03371  -0.03371  -5.90511
   Y46       -2.32514  -0.00011   0.00000  -0.01942  -0.01942  -2.34455
   Z46        1.18700   0.00052   0.00000   0.04249   0.04249   1.22949
   X47       -6.32815  -0.00006   0.00000   0.01471   0.01471  -6.31345
   Y47        3.37685  -0.00010   0.00000  -0.01878  -0.01878   3.35807
   Z47        0.58965   0.00009   0.00000  -0.01416  -0.01416   0.57549
   X48       -0.08875  -0.00002   0.00000  -0.02169  -0.02169  -0.11044
   Y48        2.71711  -0.00001   0.00000   0.00631   0.00631   2.72341
   Z48        6.76584  -0.00002   0.00000   0.00142   0.00142   6.76726
         Item               Value     Threshold  Converged?
 Maximum Force            0.003914     0.000450     NO 
 RMS     Force            0.000740     0.000300     NO 
 Maximum Displacement     0.088261     0.001800     NO 
 RMS     Displacement     0.025019     0.001200     NO 
 Predicted change in Energy=-1.243098D-03
 GradGradGradGradGradGradGradGradGradGradGradGradGradGradGradGradGradGrad

 Leave Link  103 at Sat Aug 13 20:46:44 2022, MaxMem=  2684354560 cpu:               1.3 elap:               0.1
 (Enter /storage/apps/GAUSSIAN/G16_RevA03/g16/l9999.exe)

 Test job not archived.
 1\1\GINC-T065\Force\RM062X\def2TZVP\C16H24N2O5S1\LV87696\13-Aug-2022\0
 \\#P M062X/Def2TZVP scf=(direct,conver=8) EmpiricalDispersion=GD3 Forc
 e Charge Prop=(Field,Read)\\Gaussian run\\0,1\C,3.599052,-3.615715,-0.
 444319\H,3.749367,-3.711123,-1.518958\H,4.334962,-4.236859,0.066796\C,
 1.862205,-1.438381,1.241624\H,1.214177,-2.311575,1.088317\O,1.46587,-0
 .679778,2.325862\H,0.526569,-0.373398,2.168056\C,3.3171,-1.884355,1.40
 7518\H,3.400978,-2.770451,2.044099\O,4.079196,-0.817305,1.914057\H,3.5
 32796,-0.379308,2.581946\C,1.974061,-0.659452,-0.080548\H,2.259553,0.3
 7645,0.119006\C,3.75335,-2.16919,-0.024472\H,4.780946,-1.83113,-0.1609
 83\O,2.913044,-1.33648,-0.856011\N,0.720087,-0.601129,-0.859795\C,0.19
 7637,-1.764711,-1.329787\H,0.764933,-2.656166,-1.114364\C,-0.946498,-1
 .755816,-2.067139\H,-1.343395,-2.688036,-2.441188\C,-1.589053,-0.54120
 8,-2.333196\H,-2.43205,-0.515233,-3.010266\H,-2.867732,-0.695841,-0.98
 7028\C,-1.023308,0.645879,-1.857502\C,0.141802,0.569574,-1.120402\H,0.
 608343,1.467607,-0.735353\C,-1.536713,2.017932,-2.164301\O,-0.831424,2
 .992305,-2.044369\N,-2.807211,2.066991,-2.671053\H,-3.181964,2.999949,
 -2.755875\H,-3.463563,1.364551,-2.365393\H,2.604873,-3.994861,-0.19600
 9\C,0.20221,2.200134,2.845085\C,-1.661207,0.897967,1.237441\C,-2.80829
 2,0.860361,0.469611\C,-4.855945,-0.396465,-0.365581\C,-3.368542,-0.403
 17,-0.038652\O,-0.922057,-0.082923,1.531613\S,-1.214793,2.556529,1.796
 97\H,0.443164,3.129953,3.356922\H,1.065029,1.877339,2.267205\H,-5.4669
 52,-0.383379,0.537261\H,-5.128713,0.489135,-0.947226\H,-5.132223,-1.27
 6599,-0.94903\H,-3.107008,-1.230409,0.628132\H,-3.348714,1.786951,0.31
 2028\H,-0.046963,1.437831,3.580327\\Version=ES64L-G16RevA.03\State=1-A
 \HF=-1507.9006324\RMSD=3.872e-09\RMSF=7.398e-04\Dipole=-0.1397551,-2.2
 188167,-1.6137774\Quadrupole=2.1670261,1.1436786,-3.3107047,-3.8208125
 ,9.5560199,4.7619953\PG=C01 [X(C16H24N2O5S1)]\\@


 ...THOSE SCIENCES ARE VAIN AND FULL OF ERRORS WHICH 
 ARE NOT BORN FROM EXPERIMENT, THE MOTHER OF CERTAINTY...

                          -- LEONARDO DA VINCI, 1452-1519
 Job cpu time:       0 days  3 hours 19 minutes  1.1 seconds.
 Elapsed time:       0 days  0 hours 12 minutes 28.3 seconds.
 File lengths (MBytes):  RWF=    435 Int=      0 D2E=      0 Chk=     48 Scr=      1
 Normal termination of Gaussian 16 at Sat Aug 13 20:46:44 2022.
