 Entering Gaussian System, Link 0=g16
 Initial command:
 /storage/apps/GAUSSIAN/G16_RevA03/g16/l1.exe "/scratch/tmp/1019309/Gau-152228.inp" -scrdir="/scratch/tmp/1019309/"
 Entering Link 1 = /storage/apps/GAUSSIAN/G16_RevA03/g16/l1.exe PID=    152229.
  
 Copyright (c) 1988,1990,1992,1993,1995,1998,2003,2009,2016,
            Gaussian, Inc.  All Rights Reserved.
  
 This is part of the Gaussian(R) 16 program.  It is based on
 the Gaussian(R) 09 system (copyright 2009, Gaussian, Inc.),
 the Gaussian(R) 03 system (copyright 2003, Gaussian, Inc.),
 the Gaussian(R) 98 system (copyright 1998, Gaussian, Inc.),
 the Gaussian(R) 94 system (copyright 1995, Gaussian, Inc.),
 the Gaussian 92(TM) system (copyright 1992, Gaussian, Inc.),
 the Gaussian 90(TM) system (copyright 1990, Gaussian, Inc.),
 the Gaussian 88(TM) system (copyright 1988, Gaussian, Inc.),
 the Gaussian 86(TM) system (copyright 1986, Carnegie Mellon
 University), and the Gaussian 82(TM) system (copyright 1983,
 Carnegie Mellon University). Gaussian is a federally registered
 trademark of Gaussian, Inc.
  
 This software contains proprietary and confidential information,
 including trade secrets, belonging to Gaussian, Inc.
  
 This software is provided under written license and may be
 used, copied, transmitted, or stored only in accord with that
 written license.
  
 The following legend is applicable only to US Government
 contracts under FAR:
  
                    RESTRICTED RIGHTS LEGEND
  
 Use, reproduction and disclosure by the US Government is
 subject to restrictions as set forth in subparagraphs (a)
 and (c) of the Commercial Computer Software - Restricted
 Rights clause in FAR 52.227-19.
  
 Gaussian, Inc.
 340 Quinnipiac St., Bldg. 40, Wallingford CT 06492
  
  
 ---------------------------------------------------------------
 Warning -- This program may not be used in any manner that
 competes with the business of Gaussian, Inc. or will provide
 assistance to any competitor of Gaussian, Inc.  The licensee
 of this program is prohibited from giving any competitor of
 Gaussian, Inc. access to this program.  By using this program,
 the user acknowledges that Gaussian, Inc. is engaged in the
 business of creating and licensing software in the field of
 computational chemistry and represents and warrants to the
 licensee that it is not a competitor of Gaussian, Inc. and that
 it will not use this program in any manner prohibited above.
 ---------------------------------------------------------------
  

 Cite this work as:
 Gaussian 16, Revision A.03,
 M. J. Frisch, G. W. Trucks, H. B. Schlegel, G. E. Scuseria, 
 M. A. Robb, J. R. Cheeseman, G. Scalmani, V. Barone, 
 G. A. Petersson, H. Nakatsuji, X. Li, M. Caricato, A. V. Marenich, 
 J. Bloino, B. G. Janesko, R. Gomperts, B. Mennucci, H. P. Hratchian, 
 J. V. Ortiz, A. F. Izmaylov, J. L. Sonnenberg, D. Williams-Young, 
 F. Ding, F. Lipparini, F. Egidi, J. Goings, B. Peng, A. Petrone, 
 T. Henderson, D. Ranasinghe, V. G. Zakrzewski, J. Gao, N. Rega, 
 G. Zheng, W. Liang, M. Hada, M. Ehara, K. Toyota, R. Fukuda, 
 J. Hasegawa, M. Ishida, T. Nakajima, Y. Honda, O. Kitao, H. Nakai, 
 T. Vreven, K. Throssell, J. A. Montgomery, Jr., J. E. Peralta, 
 F. Ogliaro, M. J. Bearpark, J. J. Heyd, E. N. Brothers, K. N. Kudin, 
 V. N. Staroverov, T. A. Keith, R. Kobayashi, J. Normand, 
 K. Raghavachari, A. P. Rendell, J. C. Burant, S. S. Iyengar, 
 J. Tomasi, M. Cossi, J. M. Millam, M. Klene, C. Adamo, R. Cammi, 
 J. W. Ochterski, R. L. Martin, K. Morokuma, O. Farkas, 
 J. B. Foresman, and D. J. Fox, Gaussian, Inc., Wallingford CT, 2016.
 
 ******************************************
 Gaussian 16:  ES64L-G16RevA.03 25-Dec-2016
                13-Aug-2022 
 ******************************************
 %NProcShared=16
 Will use up to   16 processors via shared memory.
 %mem=20GB
 ----------------------------------------------------------------------
 #P M062X/Def2TZVP scf=(direct,conver=8) EmpiricalDispersion=GD3 Force 
 Charge Prop=(Field,Read)
 ----------------------------------------------------------------------
 1/10=7,18=10,28=-2,30=1,38=1,125=101/1,3;
 2/12=2,17=6,18=5,29=2,40=1/2;
 3/5=44,7=101,11=2,25=1,30=1,71=1,74=-55,124=31/1,2,3;
 4//1;
 5/5=2,6=8,38=5/2;
 6/7=2,8=2,9=2,10=2,14=2,15=1,28=1/1,2;
 7/7=1,16=-2,29=1/1,2,3,16;
 1/10=7,18=10,28=-2,30=1/3;
 99/12=1/99;
 Leave Link    1 at Sat Aug 13 20:34:15 2022, MaxMem=  2684354560 cpu:               0.6 elap:               0.0
 (Enter /storage/apps/GAUSSIAN/G16_RevA03/g16/l101.exe)
 ------------
 Gaussian run
 ------------
 Symbolic Z-matrix:
 Charge =  0 Multiplicity = 1
 C                     3.59874  -3.61578  -0.44393 
 H                     3.74923  -3.71068  -1.51859 
 H                     4.33484  -4.23689   0.06695 
 C                     1.86106  -1.4379    1.24233 
 H                     1.21301  -2.31104   1.08842 
 O                     1.46383  -0.67876   2.32542 
 H                     0.52433  -0.3713    2.16547 
 C                     3.31594  -1.88422   1.40837 
 H                     3.39967  -2.77009   2.04528 
 O                     4.07798  -0.81692   1.91436 
 H                     3.53134  -0.37844   2.58179 
 C                     1.9744   -0.65923  -0.07957 
 H                     2.25974   0.3767    0.11974 
 C                     3.75268  -2.16943  -0.02348 
 H                     4.78026  -1.83119  -0.15963 
 O                     2.91263  -1.33648  -0.85528 
 N                     0.72045  -0.60124  -0.85964 
 C                     0.20113  -1.76425  -1.33156 
 H                     0.76657  -2.65588  -1.11221 
 C                    -0.93882  -1.75458  -2.07686 
 H                    -1.33443  -2.68657  -2.45289 
 C                    -1.5762   -0.53999  -2.3482 
 H                    -2.42204  -0.51351  -3.02177 
 H                    -2.87949  -0.71596  -0.97346 
 C                    -1.02118   0.64504  -1.8599 
 C                     0.14079   0.56902  -1.11639 
 H                     0.60287   1.46627  -0.72425 
 C                    -1.53708   2.01726  -2.16402 
 O                    -0.83084   2.99079  -2.04483 
 N                    -2.80836   2.06587  -2.66861 
 H                    -3.18292   2.99905  -2.75258 
 H                    -3.46386   1.36507  -2.35699 
 H                     2.60471  -3.99545  -0.1958 
 C                     0.20187   2.2       2.84596 
 C                    -1.66179   0.89743   1.23537 
 C                    -2.80882   0.8576    0.47002 
 C                    -4.86532  -0.38957  -0.3535 
 C                    -3.3763   -0.40951  -0.03122 
 O                    -0.91859  -0.08243   1.52715 
 S                    -1.214     2.55704   1.79608 
 H                     0.442     3.12975   3.35835 
 H                     1.06567   1.87747   2.26938 
 H                    -5.47291  -0.35098   0.55088 
 H                    -5.12869   0.48827  -0.95124 
 H                    -5.15521  -1.27666  -0.91943 
 H                    -3.12595  -1.23037   0.64768 
 H                    -3.35256   1.78293   0.31605 
 H                    -0.0481    1.43753   3.58076 
 
 ITRead=  0  0  0  0  0  0  0  0  0  0  0  0  0  0  0  0  0  0  0  0
 ITRead=  0  0  0  0  0  0  0  0  0  0  0  0  0  0  0  0  0  0  0  0
 ITRead=  0  0  0  0  0  0  0  0
 MicOpt= -1 -1 -1 -1 -1 -1 -1 -1 -1 -1 -1 -1 -1 -1 -1 -1 -1 -1 -1 -1
 MicOpt= -1 -1 -1 -1 -1 -1 -1 -1 -1 -1 -1 -1 -1 -1 -1 -1 -1 -1 -1 -1
 MicOpt= -1 -1 -1 -1 -1 -1 -1 -1
 NAtoms=     48 NQM=       48 NQMF=       0 NMMI=      0 NMMIF=      0
                NMic=       0 NMicF=      0.
                    Isotopes and Nuclear Properties:
 (Nuclear quadrupole moments (NQMom) in fm**2, nuclear magnetic moments (NMagM)
  in nuclear magnetons)

  Atom         1           2           3           4           5           6           7           8           9          10
 IAtWgt=          12           1           1          12           1          16           1          12           1          16
 AtmWgt=  12.0000000   1.0078250   1.0078250  12.0000000   1.0078250  15.9949146   1.0078250  12.0000000   1.0078250  15.9949146
 NucSpn=           0           1           1           0           1           0           1           0           1           0
 AtZEff=  -0.0000000  -0.0000000  -0.0000000  -0.0000000  -0.0000000  -0.0000000  -0.0000000  -0.0000000  -0.0000000  -0.0000000
 NQMom=    0.0000000   0.0000000   0.0000000   0.0000000   0.0000000   0.0000000   0.0000000   0.0000000   0.0000000   0.0000000
 NMagM=    0.0000000   2.7928460   2.7928460   0.0000000   2.7928460   0.0000000   2.7928460   0.0000000   2.7928460   0.0000000
 AtZNuc=   6.0000000   1.0000000   1.0000000   6.0000000   1.0000000   8.0000000   1.0000000   6.0000000   1.0000000   8.0000000

  Atom        11          12          13          14          15          16          17          18          19          20
 IAtWgt=           1          12           1          12           1          16          14          12           1          12
 AtmWgt=   1.0078250  12.0000000   1.0078250  12.0000000   1.0078250  15.9949146  14.0030740  12.0000000   1.0078250  12.0000000
 NucSpn=           1           0           1           0           1           0           2           0           1           0
 AtZEff=  -0.0000000  -0.0000000  -0.0000000  -0.0000000  -0.0000000  -0.0000000  -0.0000000  -0.0000000  -0.0000000  -0.0000000
 NQMom=    0.0000000   0.0000000   0.0000000   0.0000000   0.0000000   0.0000000   2.0440000   0.0000000   0.0000000   0.0000000
 NMagM=    2.7928460   0.0000000   2.7928460   0.0000000   2.7928460   0.0000000   0.4037610   0.0000000   2.7928460   0.0000000
 AtZNuc=   1.0000000   6.0000000   1.0000000   6.0000000   1.0000000   8.0000000   7.0000000   6.0000000   1.0000000   6.0000000

  Atom        21          22          23          24          25          26          27          28          29          30
 IAtWgt=           1          12           1           1          12          12           1          12          16          14
 AtmWgt=   1.0078250  12.0000000   1.0078250   1.0078250  12.0000000  12.0000000   1.0078250  12.0000000  15.9949146  14.0030740
 NucSpn=           1           0           1           1           0           0           1           0           0           2
 AtZEff=  -0.0000000  -0.0000000  -0.0000000  -0.0000000  -0.0000000  -0.0000000  -0.0000000  -0.0000000  -0.0000000  -0.0000000
 NQMom=    0.0000000   0.0000000   0.0000000   0.0000000   0.0000000   0.0000000   0.0000000   0.0000000   0.0000000   2.0440000
 NMagM=    2.7928460   0.0000000   2.7928460   2.7928460   0.0000000   0.0000000   2.7928460   0.0000000   0.0000000   0.4037610
 AtZNuc=   1.0000000   6.0000000   1.0000000   1.0000000   6.0000000   6.0000000   1.0000000   6.0000000   8.0000000   7.0000000

  Atom        31          32          33          34          35          36          37          38          39          40
 IAtWgt=           1           1           1          12          12          12          12          12          16          32
 AtmWgt=   1.0078250   1.0078250   1.0078250  12.0000000  12.0000000  12.0000000  12.0000000  12.0000000  15.9949146  31.9720718
 NucSpn=           1           1           1           0           0           0           0           0           0           0
 AtZEff=  -0.0000000  -0.0000000  -0.0000000  -0.0000000  -0.0000000  -0.0000000  -0.0000000  -0.0000000  -0.0000000  -0.0000000
 NQMom=    0.0000000   0.0000000   0.0000000   0.0000000   0.0000000   0.0000000   0.0000000   0.0000000   0.0000000   0.0000000
 NMagM=    2.7928460   2.7928460   2.7928460   0.0000000   0.0000000   0.0000000   0.0000000   0.0000000   0.0000000   0.0000000
 AtZNuc=   1.0000000   1.0000000   1.0000000   6.0000000   6.0000000   6.0000000   6.0000000   6.0000000   8.0000000  16.0000000

  Atom        41          42          43          44          45          46          47          48
 IAtWgt=           1           1           1           1           1           1           1           1
 AtmWgt=   1.0078250   1.0078250   1.0078250   1.0078250   1.0078250   1.0078250   1.0078250   1.0078250
 NucSpn=           1           1           1           1           1           1           1           1
 AtZEff=  -0.0000000  -0.0000000  -0.0000000  -0.0000000  -0.0000000  -0.0000000  -0.0000000  -0.0000000
 NQMom=    0.0000000   0.0000000   0.0000000   0.0000000   0.0000000   0.0000000   0.0000000   0.0000000
 NMagM=    2.7928460   2.7928460   2.7928460   2.7928460   2.7928460   2.7928460   2.7928460   2.7928460
 AtZNuc=   1.0000000   1.0000000   1.0000000   1.0000000   1.0000000   1.0000000   1.0000000   1.0000000
 Background charge distribution read from input stream:
 Leave Link  101 at Sat Aug 13 20:34:15 2022, MaxMem=  2684354560 cpu:               1.4 elap:               0.1
 (Enter /storage/apps/GAUSSIAN/G16_RevA03/g16/l103.exe)

 GradGradGradGradGradGradGradGradGradGradGradGradGradGradGradGradGradGrad
 Berny optimization.
 Initialization pass.
 Trust Radius=3.00D-01 FncErr=1.00D-07 GrdErr=1.00D-07 EigMax=2.50D+02 EigMin=1.00D-04
 Number of steps in this run=      2 maximum allowed number of steps=      2.
 GradGradGradGradGradGradGradGradGradGradGradGradGradGradGradGradGradGrad

 Leave Link  103 at Sat Aug 13 20:34:15 2022, MaxMem=  2684354560 cpu:               0.3 elap:               0.0
 (Enter /storage/apps/GAUSSIAN/G16_RevA03/g16/l202.exe)
 ---------------------------------------------------------------------------------------------------
                            Z-MATRIX (ANGSTROMS AND DEGREES)
   CD    Cent   Atom    N1       Length/X        N2       Alpha/Y        N3        Beta/Z          J
 ---------------------------------------------------------------------------------------------------
      1      1  C        0   3.598738         -3.615783         -0.443927
      2      2  H        0   3.749228         -3.710679         -1.518594
      3      3  H        0   4.334839         -4.236892          0.066945
      4      4  C        0   1.861062         -1.437896          1.242333
      5      5  H        0   1.213011         -2.311037          1.088417
      6      6  O        0   1.463831         -0.678762          2.325420
      7      7  H        0   0.524328         -0.371303          2.165473
      8      8  C        0   3.315936         -1.884223          1.408372
      9      9  H        0   3.399674         -2.770091          2.045282
     10     10  O        0   4.077975         -0.816924          1.914362
     11     11  H        0   3.531336         -0.378436          2.581788
     12     12  C        0   1.974402         -0.659234         -0.079565
     13     13  H        0   2.259736          0.376703          0.119742
     14     14  C        0   3.752681         -2.169427         -0.023480
     15     15  H        0   4.780259         -1.831194         -0.159632
     16     16  O        0   2.912631         -1.336480         -0.855280
     17     17  N        0   0.720447         -0.601238         -0.859639
     18     18  C        0   0.201125         -1.764247         -1.331556
     19     19  H        0   0.766571         -2.655881         -1.112205
     20     20  C        0  -0.938818         -1.754582         -2.076858
     21     21  H        0  -1.334431         -2.686570         -2.452885
     22     22  C        0  -1.576198         -0.539987         -2.348204
     23     23  H        0  -2.422042         -0.513508         -3.021775
     24     24  H        0  -2.879488         -0.715958         -0.973464
     25     25  C        0  -1.021183          0.645044         -1.859900
     26     26  C        0   0.140790          0.569015         -1.116387
     27     27  H        0   0.602874          1.466267         -0.724250
     28     28  C        0  -1.537076          2.017263         -2.164023
     29     29  O        0  -0.830844          2.990794         -2.044835
     30     30  N        0  -2.808358          2.065871         -2.668608
     31     31  H        0  -3.182924          2.999046         -2.752580
     32     32  H        0  -3.463863          1.365066         -2.356986
     33     33  H        0   2.604714         -3.995449         -0.195796
     34     34  C        0   0.201874          2.199997          2.845958
     35     35  C        0  -1.661786          0.897430          1.235373
     36     36  C        0  -2.808823          0.857601          0.470017
     37     37  C        0  -4.865322         -0.389570         -0.353497
     38     38  C        0  -3.376300         -0.409513         -0.031222
     39     39  O        0  -0.918593         -0.082429          1.527153
     40     40  S        0  -1.214001          2.557036          1.796081
     41     41  H        0   0.442004          3.129746          3.358354
     42     42  H        0   1.065669          1.877472          2.269381
     43     43  H        0  -5.472907         -0.350982          0.550876
     44     44  H        0  -5.128690          0.488270         -0.951244
     45     45  H        0  -5.155213         -1.276655         -0.919428
     46     46  H        0  -3.125946         -1.230366          0.647684
     47     47  H        0  -3.352558          1.782932          0.316054
     48     48  H        0  -0.048103          1.437526          3.580761
 ---------------------------------------------------------------------------------------------------
                         Z-Matrix orientation:                         
 ---------------------------------------------------------------------
 Center     Atomic      Atomic             Coordinates (Angstroms)
 Number     Number       Type             X           Y           Z
 ---------------------------------------------------------------------
      1          6           0        3.598738   -3.615783   -0.443927
      2          1           0        3.749228   -3.710679   -1.518594
      3          1           0        4.334839   -4.236892    0.066945
      4          6           0        1.861062   -1.437896    1.242333
      5          1           0        1.213011   -2.311037    1.088417
      6          8           0        1.463831   -0.678762    2.325420
      7          1           0        0.524328   -0.371303    2.165473
      8          6           0        3.315936   -1.884223    1.408372
      9          1           0        3.399674   -2.770091    2.045282
     10          8           0        4.077975   -0.816924    1.914362
     11          1           0        3.531336   -0.378436    2.581788
     12          6           0        1.974402   -0.659234   -0.079565
     13          1           0        2.259736    0.376703    0.119742
     14          6           0        3.752681   -2.169427   -0.023480
     15          1           0        4.780259   -1.831194   -0.159632
     16          8           0        2.912631   -1.336480   -0.855280
     17          7           0        0.720447   -0.601238   -0.859639
     18          6           0        0.201125   -1.764247   -1.331556
     19          1           0        0.766571   -2.655881   -1.112205
     20          6           0       -0.938818   -1.754582   -2.076858
     21          1           0       -1.334431   -2.686570   -2.452885
     22          6           0       -1.576198   -0.539987   -2.348204
     23          1           0       -2.422042   -0.513508   -3.021775
     24          1           0       -2.879488   -0.715958   -0.973464
     25          6           0       -1.021183    0.645044   -1.859900
     26          6           0        0.140790    0.569015   -1.116387
     27          1           0        0.602874    1.466267   -0.724250
     28          6           0       -1.537076    2.017263   -2.164023
     29          8           0       -0.830844    2.990794   -2.044835
     30          7           0       -2.808358    2.065871   -2.668608
     31          1           0       -3.182924    2.999046   -2.752580
     32          1           0       -3.463863    1.365066   -2.356986
     33          1           0        2.604714   -3.995449   -0.195796
     34          6           0        0.201874    2.199997    2.845958
     35          6           0       -1.661786    0.897430    1.235373
     36          6           0       -2.808823    0.857601    0.470017
     37          6           0       -4.865322   -0.389570   -0.353497
     38          6           0       -3.376300   -0.409513   -0.031222
     39          8           0       -0.918593   -0.082429    1.527153
     40         16           0       -1.214001    2.557036    1.796081
     41          1           0        0.442004    3.129746    3.358354
     42          1           0        1.065669    1.877472    2.269381
     43          1           0       -5.472907   -0.350982    0.550876
     44          1           0       -5.128690    0.488270   -0.951244
     45          1           0       -5.155213   -1.276655   -0.919428
     46          1           0       -3.125946   -1.230366    0.647684
     47          1           0       -3.352558    1.782932    0.316054
     48          1           0       -0.048103    1.437526    3.580761
 ---------------------------------------------------------------------
                    Distance matrix (angstroms):
                    1          2          3          4          5
     1  C    0.000000
     2  H    1.089294   0.000000
     3  H    1.090235   1.770247   0.000000
     4  C    3.256713   4.043938   3.916055   0.000000
     5  H    3.121239   3.897166   3.807641   1.098196   0.000000
     6  O    4.566531   5.402962   5.099381   1.380998   2.063349
     7  H    5.175675   5.926530   5.819501   1.943365   2.323123
     8  C    2.551331   3.477185   2.893552   1.530828   2.169524
     9  H    2.636472   3.702446   2.634361   2.187875   2.430600
    10  O    3.691180   4.501897   3.895524   2.398319   3.335053
    11  H    4.431694   5.288143   4.675226   2.388809   3.367452
    12  C    3.392994   3.812103   4.288679   1.538368   2.161562
    13  H    4.248599   4.648594   5.059061   2.170696   3.042682
    14  C    1.514074   2.147286   2.149767   2.390741   2.776021
    15  H    2.159068   2.538162   2.457055   3.262193   3.809611
    16  O    2.415611   2.603210   3.359399   2.348630   2.759788
    17  N    4.188658   4.390485   5.209642   2.533631   2.638362
    18  C    3.969867   4.051249   5.015712   3.080065   2.679396
    19  H    3.064176   3.189670   4.077073   2.867969   2.271775
    20  C    5.169134   5.110357   6.210412   4.353923   3.867684
    21  H    5.406987   5.269278   6.394815   5.042321   4.378505
    22  C    6.314013   6.253135   7.378374   5.051035   4.767250
    23  H    7.247013   7.110979   8.310188   6.114089   5.773941
    24  H    7.117360   7.294203   8.094810   5.282401   4.852234
    25  C    6.442305   6.468820   7.498867   4.719092   4.735252
    26  C    5.470113   5.612341   6.487454   3.542681   3.782264
    27  H    5.906015   6.109934   6.861456   3.726211   4.233917
    28  C    7.814507   7.821183   8.864032   5.923574   6.072522
    29  O    8.113628   8.134109   9.131448   6.137192   6.488761
    30  N    8.847671   8.814363   9.911273   7.026758   7.031641
    31  H    9.750732   9.726143  10.808574   7.815854   7.891418
    32  H    8.851496   8.859727   9.903390   7.011884   6.874423
    33  H    1.092611   1.772230   1.766539   3.026931   2.534420
    34  C    7.495687   8.158990   8.138664   4.307991   4.945784
    35  C    7.131778   7.622209   7.980351   4.226613   4.310489
    36  C    7.867865   8.236006   8.783407   5.260571   5.157309
    37  C    9.058529   9.305788   9.981063   6.992131   6.535846
    38  C    7.687760   7.992692   8.609305   5.487210   5.092265
    39  O    6.064324   6.650513   6.854948   3.105623   3.114951
    40  S    8.141486   8.654765   8.940749   5.071699   5.485372
    41  H    8.362085   9.028497   8.958510   5.230165   5.945518
    42  H    6.629806   7.264825   7.274864   3.560778   4.354307
    43  H    9.692435  10.030855  10.560604   7.446247   6.988009
    44  H    9.657568   9.837199  10.626488   7.574862   7.225892
    45  H    9.073548   9.250543   9.989846   7.343523   6.756898
    46  H    7.218255   7.623171   8.064724   5.026622   4.493177
    47  H    8.834263   9.164118   9.767109   6.197867   6.180740
    48  H    7.418456   8.180902   7.984742   4.169078   4.674817
                    6          7          8          9         10
     6  O    0.000000
     7  H    1.001389   0.000000
     8  C    2.392573   3.264231   0.000000
     9  H    2.863498   3.746498   1.094271   0.000000
    10  O    2.649869   3.590270   1.405652   2.071737   0.000000
    11  H    2.104875   3.035699   1.921119   2.454626   0.967752
    12  C    2.458662   2.688088   2.348248   3.316940   2.902694
    13  H    2.571476   2.784990   2.808543   3.861279   2.819823
    14  C    3.602534   4.295000   1.523905   2.182931   2.385438
    15  H    4.301427   5.064617   2.146087   2.765717   2.413172
    16  O    3.556468   3.969950   2.363641   3.271958   3.049407
    17  N    3.271579   3.040170   3.677837   4.507854   4.360573
    18  C    4.018231   3.778090   4.150138   4.758726   5.144256
    19  H    4.026467   4.002643   3.667155   4.112906   4.848429
    20  C    5.129343   4.695916   5.501506   6.070075   6.478985
    21  H    5.890141   5.490417   6.097457   6.530868   7.201567
    22  C    5.577078   4.981360   6.312829   7.002527   7.086313
    23  H    6.612096   5.967316   7.377632   8.041120   8.167480
    24  H    5.454213   4.643024   6.739530   7.263619   7.533659
    25  C    5.044270   4.430033   5.990776   6.815979   6.510285
    26  C    3.892739   3.435390   4.740711   5.636143   5.158264
    27  H    3.826602   3.425395   4.809840   5.782657   4.924587
    28  C    6.035652   5.357161   7.178811   8.062785   7.496308
    29  O    6.150634   5.555797   7.272291   8.234934   7.366849
    30  N    7.122143   6.357276   8.350568   9.173165   8.759892
    31  H    7.804146   7.020699   9.132087   9.981634   9.437300
    32  H    7.098192   6.274813   8.408417   9.142627   8.937831
    33  H    4.319555   4.799795   2.745263   2.675050   4.089778
    34  C    3.186024   2.679295   5.333375   5.963957   4.999384
    35  C    3.666342   2.693300   5.704843   6.302780   6.028672
    36  C    4.904947   3.936327   6.775750   7.361185   7.233129
    37  C    6.878838   5.949275   8.501244   8.929232   9.236253
    38  C    5.390095   4.476810   7.002373   7.469807   7.714758
    39  O    2.582400   1.604033   4.603456   5.112672   5.065087
    40  S    4.233364   3.425406   6.355740   7.051693   6.277150
    41  H    4.076250   3.699606   6.099328   6.729045   5.557122
    42  H    2.587664   2.315348   4.467145   5.205540   4.057067
    43  H    7.167620   6.210810   8.962694   9.317083   9.658962
    44  H    7.453846   6.512250   9.083403   9.608802   9.730257
    45  H    7.395827   6.526367   8.806143   9.176380   9.669203
    46  H    4.917837   4.045513   6.519511   6.848923   7.326110
    47  H    5.770190   4.805343   7.688303   8.325436   8.032849
    48  H    2.887992   2.366977   5.202889   5.652336   4.988382
                   11         12         13         14         15
    11  H    0.000000
    12  C    3.096077   0.000000
    13  H    2.872085   1.092842   0.000000
    14  C    3.169237   2.333689   2.955025   0.000000
    15  H    3.344503   3.041831   3.362424   1.090346   0.000000
    16  O    3.621337   1.393079   2.076520   1.446159   2.053461
    17  N    4.449063   1.477932   2.070016   3.514658   4.299404
    18  C    5.322127   2.435785   3.305724   3.806413   4.727193
    19  H    5.145509   2.551823   3.597749   3.215402   4.206803
    20  C    6.601442   3.698083   4.426983   5.137959   6.032368
    21  H    7.372320   4.548749   5.377740   5.661109   6.586358
    22  C    7.100551   4.215175   4.652469   6.037911   6.845554
    23  H    8.176850   5.292122   5.707946   7.061094   7.861380
    24  H    7.338420   4.935840   5.366622   6.855706   7.783174
    25  C    6.442168   3.720788   3.841278   5.838104   6.532947
    26  C    5.105875   2.438386   2.460677   4.662539   5.310467
    27  H    4.786304   2.610453   2.155148   4.861135   5.351877
    28  C    7.345127   4.882528   4.724701   7.077558   7.664002
    29  O    7.196247   5.005437   4.590267   7.191833   7.634791
    30  N    8.586793   6.083102   6.026090   8.245101   8.892085
    31  H    9.216515   6.864840   6.689504   9.069935   9.667827
    32  H    8.738655   6.233712   6.314319   8.367580   9.110982
    33  H    4.653642   3.397224   4.397077   2.163765   3.068925
    34  C    4.219410   4.458222   3.871879   6.319317   6.800418
    35  C    5.514452   4.168228   4.110246   6.348762   7.133819
    36  C    6.795953   5.047977   5.103356   7.242912   8.075905
    37  C    8.894936   6.850517   7.181753   8.806065   9.754645
    38  C    7.385406   5.356744   5.692612   7.343005   8.280527
    39  O    4.582766   3.359117   3.506192   5.346104   6.195187
    40  S    5.634941   4.901873   4.430667   7.093531   7.681961
    41  H    4.738604   5.340777   4.622986   7.104831   7.470449
    42  H    3.356521   3.574664   2.880807   5.371651   5.783812
    43  H    9.230479   7.480300   7.778764   9.420621  10.383798
    44  H    9.393058   7.247793   7.466478   9.316805  10.207538
    45  H    9.408584   7.205414   7.667786   8.997241   9.979900
    46  H    6.984694   5.183496   5.645083   6.974798   7.969996
    47  H    7.562609   5.873431   5.789116   8.137619   8.912401
    48  H    4.136188   4.678132   4.293031   6.359766   6.927348
                   16         17         18         19         20
    16  O    0.000000
    17  N    2.312200   0.000000
    18  C    2.786052   1.358304   0.000000
    19  H    2.532272   2.070622   1.078358   0.000000
    20  C    4.062108   2.359022   1.361998   2.156675   0.000000
    21  H    4.734197   3.333102   2.113289   2.492504   1.080050
    22  C    4.797167   2.737546   2.385637   3.390172   1.398257
    23  H    5.816332   3.815464   3.361873   4.289927   2.152461
    24  H    5.826462   3.603561   3.273731   4.132348   2.462198
    25  C    4.517808   2.363687   2.752793   3.827691   2.410821
    26  C    3.373750   1.330945   2.343939   3.285053   2.736268
    27  H    3.634218   2.075266   3.311562   4.143599   3.818407
    28  C    5.723661   3.695183   4.244309   5.315203   3.819990
    29  O    5.844138   4.088262   4.917737   5.941925   4.746712
    30  N    6.898831   4.778944   5.051188   6.123516   4.294323
    31  H    7.717015   5.637515   6.013323   7.089961   5.299961
    32  H    7.086124   4.859717   4.927093   5.967752   4.023248
    33  H    2.756782   3.938505   3.470656   2.452146   4.595269
    34  C    5.792585   4.674108   5.759067   6.290110   6.416696
    35  C    5.503315   3.508577   4.140542   4.902454   4.304268
    36  C    6.269405   4.043754   4.379445   5.256560   4.099633
    37  C    7.851432   5.612646   5.339965   6.118008   4.500074
    38  C    6.410070   4.184061   4.040315   4.835088   3.454729
    39  O    4.682618   2.941495   3.500642   4.053226   3.973084
    40  S    6.262449   4.557371   5.518893   6.289300   5.802192
    41  H    6.618601   5.638194   6.782658   7.318792   7.436724
    42  H    4.848119   4.006738   5.193871   5.663557   6.008292
    43  H    8.559540   6.356871   6.142923   6.856346   5.425223
    44  H    8.246318   5.950447   5.798741   6.683240   4.883894
    45  H    8.068321   5.914655   5.394252   6.083334   4.398414
    46  H    6.223711   4.178823   3.907918   4.503442   3.532911
    47  H    7.096150   4.863732   5.284483   6.221753   4.905729
    48  H    6.011615   4.946148   5.868929   6.280414   6.556796
                   21         22         23         24         25
    21  H    0.000000
    22  C    2.162690   0.000000
    23  H    2.495743   1.081597   0.000000
    24  H    2.908470   1.902483   2.108512   0.000000
    25  C    3.398442   1.396704   2.157453   2.468075   0.000000
    26  C    3.815932   2.386484   3.372012   3.285371   1.381584
    27  H    4.897692   3.377963   4.283485   4.117166   2.145150
    28  C    4.717049   2.564173   2.814908   3.269556   1.497205
    29  O    5.714242   3.621326   3.970700   4.368614   2.360715
    30  N    4.980431   2.900237   2.631950   3.258396   2.422138
    31  H    5.986065   3.907665   3.604087   4.130204   3.318332
    32  H    4.578147   2.681899   2.248639   2.566376   2.594651
    33  H    4.724879   5.835504   6.736345   6.437103   6.119685
    34  C    7.369973   6.135827   6.976986   5.708377   5.104787
    35  C    5.153199   3.862061   4.548851   2.994124   3.170928
    36  C    4.824763   3.378607   3.771227   2.136520   2.944376
    37  C    4.706467   3.849652   3.620039   2.105807   4.256416
    38  C    3.901111   2.936971   3.140833   1.108400   3.162709
    39  O    4.774429   3.957296   4.810295   3.240301   3.465814
    40  S    6.750083   5.186312   5.839464   4.599643   4.130265
    41  H    8.411644   7.078480   7.885563   6.677305   5.961949
    42  H    6.992192   5.843429   6.773274   5.727669   4.787984
    43  H    5.621791   4.860528   4.700854   3.030287   5.159627
    44  H    5.170197   3.953354   3.551986   2.551386   4.209732
    45  H    4.351750   3.923446   3.531640   2.344403   4.654849
    46  H    3.865693   3.442918   3.804510   1.718569   3.772952
    47  H    5.631723   3.955967   4.156994   2.851509   3.385982
    48  H    7.420761   6.434148   7.282555   5.778858   5.583521
                   26         27         28         29         30
    26  C    0.000000
    27  H    1.082753   0.000000
    28  C    2.451570   2.637410   0.000000
    29  O    2.769675   2.474606   1.208607   0.000000
    30  N    3.653415   3.971971   1.368622   2.270493   0.000000
    31  H    4.430491   4.560241   2.004773   2.456268   1.009042
    32  H    3.894394   4.383425   2.043307   3.110180   1.008922
    33  H    5.268087   5.840973   7.561815   8.001849   8.494454
    34  C    4.285325   3.666817   5.306340   5.060803   6.284101
    35  C    2.981260   3.048341   3.581267   3.978995   4.233314
    36  C    3.361573   3.665573   3.146478   3.845438   3.363166
    37  C    5.153838   5.786429   4.488660   5.528517   3.952218
    38  C    3.808546   4.453388   3.717637   4.700646   3.661405
    39  O    2.921468   3.127641   4.291388   4.712908   5.078466
    40  S    3.777586   3.292853   4.009758   3.884275   4.766200
    41  H    5.164434   4.411428   5.970848   5.552828   6.929715
    42  H    3.745782   3.056975   5.142849   4.842387   6.279117
    43  H    5.927879   6.468652   5.335731   6.281236   4.827637
    44  H    5.272685   5.818834   4.087584   5.092156   3.289697
    45  H    5.611857   6.381009   5.048745   6.178821   4.442954
    46  H    4.125686   4.801888   4.580098   5.507753   4.686559
    47  H    3.965976   4.102189   3.082478   3.659477   3.047034
    48  H    4.780501   4.354046   5.962858   5.888349   6.860644
                   31         32         33         34         35
    31  H    0.000000
    32  H    1.704498   0.000000
    33  H    9.431694   8.380542   0.000000
    34  C    6.590824   6.419140   7.308178   0.000000
    35  C    4.757564   4.046135   6.647671   2.786376   0.000000
    36  C    3.887270   2.945937   7.300807   4.063425   1.379511
    37  C    4.479819   3.009452   8.296305   6.528311   3.800463
    38  C    4.365943   2.926769   6.975568   5.281196   2.500384
    39  O    5.739233   4.864173   5.540214   2.864291   1.263960
    40  S    4.976178   4.871410   7.841251   1.798449   1.808092
    41  H    7.106384   7.143879   8.250921   1.088414   3.730444
    42  H    6.672973   6.494805   6.552630   1.087477   3.077120
    43  H    5.232545   3.928962   8.893122   6.631594   4.068380
    44  H    3.651686   2.348730   8.971063   6.764885   4.119239
    45  H    5.052919   3.450497   8.254208   7.413745   4.644765
    46  H    5.427059   3.984783   6.418536   5.260626   2.648898
    47  H    3.305181   2.707793   8.315093   4.382733   2.118483
    48  H    7.237172   6.850511   7.128607   1.088019   2.897675
                   36         37         38         39         40
    36  C    0.000000
    37  C    2.542204   0.000000
    38  C    1.476092   1.523629   0.000000
    39  O    2.360966   4.382676   2.928454   0.000000
    40  S    2.681414   5.160942   4.100608   2.669525   0.000000
    41  H    4.906425   7.370965   6.212489   3.939872   2.347562
    42  H    4.391985   6.869907   5.500378   2.886072   2.425431
    43  H    2.926526   1.090201   2.176700   4.665513   5.305222
    44  H    2.745573   1.094197   2.173321   4.918645   5.210794
    45  H    3.462824   1.091437   2.169188   5.035959   6.132237
    46  H    2.119372   2.175944   1.094253   2.638870   4.395312
    47  H    1.084246   2.730663   2.219905   3.297047   2.713511
    48  H    4.199359   6.482458   5.247368   2.699134   2.407842
                   41         42         43         44         45
    41  H    0.000000
    42  H    1.772854   0.000000
    43  H    7.415091   7.118444   0.000000
    44  H    7.522145   7.118454   1.754763   0.000000
    45  H    8.309310   7.669185   1.766237   1.765411   0.000000
    46  H    6.252086   5.464265   2.508169   3.085655   2.564353
    47  H    5.046603   4.831682   3.017385   2.537093   3.759927
    48  H    1.775747   1.775882   6.465869   6.874047   7.328100
                   46         47         48
    46  H    0.000000
    47  H    3.039950   0.000000
    48  H    5.019333   4.658008   0.000000
 Stoichiometry    C16H24N2O5S
 Framework group  C1[X(C16H24N2O5S)]
 Deg. of freedom   138
 Full point group                 C1      NOp   1
 Largest Abelian subgroup         C1      NOp   1
 Largest concise Abelian subgroup C1      NOp   1
                         Standard orientation:                         
 ---------------------------------------------------------------------
 Center     Atomic      Atomic             Coordinates (Angstroms)
 Number     Number       Type             X           Y           Z
 ---------------------------------------------------------------------
      1          6           0       -4.679512   -1.971898   -0.542755
      2          1           0       -4.637581   -2.914023    0.002410
      3          1           0       -5.703924   -1.809153   -0.878471
      4          6           0       -2.516021    0.457672   -0.693355
      5          1           0       -2.323503   -0.193290   -1.556616
      6          8           0       -2.041882    1.739504   -0.891481
      7          1           0       -1.055308    1.687389   -1.054990
      8          6           0       -4.013762    0.485526   -0.378028
      9          1           0       -4.619633    0.556794   -1.286472
     10          8           0       -4.286804    1.546177    0.503064
     11          1           0       -3.746598    2.294324    0.211522
     12          6           0       -1.992424   -0.230242    0.579121
     13          1           0       -1.805374    0.514283    1.356937
     14          6           0       -4.235182   -0.833889    0.351632
     15          1           0       -4.943046   -0.679289    1.166422
     16          8           0       -2.959351   -1.162877    0.947786
     17          7           0       -0.723208   -0.964501    0.394088
     18          6           0       -0.711041   -2.026465   -0.452715
     19          1           0       -1.652959   -2.268042   -0.918856
     20          6           0        0.430323   -2.747342   -0.633448
     21          1           0        0.421843   -3.594769   -1.303002
     22          6           0        1.592814   -2.383648    0.053184
     23          1           0        2.472748   -3.009727   -0.006760
     24          1           0        2.365139   -1.433087   -1.402628
     25          6           0        1.556523   -1.293065    0.925016
     26          6           0        0.366060   -0.607154    1.070261
     27          1           0        0.297834    0.241077    1.739741
     28          6           0        2.692522   -0.862445    1.800057
     29          8           0        2.502535   -0.182178    2.780809
     30          7           0        3.917150   -1.371319    1.461738
     31          1           0        4.685582   -0.977128    1.983555
     32          1           0        4.101564   -1.539229    0.484129
     33          1           0       -4.042153   -2.051417   -1.426638
     34          6           0        0.264382    3.602533    0.275145
     35          6           0        1.605598    1.391367   -0.762052
     36          6           0        2.734476    0.626621   -0.971449
     37          6           0        4.110089   -0.909215   -2.458627
     38          6           0        2.746585   -0.519672   -1.901350
     39          8           0        0.454806    1.179127   -1.239782
     40         16           0        1.864882    2.786519    0.358449
     41          1           0        0.379133    4.550094    0.798219
     42          1           0       -0.515677    3.020110    0.759807
     43          1           0        4.472470   -0.180009   -3.183526
     44          1           0        4.860007   -0.967347   -1.663950
     45          1           0        4.068712   -1.883409   -2.949002
     46          1           0        2.017733   -0.363984   -2.702553
     47          1           0        3.659889    0.943074   -0.503412
     48          1           0       -0.015614    3.793071   -0.758820
 ---------------------------------------------------------------------
 Rotational constants (GHZ):           0.3330978           0.1647359           0.1402123
 Leave Link  202 at Sat Aug 13 20:34:15 2022, MaxMem=  2684354560 cpu:               0.2 elap:               0.0
 (Enter /storage/apps/GAUSSIAN/G16_RevA03/g16/l301.exe)
 Standard basis: def2TZVP (5D, 7F)
 Ernie: Thresh=  0.10000D-02 Tol=  0.10000D-05 Strict=F.
 There are  1014 symmetry adapted cartesian basis functions of A   symmetry.
 There are   894 symmetry adapted basis functions of A   symmetry.
   894 basis functions,  1434 primitive gaussians,  1014 cartesian basis functions
    95 alpha electrons       95 beta electrons
       nuclear repulsion energy      2498.3355917294 Hartrees.
 IExCor= 4336 DFT=T Ex+Corr=M062X ExCW=0 ScaHFX=  0.540000
 ScaDFX=  1.000000  1.000000  1.000000  1.000000 ScalE2=  1.000000  1.000000
 IRadAn=      5 IRanWt=     -1 IRanGd=            0 ICorTp=0 IEmpDi=131
 NAtoms=   48 NActive=   48 NUniq=   48 SFac= 1.00D+00 NAtFMM=   60 NAOKFM=F Big=F
 Integral buffers will be    131072 words long.
 Raffenetti 2 integral format.
 Two-electron integral symmetry is turned on.
 R6Disp:  Grimme-D3 Dispersion energy=       -0.0042696766 Hartrees.
 Nuclear repulsion after empirical dispersion term =     2498.3313220528 Hartrees.
 Leave Link  301 at Sat Aug 13 20:34:16 2022, MaxMem=  2684354560 cpu:               0.8 elap:               0.1
 (Enter /storage/apps/GAUSSIAN/G16_RevA03/g16/l302.exe)
 NPDir=0 NMtPBC=     1 NCelOv=     1 NCel=       1 NClECP=     1 NCelD=      1
         NCelK=      1 NCelE2=     1 NClLst=     1 CellRange=     0.0.
 One-electron integrals computed using PRISM.
 One-electron integral symmetry used in STVInt
   1 Symmetry operations used in ECPInt.
 ECPInt:  NShTT=   65703 NPrTT=  200010 LenC2=   56966 LenP2D=  121486.
 LDataN:  DoStor=T MaxTD1= 6 Len=  172
 NBasis=   894 RedAO= T EigKep=  1.67D-05  NBF=   894
 NBsUse=   894 1.00D-06 EigRej= -1.00D+00 NBFU=   894
 Precomputing XC quadrature grid using
 IXCGrd= 4 IRadAn=           5 IRanWt=          -1 IRanGd=           0 AccXCQ= 0.00D+00.
 Generated NRdTot=       0 NPtTot=           0 NUsed=           0 NTot=          32
 NSgBfM=   998   997   997   997   998 MxSgAt=    48 MxSgA2=    48.
 Leave Link  302 at Sat Aug 13 20:34:17 2022, MaxMem=  2684354560 cpu:              18.5 elap:               1.2
 (Enter /storage/apps/GAUSSIAN/G16_RevA03/g16/l303.exe)
 DipDrv:  MaxL=1.
 Leave Link  303 at Sat Aug 13 20:34:17 2022, MaxMem=  2684354560 cpu:               2.0 elap:               0.2
 (Enter /storage/apps/GAUSSIAN/G16_RevA03/g16/l401.exe)
 ExpMin= 9.52D-02 ExpMax= 6.07D+04 ExpMxC= 2.07D+03 IAcc=3 IRadAn=         5 AccDes= 0.00D+00
 Harris functional with IExCor= 1009 and IRadAn=       5 diagonalized for initial guess.
 HarFok:  IExCor= 1009 AccDes= 0.00D+00 IRadAn=         5 IDoV= 1 UseB2=F ITyADJ=14
 ICtDFT=  3500011 ScaDFX=  1.000000  1.000000  1.000000  1.000000
 FoFCou: FMM=F IPFlag=           0 FMFlag=      100000 FMFlg1=           0
         NFxFlg=           0 DoJE=T BraDBF=F KetDBF=T FulRan=T
         wScrn=  0.000000 ICntrl=       500 IOpCl=  0 I1Cent=   200000004 NGrid=           0
         NMat0=    1 NMatS0=      1 NMatT0=    0 NMatD0=    1 NMtDS0=    0 NMtDT0=    0
 Petite list used in FoFCou.
 Harris En= -1507.24035190492    
 JPrj=0 DoOrth=F DoCkMO=F.
 Leave Link  401 at Sat Aug 13 20:34:21 2022, MaxMem=  2684354560 cpu:              61.0 elap:               3.8
 (Enter /storage/apps/GAUSSIAN/G16_RevA03/g16/l502.exe)
 Integral symmetry usage will be decided dynamically.
 Closed shell SCF:
 Using DIIS extrapolation, IDIIS=  1040.
 NGot=  2684354560 LenX=  2682272944 LenY=  2681243734
 Requested convergence on RMS density matrix=1.00D-08 within 128 cycles.
 Requested convergence on MAX density matrix=1.00D-06.
 Requested convergence on             energy=1.00D-06.
 No special actions if energy rises.
 Fock matrices will be formed incrementally for  20 cycles.
 Integral accuracy reduced to 1.0D-05 until final iterations.

 Cycle   1  Pass 0  IDiag  1:
 FoFJK:  IHMeth= 1 ICntrl=       0 DoSepK=F KAlg= 0 I1Cent=           0 FoldK=F
 IRaf= 800000000 NMat=       1 IRICut=       1 DoRegI=T DoRafI=F ISym2E= 0 IDoP0=0 IntGTp=1.
 FoFCou: FMM=F IPFlag=           0 FMFlag=      100000 FMFlg1=           0
         NFxFlg=           0 DoJE=F BraDBF=F KetDBF=F FulRan=T
         wScrn=  0.000000 ICntrl=         0 IOpCl=  0 I1Cent=           0 NGrid=           0
         NMat0=    1 NMatS0=      1 NMatT0=    0 NMatD0=    1 NMtDS0=    0 NMtDT0=    0
 Symmetry not used in FoFCou.
 E= -1507.15764549883    
 DIIS: error= 1.79D-02 at cycle   1 NSaved=   1.
 NSaved= 1 IEnMin= 1 EnMin= -1507.15764549883     IErMin= 1 ErrMin= 1.79D-02
 ErrMax= 1.79D-02  0.00D+00 EMaxC= 1.00D-01 BMatC= 9.96D-01 BMatP= 9.96D-01
 IDIUse=3 WtCom= 8.21D-01 WtEn= 1.79D-01
 Coeff-Com:  0.100D+01
 Coeff-En:   0.100D+01
 Coeff:      0.100D+01
 Gap=     0.176 Goal=   None    Shift=    0.000
 GapD=    0.176 DampG=1.000 DampE=0.500 DampFc=0.5000 IDamp=-1.
 Damping current iteration by 5.00D-01
 RMSDP=4.01D-03 MaxDP=1.04D+00              OVMax= 5.45D-01

 Cycle   2  Pass 0  IDiag  1:
 RMSU=  2.00D-03    CP:  1.01D+00
 E= -1507.46270474516     Delta-E=       -0.305059246336 Rises=F Damp=T
 DIIS: error= 7.57D-03 at cycle   2 NSaved=   2.
 NSaved= 2 IEnMin= 2 EnMin= -1507.46270474516     IErMin= 2 ErrMin= 7.57D-03
 ErrMax= 7.57D-03  0.00D+00 EMaxC= 1.00D-01 BMatC= 9.94D-02 BMatP= 9.96D-01
 IDIUse=3 WtCom= 9.24D-01 WtEn= 7.57D-02
 Coeff-Com:  0.158D-01 0.984D+00
 Coeff-En:   0.131D+00 0.869D+00
 Coeff:      0.245D-01 0.975D+00
 Gap=     0.163 Goal=   None    Shift=    0.000
 RMSDP=1.35D-03 MaxDP=2.34D-01 DE=-3.05D-01 OVMax= 4.34D-01

 Cycle   3  Pass 0  IDiag  1:
 RMSU=  1.17D-03    CP:  1.00D+00  6.62D-01
 E= -1507.82545654567     Delta-E=       -0.362751800507 Rises=F Damp=F
 DIIS: error= 7.70D-03 at cycle   3 NSaved=   3.
 NSaved= 3 IEnMin= 3 EnMin= -1507.82545654567     IErMin= 2 ErrMin= 7.57D-03
 ErrMax= 7.70D-03  0.00D+00 EMaxC= 1.00D-01 BMatC= 7.42D-02 BMatP= 9.94D-02
 IDIUse=3 WtCom= 9.23D-01 WtEn= 7.70D-02
 Coeff-Com: -0.720D-01 0.488D+00 0.584D+00
 Coeff-En:   0.000D+00 0.000D+00 0.100D+01
 Coeff:     -0.665D-01 0.451D+00 0.616D+00
 Gap=     0.130 Goal=   None    Shift=    0.000
 RMSDP=6.03D-04 MaxDP=3.11D-02 DE=-3.63D-01 OVMax= 1.71D-01

 Cycle   4  Pass 0  IDiag  1:
 RMSU=  4.91D-04    CP:  1.00D+00  8.04D-01  8.26D-01
 E= -1507.89078154676     Delta-E=       -0.065325001089 Rises=F Damp=F
 DIIS: error= 3.92D-03 at cycle   4 NSaved=   4.
 NSaved= 4 IEnMin= 4 EnMin= -1507.89078154676     IErMin= 4 ErrMin= 3.92D-03
 ErrMax= 3.92D-03  0.00D+00 EMaxC= 1.00D-01 BMatC= 1.04D-02 BMatP= 7.42D-02
 IDIUse=3 WtCom= 9.61D-01 WtEn= 3.92D-02
 Coeff-Com: -0.368D-01 0.106D+00 0.304D+00 0.627D+00
 Coeff-En:   0.000D+00 0.000D+00 0.757D-01 0.924D+00
 Coeff:     -0.354D-01 0.102D+00 0.295D+00 0.638D+00
 Gap=     0.151 Goal=   None    Shift=    0.000
 RMSDP=2.15D-04 MaxDP=1.75D-02 DE=-6.53D-02 OVMax= 6.48D-02

 Cycle   5  Pass 0  IDiag  1:
 RMSU=  1.72D-04    CP:  1.00D+00  7.84D-01  9.03D-01  8.30D-01
 E= -1507.90035981789     Delta-E=       -0.009578271129 Rises=F Damp=F
 DIIS: error= 9.59D-04 at cycle   5 NSaved=   5.
 NSaved= 5 IEnMin= 5 EnMin= -1507.90035981789     IErMin= 5 ErrMin= 9.59D-04
 ErrMax= 9.59D-04  0.00D+00 EMaxC= 1.00D-01 BMatC= 9.69D-04 BMatP= 1.04D-02
 IDIUse=3 WtCom= 9.90D-01 WtEn= 9.59D-03
 Coeff-Com: -0.118D-01 0.216D-01 0.979D-01 0.321D+00 0.571D+00
 Coeff-En:   0.000D+00 0.000D+00 0.000D+00 0.000D+00 0.100D+01
 Coeff:     -0.117D-01 0.214D-01 0.970D-01 0.318D+00 0.575D+00
 Gap=     0.149 Goal=   None    Shift=    0.000
 RMSDP=7.55D-05 MaxDP=7.70D-03 DE=-9.58D-03 OVMax= 8.94D-03

 Cycle   6  Pass 0  IDiag  1:
 RMSU=  6.42D-05    CP:  1.00D+00  7.84D-01  8.95D-01  9.07D-01  9.51D-01
 E= -1507.90126346351     Delta-E=       -0.000903645624 Rises=F Damp=F
 DIIS: error= 1.91D-04 at cycle   6 NSaved=   6.
 NSaved= 6 IEnMin= 6 EnMin= -1507.90126346351     IErMin= 6 ErrMin= 1.91D-04
 ErrMax= 1.91D-04  0.00D+00 EMaxC= 1.00D-01 BMatC= 1.02D-04 BMatP= 9.69D-04
 IDIUse=3 WtCom= 9.98D-01 WtEn= 1.91D-03
 Coeff-Com: -0.262D-03-0.395D-02-0.289D-02 0.593D-01 0.277D+00 0.671D+00
 Coeff-En:   0.000D+00 0.000D+00 0.000D+00 0.000D+00 0.000D+00 0.100D+01
 Coeff:     -0.261D-03-0.395D-02-0.289D-02 0.592D-01 0.276D+00 0.672D+00
 Gap=     0.151 Goal=   None    Shift=    0.000
 RMSDP=4.19D-05 MaxDP=5.11D-03 DE=-9.04D-04 OVMax= 6.11D-03

 Cycle   7  Pass 0  IDiag  1:
 RMSU=  2.36D-05    CP:  1.01D+00  7.85D-01  9.02D-01  9.31D-01  1.13D+00
                    CP:  1.09D+00
 E= -1507.90136263165     Delta-E=       -0.000099168138 Rises=F Damp=F
 DIIS: error= 8.94D-05 at cycle   7 NSaved=   7.
 NSaved= 7 IEnMin= 7 EnMin= -1507.90136263165     IErMin= 7 ErrMin= 8.94D-05
 ErrMax= 8.94D-05  0.00D+00 EMaxC= 1.00D-01 BMatC= 1.39D-05 BMatP= 1.02D-04
 IDIUse=1 WtCom= 1.00D+00 WtEn= 0.00D+00
 Coeff-Com:  0.138D-02-0.433D-02-0.157D-01-0.145D-01 0.500D-01 0.313D+00
 Coeff-Com:  0.670D+00
 Coeff:      0.138D-02-0.433D-02-0.157D-01-0.145D-01 0.500D-01 0.313D+00
 Coeff:      0.670D+00
 Gap=     0.151 Goal=   None    Shift=    0.000
 RMSDP=1.99D-05 MaxDP=2.28D-03 DE=-9.92D-05 OVMax= 2.58D-03

 Cycle   8  Pass 0  IDiag  1:
 RMSU=  1.24D-05    CP:  1.01D+00  7.83D-01  9.02D-01  9.44D-01  1.19D+00
                    CP:  1.20D+00  1.15D+00
 E= -1507.90136857714     Delta-E=       -0.000005945490 Rises=F Damp=F
 DIIS: error= 3.19D-05 at cycle   8 NSaved=   8.
 NSaved= 8 IEnMin= 8 EnMin= -1507.90136857714     IErMin= 8 ErrMin= 3.19D-05
 ErrMax= 3.19D-05  0.00D+00 EMaxC= 1.00D-01 BMatC= 2.48D-06 BMatP= 1.39D-05
 IDIUse=1 WtCom= 1.00D+00 WtEn= 0.00D+00
 Coeff-Com:  0.721D-03-0.142D-02-0.836D-02-0.174D-01-0.259D-01 0.420D-01
 Coeff-Com:  0.321D+00 0.690D+00
 Coeff:      0.721D-03-0.142D-02-0.836D-02-0.174D-01-0.259D-01 0.420D-01
 Coeff:      0.321D+00 0.690D+00
 Gap=     0.151 Goal=   None    Shift=    0.000
 RMSDP=1.68D-05 MaxDP=2.99D-03 DE=-5.95D-06 OVMax= 1.64D-03

 Cycle   9  Pass 0  IDiag  1:
 RMSU=  1.28D-05    CP:  1.00D+00  7.81D-01  9.00D-01  9.46D-01  1.20D+00
                    CP:  1.27D+00  1.28D+00  1.57D+00
 E= -1507.90136549234     Delta-E=        0.000003084796 Rises=F Damp=F
 DIIS: error= 1.71D-05 at cycle   9 NSaved=   9.
 NSaved= 9 IEnMin= 8 EnMin= -1507.90136857714     IErMin= 9 ErrMin= 1.71D-05
 ErrMax= 1.71D-05  0.00D+00 EMaxC= 1.00D-01 BMatC= 5.57D-07 BMatP= 2.48D-06
 IDIUse=1 WtCom= 1.00D+00 WtEn= 0.00D+00
 Coeff-Com:  0.208D-03-0.239D-03-0.318D-02-0.737D-02-0.204D-01-0.793D-02
 Coeff-Com:  0.835D-01 0.340D+00 0.615D+00
 Coeff:      0.208D-03-0.239D-03-0.318D-02-0.737D-02-0.204D-01-0.793D-02
 Coeff:      0.835D-01 0.340D+00 0.615D+00
 Gap=     0.151 Goal=   None    Shift=    0.000
 RMSDP=1.81D-05 MaxDP=2.11D-03 DE= 3.08D-06 OVMax= 7.20D-04

 Cycle  10  Pass 0  IDiag  1:
 RMSU=  1.04D-05    CP:  1.00D+00  7.79D-01  8.99D-01  9.48D-01  1.20D+00
                    CP:  1.32D+00  1.38D+00  2.05D+00  1.99D+00
 E= -1507.90136255935     Delta-E=        0.000002932995 Rises=F Damp=F
 DIIS: error= 2.54D-05 at cycle  10 NSaved=  10.
 NSaved=10 IEnMin= 8 EnMin= -1507.90136857714     IErMin= 9 ErrMin= 1.71D-05
 ErrMax= 2.54D-05  0.00D+00 EMaxC= 1.00D-01 BMatC= 4.20D-07 BMatP= 5.57D-07
 IDIUse=1 WtCom= 1.00D+00 WtEn= 0.00D+00
 Coeff-Com:  0.192D-03-0.219D-03-0.300D-02-0.688D-02-0.193D-01-0.756D-02
 Coeff-Com:  0.769D-01 0.317D+00 0.578D+00 0.645D-01
 Coeff:      0.192D-03-0.219D-03-0.300D-02-0.688D-02-0.193D-01-0.756D-02
 Coeff:      0.769D-01 0.317D+00 0.578D+00 0.645D-01
 Gap=     0.151 Goal=   None    Shift=    0.000
 RMSDP=2.78D-06 MaxDP=3.44D-04 DE= 2.93D-06 OVMax= 2.92D-05

 Initial convergence to 1.0D-05 achieved.  Increase integral accuracy.
 Cycle  11  Pass 1  IDiag  1:
 E= -1507.90129376900     Delta-E=        0.000068790344 Rises=F Damp=F
 DIIS: error= 3.42D-04 at cycle   1 NSaved=   1.
 NSaved= 1 IEnMin= 1 EnMin= -1507.90129376900     IErMin= 1 ErrMin= 3.42D-04
 ErrMax= 3.42D-04  0.00D+00 EMaxC= 1.00D-01 BMatC= 9.73D-05 BMatP= 9.73D-05
 IDIUse=3 WtCom= 9.97D-01 WtEn= 3.42D-03
 Coeff-Com:  0.100D+01
 Coeff-En:   0.100D+01
 Coeff:      0.100D+01
 Gap=     0.151 Goal=   None    Shift=    0.000
 RMSDP=2.78D-06 MaxDP=3.44D-04 DE= 6.88D-05 OVMax= 1.12D-03

 Cycle  12  Pass 1  IDiag  1:
 RMSU=  6.05D-04    CP:  9.90D-01
 E= -1507.90135559753     Delta-E=       -0.000061828523 Rises=F Damp=F
 DIIS: error= 1.44D-05 at cycle   2 NSaved=   2.
 NSaved= 2 IEnMin= 2 EnMin= -1507.90135559753     IErMin= 2 ErrMin= 1.44D-05
 ErrMax= 1.44D-05  0.00D+00 EMaxC= 1.00D-01 BMatC= 1.50D-07 BMatP= 9.73D-05
 IDIUse=1 WtCom= 1.00D+00 WtEn= 0.00D+00
 Coeff-Com: -0.149D-01 0.101D+01
 Coeff:     -0.149D-01 0.101D+01
 Gap=     0.151 Goal=   None    Shift=    0.000
 RMSDP=2.31D-05 MaxDP=2.23D-03 DE=-6.18D-05 OVMax= 5.63D-04

 Cycle  13  Pass 1  IDiag  1:
 RMSU=  8.83D-06    CP:  9.90D-01  1.04D+00
 E= -1507.90135552113     Delta-E=        0.000000076393 Rises=F Damp=F
 DIIS: error= 1.82D-05 at cycle   3 NSaved=   3.
 NSaved= 3 IEnMin= 2 EnMin= -1507.90135559753     IErMin= 2 ErrMin= 1.44D-05
 ErrMax= 1.82D-05  0.00D+00 EMaxC= 1.00D-01 BMatC= 2.85D-07 BMatP= 1.50D-07
 IDIUse=1 WtCom= 1.00D+00 WtEn= 0.00D+00
 Coeff-Com: -0.103D-01 0.614D+00 0.396D+00
 Coeff:     -0.103D-01 0.614D+00 0.396D+00
 Gap=     0.151 Goal=   None    Shift=    0.000
 RMSDP=1.09D-06 MaxDP=6.97D-05 DE= 7.64D-08 OVMax= 2.16D-04

 Cycle  14  Pass 1  IDiag  1:
 RMSU=  1.04D-06    CP:  9.90D-01  1.04D+00  1.00D+00
 E= -1507.90135581730     Delta-E=       -0.000000296165 Rises=F Damp=F
 DIIS: error= 1.39D-06 at cycle   4 NSaved=   4.
 NSaved= 4 IEnMin= 4 EnMin= -1507.90135581730     IErMin= 4 ErrMin= 1.39D-06
 ErrMax= 1.39D-06  0.00D+00 EMaxC= 1.00D-01 BMatC= 1.09D-09 BMatP= 1.50D-07
 IDIUse=1 WtCom= 1.00D+00 WtEn= 0.00D+00
 Coeff-Com:  0.528D-04-0.138D-01 0.339D-02 0.101D+01
 Coeff:      0.528D-04-0.138D-01 0.339D-02 0.101D+01
 Gap=     0.151 Goal=   None    Shift=    0.000
 RMSDP=6.32D-07 MaxDP=5.31D-05 DE=-2.96D-07 OVMax= 9.01D-05

 Cycle  15  Pass 1  IDiag  1:
 RMSU=  3.01D-07    CP:  9.90D-01  1.04D+00  1.04D+00  1.03D+00
 E= -1507.90135582173     Delta-E=       -0.000000004436 Rises=F Damp=F
 DIIS: error= 6.39D-07 at cycle   5 NSaved=   5.
 NSaved= 5 IEnMin= 5 EnMin= -1507.90135582173     IErMin= 5 ErrMin= 6.39D-07
 ErrMax= 6.39D-07  0.00D+00 EMaxC= 1.00D-01 BMatC= 1.12D-09 BMatP= 1.09D-09
 IDIUse=1 WtCom= 1.00D+00 WtEn= 0.00D+00
 Coeff-Com:  0.776D-03-0.516D-01-0.405D-01 0.518D+00 0.573D+00
 Coeff:      0.776D-03-0.516D-01-0.405D-01 0.518D+00 0.573D+00
 Gap=     0.151 Goal=   None    Shift=    0.000
 RMSDP=1.15D-07 MaxDP=9.58D-06 DE=-4.44D-09 OVMax= 2.42D-05

 Cycle  16  Pass 1  IDiag  1:
 RMSU=  7.52D-08    CP:  9.90D-01  1.04D+00  1.05D+00  1.03D+00  1.19D+00
 E= -1507.90135582333     Delta-E=       -0.000000001597 Rises=F Damp=F
 DIIS: error= 2.97D-07 at cycle   6 NSaved=   6.
 NSaved= 6 IEnMin= 6 EnMin= -1507.90135582333     IErMin= 6 ErrMin= 2.97D-07
 ErrMax= 2.97D-07  0.00D+00 EMaxC= 1.00D-01 BMatC= 1.50D-10 BMatP= 1.09D-09
 IDIUse=1 WtCom= 1.00D+00 WtEn= 0.00D+00
 Coeff-Com:  0.120D-03-0.518D-02-0.234D-01-0.157D+00 0.588D-01 0.113D+01
 Coeff:      0.120D-03-0.518D-02-0.234D-01-0.157D+00 0.588D-01 0.113D+01
 Gap=     0.151 Goal=   None    Shift=    0.000
 RMSDP=1.16D-07 MaxDP=1.25D-05 DE=-1.60D-09 OVMax= 3.20D-05

 Cycle  17  Pass 1  IDiag  1:
 RMSU=  5.00D-08    CP:  9.90D-01  1.04D+00  1.05D+00  1.04D+00  1.49D+00
                    CP:  1.58D+00
 E= -1507.90135582387     Delta-E=       -0.000000000538 Rises=F Damp=F
 DIIS: error= 1.44D-07 at cycle   7 NSaved=   7.
 NSaved= 7 IEnMin= 7 EnMin= -1507.90135582387     IErMin= 7 ErrMin= 1.44D-07
 ErrMax= 1.44D-07  0.00D+00 EMaxC= 1.00D-01 BMatC= 5.08D-11 BMatP= 1.50D-10
 IDIUse=1 WtCom= 1.00D+00 WtEn= 0.00D+00
 Coeff-Com: -0.826D-04 0.706D-02-0.821D-02-0.182D+00-0.714D-01 0.664D+00
 Coeff-Com:  0.591D+00
 Coeff:     -0.826D-04 0.706D-02-0.821D-02-0.182D+00-0.714D-01 0.664D+00
 Coeff:      0.591D+00
 Gap=     0.151 Goal=   None    Shift=    0.000
 RMSDP=3.22D-08 MaxDP=3.55D-06 DE=-5.38D-10 OVMax= 9.99D-06

 Cycle  18  Pass 1  IDiag  1:
 RMSU=  1.26D-08    CP:  9.90D-01  1.04D+00  1.05D+00  1.04D+00  1.56D+00
                    CP:  1.79D+00  1.23D+00
 E= -1507.90135582394     Delta-E=       -0.000000000072 Rises=F Damp=F
 DIIS: error= 3.09D-08 at cycle   8 NSaved=   8.
 NSaved= 8 IEnMin= 8 EnMin= -1507.90135582394     IErMin= 8 ErrMin= 3.09D-08
 ErrMax= 3.09D-08  0.00D+00 EMaxC= 1.00D-01 BMatC= 2.49D-12 BMatP= 5.08D-11
 IDIUse=1 WtCom= 1.00D+00 WtEn= 0.00D+00
 Coeff-Com: -0.413D-04 0.296D-02-0.769D-03-0.432D-01-0.319D-01 0.930D-01
 Coeff-Com:  0.198D+00 0.782D+00
 Coeff:     -0.413D-04 0.296D-02-0.769D-03-0.432D-01-0.319D-01 0.930D-01
 Coeff:      0.198D+00 0.782D+00
 Gap=     0.151 Goal=   None    Shift=    0.000
 RMSDP=1.08D-08 MaxDP=9.15D-07 DE=-7.19D-11 OVMax= 2.83D-06

 Cycle  19  Pass 1  IDiag  1:
 RMSU=  4.23D-09    CP:  9.90D-01  1.04D+00  1.05D+00  1.04D+00  1.58D+00
                    CP:  1.85D+00  1.36D+00  1.11D+00
 E= -1507.90135582398     Delta-E=       -0.000000000042 Rises=F Damp=F
 DIIS: error= 1.84D-08 at cycle   9 NSaved=   9.
 NSaved= 9 IEnMin= 9 EnMin= -1507.90135582398     IErMin= 9 ErrMin= 1.84D-08
 ErrMax= 1.84D-08  0.00D+00 EMaxC= 1.00D-01 BMatC= 4.42D-13 BMatP= 2.49D-12
 IDIUse=1 WtCom= 1.00D+00 WtEn= 0.00D+00
 Coeff-Com: -0.610D-05 0.262D-03 0.766D-03 0.817D-02-0.344D-02-0.568D-01
 Coeff-Com: -0.608D-02 0.330D+00 0.727D+00
 Coeff:     -0.610D-05 0.262D-03 0.766D-03 0.817D-02-0.344D-02-0.568D-01
 Coeff:     -0.608D-02 0.330D+00 0.727D+00
 Gap=     0.151 Goal=   None    Shift=    0.000
 RMSDP=4.28D-09 MaxDP=6.13D-07 DE=-4.23D-11 OVMax= 1.01D-06

 SCF Done:  E(RM062X) =  -1507.90135582     A.U. after   19 cycles
            NFock= 19  Conv=0.43D-08     -V/T= 2.0037
 KE= 1.502302585401D+03 PE=-8.534071967757D+03 EE= 3.025536704480D+03
 Leave Link  502 at Sat Aug 13 20:43:35 2022, MaxMem=  2684354560 cpu:            8852.4 elap:             554.0
 (Enter /storage/apps/GAUSSIAN/G16_RevA03/g16/l601.exe)
 Copying SCF densities to generalized density rwf, IOpCl= 0 IROHF=0.

 **********************************************************************

            Population analysis using the SCF density.

 **********************************************************************

 Orbital symmetries:
       Occupied  (A) (A) (A) (A) (A) (A) (A) (A) (A) (A) (A) (A)
                 (A) (A) (A) (A) (A) (A) (A) (A) (A) (A) (A) (A)
                 (A) (A) (A) (A) (A) (A) (A) (A) (A) (A) (A) (A)
                 (A) (A) (A) (A) (A) (A) (A) (A) (A) (A) (A) (A)
                 (A) (A) (A) (A) (A) (A) (A) (A) (A) (A) (A) (A)
                 (A) (A) (A) (A) (A) (A) (A) (A) (A) (A) (A) (A)
                 (A) (A) (A) (A) (A) (A) (A) (A) (A) (A) (A) (A)
                 (A) (A) (A) (A) (A) (A) (A) (A) (A) (A) (A)
       Virtual   (A) (A) (A) (A) (A) (A) (A) (A) (A) (A) (A) (A)
                 (A) (A) (A) (A) (A) (A) (A) (A) (A) (A) (A) (A)
                 (A) (A) (A) (A) (A) (A) (A) (A) (A) (A) (A) (A)
                 (A) (A) (A) (A) (A) (A) (A) (A) (A) (A) (A) (A)
                 (A) (A) (A) (A) (A) (A) (A) (A) (A) (A) (A) (A)
                 (A) (A) (A) (A) (A) (A) (A) (A) (A) (A) (A) (A)
                 (A) (A) (A) (A) (A) (A) (A) (A) (A) (A) (A) (A)
                 (A) (A) (A) (A) (A) (A) (A) (A) (A) (A) (A) (A)
                 (A) (A) (A) (A) (A) (A) (A) (A) (A) (A) (A) (A)
                 (A) (A) (A) (A) (A) (A) (A) (A) (A) (A) (A) (A)
                 (A) (A) (A) (A) (A) (A) (A) (A) (A) (A) (A) (A)
                 (A) (A) (A) (A) (A) (A) (A) (A) (A) (A) (A) (A)
                 (A) (A) (A) (A) (A) (A) (A) (A) (A) (A) (A) (A)
                 (A) (A) (A) (A) (A) (A) (A) (A) (A) (A) (A) (A)
                 (A) (A) (A) (A) (A) (A) (A) (A) (A) (A) (A) (A)
                 (A) (A) (A) (A) (A) (A) (A) (A) (A) (A) (A) (A)
                 (A) (A) (A) (A) (A) (A) (A) (A) (A) (A) (A) (A)
                 (A) (A) (A) (A) (A) (A) (A) (A) (A) (A) (A) (A)
                 (A) (A) (A) (A) (A) (A) (A) (A) (A) (A) (A) (A)
                 (A) (A) (A) (A) (A) (A) (A) (A) (A) (A) (A) (A)
                 (A) (A) (A) (A) (A) (A) (A) (A) (A) (A) (A) (A)
                 (A) (A) (A) (A) (A) (A) (A) (A) (A) (A) (A) (A)
                 (A) (A) (A) (A) (A) (A) (A) (A) (A) (A) (A) (A)
                 (A) (A) (A) (A) (A) (A) (A) (A) (A) (A) (A) (A)
                 (A) (A) (A) (A) (A) (A) (A) (A) (A) (A) (A) (A)
                 (A) (A) (A) (A) (A) (A) (A) (A) (A) (A) (A) (A)
                 (A) (A) (A) (A) (A) (A) (A) (A) (A) (A) (A) (A)
                 (A) (A) (A) (A) (A) (A) (A) (A) (A) (A) (A) (A)
                 (A) (A) (A) (A) (A) (A) (A) (A) (A) (A) (A) (A)
                 (A) (A) (A) (A) (A) (A) (A) (A) (A) (A) (A) (A)
                 (A) (A) (A) (A) (A) (A) (A) (A) (A) (A) (A) (A)
                 (A) (A) (A) (A) (A) (A) (A) (A) (A) (A) (A) (A)
                 (A) (A) (A) (A) (A) (A) (A) (A) (A) (A) (A) (A)
                 (A) (A) (A) (A) (A) (A) (A) (A) (A) (A) (A) (A)
                 (A) (A) (A) (A) (A) (A) (A) (A) (A) (A) (A) (A)
                 (A) (A) (A) (A) (A) (A) (A) (A) (A) (A) (A) (A)
                 (A) (A) (A) (A) (A) (A) (A) (A) (A) (A) (A) (A)
                 (A) (A) (A) (A) (A) (A) (A) (A) (A) (A) (A) (A)
                 (A) (A) (A) (A) (A) (A) (A) (A) (A) (A) (A) (A)
                 (A) (A) (A) (A) (A) (A) (A) (A) (A) (A) (A) (A)
                 (A) (A) (A) (A) (A) (A) (A) (A) (A) (A) (A) (A)
                 (A) (A) (A) (A) (A) (A) (A) (A) (A) (A) (A) (A)
                 (A) (A) (A) (A) (A) (A) (A) (A) (A) (A) (A) (A)
                 (A) (A) (A) (A) (A) (A) (A) (A) (A) (A) (A) (A)
                 (A) (A) (A) (A) (A) (A) (A) (A) (A) (A) (A) (A)
                 (A) (A) (A) (A) (A) (A) (A) (A) (A) (A) (A) (A)
                 (A) (A) (A) (A) (A) (A) (A) (A) (A) (A) (A) (A)
                 (A) (A) (A) (A) (A) (A) (A) (A) (A) (A) (A) (A)
                 (A) (A) (A) (A) (A) (A) (A) (A) (A) (A) (A) (A)
                 (A) (A) (A) (A) (A) (A) (A) (A) (A) (A) (A) (A)
                 (A) (A) (A) (A) (A) (A) (A) (A) (A) (A) (A) (A)
                 (A) (A) (A) (A) (A) (A) (A) (A) (A) (A) (A) (A)
                 (A) (A) (A) (A) (A) (A) (A) (A) (A) (A) (A) (A)
                 (A) (A) (A) (A) (A) (A) (A) (A) (A) (A) (A) (A)
                 (A) (A) (A) (A) (A) (A) (A) (A) (A) (A) (A) (A)
                 (A) (A) (A) (A) (A) (A) (A) (A) (A) (A) (A) (A)
                 (A) (A) (A) (A) (A) (A) (A) (A) (A) (A) (A) (A)
                 (A) (A) (A) (A) (A) (A) (A) (A) (A) (A) (A) (A)
                 (A) (A) (A) (A) (A) (A) (A) (A) (A) (A) (A) (A)
                 (A) (A) (A) (A) (A) (A) (A) (A) (A) (A) (A) (A)
                 (A) (A) (A) (A) (A) (A) (A) (A) (A) (A) (A) (A)
                 (A) (A) (A) (A) (A) (A) (A) (A) (A) (A) (A) (A)
                 (A) (A) (A) (A) (A) (A) (A) (A) (A) (A) (A) (A)
                 (A) (A) (A) (A) (A) (A) (A) (A) (A) (A) (A) (A)
                 (A) (A) (A) (A) (A) (A) (A) (A) (A) (A) (A) (A)
                 (A) (A) (A) (A) (A) (A) (A) (A) (A) (A) (A) (A)
                 (A) (A) (A) (A) (A) (A) (A)
 The electronic state is 1-A.
 Alpha  occ. eigenvalues --  -89.87037 -19.66392 -19.63243 -19.61901 -19.61011
 Alpha  occ. eigenvalues --  -19.57315 -14.87545 -14.77817 -10.66464 -10.66159
 Alpha  occ. eigenvalues --  -10.64016 -10.63078 -10.61116 -10.61091 -10.60538
 Alpha  occ. eigenvalues --  -10.60453 -10.59515 -10.59445 -10.59377 -10.55055
 Alpha  occ. eigenvalues --  -10.53839 -10.52498 -10.52446 -10.49525  -8.22944
 Alpha  occ. eigenvalues --   -6.14911  -6.14684  -6.14420  -1.22308  -1.18336
 Alpha  occ. eigenvalues --   -1.17036  -1.15391  -1.13962  -1.10878  -1.03124
 Alpha  occ. eigenvalues --   -0.97545  -0.92970  -0.90596  -0.88346  -0.87663
 Alpha  occ. eigenvalues --   -0.85694  -0.81408  -0.80423  -0.79311  -0.76745
 Alpha  occ. eigenvalues --   -0.73164  -0.72134  -0.69864  -0.69113  -0.67043
 Alpha  occ. eigenvalues --   -0.66216  -0.64044  -0.62839  -0.62122  -0.61074
 Alpha  occ. eigenvalues --   -0.60034  -0.58250  -0.57844  -0.57392  -0.56129
 Alpha  occ. eigenvalues --   -0.55739  -0.54273  -0.53041  -0.52757  -0.52017
 Alpha  occ. eigenvalues --   -0.51792  -0.51124  -0.50246  -0.50143  -0.48755
 Alpha  occ. eigenvalues --   -0.48511  -0.48216  -0.47728  -0.47167  -0.46275
 Alpha  occ. eigenvalues --   -0.45686  -0.45589  -0.44941  -0.44155  -0.43423
 Alpha  occ. eigenvalues --   -0.43225  -0.40783  -0.39733  -0.38859  -0.37906
 Alpha  occ. eigenvalues --   -0.37443  -0.37036  -0.36776  -0.36541  -0.36096
 Alpha  occ. eigenvalues --   -0.34836  -0.34235  -0.29503  -0.28197  -0.21410
 Alpha virt. eigenvalues --   -0.06353  -0.03922   0.03723   0.04694   0.05228
 Alpha virt. eigenvalues --    0.06233   0.07072   0.07286   0.08169   0.08850
 Alpha virt. eigenvalues --    0.09345   0.10063   0.10289   0.10723   0.11316
 Alpha virt. eigenvalues --    0.11474   0.11962   0.12601   0.12875   0.13251
 Alpha virt. eigenvalues --    0.13796   0.14011   0.14333   0.14539   0.15164
 Alpha virt. eigenvalues --    0.15444   0.15593   0.16203   0.16361   0.16739
 Alpha virt. eigenvalues --    0.17599   0.17691   0.18523   0.18929   0.19543
 Alpha virt. eigenvalues --    0.20690   0.20966   0.21389   0.21616   0.22155
 Alpha virt. eigenvalues --    0.22810   0.23100   0.23586   0.23659   0.24138
 Alpha virt. eigenvalues --    0.24722   0.25417   0.25720   0.25814   0.26201
 Alpha virt. eigenvalues --    0.26645   0.27090   0.27785   0.28157   0.28754
 Alpha virt. eigenvalues --    0.29130   0.29479   0.29906   0.30466   0.31537
 Alpha virt. eigenvalues --    0.31629   0.31866   0.32539   0.33039   0.33467
 Alpha virt. eigenvalues --    0.33945   0.34536   0.35094   0.35737   0.36162
 Alpha virt. eigenvalues --    0.36744   0.36977   0.37385   0.37621   0.38193
 Alpha virt. eigenvalues --    0.38723   0.39109   0.39471   0.39702   0.39801
 Alpha virt. eigenvalues --    0.40263   0.40584   0.41191   0.41751   0.42014
 Alpha virt. eigenvalues --    0.42693   0.42959   0.43174   0.43692   0.44153
 Alpha virt. eigenvalues --    0.44229   0.44505   0.45019   0.45347   0.45664
 Alpha virt. eigenvalues --    0.45808   0.46253   0.46547   0.46920   0.47532
 Alpha virt. eigenvalues --    0.47751   0.48097   0.48490   0.48840   0.49183
 Alpha virt. eigenvalues --    0.49487   0.49624   0.49917   0.50601   0.50764
 Alpha virt. eigenvalues --    0.51316   0.51442   0.52081   0.52956   0.53386
 Alpha virt. eigenvalues --    0.53703   0.54036   0.54168   0.54849   0.55218
 Alpha virt. eigenvalues --    0.55474   0.55863   0.55995   0.56559   0.57570
 Alpha virt. eigenvalues --    0.58101   0.58770   0.59321   0.59858   0.60048
 Alpha virt. eigenvalues --    0.60663   0.61331   0.61670   0.61786   0.62946
 Alpha virt. eigenvalues --    0.63372   0.63483   0.64489   0.64992   0.65397
 Alpha virt. eigenvalues --    0.65888   0.66032   0.66984   0.67154   0.67460
 Alpha virt. eigenvalues --    0.67821   0.68292   0.68780   0.69387   0.70799
 Alpha virt. eigenvalues --    0.71624   0.71857   0.72575   0.72774   0.73522
 Alpha virt. eigenvalues --    0.74117   0.74490   0.75161   0.75923   0.77150
 Alpha virt. eigenvalues --    0.77518   0.78539   0.79455   0.80028   0.81175
 Alpha virt. eigenvalues --    0.81942   0.82083   0.82258   0.82990   0.83895
 Alpha virt. eigenvalues --    0.84475   0.85996   0.86629   0.87285   0.87523
 Alpha virt. eigenvalues --    0.87698   0.88861   0.89532   0.89734   0.90180
 Alpha virt. eigenvalues --    0.90602   0.91382   0.92063   0.92410   0.93004
 Alpha virt. eigenvalues --    0.93490   0.94611   0.95122   0.95592   0.95938
 Alpha virt. eigenvalues --    0.96592   0.97462   0.98228   0.98919   0.99689
 Alpha virt. eigenvalues --    0.99990   1.01148   1.01786   1.01940   1.02808
 Alpha virt. eigenvalues --    1.03382   1.03588   1.04279   1.05604   1.06451
 Alpha virt. eigenvalues --    1.07116   1.07969   1.08663   1.08936   1.09504
 Alpha virt. eigenvalues --    1.10113   1.10861   1.12060   1.12347   1.12994
 Alpha virt. eigenvalues --    1.14055   1.15026   1.16073   1.16627   1.17406
 Alpha virt. eigenvalues --    1.17871   1.18396   1.18791   1.19183   1.19923
 Alpha virt. eigenvalues --    1.21258   1.21646   1.22738   1.23727   1.24029
 Alpha virt. eigenvalues --    1.24506   1.25965   1.26172   1.27181   1.28018
 Alpha virt. eigenvalues --    1.28541   1.29060   1.29197   1.29839   1.31333
 Alpha virt. eigenvalues --    1.31820   1.32578   1.33470   1.34084   1.34440
 Alpha virt. eigenvalues --    1.35456   1.36071   1.37731   1.39219   1.39772
 Alpha virt. eigenvalues --    1.40319   1.41241   1.42627   1.42726   1.43831
 Alpha virt. eigenvalues --    1.45005   1.45297   1.46085   1.47568   1.50195
 Alpha virt. eigenvalues --    1.50947   1.52188   1.52968   1.53125   1.53226
 Alpha virt. eigenvalues --    1.54012   1.54495   1.54744   1.55233   1.55957
 Alpha virt. eigenvalues --    1.56620   1.56979   1.57133   1.58038   1.58779
 Alpha virt. eigenvalues --    1.59416   1.59506   1.60121   1.60652   1.61172
 Alpha virt. eigenvalues --    1.61319   1.61628   1.62462   1.62927   1.63220
 Alpha virt. eigenvalues --    1.63437   1.64126   1.64538   1.64757   1.65456
 Alpha virt. eigenvalues --    1.65981   1.67201   1.67500   1.68292   1.68665
 Alpha virt. eigenvalues --    1.69527   1.70025   1.70583   1.71334   1.71586
 Alpha virt. eigenvalues --    1.72066   1.72617   1.73137   1.74344   1.74980
 Alpha virt. eigenvalues --    1.75809   1.76663   1.77202   1.78051   1.78119
 Alpha virt. eigenvalues --    1.78477   1.79102   1.79993   1.80575   1.80899
 Alpha virt. eigenvalues --    1.82751   1.83247   1.83986   1.84275   1.84866
 Alpha virt. eigenvalues --    1.86215   1.86515   1.87128   1.88178   1.89119
 Alpha virt. eigenvalues --    1.89378   1.89526   1.90319   1.91390   1.91560
 Alpha virt. eigenvalues --    1.92502   1.93162   1.94329   1.94437   1.94516
 Alpha virt. eigenvalues --    1.95062   1.96513   1.96772   1.97978   1.98109
 Alpha virt. eigenvalues --    1.99238   2.00198   2.00369   2.01425   2.02722
 Alpha virt. eigenvalues --    2.03147   2.03618   2.04062   2.04575   2.04874
 Alpha virt. eigenvalues --    2.06007   2.06607   2.07540   2.08853   2.09521
 Alpha virt. eigenvalues --    2.10269   2.10932   2.11446   2.12535   2.13522
 Alpha virt. eigenvalues --    2.14035   2.14707   2.16572   2.16737   2.17386
 Alpha virt. eigenvalues --    2.17893   2.18734   2.19040   2.19851   2.20366
 Alpha virt. eigenvalues --    2.21193   2.21553   2.22699   2.22871   2.23204
 Alpha virt. eigenvalues --    2.23550   2.24503   2.25167   2.26392   2.26872
 Alpha virt. eigenvalues --    2.27831   2.28234   2.29135   2.29835   2.30151
 Alpha virt. eigenvalues --    2.30999   2.32034   2.32819   2.33873   2.34617
 Alpha virt. eigenvalues --    2.35017   2.35273   2.36156   2.36314   2.37031
 Alpha virt. eigenvalues --    2.37716   2.37948   2.38638   2.38914   2.39728
 Alpha virt. eigenvalues --    2.40467   2.41555   2.42374   2.42633   2.43766
 Alpha virt. eigenvalues --    2.45337   2.45638   2.45991   2.46433   2.47216
 Alpha virt. eigenvalues --    2.47997   2.50035   2.50690   2.51634   2.51835
 Alpha virt. eigenvalues --    2.53903   2.53955   2.54534   2.55633   2.56005
 Alpha virt. eigenvalues --    2.56801   2.57306   2.57848   2.58214   2.58457
 Alpha virt. eigenvalues --    2.59841   2.60112   2.60368   2.61228   2.61561
 Alpha virt. eigenvalues --    2.62188   2.63426   2.63794   2.64197   2.65550
 Alpha virt. eigenvalues --    2.66188   2.66473   2.67195   2.67432   2.68473
 Alpha virt. eigenvalues --    2.69323   2.69631   2.70054   2.70424   2.71146
 Alpha virt. eigenvalues --    2.71971   2.72238   2.73164   2.74017   2.74410
 Alpha virt. eigenvalues --    2.74907   2.76226   2.76929   2.77243   2.78534
 Alpha virt. eigenvalues --    2.79160   2.79578   2.80545   2.80931   2.81982
 Alpha virt. eigenvalues --    2.82250   2.82943   2.83708   2.84081   2.84553
 Alpha virt. eigenvalues --    2.85418   2.86407   2.86553   2.87009   2.87802
 Alpha virt. eigenvalues --    2.88711   2.89786   2.90276   2.90506   2.91723
 Alpha virt. eigenvalues --    2.92948   2.93729   2.94108   2.94981   2.95551
 Alpha virt. eigenvalues --    2.97000   2.97617   2.98494   2.99166   2.99510
 Alpha virt. eigenvalues --    3.00506   3.01556   3.02031   3.02911   3.03143
 Alpha virt. eigenvalues --    3.03904   3.04546   3.05546   3.05818   3.06767
 Alpha virt. eigenvalues --    3.08373   3.08429   3.08797   3.09834   3.10034
 Alpha virt. eigenvalues --    3.10392   3.10804   3.11450   3.12434   3.13040
 Alpha virt. eigenvalues --    3.13466   3.14167   3.14453   3.14973   3.15758
 Alpha virt. eigenvalues --    3.16146   3.16580   3.17352   3.17856   3.18502
 Alpha virt. eigenvalues --    3.19815   3.20176   3.20595   3.20851   3.21182
 Alpha virt. eigenvalues --    3.21869   3.22579   3.23694   3.24080   3.25122
 Alpha virt. eigenvalues --    3.25664   3.26676   3.26793   3.27415   3.28441
 Alpha virt. eigenvalues --    3.29004   3.30004   3.30389   3.30590   3.31493
 Alpha virt. eigenvalues --    3.32095   3.32683   3.33034   3.33713   3.34434
 Alpha virt. eigenvalues --    3.35042   3.35587   3.36015   3.36459   3.37070
 Alpha virt. eigenvalues --    3.38540   3.38881   3.39275   3.40093   3.40581
 Alpha virt. eigenvalues --    3.41145   3.41626   3.41899   3.42912   3.43391
 Alpha virt. eigenvalues --    3.44189   3.44609   3.44973   3.45562   3.45912
 Alpha virt. eigenvalues --    3.46557   3.47622   3.48404   3.48838   3.50007
 Alpha virt. eigenvalues --    3.50117   3.51393   3.52975   3.53148   3.54121
 Alpha virt. eigenvalues --    3.54427   3.55354   3.56076   3.56419   3.56889
 Alpha virt. eigenvalues --    3.57684   3.58216   3.59211   3.59831   3.60107
 Alpha virt. eigenvalues --    3.60780   3.61701   3.62516   3.63901   3.64526
 Alpha virt. eigenvalues --    3.66263   3.66809   3.67429   3.68719   3.69997
 Alpha virt. eigenvalues --    3.70761   3.71268   3.72884   3.73733   3.74520
 Alpha virt. eigenvalues --    3.76159   3.76480   3.77774   3.78966   3.79584
 Alpha virt. eigenvalues --    3.80380   3.80841   3.82237   3.82915   3.85598
 Alpha virt. eigenvalues --    3.85951   3.86833   3.87966   3.88407   3.89414
 Alpha virt. eigenvalues --    3.91405   3.91925   3.93329   3.94267   3.94606
 Alpha virt. eigenvalues --    3.96833   3.97482   3.97856   3.98238   3.99594
 Alpha virt. eigenvalues --    4.00653   4.01372   4.04154   4.06071   4.07257
 Alpha virt. eigenvalues --    4.08875   4.09630   4.11345   4.12839   4.13622
 Alpha virt. eigenvalues --    4.14236   4.15745   4.16846   4.17912   4.19219
 Alpha virt. eigenvalues --    4.19786   4.20661   4.21156   4.23483   4.25077
 Alpha virt. eigenvalues --    4.26760   4.27207   4.28261   4.29625   4.31142
 Alpha virt. eigenvalues --    4.32077   4.33169   4.35009   4.36405   4.37235
 Alpha virt. eigenvalues --    4.39370   4.40021   4.41142   4.42901   4.43936
 Alpha virt. eigenvalues --    4.44804   4.46044   4.46219   4.47759   4.49904
 Alpha virt. eigenvalues --    4.50676   4.51924   4.55303   4.57058   4.57349
 Alpha virt. eigenvalues --    4.59500   4.60940   4.63074   4.64725   4.67282
 Alpha virt. eigenvalues --    4.67872   4.72746   4.73690   4.75581   4.75847
 Alpha virt. eigenvalues --    4.77965   4.80346   4.80804   4.82833   4.83562
 Alpha virt. eigenvalues --    4.85273   4.86881   4.88941   4.90170   4.90944
 Alpha virt. eigenvalues --    4.92315   4.93350   4.95142   4.97612   4.98088
 Alpha virt. eigenvalues --    4.99880   5.02887   5.04665   5.05176   5.06847
 Alpha virt. eigenvalues --    5.08985   5.13176   5.15747   5.19142   5.20586
 Alpha virt. eigenvalues --    5.21605   5.25236   5.26552   5.27151   5.27982
 Alpha virt. eigenvalues --    5.30655   5.31526   5.32066   5.34849   5.37985
 Alpha virt. eigenvalues --    5.39712   5.42416   5.43282   5.45526   5.47257
 Alpha virt. eigenvalues --    5.48857   5.49394   5.50887   5.53306   5.58161
 Alpha virt. eigenvalues --    5.64406   5.67247   5.72588   5.74618   5.77751
 Alpha virt. eigenvalues --    5.80025   5.81046   5.83494   5.84404   5.86834
 Alpha virt. eigenvalues --    5.89269   5.90611   5.91875   5.94171   5.95682
 Alpha virt. eigenvalues --    5.97425   6.03669   6.06081   6.15266   6.17353
 Alpha virt. eigenvalues --    6.20267   6.22733   6.25931   6.26879   6.38340
 Alpha virt. eigenvalues --    6.41763   6.44199   6.47896   6.49096   6.55209
 Alpha virt. eigenvalues --    6.59113   6.67317   6.73179   6.75221   6.76272
 Alpha virt. eigenvalues --    6.77877   6.80650   6.84009   6.85189   6.87083
 Alpha virt. eigenvalues --    6.89068   6.95441   6.99902   7.07674   7.09015
 Alpha virt. eigenvalues --    7.09636   7.12099   7.16867   7.19411   7.22123
 Alpha virt. eigenvalues --    7.32332   7.40390   9.06398   9.42644   9.59100
 Alpha virt. eigenvalues --   19.82930  22.36345  22.46757  22.49589  22.60325
 Alpha virt. eigenvalues --   22.64975  22.71028  22.74911  22.76539  22.82255
 Alpha virt. eigenvalues --   22.86711  22.95471  22.97488  23.07405  23.18273
 Alpha virt. eigenvalues --   23.29300  23.52126  32.18976  33.16868  44.14097
 Alpha virt. eigenvalues --   44.22716  44.26078  44.35707  44.51517
          Condensed to atoms (all electrons):
               1          2          3          4          5          6
     1  C    5.146644   0.429028   0.412910   0.007152  -0.006673  -0.000252
     2  H    0.429028   0.496438  -0.013913  -0.002290   0.000469  -0.000005
     3  H    0.412910  -0.013913   0.505686  -0.000711   0.000203  -0.000009
     4  C    0.007152  -0.002290  -0.000711   5.598125   0.542974   0.231740
     5  H   -0.006673   0.000469   0.000203   0.542974   0.527769  -0.035248
     6  O   -0.000252  -0.000005  -0.000009   0.231740  -0.035248   8.170383
     7  H    0.000001  -0.000003  -0.000003  -0.056482  -0.006887   0.308078
     8  C   -0.006742   0.010988  -0.000879  -0.053105  -0.106598  -0.061440
     9  H    0.006932  -0.000299  -0.002021  -0.074558   0.002081   0.001283
    10  O    0.005245  -0.000190  -0.000017   0.050615   0.005634  -0.022244
[...]
 (Enter /storage/apps/GAUSSIAN/G16_RevA03/g16/l716.exe)
 Dipole        =-5.99672592D-01-2.58812258D+00-8.16182441D-01
 ***** Axes restored to original set *****
 -------------------------------------------------------------------
 Center     Atomic                   Forces (Hartrees/Bohr)
 Number     Number              X              Y              Z
 -------------------------------------------------------------------
      1        6          -0.000076279   -0.000014341    0.000106040
      2        1          -0.000009844    0.000016947    0.000003530
      3        1          -0.000009775   -0.000014069   -0.000001928
      4        6          -0.000285332    0.000103688    0.000170031
      5        1          -0.000062064    0.000006737    0.000005029
      6        8          -0.000637656    0.000312183   -0.000103353
      7        1          -0.000056937    0.000017319   -0.000029138
      8        6          -0.000303054    0.000023116    0.000237925
      9        1          -0.000030394    0.000008089    0.000035799
     10        8          -0.000415588    0.000167416    0.000102434
     11        1          -0.000037924    0.000007351    0.000022016
     12        6           0.000074563    0.000057088    0.000239408
     13        1           0.000016357    0.000015621   -0.000010948
     14        6          -0.000180906   -0.000000583    0.000277650
     15        1          -0.000012362    0.000000719    0.000025792
     16        8          -0.000103014    0.000006290    0.000248603
     17        7           0.000129687   -0.000074631    0.000058735
     18        6           0.000863407    0.000134855   -0.000563244
     19        1           0.000022603    0.000012626    0.000018435
     20        6           0.001920177    0.000225965   -0.002371326
     21        1           0.000204597    0.000050687   -0.000233875
     22        6           0.002967740    0.000270397   -0.003401641
     23        1           0.000148115    0.000041330   -0.000284196
     24        1          -0.000258682   -0.000361272    0.000306648
     25        6           0.000547274   -0.000128795   -0.000612331
     26        6          -0.000203957   -0.000124931    0.000905325
     27        1          -0.000095003   -0.000025504    0.000205427
     28        6          -0.000043060   -0.000156683    0.000033914
     29        8           0.000207510   -0.000425744   -0.000163824
     30        7          -0.000328568   -0.000357075    0.000709216
     31        1          -0.000002678   -0.000011309    0.000079623
     32        1          -0.000008735    0.000012751    0.000192073
     33        1          -0.000043915   -0.000011979    0.000021053
     34        6          -0.000186925   -0.000043755    0.000168803
     35        6          -0.000075101   -0.000125259   -0.000446339
     36        6          -0.000180930   -0.000685753    0.000072368
     37        6          -0.002247986    0.001662412    0.002964517
     38        6          -0.001851676   -0.001391454    0.001755770
     39        8           0.001180862    0.000117094   -0.001508941
     40       16           0.000471090    0.000244939   -0.000649147
     41        1          -0.000025543   -0.000016140    0.000006835
     42        1           0.000000762   -0.000000377    0.000034059
     43        1          -0.000039022    0.000664788    0.000232633
     44        1           0.000001977   -0.000051566   -0.000065984
     45        1          -0.000456374    0.000033628    0.000627141
     46        1          -0.000397057   -0.000086272    0.000496508
     47        1          -0.000067893   -0.000094234    0.000103267
     48        1          -0.000022488   -0.000012312   -0.000020391
 -------------------------------------------------------------------
 Cartesian Forces:  Max     0.003401641 RMS     0.000682912
 Leave Link  716 at Sat Aug 13 20:46:53 2022, MaxMem=  2684354560 cpu:               0.4 elap:               0.0
 (Enter /storage/apps/GAUSSIAN/G16_RevA03/g16/l103.exe)

 GradGradGradGradGradGradGradGradGradGradGradGradGradGradGradGradGradGrad
 Berny optimization.
 Search for a local minimum.
 Step number   1 out of a maximum of    2
 All quantities printed in internal units (Hartrees-Bohrs-Radians)
 Second derivative matrix not updated -- first step.
 ITU=  0
     Eigenvalues ---    0.00025   0.00090   0.00108   0.00128   0.00185
     Eigenvalues ---    0.00219   0.00325   0.00365   0.00450   0.00495
     Eigenvalues ---    0.00611   0.00619   0.00807   0.00925   0.00959
     Eigenvalues ---    0.00975   0.01116   0.01168   0.01372   0.01508
     Eigenvalues ---    0.01720   0.02153   0.02355   0.02436   0.02675
     Eigenvalues ---    0.03040   0.03128   0.03310   0.03732   0.04272
     Eigenvalues ---    0.04401   0.04604   0.04827   0.05016   0.05259
     Eigenvalues ---    0.05329   0.05556   0.05741   0.05826   0.05976
     Eigenvalues ---    0.06167   0.06301   0.06472   0.06862   0.07034
     Eigenvalues ---    0.07054   0.07131   0.07665   0.08061   0.08331
     Eigenvalues ---    0.08599   0.08771   0.09298   0.09374   0.10218
     Eigenvalues ---    0.10770   0.10844   0.11197   0.12274   0.12566
     Eigenvalues ---    0.12828   0.13083   0.13240   0.13295   0.13713
     Eigenvalues ---    0.13859   0.14048   0.15473   0.16128   0.16530
     Eigenvalues ---    0.17439   0.18140   0.18686   0.19305   0.19845
     Eigenvalues ---    0.20316   0.20686   0.21287   0.21935   0.22509
     Eigenvalues ---    0.25154   0.26177   0.27101   0.27987   0.30617
     Eigenvalues ---    0.33166   0.33538   0.33935   0.34771   0.37691
     Eigenvalues ---    0.37883   0.37883   0.37883   0.37883   0.40211
     Eigenvalues ---    0.43688   0.48163   0.48841   0.57096   0.59490
     Eigenvalues ---    0.59950   0.61761   0.69597   0.72332   0.73630
     Eigenvalues ---    0.79314   0.80887   0.82739   0.87477   0.90880
     Eigenvalues ---    0.91279   0.92181   0.93123   0.93479   0.95443
     Eigenvalues ---    0.96609   1.00000   1.00860   1.02294   1.04134
     Eigenvalues ---    1.05970   1.08547   1.11590   1.12575   1.12753
     Eigenvalues ---    1.20543   1.20835   1.27425   1.27628   1.29844
     Eigenvalues ---    1.32784   1.37108   1.43824   1.55050   1.72711
     Eigenvalues ---    1.82815   1.89943   2.35071
 Quadratic step=7.953D+00 exceeds max=3.000D-01 adjusted using Lamda=-9.753D-03.
 Angle between NR and scaled steps=  42.61 degrees.
 Angle between quadratic step and forces=  54.90 degrees.
 Linear search not attempted -- first point.
 Variable       Old X    -DE/DX   Delta X   Delta X   Delta X     New X
                                 (Linear)    (Quad)   (Total)
    X1        6.80063  -0.00008   0.00000  -0.02418  -0.02418   6.77645
    Y1       -6.83284  -0.00001   0.00000  -0.01408  -0.01408  -6.84692
    Z1       -0.83890   0.00011   0.00000   0.01219   0.01219  -0.82672
    X2        7.08501  -0.00001   0.00000  -0.02795  -0.02795   7.05706
    Y2       -7.01217   0.00002   0.00000  -0.01807  -0.01807  -7.03024
    Z2       -2.86973   0.00000   0.00000   0.01148   0.01148  -2.85825
    X3        8.19166  -0.00001   0.00000  -0.01970  -0.01970   8.17196
    Y3       -8.00657  -0.00001   0.00000  -0.01234  -0.01234  -8.01891
    Z3        0.12651  -0.00000   0.00000   0.00843   0.00843   0.13493
    X4        3.51690  -0.00029   0.00000  -0.00660  -0.00660   3.51029
    Y4       -2.71723   0.00010   0.00000   0.01204   0.01204  -2.70519
    Z4        2.34767   0.00017   0.00000   0.01455   0.01455   2.36222
    X5        2.29226  -0.00006   0.00000  -0.01027  -0.01027   2.28199
    Y5       -4.36723   0.00001   0.00000   0.01386   0.01386  -4.35336
    Z5        2.05681   0.00001   0.00000   0.02169   0.02169   2.07850
    X6        2.76624  -0.00064   0.00000   0.00090   0.00090   2.76714
    Y6       -1.28267   0.00031   0.00000   0.02677   0.02677  -1.25590
    Z6        4.39441  -0.00010   0.00000   0.00747   0.00747   4.40187
    X7        0.99084  -0.00006   0.00000   0.00457   0.00457   0.99541
    Y7       -0.70166   0.00002   0.00000   0.03309   0.03309  -0.66857
    Z7        4.09215  -0.00003   0.00000   0.00137   0.00137   4.09352
    X8        6.26621  -0.00030   0.00000  -0.00708  -0.00708   6.25913
    Y8       -3.56067   0.00002   0.00000   0.00510   0.00510  -3.55557
    Z8        2.66144   0.00024   0.00000   0.00596   0.00596   2.66740
    X9        6.42445  -0.00003   0.00000  -0.00112  -0.00112   6.42334
    Y9       -5.23471   0.00001   0.00000   0.01109   0.01109  -5.22362
    Z9        3.86502   0.00004   0.00000   0.01318   0.01318   3.87820
   X10        7.70626  -0.00042   0.00000   0.00252   0.00252   7.70877
   Y10       -1.54376   0.00017   0.00000   0.00891   0.00891  -1.53485
   Z10        3.61762   0.00010   0.00000  -0.01711  -0.01711   3.60051
   X11        6.67326  -0.00004   0.00000   0.01445   0.01445   6.68771
   Y11       -0.71514   0.00001   0.00000   0.01910   0.01910  -0.69604
   Z11        4.87887   0.00002   0.00000  -0.01470  -0.01470   4.86417
   X12        3.73108   0.00007   0.00000  -0.00741  -0.00741   3.72367
   Y12       -1.24577   0.00006   0.00000   0.00043   0.00043  -1.24534
   Z12       -0.15036   0.00024   0.00000   0.00926   0.00926  -0.14109
   X13        4.27028   0.00002   0.00000   0.00444   0.00444   4.27472
   Y13        0.71187   0.00002   0.00000  -0.00011  -0.00011   0.71176
   Z13        0.22628  -0.00001   0.00000  -0.00457  -0.00457   0.22171
   X14        7.09154  -0.00018   0.00000  -0.01935  -0.01935   7.07219
   Y14       -4.09962  -0.00000   0.00000  -0.01188  -0.01188  -4.11151
   Z14       -0.04437   0.00028   0.00000   0.00497   0.00497  -0.03940
   X15        9.03338  -0.00001   0.00000  -0.01838  -0.01838   9.01500
   Y15       -3.46046   0.00000   0.00000  -0.01705  -0.01705  -3.47751
   Z15       -0.30166   0.00003   0.00000  -0.00748  -0.00748  -0.30914
   X16        5.50407  -0.00010   0.00000  -0.02156  -0.02156   5.48251
   Y16       -2.52558   0.00001   0.00000  -0.01425  -0.01425  -2.53983
   Z16       -1.61624   0.00025   0.00000   0.00664   0.00664  -1.60961
   X17        1.36145   0.00013   0.00000  -0.00433  -0.00433   1.35712
   Y17       -1.13618  -0.00007   0.00000  -0.00092  -0.00092  -1.13710
   Z17       -1.62448   0.00006   0.00000   0.00854   0.00854  -1.61594
   X18        0.38007   0.00086   0.00000   0.01941   0.01941   0.39948
   Y18       -3.33394   0.00013   0.00000   0.00080   0.00080  -3.33315
   Z18       -2.51628  -0.00056   0.00000  -0.02029  -0.02029  -2.53657
   X19        1.44861   0.00002   0.00000   0.01688   0.01688   1.46549
   Y19       -5.01889   0.00001   0.00000   0.00184   0.00184  -5.01705
   Z19       -2.10176   0.00002   0.00000  -0.00944  -0.00944  -2.11121
   X20       -1.77411   0.00192   0.00000   0.04852   0.04852  -1.72559
   Y20       -3.31568   0.00023   0.00000   0.00261   0.00261  -3.31307
   Z20       -3.92469  -0.00237   0.00000  -0.06389  -0.06389  -3.98858
   X21       -2.52171   0.00020   0.00000   0.05818   0.05818  -2.46352
   Y21       -5.07688   0.00005   0.00000   0.00331   0.00331  -5.07357
   Z21       -4.63528  -0.00023   0.00000  -0.07507  -0.07507  -4.71035
   X22       -2.97858   0.00297   0.00000   0.04958   0.04958  -2.92900
   Y22       -1.02043   0.00027   0.00000   0.00157   0.00157  -1.01886
   Z22       -4.43746  -0.00340   0.00000  -0.06855  -0.06855  -4.50601
   X23       -4.57700   0.00015   0.00000   0.06102   0.06102  -4.51598
   Y23       -0.97039   0.00004   0.00000   0.00494   0.00494  -0.96545
   Z23       -5.71033  -0.00028   0.00000  -0.08250  -0.08250  -5.79283
   X24       -5.44144  -0.00026   0.00000  -0.01646  -0.01646  -5.45790
   Y24       -1.35296  -0.00036   0.00000  -0.04485  -0.04485  -1.39781
   Z24       -1.83958   0.00031   0.00000   0.03960   0.03960  -1.79998
   X25       -1.92976   0.00055   0.00000   0.00714   0.00714  -1.92262
   Y25        1.21896  -0.00013   0.00000  -0.00369  -0.00369   1.21526
   Z25       -3.51470  -0.00061   0.00000  -0.00950  -0.00950  -3.52420
   X26        0.26605  -0.00020   0.00000  -0.01138  -0.01138   0.25468
   Y26        1.07528  -0.00012   0.00000  -0.00297  -0.00297   1.07232
   Z26       -2.10967   0.00091   0.00000   0.01899   0.01899  -2.09067
   X27        1.13927  -0.00010   0.00000  -0.02407  -0.02407   1.11519
   Y27        2.77084  -0.00003   0.00000  -0.00481  -0.00481   2.76603
   Z27       -1.36863   0.00021   0.00000   0.03862   0.03862  -1.33001
   X28       -2.90465  -0.00004   0.00000  -0.01673  -0.01673  -2.92138
   Y28        3.81207  -0.00016   0.00000  -0.00569  -0.00569   3.80638
   Z28       -4.08941   0.00003   0.00000   0.02740   0.02740  -4.06201
   X29       -1.57007   0.00021   0.00000  -0.02364  -0.02364  -1.59371
   Y29        5.65178  -0.00043   0.00000  -0.00180  -0.00180   5.64999
   Z29       -3.86418  -0.00016   0.00000   0.03190   0.03190  -3.83228
   X30       -5.30703  -0.00033   0.00000  -0.02478  -0.02478  -5.33181
   Y30        3.90393  -0.00036   0.00000  -0.00712  -0.00712   3.89681
   Z30       -5.04294   0.00071   0.00000   0.04848   0.04848  -4.99446
   X31       -6.01485  -0.00000   0.00000  -0.02377  -0.02377  -6.03862
   Y31        5.66738  -0.00001   0.00000  -0.00687  -0.00687   5.66051
   Z31       -5.20162   0.00008   0.00000   0.04729   0.04729  -5.15434
   X32       -6.54575  -0.00001   0.00000  -0.01923  -0.01923  -6.56498
   Y32        2.57960   0.00001   0.00000  -0.01087  -0.01087   2.56873
   Z32       -4.45406   0.00019   0.00000   0.04834   0.04834  -4.40572
   X33        4.92220  -0.00004   0.00000  -0.02233  -0.02233   4.89986
   Y33       -7.55030  -0.00001   0.00000  -0.01334  -0.01334  -7.56365
   Z33       -0.37000   0.00002   0.00000   0.01806   0.01806  -0.35194
   X34        0.38149  -0.00019   0.00000  -0.00830  -0.00830   0.37319
   Y34        4.15739  -0.00004   0.00000   0.00659   0.00659   4.16398
   Z34        5.37808   0.00017   0.00000   0.00675   0.00675   5.38483
   X35       -3.14032  -0.00008   0.00000   0.02743   0.02743  -3.11289
   Y35        1.69590  -0.00013   0.00000  -0.00417  -0.00417   1.69172
   Z35        2.33452  -0.00045   0.00000  -0.02504  -0.02504   2.30948
   X36       -5.30791  -0.00018   0.00000   0.00784   0.00784  -5.30007
   Y36        1.62063  -0.00069   0.00000  -0.01963  -0.01963   1.60100
   Z36        0.88820   0.00007   0.00000   0.00350   0.00350   0.89170
   X37       -9.19413  -0.00225   0.00000  -0.01345  -0.01345  -9.20758
   Y37       -0.73618   0.00166   0.00000   0.01807   0.01807  -0.71812
   Z37       -0.66801   0.00296   0.00000   0.01459   0.01459  -0.65342
   X38       -6.38028  -0.00185   0.00000  -0.01780  -0.01780  -6.39808
   Y38       -0.77387  -0.00139   0.00000  -0.02172  -0.02172  -0.79558
   Z38       -0.05900   0.00176   0.00000   0.03499   0.03499  -0.02401
   X39       -1.73589   0.00118   0.00000   0.05744   0.05744  -1.67845
   Y39       -0.15577   0.00012   0.00000   0.00952   0.00952  -0.14624
   Z39        2.88590  -0.00151   0.00000  -0.05472  -0.05472   2.83118
   X40       -2.29413   0.00047   0.00000   0.01626   0.01626  -2.27787
   Y40        4.83210   0.00024   0.00000   0.00217   0.00217   4.83427
   Z40        3.39410  -0.00065   0.00000  -0.02703  -0.02703   3.36707
   X41        0.83527  -0.00003   0.00000  -0.02146  -0.02146   0.81380
   Y41        5.91436  -0.00002   0.00000   0.00794   0.00794   5.92231
   Z41        6.34637   0.00001   0.00000   0.00975   0.00975   6.35612
   X42        2.01382   0.00000   0.00000   0.00475   0.00475   2.01857
   Y42        3.54791  -0.00000   0.00000   0.00683   0.00683   3.55474
   Z42        4.28851   0.00003   0.00000   0.02576   0.02576   4.31426
   X43      -10.34230  -0.00004   0.00000  -0.03197  -0.03197 -10.37426
   Y43       -0.66326   0.00066   0.00000   0.06612   0.06612  -0.59714
   Z43        1.04100   0.00023   0.00000  -0.00428  -0.00428   1.03672
   X44       -9.69182   0.00000   0.00000   0.03482   0.03482  -9.65700
   Y44        0.92270  -0.00005   0.00000   0.00131   0.00131   0.92400
   Z44       -1.79759  -0.00007   0.00000  -0.03261  -0.03261  -1.83020
   X45       -9.74194  -0.00046   0.00000  -0.01914  -0.01914  -9.76109
   Y45       -2.41253   0.00003   0.00000   0.00901   0.00901  -2.40352
   Z45       -1.73747   0.00063   0.00000   0.02908   0.02908  -1.70839
   X46       -5.90718  -0.00040   0.00000  -0.03347  -0.03347  -5.94066
   Y46       -2.32505  -0.00009   0.00000  -0.01798  -0.01798  -2.34304
   Z46        1.22395   0.00050   0.00000   0.04370   0.04370   1.26765
   X47       -6.33542  -0.00007   0.00000   0.01451   0.01451  -6.32090
   Y47        3.36925  -0.00009   0.00000  -0.01853  -0.01853   3.35072
   Z47        0.59726   0.00010   0.00000  -0.01239  -0.01239   0.58487
   X48       -0.09090  -0.00002   0.00000  -0.02436  -0.02436  -0.11526
   Y48        2.71653  -0.00001   0.00000   0.00625   0.00625   2.72278
   Z48        6.76666  -0.00002   0.00000   0.00059   0.00059   6.76725
         Item               Value     Threshold  Converged?
 Maximum Force            0.003402     0.000450     NO 
 RMS     Force            0.000683     0.000300     NO 
 Maximum Displacement     0.082500     0.001800     NO 
 RMS     Displacement     0.025010     0.001200     NO 
 Predicted change in Energy=-1.146373D-03
 GradGradGradGradGradGradGradGradGradGradGradGradGradGradGradGradGradGrad

 Leave Link  103 at Sat Aug 13 20:46:53 2022, MaxMem=  2684354560 cpu:               0.9 elap:               0.1
 (Enter /storage/apps/GAUSSIAN/G16_RevA03/g16/l9999.exe)

 Test job not archived.
 1\1\GINC-T078\Force\RM062X\def2TZVP\C16H24N2O5S1\LV87696\13-Aug-2022\0
 \\#P M062X/Def2TZVP scf=(direct,conver=8) EmpiricalDispersion=GD3 Forc
 e Charge Prop=(Field,Read)\\Gaussian run\\0,1\C,3.598738,-3.615783,-0.
 443927\H,3.749228,-3.710679,-1.518594\H,4.334839,-4.236892,0.066945\C,
 1.861062,-1.437896,1.242333\H,1.213011,-2.311037,1.088417\O,1.463831,-
 0.678762,2.32542\H,0.524328,-0.371303,2.165473\C,3.315936,-1.884223,1.
 408372\H,3.399674,-2.770091,2.045282\O,4.077975,-0.816924,1.914362\H,3
 .531336,-0.378436,2.581788\C,1.974402,-0.659234,-0.079565\H,2.259736,0
 .376703,0.119742\C,3.752681,-2.169427,-0.02348\H,4.780259,-1.831194,-0
 .159632\O,2.912631,-1.33648,-0.85528\N,0.720447,-0.601238,-0.859639\C,
 0.201125,-1.764247,-1.331556\H,0.766571,-2.655881,-1.112205\C,-0.93881
 8,-1.754582,-2.076858\H,-1.334431,-2.68657,-2.452885\C,-1.576198,-0.53
 9987,-2.348204\H,-2.422042,-0.513508,-3.021775\H,-2.879488,-0.715958,-
 0.973464\C,-1.021183,0.645044,-1.8599\C,0.14079,0.569015,-1.116387\H,0
 .602874,1.466267,-0.72425\C,-1.537076,2.017263,-2.164023\O,-0.830844,2
 .990794,-2.044835\N,-2.808358,2.065871,-2.668608\H,-3.182924,2.999046,
 -2.75258\H,-3.463863,1.365066,-2.356986\H,2.604714,-3.995449,-0.195796
 \C,0.201874,2.199997,2.845958\C,-1.661786,0.89743,1.235373\C,-2.808823
 ,0.857601,0.470017\C,-4.865322,-0.38957,-0.353497\C,-3.3763,-0.409513,
 -0.031222\O,-0.918593,-0.082429,1.527153\S,-1.214001,2.557036,1.796081
 \H,0.442004,3.129746,3.358354\H,1.065669,1.877472,2.269381\H,-5.472907
 ,-0.350982,0.550876\H,-5.12869,0.48827,-0.951244\H,-5.155213,-1.276655
 ,-0.919428\H,-3.125946,-1.230366,0.647684\H,-3.352558,1.782932,0.31605
 4\H,-0.048103,1.437526,3.580761\\Version=ES64L-G16RevA.03\State=1-A\HF
 =-1507.9013558\RMSD=4.284e-09\RMSF=6.829e-04\Dipole=-0.1064323,-2.2345
 884,-1.6490683\Quadrupole=2.0137698,1.1949287,-3.2086985,-3.8587407,9.
 5693209,4.7341795\PG=C01 [X(C16H24N2O5S1)]\\@


 The lyf so short, the craft so long to lerne.
                             -- Chaucer
 Job cpu time:       0 days  3 hours 21 minutes 47.7 seconds.
 Elapsed time:       0 days  0 hours 12 minutes 38.1 seconds.
 File lengths (MBytes):  RWF=    435 Int=      0 D2E=      0 Chk=     48 Scr=      1
 Normal termination of Gaussian 16 at Sat Aug 13 20:46:53 2022.
