 Entering Gaussian System, Link 0=g16
 Initial command:
 /storage/apps/GAUSSIAN/G16_RevA03/g16/l1.exe "/scratch/tmp/1019311/Gau-172921.inp" -scrdir="/scratch/tmp/1019311/"
 Entering Link 1 = /storage/apps/GAUSSIAN/G16_RevA03/g16/l1.exe PID=    172922.
  
 Copyright (c) 1988,1990,1992,1993,1995,1998,2003,2009,2016,
            Gaussian, Inc.  All Rights Reserved.
  
 This is part of the Gaussian(R) 16 program.  It is based on
 the Gaussian(R) 09 system (copyright 2009, Gaussian, Inc.),
 the Gaussian(R) 03 system (copyright 2003, Gaussian, Inc.),
 the Gaussian(R) 98 system (copyright 1998, Gaussian, Inc.),
 the Gaussian(R) 94 system (copyright 1995, Gaussian, Inc.),
 the Gaussian 92(TM) system (copyright 1992, Gaussian, Inc.),
 the Gaussian 90(TM) system (copyright 1990, Gaussian, Inc.),
 the Gaussian 88(TM) system (copyright 1988, Gaussian, Inc.),
 the Gaussian 86(TM) system (copyright 1986, Carnegie Mellon
 University), and the Gaussian 82(TM) system (copyright 1983,
 Carnegie Mellon University). Gaussian is a federally registered
 trademark of Gaussian, Inc.
  
 This software contains proprietary and confidential information,
 including trade secrets, belonging to Gaussian, Inc.
  
 This software is provided under written license and may be
 used, copied, transmitted, or stored only in accord with that
 written license.
  
 The following legend is applicable only to US Government
 contracts under FAR:
  
                    RESTRICTED RIGHTS LEGEND
  
 Use, reproduction and disclosure by the US Government is
 subject to restrictions as set forth in subparagraphs (a)
 and (c) of the Commercial Computer Software - Restricted
 Rights clause in FAR 52.227-19.
  
 Gaussian, Inc.
 340 Quinnipiac St., Bldg. 40, Wallingford CT 06492
  
  
 ---------------------------------------------------------------
 Warning -- This program may not be used in any manner that
 competes with the business of Gaussian, Inc. or will provide
 assistance to any competitor of Gaussian, Inc.  The licensee
 of this program is prohibited from giving any competitor of
 Gaussian, Inc. access to this program.  By using this program,
 the user acknowledges that Gaussian, Inc. is engaged in the
 business of creating and licensing software in the field of
 computational chemistry and represents and warrants to the
 licensee that it is not a competitor of Gaussian, Inc. and that
 it will not use this program in any manner prohibited above.
 ---------------------------------------------------------------
  

 Cite this work as:
 Gaussian 16, Revision A.03,
 M. J. Frisch, G. W. Trucks, H. B. Schlegel, G. E. Scuseria, 
 M. A. Robb, J. R. Cheeseman, G. Scalmani, V. Barone, 
 G. A. Petersson, H. Nakatsuji, X. Li, M. Caricato, A. V. Marenich, 
 J. Bloino, B. G. Janesko, R. Gomperts, B. Mennucci, H. P. Hratchian, 
 J. V. Ortiz, A. F. Izmaylov, J. L. Sonnenberg, D. Williams-Young, 
 F. Ding, F. Lipparini, F. Egidi, J. Goings, B. Peng, A. Petrone, 
 T. Henderson, D. Ranasinghe, V. G. Zakrzewski, J. Gao, N. Rega, 
 G. Zheng, W. Liang, M. Hada, M. Ehara, K. Toyota, R. Fukuda, 
 J. Hasegawa, M. Ishida, T. Nakajima, Y. Honda, O. Kitao, H. Nakai, 
 T. Vreven, K. Throssell, J. A. Montgomery, Jr., J. E. Peralta, 
 F. Ogliaro, M. J. Bearpark, J. J. Heyd, E. N. Brothers, K. N. Kudin, 
 V. N. Staroverov, T. A. Keith, R. Kobayashi, J. Normand, 
 K. Raghavachari, A. P. Rendell, J. C. Burant, S. S. Iyengar, 
 J. Tomasi, M. Cossi, J. M. Millam, M. Klene, C. Adamo, R. Cammi, 
 J. W. Ochterski, R. L. Martin, K. Morokuma, O. Farkas, 
 J. B. Foresman, and D. J. Fox, Gaussian, Inc., Wallingford CT, 2016.
 
 ******************************************
 Gaussian 16:  ES64L-G16RevA.03 25-Dec-2016
                13-Aug-2022 
 ******************************************
 %NProcShared=16
 Will use up to   16 processors via shared memory.
 %mem=20GB
 ----------------------------------------------------------------------
 #P M062X/Def2TZVP scf=(direct,conver=8) EmpiricalDispersion=GD3 Force 
 Charge Prop=(Field,Read)
 ----------------------------------------------------------------------
 1/10=7,18=10,28=-2,30=1,38=1,125=101/1,3;
 2/12=2,17=6,18=5,29=2,40=1/2;
 3/5=44,7=101,11=2,25=1,30=1,71=1,74=-55,124=31/1,2,3;
 4//1;
 5/5=2,6=8,38=5/2;
 6/7=2,8=2,9=2,10=2,14=2,15=1,28=1/1,2;
 7/7=1,16=-2,29=1/1,2,3,16;
 1/10=7,18=10,28=-2,30=1/3;
 99/12=1/99;
 Leave Link    1 at Sat Aug 13 20:34:15 2022, MaxMem=  2684354560 cpu:               0.5 elap:               0.0
 (Enter /storage/apps/GAUSSIAN/G16_RevA03/g16/l101.exe)
 ------------
 Gaussian run
 ------------
 Symbolic Z-matrix:
 Charge =  0 Multiplicity = 1
 C                     3.59856  -3.61582  -0.44367 
 H                     3.74914  -3.71045  -1.51835 
 H                     4.33473  -4.23693   0.06708 
 C                     1.86049  -1.43769   1.24273 
 H                     1.2124   -2.31079   1.08853 
 O                     1.46286  -0.67828   2.32529 
 H                     0.52329  -0.37029   2.16428 
 C                     3.31535  -1.88417   1.40887 
 H                     3.39904  -2.76991   2.04595 
 O                     4.07733  -0.81672   1.91458 
 H                     3.53055  -0.37798   2.58175 
 C                     1.97452  -0.65914  -0.07903 
 H                     2.25976   0.37681   0.12019 
 C                     3.75235  -2.16955  -0.02291 
 H                     4.77993  -1.83126  -0.15887 
 O                     2.91247  -1.33646  -0.85483 
 N                     0.72067  -0.6013   -0.8596 
 C                     0.20304  -1.76396  -1.33285 
 H                     0.76783  -2.65563  -1.11201 
 C                    -0.93488  -1.75395  -2.08192 
 H                    -1.32951  -2.68575  -2.45941 
 C                    -1.57018  -0.53938  -2.35529 
 H                    -2.41705  -0.51261  -3.02763 
 H                    -2.88518  -0.72579  -0.9669 
 C                    -1.02009   0.64466  -1.86112 
 C                     0.1403    0.56874  -1.11453 
 H                     0.60019   1.4656   -0.71894 
 C                    -1.53718   2.01693  -2.16391 
 O                    -0.83057   2.99013  -2.0451 
 N                    -2.8089    2.06525  -2.66727 
 H                    -3.18354   2.99847  -2.7507 
 H                    -3.46384   1.36504  -2.35292 
 H                     2.6046   -3.99572  -0.19565 
 C                     0.20159   2.19989   2.84633 
 C                    -1.662     0.89711   1.2343 
 C                    -2.80918   0.85622   0.4703 
 C                    -4.8699   -0.38599  -0.34727 
 C                    -3.38021  -0.41249  -0.02728 
 O                    -0.91686  -0.08224   1.52479 
 S                    -1.21365   2.55719   1.79548 
 H                     0.44126   3.12962   3.35901 
 H                     1.06591   1.87751   2.27046 
 H                    -5.47534  -0.33427   0.5579 
 H                    -5.12871   0.48765  -0.95319 
 H                    -5.16687  -1.27654  -0.90398 
 H                    -3.13516  -1.23018   0.65733 
 H                    -3.35455   1.78093   0.31823 
 H                    -0.04883   1.43735   3.58091 
 
 ITRead=  0  0  0  0  0  0  0  0  0  0  0  0  0  0  0  0  0  0  0  0
 ITRead=  0  0  0  0  0  0  0  0  0  0  0  0  0  0  0  0  0  0  0  0
 ITRead=  0  0  0  0  0  0  0  0
 MicOpt= -1 -1 -1 -1 -1 -1 -1 -1 -1 -1 -1 -1 -1 -1 -1 -1 -1 -1 -1 -1
 MicOpt= -1 -1 -1 -1 -1 -1 -1 -1 -1 -1 -1 -1 -1 -1 -1 -1 -1 -1 -1 -1
 MicOpt= -1 -1 -1 -1 -1 -1 -1 -1
 NAtoms=     48 NQM=       48 NQMF=       0 NMMI=      0 NMMIF=      0
                NMic=       0 NMicF=      0.
                    Isotopes and Nuclear Properties:
 (Nuclear quadrupole moments (NQMom) in fm**2, nuclear magnetic moments (NMagM)
  in nuclear magnetons)

  Atom         1           2           3           4           5           6           7           8           9          10
 IAtWgt=          12           1           1          12           1          16           1          12           1          16
 AtmWgt=  12.0000000   1.0078250   1.0078250  12.0000000   1.0078250  15.9949146   1.0078250  12.0000000   1.0078250  15.9949146
 NucSpn=           0           1           1           0           1           0           1           0           1           0
 AtZEff=  -0.0000000  -0.0000000  -0.0000000  -0.0000000  -0.0000000  -0.0000000  -0.0000000  -0.0000000  -0.0000000  -0.0000000
 NQMom=    0.0000000   0.0000000   0.0000000   0.0000000   0.0000000   0.0000000   0.0000000   0.0000000   0.0000000   0.0000000
 NMagM=    0.0000000   2.7928460   2.7928460   0.0000000   2.7928460   0.0000000   2.7928460   0.0000000   2.7928460   0.0000000
 AtZNuc=   6.0000000   1.0000000   1.0000000   6.0000000   1.0000000   8.0000000   1.0000000   6.0000000   1.0000000   8.0000000

  Atom        11          12          13          14          15          16          17          18          19          20
 IAtWgt=           1          12           1          12           1          16          14          12           1          12
 AtmWgt=   1.0078250  12.0000000   1.0078250  12.0000000   1.0078250  15.9949146  14.0030740  12.0000000   1.0078250  12.0000000
 NucSpn=           1           0           1           0           1           0           2           0           1           0
 AtZEff=  -0.0000000  -0.0000000  -0.0000000  -0.0000000  -0.0000000  -0.0000000  -0.0000000  -0.0000000  -0.0000000  -0.0000000
 NQMom=    0.0000000   0.0000000   0.0000000   0.0000000   0.0000000   0.0000000   2.0440000   0.0000000   0.0000000   0.0000000
 NMagM=    2.7928460   0.0000000   2.7928460   0.0000000   2.7928460   0.0000000   0.4037610   0.0000000   2.7928460   0.0000000
 AtZNuc=   1.0000000   6.0000000   1.0000000   6.0000000   1.0000000   8.0000000   7.0000000   6.0000000   1.0000000   6.0000000

  Atom        21          22          23          24          25          26          27          28          29          30
 IAtWgt=           1          12           1           1          12          12           1          12          16          14
 AtmWgt=   1.0078250  12.0000000   1.0078250   1.0078250  12.0000000  12.0000000   1.0078250  12.0000000  15.9949146  14.0030740
 NucSpn=           1           0           1           1           0           0           1           0           0           2
 AtZEff=  -0.0000000  -0.0000000  -0.0000000  -0.0000000  -0.0000000  -0.0000000  -0.0000000  -0.0000000  -0.0000000  -0.0000000
 NQMom=    0.0000000   0.0000000   0.0000000   0.0000000   0.0000000   0.0000000   0.0000000   0.0000000   0.0000000   2.0440000
 NMagM=    2.7928460   0.0000000   2.7928460   2.7928460   0.0000000   0.0000000   2.7928460   0.0000000   0.0000000   0.4037610
 AtZNuc=   1.0000000   6.0000000   1.0000000   1.0000000   6.0000000   6.0000000   1.0000000   6.0000000   8.0000000   7.0000000

  Atom        31          32          33          34          35          36          37          38          39          40
 IAtWgt=           1           1           1          12          12          12          12          12          16          32
 AtmWgt=   1.0078250   1.0078250   1.0078250  12.0000000  12.0000000  12.0000000  12.0000000  12.0000000  15.9949146  31.9720718
 NucSpn=           1           1           1           0           0           0           0           0           0           0
 AtZEff=  -0.0000000  -0.0000000  -0.0000000  -0.0000000  -0.0000000  -0.0000000  -0.0000000  -0.0000000  -0.0000000  -0.0000000
 NQMom=    0.0000000   0.0000000   0.0000000   0.0000000   0.0000000   0.0000000   0.0000000   0.0000000   0.0000000   0.0000000
 NMagM=    2.7928460   2.7928460   2.7928460   0.0000000   0.0000000   0.0000000   0.0000000   0.0000000   0.0000000   0.0000000
 AtZNuc=   1.0000000   1.0000000   1.0000000   6.0000000   6.0000000   6.0000000   6.0000000   6.0000000   8.0000000  16.0000000

  Atom        41          42          43          44          45          46          47          48
 IAtWgt=           1           1           1           1           1           1           1           1
 AtmWgt=   1.0078250   1.0078250   1.0078250   1.0078250   1.0078250   1.0078250   1.0078250   1.0078250
 NucSpn=           1           1           1           1           1           1           1           1
 AtZEff=  -0.0000000  -0.0000000  -0.0000000  -0.0000000  -0.0000000  -0.0000000  -0.0000000  -0.0000000
 NQMom=    0.0000000   0.0000000   0.0000000   0.0000000   0.0000000   0.0000000   0.0000000   0.0000000
 NMagM=    2.7928460   2.7928460   2.7928460   2.7928460   2.7928460   2.7928460   2.7928460   2.7928460
 AtZNuc=   1.0000000   1.0000000   1.0000000   1.0000000   1.0000000   1.0000000   1.0000000   1.0000000
 Background charge distribution read from input stream:
 Leave Link  101 at Sat Aug 13 20:34:15 2022, MaxMem=  2684354560 cpu:               1.5 elap:               0.1
 (Enter /storage/apps/GAUSSIAN/G16_RevA03/g16/l103.exe)

 GradGradGradGradGradGradGradGradGradGradGradGradGradGradGradGradGradGrad
 Berny optimization.
 Initialization pass.
 Trust Radius=3.00D-01 FncErr=1.00D-07 GrdErr=1.00D-07 EigMax=2.50D+02 EigMin=1.00D-04
 Number of steps in this run=      2 maximum allowed number of steps=      2.
 GradGradGradGradGradGradGradGradGradGradGradGradGradGradGradGradGradGrad

 Leave Link  103 at Sat Aug 13 20:34:15 2022, MaxMem=  2684354560 cpu:               0.3 elap:               0.0
 (Enter /storage/apps/GAUSSIAN/G16_RevA03/g16/l202.exe)
 ---------------------------------------------------------------------------------------------------
                            Z-MATRIX (ANGSTROMS AND DEGREES)
   CD    Cent   Atom    N1       Length/X        N2       Alpha/Y        N3        Beta/Z          J
 ---------------------------------------------------------------------------------------------------
      1      1  C        0   3.598557         -3.615817         -0.443671
      2      2  H        0   3.749143         -3.710447         -1.518352
      3      3  H        0   4.334729         -4.236935          0.067080
      4      4  C        0   1.860487         -1.437690          1.242734
      5      5  H        0   1.212400         -2.310789          1.088529
      6      6  O        0   1.462860         -0.678280          2.325286
      7      7  H        0   0.523291         -0.370291          2.164280
      8      8  C        0   3.315352         -1.884171          1.408866
      9      9  H        0   3.399035         -2.769912          2.045954
     10     10  O        0   4.077332         -0.816718          1.914579
     11     11  H        0   3.530546         -0.377983          2.581746
     12     12  C        0   1.974524         -0.659140         -0.079030
     13     13  H        0   2.259758          0.376814          0.120194
     14     14  C        0   3.752351         -2.169548         -0.022909
     15     15  H        0   4.779932         -1.831261         -0.158866
     16     16  O        0   2.912467         -1.336457         -0.854827
     17     17  N        0   0.720667         -0.601300         -0.859597
     18     18  C        0   0.203035         -1.763963         -1.332852
     19     19  H        0   0.767826         -2.655628         -1.112006
     20     20  C        0  -0.934875         -1.753948         -2.081918
     21     21  H        0  -1.329508         -2.685752         -2.459409
     22     22  C        0  -1.570182         -0.539383         -2.355287
     23     23  H        0  -2.417054         -0.512614         -3.027625
     24     24  H        0  -2.885183         -0.725785         -0.966901
     25     25  C        0  -1.020090          0.644656         -1.861116
     26     26  C        0   0.140300          0.568743         -1.114532
     27     27  H        0   0.600193          1.465602         -0.718938
     28     28  C        0  -1.537176          2.016931         -2.163910
     29     29  O        0  -0.830569          2.990126         -2.045104
     30     30  N        0  -2.808903          2.065248         -2.667270
     31     31  H        0  -3.183544          2.998468         -2.750698
     32     32  H        0  -3.463838          1.365043         -2.352920
     33     33  H        0   2.604596         -3.995721         -0.195649
     34     34  C        0   0.201589          2.199892          2.846332
     35     35  C        0  -1.661998          0.897107          1.234299
     36     36  C        0  -2.809177          0.856215          0.470299
     37     37  C        0  -4.869899         -0.385991         -0.347269
     38     38  C        0  -3.380209         -0.412493         -0.027276
     39     39  O        0  -0.916855         -0.082238          1.524791
     40     40  S        0  -1.213653          2.557187          1.795482
     41     41  H        0   0.441264          3.129615          3.359010
     42     42  H        0   1.065910          1.877507          2.270459
     43     43  H        0  -5.475345         -0.334268          0.557902
     44     44  H        0  -5.128707          0.487651         -0.953186
     45     45  H        0  -5.166872         -1.276541         -0.903977
     46     46  H        0  -3.135161         -1.230180          0.657328
     47     47  H        0  -3.354547          1.780934          0.318234
     48     48  H        0  -0.048826          1.437347          3.580912
 ---------------------------------------------------------------------------------------------------
                         Z-Matrix orientation:                         
 ---------------------------------------------------------------------
 Center     Atomic      Atomic             Coordinates (Angstroms)
 Number     Number       Type             X           Y           Z
 ---------------------------------------------------------------------
      1          6           0        3.598557   -3.615817   -0.443671
      2          1           0        3.749143   -3.710447   -1.518352
      3          1           0        4.334729   -4.236935    0.067080
      4          6           0        1.860487   -1.437690    1.242734
      5          1           0        1.212400   -2.310789    1.088529
      6          8           0        1.462860   -0.678280    2.325286
      7          1           0        0.523291   -0.370291    2.164280
      8          6           0        3.315352   -1.884171    1.408866
      9          1           0        3.399035   -2.769912    2.045954
     10          8           0        4.077332   -0.816718    1.914579
     11          1           0        3.530546   -0.377983    2.581746
     12          6           0        1.974524   -0.659140   -0.079030
     13          1           0        2.259758    0.376814    0.120194
     14          6           0        3.752351   -2.169548   -0.022909
     15          1           0        4.779932   -1.831261   -0.158866
     16          8           0        2.912467   -1.336457   -0.854827
     17          7           0        0.720667   -0.601300   -0.859597
     18          6           0        0.203035   -1.763963   -1.332852
     19          1           0        0.767826   -2.655628   -1.112006
     20          6           0       -0.934875   -1.753948   -2.081918
     21          1           0       -1.329508   -2.685752   -2.459409
     22          6           0       -1.570182   -0.539383   -2.355287
     23          1           0       -2.417054   -0.512614   -3.027625
     24          1           0       -2.885183   -0.725785   -0.966901
     25          6           0       -1.020090    0.644656   -1.861116
     26          6           0        0.140300    0.568743   -1.114532
     27          1           0        0.600193    1.465602   -0.718938
     28          6           0       -1.537176    2.016931   -2.163910
     29          8           0       -0.830569    2.990126   -2.045104
     30          7           0       -2.808903    2.065248   -2.667270
     31          1           0       -3.183544    2.998468   -2.750698
     32          1           0       -3.463838    1.365043   -2.352920
     33          1           0        2.604596   -3.995721   -0.195649
     34          6           0        0.201589    2.199892    2.846332
     35          6           0       -1.661998    0.897107    1.234299
     36          6           0       -2.809177    0.856215    0.470299
     37          6           0       -4.869899   -0.385991   -0.347269
     38          6           0       -3.380209   -0.412493   -0.027276
     39          8           0       -0.916855   -0.082238    1.524791
     40         16           0       -1.213653    2.557187    1.795482
     41          1           0        0.441264    3.129615    3.359010
     42          1           0        1.065910    1.877507    2.270459
     43          1           0       -5.475345   -0.334268    0.557902
     44          1           0       -5.128707    0.487651   -0.953186
     45          1           0       -5.166872   -1.276541   -0.903977
     46          1           0       -3.135161   -1.230180    0.657328
     47          1           0       -3.354547    1.780934    0.318234
     48          1           0       -0.048826    1.437347    3.580912
 ---------------------------------------------------------------------
                    Distance matrix (angstroms):
                    1          2          3          4          5
     1  C    0.000000
     2  H    1.089298   0.000000
     3  H    1.090231   1.770225   0.000000
     4  C    3.257159   4.044260   3.916607   0.000000
     5  H    3.121615   3.897427   3.808193   1.098225   0.000000
     6  O    4.566996   5.403210   5.100113   1.380844   2.063343
     7  H    5.176109   5.926596   5.820330   1.943368   2.323283
     8  C    2.551607   3.477365   2.893962   1.530875   2.169568
     9  H    2.636967   3.702899   2.635075   2.187946   2.430808
    10  O    3.691277   4.501821   3.895817   2.398204   3.335033
    11  H    4.431855   5.288091   4.675657   2.388520   3.367378
    12  C    3.392991   3.812007   4.288652   1.538247   2.161474
    13  H    4.248697   4.648527   5.059151   2.170700   3.042670
    14  C    1.514063   2.147261   2.149733   2.390945   2.776075
    15  H    2.159028   2.538123   2.456934   3.262291   3.809623
    16  O    2.415626   2.603098   3.359392   2.348760   2.759743
    17  N    4.188384   4.390036   5.209416   2.533482   2.638058
    18  C    3.968574   4.049456   5.014608   3.080137   2.679724
    19  H    3.062952   3.188418   4.075975   2.867417   2.271324
    20  C    5.167438   5.107399   6.209037   4.355155   3.869444
    21  H    5.405002   5.265765   6.393191   5.043767   4.380612
    22  C    6.311465   6.249106   7.376159   5.051950   4.768701
    23  H    7.245292   7.108166   8.308691   6.114662   5.774867
    24  H    7.117931   7.295655   8.094716   5.283056   4.850486
    25  C    6.441481   6.467611   7.498130   4.718874   4.734878
    26  C    5.469930   5.612333   6.487217   3.541401   3.780817
    27  H    5.906503   6.111173   6.861743   3.723654   4.231178
    28  C    7.814271   7.820791   8.863827   5.923153   6.071877
    29  O    8.112967   8.133198   9.130829   6.136548   6.487918
    30  N    8.847284   8.814002   9.910886   7.025803   7.030406
    31  H    9.750284   9.725758  10.808115   7.814681   7.890006
    32  H    8.850515   8.859131   9.902333   7.009456   6.871864
    33  H    1.092612   1.772262   1.766514   3.027568   2.535018
    34  C    7.495731   8.158904   8.138786   4.307606   4.945488
    35  C    7.131305   7.621489   7.980070   4.226020   4.309757
    36  C    7.867240   8.235332   8.782833   5.259698   5.156084
    37  C    9.063985   9.311892   9.986322   6.995161   6.539168
    38  C    7.690113   7.995465   8.611360   5.488975   5.093192
    39  O    6.062175   6.648019   6.853143   3.103294   3.112955
    40  S    8.141078   8.654136   8.940470   5.070987   5.484770
    41  H    8.362400   9.028686   8.958902   5.230018   5.945396
    42  H    6.630039   7.264989   7.275057   3.560632   4.354336
    43  H    9.700897  10.039950  10.569261   7.449897   6.993864
    44  H    9.657287   9.836649  10.626348   7.574816   7.225614
    45  H    9.083878   9.262650   9.999365   7.349701   6.762755
    46  H    7.228169   7.634065   8.073923   5.034110   4.500548
    47  H    8.834652   9.164645   9.767435   6.197646   6.180013
    48  H    7.418567   8.180883   7.984989   4.168740   4.674525
                    6          7          8          9         10
     6  O    0.000000
     7  H    1.001783   0.000000
     8  C    2.392849   3.264673   0.000000
     9  H    2.863865   3.747277   1.094267   0.000000
    10  O    2.650153   3.590662   1.405637   2.071790   0.000000
    11  H    2.105059   3.036103   1.921083   2.454729   0.967768
    12  C    2.458231   2.687369   2.347841   3.316647   2.901915
    13  H    2.571128   2.784200   2.808382   3.861138   2.819204
    14  C    3.602731   4.295108   1.523938   2.182994   2.385293
    15  H    4.301551   5.064626   2.146061   2.765714   2.412907
    16  O    3.556357   3.969464   2.363602   3.272013   3.049041
    17  N    3.271125   3.039104   3.677509   4.507633   4.360007
    18  C    4.018438   3.778203   4.149456   4.758432   5.143273
    19  H    4.025910   4.002076   3.666037   4.112059   4.847127
    20  C    5.131242   4.697973   5.501542   6.070773   6.478627
    21  H    5.892416   5.492970   6.097607   6.531807   7.201318
    22  C    5.579104   4.983744   6.312349   7.002807   7.085414
    23  H    6.613232   5.968397   7.377269   8.041361   8.166695
    24  H    5.454010   4.642022   6.740383   7.262723   7.535769
    25  C    5.043923   4.428990   5.990309   6.815654   6.509623
    26  C    3.890576   3.432066   4.739755   5.635126   5.157057
    27  H    3.822005   3.418971   4.808390   5.780806   4.922895
    28  C    6.034671   5.355145   7.178465   8.062444   7.495755
    29  O    6.149579   5.553760   7.271681   8.234339   7.366047
    30  N    7.120430   6.354466   8.349808   9.172336   8.758955
    31  H    7.802125   7.017562   9.131144   9.980602   9.436142
    32  H    7.094585   6.270062   8.406298   9.140403   8.935372
    33  H    4.320195   4.800504   2.745594   2.675542   4.089997
    34  C    3.185305   2.678531   5.333048   5.963490   4.998948
    35  C    3.665629   2.691960   5.704384   6.302370   6.028257
    36  C    4.903667   3.934365   6.774989   7.360257   7.232472
    37  C    6.879812   5.949338   8.504522   8.932293   9.238746
    38  C    5.390780   4.476830   7.004204   7.470867   7.716807
    39  O    2.580524   1.601856   4.601302   5.110979   5.062934
    40  S    4.232335   3.423903   6.355078   7.051072   6.276300
    41  H    4.075820   3.699115   6.099303   6.728814   5.557060
    42  H    2.587010   2.314801   4.466828   5.205034   4.056373
    43  H    7.168032   6.210103   8.966755   9.322086   9.660588
    44  H    7.453625   6.511508   9.083334   9.608795   9.730191
    45  H    7.398608   6.527897   8.812865   9.181885   9.675278
    46  H    4.922243   4.049023   6.526993   6.855273   7.332918
    47  H    5.769177   4.803466   7.688304   8.325028   8.032991
    48  H    2.887502   2.366795   5.202688   5.651979   4.988252
                   11         12         13         14         15
    11  H    0.000000
    12  C    3.095155   0.000000
    13  H    2.871212   1.092817   0.000000
    14  C    3.169090   2.333485   2.955042   0.000000
    15  H    3.344239   3.041473   3.362253   1.090342   0.000000
    16  O    3.620874   1.392967   2.076534   1.446213   2.053441
    17  N    4.448385   1.478103   2.070145   3.514336   4.299007
    18  C    5.321405   2.435339   3.305205   3.805009   4.725543
    19  H    5.144326   2.551298   3.597205   3.214000   4.205360
    20  C    6.601744   3.697941   4.426638   5.136373   6.030185
    21  H    7.372867   4.548625   5.377406   5.659354   6.583913
    22  C    7.100547   4.214336   4.651437   6.035460   6.842307
    23  H    8.176620   5.291658   5.707225   7.059413   7.859085
    24  H    7.339989   4.940598   5.372887   6.858019   7.786462
    25  C    6.441514   3.720676   3.841189   5.837375   6.532080
    26  C    5.104168   2.438101   2.460384   4.662273   5.310320
    27  H    4.783335   2.610133   2.154938   4.861571   5.352869
    28  C    7.344295   4.882634   4.724809   7.077400   7.663853
    29  O    7.195222   5.005111   4.589993   7.191291   7.634225
    30  N    8.585462   6.082964   6.025951   8.244768   8.891866
    31  H    9.214900   6.864515   6.689142   9.069502   9.667514
    32  H    8.735587   6.232469   6.312879   8.366341   9.109883
    33  H    4.653959   3.397553   4.397469   2.163813   3.068929
    34  C    4.218696   4.458150   3.871886   6.319214   6.800194
    35  C    5.513981   4.167857   4.110001   6.348238   7.133258
    36  C    6.795112   5.047956   5.103577   7.242385   8.075454
    37  C    8.896441   6.855121   7.185569   8.810759   9.759280
    38  C    7.386929   5.360660   5.696840   7.345793   8.283605
    39  O    4.580829   3.356357   3.503497   5.343568   6.192509
    40  S    5.633903   4.901329   4.430034   7.092938   7.681212
    41  H    4.738254   5.340943   4.623285   7.105055   7.470595
    42  H    3.355379   3.574948   2.881144   5.371700   5.783644
    43  H    9.230597   7.484101   7.780041   9.426344  10.388717
    44  H    9.392962   7.248115   7.466850   9.316615  10.207322
    45  H    9.412903   7.215349   7.677066   9.007013   9.990086
    46  H    6.990084   5.193957   5.654741   6.984480   7.979735
    47  H    7.562335   5.874587   5.790613   8.138224   8.913211
    48  H    4.135899   4.678074   4.293118   6.359730   6.927239
                   16         17         18         19         20
    16  O    0.000000
    17  N    2.311810   0.000000
    18  C    2.784294   1.357829   0.000000
    19  H    2.530976   2.070313   1.078345   0.000000
    20  C    4.059814   2.358704   1.362365   2.157069   0.000000
    21  H    4.731768   3.332800   2.113649   2.493033   1.080043
    22  C    4.793835   2.736588   2.385219   3.389767   1.397682
    23  H    5.814083   3.814905   3.361993   4.290171   2.152238
    24  H    5.830800   3.609593   3.278540   4.133984   2.470644
    25  C    4.516905   2.363405   2.752552   3.827491   2.410252
    26  C    3.373743   1.330721   2.343740   3.284869   2.736189
    27  H    3.635466   2.075183   3.311301   4.143325   3.818331
    28  C    5.723481   3.695162   4.244308   5.315293   3.819557
    29  O    5.843492   4.087799   4.917012   5.941387   4.745363
    30  N    6.898596   4.778705   5.051267   6.123602   4.294284
    31  H    7.716687   5.637150   6.013315   7.089953   5.299928
    32  H    7.085171   4.858662   4.927187   5.967633   4.024575
    33  H    2.756988   3.938542   3.470082   2.451384   4.594716
    34  C    5.792513   4.674401   5.760011   6.290083   6.419661
    35  C    5.502634   3.508093   4.141244   4.902154   4.307447
    36  C    6.269049   4.043856   4.380651   5.256585   4.103629
    37  C    7.856604   5.618119   5.348349   6.125359   4.512729
    38  C    6.413760   4.188746   4.046064   4.838852   3.464205
    39  O    4.679675   2.938743   3.499782   4.051319   3.975335
    40  S    6.261746   4.557091   5.519585   6.289132   5.804983
    41  H    6.618842   5.638656   6.783615   7.318857   7.439532
    42  H    4.848376   4.007609   5.195066   5.663854   6.011139
    43  H    8.564787   6.361696   6.153290   6.866913   5.440589
    44  H    8.246061   5.950609   5.800119   6.683901   4.887436
    45  H    8.079711   5.926300   5.409012   6.096376   4.418740
    46  H    6.234718   4.190938   3.922919   4.516166   3.552332
    47  H    7.097159   4.865151   5.286660   6.222751   4.910288
    48  H    6.011574   4.946344   5.870000   6.280354   6.560266
                   21         22         23         24         25
    21  H    0.000000
    22  C    2.162329   0.000000
    23  H    2.495627   1.081641   0.000000
    24  H    2.913619   1.921351   2.123952   0.000000
    25  C    3.397839   1.395978   2.156740   2.481189   0.000000
    26  C    3.815857   2.386035   3.371842   3.294108   1.381903
    27  H    4.897624   3.377592   4.283358   4.124501   2.145656
    28  C    4.716532   2.563680   2.814034   3.282140   1.497398
    29  O    5.712808   3.619485   3.968812   4.380862   2.360296
    30  N    4.980343   2.901011   2.632256   3.269088   2.422358
    31  H    5.986038   3.908411   3.604427   4.140170   3.318482
    32  H    4.579918   2.685661   2.253127   2.574384   2.594751
    33  H    4.724172   5.834302   6.735658   6.436224   6.119251
    34  C    7.373240   6.140003   6.979853   5.712136   5.106009
    35  C    5.156637   3.867436   4.552079   2.995871   3.171336
    36  C    4.828886   3.386257   3.776629   2.138702   2.946368
    37  C    4.720636   3.865721   3.635490   2.106775   4.263214
    38  C    3.910032   2.951599   3.152743   1.107293   3.170283
    39  O    4.777281   3.961164   4.812516   3.239907   3.464592
    40  S    6.753216   5.190832   5.842449   4.604637   4.131096
    41  H    8.414756   7.082418   7.888277   6.681532   5.963245
    42  H    6.995213   5.847039   6.775944   5.733129   4.789700
    43  H    5.641064   4.876376   4.716032   3.031047   5.163258
    44  H    5.174274   3.960276   3.557652   2.550689   4.210668
    45  H    4.373855   3.947896   3.557382   2.348062   4.669359
    46  H    3.884987   3.464420   3.822232   1.719018   3.785643
    47  H    5.636255   3.964284   4.163415   2.855786   3.389747
    48  H    7.424660   6.438979   7.285850   5.779850   5.584566
                   26         27         28         29         30
    26  C    0.000000
    27  H    1.082752   0.000000
    28  C    2.452013   2.638229   0.000000
    29  O    2.769774   2.475878   1.208518   0.000000
    30  N    3.653535   3.972091   1.368574   2.270748   0.000000
    31  H    4.430411   4.560087   2.004560   2.456506   1.009067
    32  H    3.893265   4.381365   2.042721   3.109622   1.008981
    33  H    5.267963   5.841020   7.561766   8.001431   8.494129
    34  C    4.284022   3.661860   5.306534   5.061222   6.283391
    35  C    2.978776   3.042339   3.580141   3.978252   4.231097
    36  C    3.360617   3.661890   3.147111   3.846520   3.362454
    37  C    5.157742   5.786920   4.492356   5.531455   3.954577
    38  C    3.812995   4.455248   3.723450   4.706390   3.665400
    39  O    2.916741   3.119545   4.289268   4.710734   5.075915
    40  S    3.775616   3.286929   4.009156   3.883850   4.764765
    41  H    5.163451   4.407251   5.971175   5.553509   6.929106
    42  H    3.745368   3.053367   5.143843   4.843412   6.279378
    43  H    5.928569   6.463901   5.333439   6.277036   4.823829
    44  H    5.272100   5.816490   4.087009   5.092019   3.287611
    45  H    5.622765   6.388476   5.060542   6.189519   4.453849
    46  H    4.135729   4.807725   4.588755   5.515910   4.692466
    47  H    3.966886   4.100625   3.085380   3.663056   3.048245
    48  H    4.778853   4.348647   5.962724   5.888489   6.859451
                   31         32         33         34         35
    31  H    0.000000
    32  H    1.704368   0.000000
    33  H    9.431305   8.379588   0.000000
    34  C    6.589658   6.415961   7.308468   0.000000
    35  C    4.755105   4.041501   6.647431   2.787267   0.000000
    36  C    3.886415   2.942457   7.300254   4.063953   1.378908
    37  C    4.480494   3.010941   8.301880   6.527317   3.799780
    38  C    4.369252   2.928352   6.977518   5.283129   2.501774
    39  O    5.736587   4.859875   5.538581   2.864525   1.264413
    40  S    4.974229   4.867626   7.841188   1.798570   1.808813
    41  H    7.105277   7.140706   8.251425   1.088424   3.731246
    42  H    6.672813   6.492832   6.553171   1.087480   3.078359
    43  H    5.225544   3.925137   8.902782   6.624686   4.063916
    44  H    3.649508   2.345391   8.970979   6.766104   4.119565
    45  H    5.061588   3.460885   8.263860   7.414228   4.645548
    46  H    5.431247   3.988083   6.428110   5.262227   2.651123
    47  H    3.306051   2.705545   8.315360   4.383253   2.117793
    48  H    7.235526   6.846744   7.128905   1.088021   2.898409
                   36         37         38         39         40
    36  C    0.000000
    37  C    2.541273   0.000000
    38  C    1.477592   1.523901   0.000000
    39  O    2.360832   4.384453   2.930204   0.000000
    40  S    2.682371   5.159633   4.103098   2.669818   0.000000
    41  H    4.906971   7.369155   6.214267   3.940158   2.347561
    42  H    4.393167   6.870935   5.503786   2.885824   2.425691
    43  H    2.921194   1.090218   2.176729   4.666715   5.296615
    44  H    2.746337   1.094243   2.173664   4.919842   5.212082
    45  H    3.463525   1.091419   2.169642   5.038642   6.132902
    46  H    2.119974   2.175129   1.094232   2.644077   4.396787
    47  H    1.084277   2.726674   2.220621   3.296897   2.714453
    48  H    4.199186   6.480580   5.247765   2.700046   2.408033
                   41         42         43         44         45
    41  H    0.000000
    42  H    1.772823   0.000000
    43  H    7.406143   7.114269   0.000000
    44  H    7.523270   7.120173   1.754735   0.000000
    45  H    8.308938   7.672850   1.766387   1.765291   0.000000
    46  H    6.252816   5.468904   2.507789   3.085275   2.562747
    47  H    5.047122   4.833317   3.004880   2.537072   3.758520
    48  H    1.775725   1.775856   6.459436   6.874966   7.326241
                   46         47         48
    46  H    0.000000
    47  H    3.038079   0.000000
    48  H    5.018815   4.657350   0.000000
 Stoichiometry    C16H24N2O5S
 Framework group  C1[X(C16H24N2O5S)]
 Deg. of freedom   138
 Full point group                 C1      NOp   1
 Largest Abelian subgroup         C1      NOp   1
 Largest concise Abelian subgroup C1      NOp   1
                         Standard orientation:                         
 ---------------------------------------------------------------------
 Center     Atomic      Atomic             Coordinates (Angstroms)
 Number     Number       Type             X           Y           Z
 ---------------------------------------------------------------------
      1          6           0       -4.679960   -1.969795   -0.546015
      2          1           0       -4.638433   -2.912312   -0.001491
      3          1           0       -5.704274   -1.806504   -0.881755
      4          6           0       -2.515231    0.459440   -0.693837
      5          1           0       -2.322588   -0.190988   -1.557509
      6          8           0       -2.040054    1.740969   -0.890352
      7          1           0       -1.052942    1.688078   -1.052778
      8          6           0       -4.013127    0.487469   -0.379036
      9          1           0       -4.618668    0.560007   -1.287596
     10          8           0       -4.285883    1.547214    0.503211
     11          1           0       -3.745069    2.295365    0.212754
     12          6           0       -1.992869   -0.229737    0.578318
     13          1           0       -1.805673    0.513920    1.356894
     14          6           0       -4.235475   -0.832573    0.349276
     15          1           0       -4.943519   -0.678327    1.163970
     16          8           0       -2.959960   -1.162543    0.945693
     17          7           0       -0.723898   -0.964716    0.393102
     18          6           0       -0.712886   -2.026676   -0.452958
     19          1           0       -1.654505   -2.266322   -0.920666
     20          6           0        0.427448   -2.750554   -0.630944
     21          1           0        0.418400   -3.598393   -1.299959
     22          6           0        1.588472   -2.389426    0.058348
     23          1           0        2.468997   -3.014625   -0.002876
     24          1           0        2.364118   -1.432798   -1.416380
     25          6           0        1.554936   -1.295672    0.925142
     26          6           0        0.365464   -0.607006    1.068494
     27          1           0        0.298359    0.243124    1.735673
     28          6           0        2.691636   -0.865201    1.799675
     29          8           0        2.501209   -0.186273    2.781160
     30          7           0        3.916197   -1.373307    1.460154
     31          1           0        4.684595   -0.979381    1.982269
     32          1           0        4.100048   -1.537681    0.481777
     33          1           0       -4.042537   -2.048892   -1.429890
     34          6           0        0.265536    3.602326    0.278311
     35          6           0        1.606444    1.390388   -0.760030
     36          6           0        2.734496    0.626043   -0.971364
     37          6           0        4.114746   -0.901534   -2.461158
     38          6           0        2.748097   -0.517439   -1.907069
     39          8           0        0.454513    1.178327   -1.236292
     40         16           0        1.865517    2.785092    0.362239
     41          1           0        0.380779    4.549537    0.801932
     42          1           0       -0.515369    3.020406    0.762222
     43          1           0        4.481549   -0.163911   -3.175259
     44          1           0        4.860203   -0.969382   -1.662999
     45          1           0        4.075887   -1.869936   -2.963038
     46          1           0        2.024409   -0.354731   -2.711522
     47          1           0        3.660644    0.942887   -0.504975
     48          1           0       -0.013738    3.793671   -0.755702
 ---------------------------------------------------------------------
 Rotational constants (GHZ):           0.3329860           0.1647161           0.1401976
 Leave Link  202 at Sat Aug 13 20:34:15 2022, MaxMem=  2684354560 cpu:               0.2 elap:               0.0
 (Enter /storage/apps/GAUSSIAN/G16_RevA03/g16/l301.exe)
 Standard basis: def2TZVP (5D, 7F)
 Ernie: Thresh=  0.10000D-02 Tol=  0.10000D-05 Strict=F.
 There are  1014 symmetry adapted cartesian basis functions of A   symmetry.
 There are   894 symmetry adapted basis functions of A   symmetry.
   894 basis functions,  1434 primitive gaussians,  1014 cartesian basis functions
    95 alpha electrons       95 beta electrons
       nuclear repulsion energy      2498.1247527187 Hartrees.
 IExCor= 4336 DFT=T Ex+Corr=M062X ExCW=0 ScaHFX=  0.540000
 ScaDFX=  1.000000  1.000000  1.000000  1.000000 ScalE2=  1.000000  1.000000
 IRadAn=      5 IRanWt=     -1 IRanGd=            0 ICorTp=0 IEmpDi=131
 NAtoms=   48 NActive=   48 NUniq=   48 SFac= 1.00D+00 NAtFMM=   60 NAOKFM=F Big=F
 Integral buffers will be    131072 words long.
 Raffenetti 2 integral format.
 Two-electron integral symmetry is turned on.
 R6Disp:  Grimme-D3 Dispersion energy=       -0.0042703728 Hartrees.
 Nuclear repulsion after empirical dispersion term =     2498.1204823459 Hartrees.
 Leave Link  301 at Sat Aug 13 20:34:16 2022, MaxMem=  2684354560 cpu:               0.9 elap:               0.1
 (Enter /storage/apps/GAUSSIAN/G16_RevA03/g16/l302.exe)
 NPDir=0 NMtPBC=     1 NCelOv=     1 NCel=       1 NClECP=     1 NCelD=      1
         NCelK=      1 NCelE2=     1 NClLst=     1 CellRange=     0.0.
 One-electron integrals computed using PRISM.
 One-electron integral symmetry used in STVInt
   1 Symmetry operations used in ECPInt.
 ECPInt:  NShTT=   65703 NPrTT=  200010 LenC2=   56964 LenP2D=  121473.
 LDataN:  DoStor=T MaxTD1= 6 Len=  172
 NBasis=   894 RedAO= T EigKep=  1.68D-05  NBF=   894
 NBsUse=   894 1.00D-06 EigRej= -1.00D+00 NBFU=   894
 Precomputing XC quadrature grid using
 IXCGrd= 4 IRadAn=           5 IRanWt=          -1 IRanGd=           0 AccXCQ= 0.00D+00.
 Generated NRdTot=       0 NPtTot=           0 NUsed=           0 NTot=          32
 NSgBfM=   997   996   996   996   997 MxSgAt=    48 MxSgA2=    48.
 Leave Link  302 at Sat Aug 13 20:34:17 2022, MaxMem=  2684354560 cpu:              18.5 elap:               1.2
 (Enter /storage/apps/GAUSSIAN/G16_RevA03/g16/l303.exe)
 DipDrv:  MaxL=1.
 Leave Link  303 at Sat Aug 13 20:34:17 2022, MaxMem=  2684354560 cpu:               2.0 elap:               0.2
 (Enter /storage/apps/GAUSSIAN/G16_RevA03/g16/l401.exe)
 ExpMin= 9.52D-02 ExpMax= 6.07D+04 ExpMxC= 2.07D+03 IAcc=3 IRadAn=         5 AccDes= 0.00D+00
 Harris functional with IExCor= 1009 and IRadAn=       5 diagonalized for initial guess.
 HarFok:  IExCor= 1009 AccDes= 0.00D+00 IRadAn=         5 IDoV= 1 UseB2=F ITyADJ=14
 ICtDFT=  3500011 ScaDFX=  1.000000  1.000000  1.000000  1.000000
 FoFCou: FMM=F IPFlag=           0 FMFlag=      100000 FMFlg1=           0
         NFxFlg=           0 DoJE=T BraDBF=F KetDBF=T FulRan=T
         wScrn=  0.000000 ICntrl=       500 IOpCl=  0 I1Cent=   200000004 NGrid=           0
         NMat0=    1 NMatS0=      1 NMatT0=    0 NMatD0=    1 NMtDS0=    0 NMtDT0=    0
 Petite list used in FoFCou.
 Harris En= -1507.24078735585    
 JPrj=0 DoOrth=F DoCkMO=F.
 Leave Link  401 at Sat Aug 13 20:34:21 2022, MaxMem=  2684354560 cpu:              60.2 elap:               3.8
 (Enter /storage/apps/GAUSSIAN/G16_RevA03/g16/l502.exe)
 Integral symmetry usage will be decided dynamically.
 Closed shell SCF:
 Using DIIS extrapolation, IDIIS=  1040.
 NGot=  2684354560 LenX=  2682272944 LenY=  2681243734
 Requested convergence on RMS density matrix=1.00D-08 within 128 cycles.
 Requested convergence on MAX density matrix=1.00D-06.
 Requested convergence on             energy=1.00D-06.
 No special actions if energy rises.
 Fock matrices will be formed incrementally for  20 cycles.
 Integral accuracy reduced to 1.0D-05 until final iterations.

 Cycle   1  Pass 0  IDiag  1:
 FoFJK:  IHMeth= 1 ICntrl=       0 DoSepK=F KAlg= 0 I1Cent=           0 FoldK=F
 IRaf= 800000000 NMat=       1 IRICut=       1 DoRegI=T DoRafI=F ISym2E= 0 IDoP0=0 IntGTp=1.
 FoFCou: FMM=F IPFlag=           0 FMFlag=      100000 FMFlg1=           0
         NFxFlg=           0 DoJE=F BraDBF=F KetDBF=F FulRan=T
         wScrn=  0.000000 ICntrl=         0 IOpCl=  0 I1Cent=           0 NGrid=           0
         NMat0=    1 NMatS0=      1 NMatT0=    0 NMatD0=    1 NMtDS0=    0 NMtDT0=    0
 Symmetry not used in FoFCou.
 E= -1507.15818580401    
 DIIS: error= 1.80D-02 at cycle   1 NSaved=   1.
 NSaved= 1 IEnMin= 1 EnMin= -1507.15818580401     IErMin= 1 ErrMin= 1.80D-02
 ErrMax= 1.80D-02  0.00D+00 EMaxC= 1.00D-01 BMatC= 9.96D-01 BMatP= 9.96D-01
 IDIUse=3 WtCom= 8.20D-01 WtEn= 1.80D-01
 Coeff-Com:  0.100D+01
 Coeff-En:   0.100D+01
 Coeff:      0.100D+01
 Gap=     0.175 Goal=   None    Shift=    0.000
 GapD=    0.175 DampG=1.000 DampE=0.500 DampFc=0.5000 IDamp=-1.
 Damping current iteration by 5.00D-01
 RMSDP=4.01D-03 MaxDP=1.02D+00              OVMax= 5.47D-01

 Cycle   2  Pass 0  IDiag  1:
 RMSU=  2.00D-03    CP:  1.01D+00
 E= -1507.46282629004     Delta-E=       -0.304640486036 Rises=F Damp=T
 DIIS: error= 7.50D-03 at cycle   2 NSaved=   2.
 NSaved= 2 IEnMin= 2 EnMin= -1507.46282629004     IErMin= 2 ErrMin= 7.50D-03
 ErrMax= 7.50D-03  0.00D+00 EMaxC= 1.00D-01 BMatC= 9.94D-02 BMatP= 9.96D-01
 IDIUse=3 WtCom= 9.25D-01 WtEn= 7.50D-02
 Coeff-Com:  0.158D-01 0.984D+00
 Coeff-En:   0.132D+00 0.868D+00
 Coeff:      0.245D-01 0.976D+00
 Gap=     0.161 Goal=   None    Shift=    0.000
 RMSDP=1.35D-03 MaxDP=2.26D-01 DE=-3.05D-01 OVMax= 4.35D-01

 Cycle   3  Pass 0  IDiag  1:
 RMSU=  1.17D-03    CP:  1.00D+00  6.62D-01
 E= -1507.82565516647     Delta-E=       -0.362828876427 Rises=F Damp=F
 DIIS: error= 7.61D-03 at cycle   3 NSaved=   3.
 NSaved= 3 IEnMin= 3 EnMin= -1507.82565516647     IErMin= 2 ErrMin= 7.50D-03
 ErrMax= 7.61D-03  0.00D+00 EMaxC= 1.00D-01 BMatC= 7.43D-02 BMatP= 9.94D-02
 IDIUse=3 WtCom= 9.24D-01 WtEn= 7.61D-02
 Coeff-Com: -0.720D-01 0.489D+00 0.583D+00
 Coeff-En:   0.000D+00 0.000D+00 0.100D+01
 Coeff:     -0.666D-01 0.451D+00 0.615D+00
 Gap=     0.130 Goal=   None    Shift=    0.000
 RMSDP=6.02D-04 MaxDP=3.07D-02 DE=-3.63D-01 OVMax= 1.70D-01

 Cycle   4  Pass 0  IDiag  1:
 RMSU=  4.90D-04    CP:  1.00D+00  8.04D-01  8.25D-01
 E= -1507.89131425196     Delta-E=       -0.065659085487 Rises=F Damp=F
 DIIS: error= 3.81D-03 at cycle   4 NSaved=   4.
 NSaved= 4 IEnMin= 4 EnMin= -1507.89131425196     IErMin= 4 ErrMin= 3.81D-03
 ErrMax= 3.81D-03  0.00D+00 EMaxC= 1.00D-01 BMatC= 1.02D-02 BMatP= 7.43D-02
 IDIUse=3 WtCom= 9.62D-01 WtEn= 3.81D-02
 Coeff-Com: -0.370D-01 0.107D+00 0.302D+00 0.628D+00
 Coeff-En:   0.000D+00 0.000D+00 0.706D-01 0.929D+00
 Coeff:     -0.356D-01 0.103D+00 0.293D+00 0.640D+00
 Gap=     0.150 Goal=   None    Shift=    0.000
 RMSDP=2.16D-04 MaxDP=2.00D-02 DE=-6.57D-02 OVMax= 6.38D-02

 Cycle   5  Pass 0  IDiag  1:
 RMSU=  1.75D-04    CP:  1.00D+00  7.86D-01  9.03D-01  8.36D-01
 E= -1507.90070583911     Delta-E=       -0.009391587151 Rises=F Damp=F
 DIIS: error= 9.58D-04 at cycle   5 NSaved=   5.
 NSaved= 5 IEnMin= 5 EnMin= -1507.90070583911     IErMin= 5 ErrMin= 9.58D-04
 ErrMax= 9.58D-04  0.00D+00 EMaxC= 1.00D-01 BMatC= 9.62D-04 BMatP= 1.02D-02
 IDIUse=3 WtCom= 9.90D-01 WtEn= 9.58D-03
 Coeff-Com: -0.119D-01 0.217D-01 0.964D-01 0.321D+00 0.573D+00
 Coeff-En:   0.000D+00 0.000D+00 0.000D+00 0.000D+00 0.100D+01
 Coeff:     -0.118D-01 0.215D-01 0.954D-01 0.318D+00 0.577D+00
 Gap=     0.149 Goal=   None    Shift=    0.000
 RMSDP=7.53D-05 MaxDP=7.52D-03 DE=-9.39D-03 OVMax= 8.57D-03

 Cycle   6  Pass 0  IDiag  1:
 RMSU=  6.42D-05    CP:  1.00D+00  7.87D-01  8.94D-01  9.12D-01  9.53D-01
 E= -1507.90160462306     Delta-E=       -0.000898783951 Rises=F Damp=F
 DIIS: error= 1.86D-04 at cycle   6 NSaved=   6.
 NSaved= 6 IEnMin= 6 EnMin= -1507.90160462306     IErMin= 6 ErrMin= 1.86D-04
 ErrMax= 1.86D-04  0.00D+00 EMaxC= 1.00D-01 BMatC= 1.02D-04 BMatP= 9.62D-04
 IDIUse=3 WtCom= 9.98D-01 WtEn= 1.86D-03
 Coeff-Com: -0.279D-03-0.391D-02-0.341D-02 0.589D-01 0.277D+00 0.672D+00
 Coeff-En:   0.000D+00 0.000D+00 0.000D+00 0.000D+00 0.000D+00 0.100D+01
 Coeff:     -0.279D-03-0.391D-02-0.341D-02 0.588D-01 0.276D+00 0.672D+00
 Gap=     0.150 Goal=   None    Shift=    0.000
 RMSDP=4.21D-05 MaxDP=5.28D-03 DE=-8.99D-04 OVMax= 6.18D-03

 Cycle   7  Pass 0  IDiag  1:
 RMSU=  2.35D-05    CP:  1.01D+00  7.88D-01  9.01D-01  9.36D-01  1.13D+00
                    CP:  1.09D+00
 E= -1507.90170442319     Delta-E=       -0.000099800136 Rises=F Damp=F
 DIIS: error= 9.03D-05 at cycle   7 NSaved=   7.
 NSaved= 7 IEnMin= 7 EnMin= -1507.90170442319     IErMin= 7 ErrMin= 9.03D-05
 ErrMax= 9.03D-05  0.00D+00 EMaxC= 1.00D-01 BMatC= 1.39D-05 BMatP= 1.02D-04
 IDIUse=1 WtCom= 1.00D+00 WtEn= 0.00D+00
 Coeff-Com:  0.139D-02-0.434D-02-0.158D-01-0.149D-01 0.498D-01 0.313D+00
 Coeff-Com:  0.671D+00
 Coeff:      0.139D-02-0.434D-02-0.158D-01-0.149D-01 0.498D-01 0.313D+00
 Coeff:      0.671D+00
 Gap=     0.150 Goal=   None    Shift=    0.000
 RMSDP=1.97D-05 MaxDP=2.19D-03 DE=-9.98D-05 OVMax= 2.66D-03

 Cycle   8  Pass 0  IDiag  1:
 RMSU=  1.21D-05    CP:  1.01D+00  7.86D-01  9.02D-01  9.49D-01  1.19D+00
                    CP:  1.20D+00  1.15D+00
 E= -1507.90171122308     Delta-E=       -0.000006799888 Rises=F Damp=F
 DIIS: error= 3.26D-05 at cycle   8 NSaved=   8.
 NSaved= 8 IEnMin= 8 EnMin= -1507.90171122308     IErMin= 8 ErrMin= 3.26D-05
 ErrMax= 3.26D-05  0.00D+00 EMaxC= 1.00D-01 BMatC= 2.52D-06 BMatP= 1.39D-05
 IDIUse=1 WtCom= 1.00D+00 WtEn= 0.00D+00
 Coeff-Com:  0.729D-03-0.143D-02-0.839D-02-0.175D-01-0.262D-01 0.414D-01
 Coeff-Com:  0.322D+00 0.689D+00
 Coeff:      0.729D-03-0.143D-02-0.839D-02-0.175D-01-0.262D-01 0.414D-01
 Coeff:      0.322D+00 0.689D+00
 Gap=     0.150 Goal=   None    Shift=    0.000
 RMSDP=1.57D-05 MaxDP=2.01D-03 DE=-6.80D-06 OVMax= 1.71D-03

 Cycle   9  Pass 0  IDiag  1:
 RMSU=  1.19D-05    CP:  1.01D+00  7.84D-01  9.00D-01  9.52D-01  1.21D+00
                    CP:  1.28D+00  1.31D+00  1.55D+00
 E= -1507.90170901870     Delta-E=        0.000002204378 Rises=F Damp=F
 DIIS: error= 1.70D-05 at cycle   9 NSaved=   9.
 NSaved= 9 IEnMin= 8 EnMin= -1507.90171122308     IErMin= 9 ErrMin= 1.70D-05
 ErrMax= 1.70D-05  0.00D+00 EMaxC= 1.00D-01 BMatC= 5.62D-07 BMatP= 2.52D-06
 IDIUse=1 WtCom= 1.00D+00 WtEn= 0.00D+00
 Coeff-Com:  0.207D-03-0.233D-03-0.315D-02-0.736D-02-0.206D-01-0.912D-02
 Coeff-Com:  0.814D-01 0.338D+00 0.620D+00
 Coeff:      0.207D-03-0.233D-03-0.315D-02-0.736D-02-0.206D-01-0.912D-02
 Coeff:      0.814D-01 0.338D+00 0.620D+00
 Gap=     0.150 Goal=   None    Shift=    0.000
 RMSDP=1.89D-05 MaxDP=2.70D-03 DE= 2.20D-06 OVMax= 7.60D-04

 Cycle  10  Pass 0  IDiag  1:
 RMSU=  1.07D-05    CP:  1.01D+00  7.84D-01  9.00D-01  9.54D-01  1.21D+00
                    CP:  1.33D+00  1.45D+00  2.10D+00  2.10D+00
 E= -1507.90170540265     Delta-E=        0.000003616052 Rises=F Damp=F
 DIIS: error= 2.49D-05 at cycle  10 NSaved=  10.
 NSaved=10 IEnMin= 8 EnMin= -1507.90171122308     IErMin= 9 ErrMin= 1.70D-05
 ErrMax= 2.49D-05  0.00D+00 EMaxC= 1.00D-01 BMatC= 4.13D-07 BMatP= 5.62D-07
 IDIUse=1 WtCom= 1.00D+00 WtEn= 0.00D+00
 Coeff-Com:  0.185D-03-0.205D-03-0.289D-02-0.667D-02-0.191D-01-0.857D-02
 Coeff-Com:  0.721D-01 0.306D+00 0.570D+00 0.893D-01
 Coeff:      0.185D-03-0.205D-03-0.289D-02-0.667D-02-0.191D-01-0.857D-02
 Coeff:      0.721D-01 0.306D+00 0.570D+00 0.893D-01
 Gap=     0.150 Goal=   None    Shift=    0.000
 RMSDP=3.96D-06 MaxDP=5.38D-04 DE= 3.62D-06 OVMax= 4.35D-05

 Initial convergence to 1.0D-05 achieved.  Increase integral accuracy.
 Cycle  11  Pass 1  IDiag  1:
 E= -1507.90163523248     Delta-E=        0.000070170171 Rises=F Damp=F
 DIIS: error= 3.40D-04 at cycle   1 NSaved=   1.
 NSaved= 1 IEnMin= 1 EnMin= -1507.90163523248     IErMin= 1 ErrMin= 3.40D-04
 ErrMax= 3.40D-04  0.00D+00 EMaxC= 1.00D-01 BMatC= 9.74D-05 BMatP= 9.74D-05
 IDIUse=3 WtCom= 9.97D-01 WtEn= 3.40D-03
 Coeff-Com:  0.100D+01
 Coeff-En:   0.100D+01
 Coeff:      0.100D+01
 Gap=     0.150 Goal=   None    Shift=    0.000
 RMSDP=3.96D-06 MaxDP=5.38D-04 DE= 7.02D-05 OVMax= 1.11D-03

 Cycle  12  Pass 1  IDiag  1:
 RMSU=  6.11D-04    CP:  9.89D-01
 E= -1507.90169730750     Delta-E=       -0.000062075021 Rises=F Damp=F
 DIIS: error= 1.38D-05 at cycle   2 NSaved=   2.
 NSaved= 2 IEnMin= 2 EnMin= -1507.90169730750     IErMin= 2 ErrMin= 1.38D-05
 ErrMax= 1.38D-05  0.00D+00 EMaxC= 1.00D-01 BMatC= 1.45D-07 BMatP= 9.74D-05
 IDIUse=1 WtCom= 1.00D+00 WtEn= 0.00D+00
 Coeff-Com: -0.150D-01 0.102D+01
 Coeff:     -0.150D-01 0.102D+01
 Gap=     0.150 Goal=   None    Shift=    0.000
 RMSDP=2.32D-05 MaxDP=2.29D-03 DE=-6.21D-05 OVMax= 5.52D-04

 Cycle  13  Pass 1  IDiag  1:
 RMSU=  8.75D-06    CP:  9.89D-01  1.04D+00
 E= -1507.90169724383     Delta-E=        0.000000063673 Rises=F Damp=F
 DIIS: error= 1.73D-05 at cycle   3 NSaved=   3.
 NSaved= 3 IEnMin= 2 EnMin= -1507.90169730750     IErMin= 2 ErrMin= 1.38D-05
 ErrMax= 1.73D-05  0.00D+00 EMaxC= 1.00D-01 BMatC= 2.69D-07 BMatP= 1.45D-07
 IDIUse=1 WtCom= 1.00D+00 WtEn= 0.00D+00
 Coeff-Com: -0.103D-01 0.613D+00 0.398D+00
 Coeff:     -0.103D-01 0.613D+00 0.398D+00
 Gap=     0.150 Goal=   None    Shift=    0.000
 RMSDP=1.07D-06 MaxDP=6.67D-05 DE= 6.37D-08 OVMax= 2.06D-04

 Cycle  14  Pass 1  IDiag  1:
 RMSU=  1.02D-06    CP:  9.89D-01  1.04D+00  1.00D+00
 E= -1507.90169752283     Delta-E=       -0.000000278998 Rises=F Damp=F
 DIIS: error= 1.41D-06 at cycle   4 NSaved=   4.
 NSaved= 4 IEnMin= 4 EnMin= -1507.90169752283     IErMin= 4 ErrMin= 1.41D-06
 ErrMax= 1.41D-06  0.00D+00 EMaxC= 1.00D-01 BMatC= 1.10D-09 BMatP= 1.45D-07
 IDIUse=1 WtCom= 1.00D+00 WtEn= 0.00D+00
 Coeff-Com:  0.113D-03-0.174D-01 0.299D-02 0.101D+01
 Coeff:      0.113D-03-0.174D-01 0.299D-02 0.101D+01
 Gap=     0.150 Goal=   None    Shift=    0.000
 RMSDP=6.31D-07 MaxDP=5.27D-05 DE=-2.79D-07 OVMax= 9.33D-05

 Cycle  15  Pass 1  IDiag  1:
 RMSU=  3.04D-07    CP:  9.89D-01  1.04D+00  1.04D+00  1.02D+00
 E= -1507.90169752761     Delta-E=       -0.000000004783 Rises=F Damp=F
 DIIS: error= 6.37D-07 at cycle   5 NSaved=   5.
 NSaved= 5 IEnMin= 5 EnMin= -1507.90169752761     IErMin= 5 ErrMin= 6.37D-07
 ErrMax= 6.37D-07  0.00D+00 EMaxC= 1.00D-01 BMatC= 1.08D-09 BMatP= 1.10D-09
 IDIUse=1 WtCom= 1.00D+00 WtEn= 0.00D+00
 Coeff-Com:  0.788D-03-0.521D-01-0.407D-01 0.512D+00 0.580D+00
 Coeff:      0.788D-03-0.521D-01-0.407D-01 0.512D+00 0.580D+00
 Gap=     0.150 Goal=   None    Shift=    0.000
 RMSDP=1.16D-07 MaxDP=9.30D-06 DE=-4.78D-09 OVMax= 2.55D-05

 Cycle  16  Pass 1  IDiag  1:
 RMSU=  7.63D-08    CP:  9.89D-01  1.04D+00  1.05D+00  1.03D+00  1.20D+00
 E= -1507.90169752918     Delta-E=       -0.000000001569 Rises=F Damp=F
 DIIS: error= 3.14D-07 at cycle   6 NSaved=   6.
 NSaved= 6 IEnMin= 6 EnMin= -1507.90169752918     IErMin= 6 ErrMin= 3.14D-07
 ErrMax= 3.14D-07  0.00D+00 EMaxC= 1.00D-01 BMatC= 1.54D-10 BMatP= 1.08D-09
 IDIUse=1 WtCom= 1.00D+00 WtEn= 0.00D+00
 Coeff-Com:  0.110D-03-0.443D-02-0.242D-01-0.170D+00 0.654D-01 0.113D+01
 Coeff:      0.110D-03-0.443D-02-0.242D-01-0.170D+00 0.654D-01 0.113D+01
 Gap=     0.150 Goal=   None    Shift=    0.000
 RMSDP=1.22D-07 MaxDP=1.34D-05 DE=-1.57D-09 OVMax= 3.41D-05

 Cycle  17  Pass 1  IDiag  1:
 RMSU=  5.17D-08    CP:  9.89D-01  1.04D+00  1.05D+00  1.04D+00  1.52D+00
                    CP:  1.60D+00
 E= -1507.90169752978     Delta-E=       -0.000000000597 Rises=F Damp=F
 DIIS: error= 1.51D-07 at cycle   7 NSaved=   7.
 NSaved= 7 IEnMin= 7 EnMin= -1507.90169752978     IErMin= 7 ErrMin= 1.51D-07
 ErrMax= 1.51D-07  0.00D+00 EMaxC= 1.00D-01 BMatC= 5.12D-11 BMatP= 1.54D-10
 IDIUse=1 WtCom= 1.00D+00 WtEn= 0.00D+00
 Coeff-Com: -0.845D-04 0.719D-02-0.890D-02-0.185D+00-0.648D-01 0.667D+00
 Coeff-Com:  0.585D+00
 Coeff:     -0.845D-04 0.719D-02-0.890D-02-0.185D+00-0.648D-01 0.667D+00
 Coeff:      0.585D+00
 Gap=     0.150 Goal=   None    Shift=    0.000
 RMSDP=3.24D-08 MaxDP=3.62D-06 DE=-5.97D-10 OVMax= 1.01D-05

 Cycle  18  Pass 1  IDiag  1:
 RMSU=  1.22D-08    CP:  9.89D-01  1.04D+00  1.05D+00  1.03D+00  1.58D+00
                    CP:  1.81D+00  1.23D+00
 E= -1507.90169752982     Delta-E=       -0.000000000042 Rises=F Damp=F
 DIIS: error= 3.16D-08 at cycle   8 NSaved=   8.
 NSaved= 8 IEnMin= 8 EnMin= -1507.90169752982     IErMin= 8 ErrMin= 3.16D-08
 ErrMax= 3.16D-08  0.00D+00 EMaxC= 1.00D-01 BMatC= 2.46D-12 BMatP= 5.12D-11
 IDIUse=1 WtCom= 1.00D+00 WtEn= 0.00D+00
 Coeff-Com: -0.414D-04 0.295D-02-0.863D-03-0.429D-01-0.308D-01 0.936D-01
 Coeff-Com:  0.196D+00 0.782D+00
 Coeff:     -0.414D-04 0.295D-02-0.863D-03-0.429D-01-0.308D-01 0.936D-01
 Coeff:      0.196D+00 0.782D+00
 Gap=     0.150 Goal=   None    Shift=    0.000
 RMSDP=1.08D-08 MaxDP=9.50D-07 DE=-4.18D-11 OVMax= 2.89D-06

 Cycle  19  Pass 1  IDiag  1:
 RMSU=  4.26D-09    CP:  9.89D-01  1.04D+00  1.05D+00  1.03D+00  1.60D+00
                    CP:  1.87D+00  1.35D+00  1.11D+00
 E= -1507.90169752983     Delta-E=       -0.000000000008 Rises=F Damp=F
 DIIS: error= 1.93D-08 at cycle   9 NSaved=   9.
 NSaved= 9 IEnMin= 9 EnMin= -1507.90169752983     IErMin= 9 ErrMin= 1.93D-08
 ErrMax= 1.93D-08  0.00D+00 EMaxC= 1.00D-01 BMatC= 4.49D-13 BMatP= 2.46D-12
 IDIUse=1 WtCom= 1.00D+00 WtEn= 0.00D+00
 Coeff-Com: -0.622D-05 0.270D-03 0.809D-03 0.800D-02-0.435D-02-0.546D-01
 Coeff-Com: -0.498D-02 0.332D+00 0.723D+00
 Coeff:     -0.622D-05 0.270D-03 0.809D-03 0.800D-02-0.435D-02-0.546D-01
 Coeff:     -0.498D-02 0.332D+00 0.723D+00
 Gap=     0.150 Goal=   None    Shift=    0.000
 RMSDP=4.38D-09 MaxDP=6.56D-07 DE=-8.19D-12 OVMax= 1.02D-06

 SCF Done:  E(RM062X) =  -1507.90169753     A.U. after   19 cycles
            NFock= 19  Conv=0.44D-08     -V/T= 2.0037
 KE= 1.502301423431D+03 PE=-8.533647604360D+03 EE= 3.025324001053D+03
 Leave Link  502 at Sat Aug 13 20:43:31 2022, MaxMem=  2684354560 cpu:            8787.3 elap:             549.9
 (Enter /storage/apps/GAUSSIAN/G16_RevA03/g16/l601.exe)
 Copying SCF densities to generalized density rwf, IOpCl= 0 IROHF=0.

 **********************************************************************

            Population analysis using the SCF density.

 **********************************************************************

 Orbital symmetries:
       Occupied  (A) (A) (A) (A) (A) (A) (A) (A) (A) (A) (A) (A)
                 (A) (A) (A) (A) (A) (A) (A) (A) (A) (A) (A) (A)
                 (A) (A) (A) (A) (A) (A) (A) (A) (A) (A) (A) (A)
                 (A) (A) (A) (A) (A) (A) (A) (A) (A) (A) (A) (A)
                 (A) (A) (A) (A) (A) (A) (A) (A) (A) (A) (A) (A)
                 (A) (A) (A) (A) (A) (A) (A) (A) (A) (A) (A) (A)
                 (A) (A) (A) (A) (A) (A) (A) (A) (A) (A) (A) (A)
                 (A) (A) (A) (A) (A) (A) (A) (A) (A) (A) (A)
       Virtual   (A) (A) (A) (A) (A) (A) (A) (A) (A) (A) (A) (A)
                 (A) (A) (A) (A) (A) (A) (A) (A) (A) (A) (A) (A)
                 (A) (A) (A) (A) (A) (A) (A) (A) (A) (A) (A) (A)
                 (A) (A) (A) (A) (A) (A) (A) (A) (A) (A) (A) (A)
                 (A) (A) (A) (A) (A) (A) (A) (A) (A) (A) (A) (A)
                 (A) (A) (A) (A) (A) (A) (A) (A) (A) (A) (A) (A)
                 (A) (A) (A) (A) (A) (A) (A) (A) (A) (A) (A) (A)
                 (A) (A) (A) (A) (A) (A) (A) (A) (A) (A) (A) (A)
                 (A) (A) (A) (A) (A) (A) (A) (A) (A) (A) (A) (A)
                 (A) (A) (A) (A) (A) (A) (A) (A) (A) (A) (A) (A)
                 (A) (A) (A) (A) (A) (A) (A) (A) (A) (A) (A) (A)
                 (A) (A) (A) (A) (A) (A) (A) (A) (A) (A) (A) (A)
                 (A) (A) (A) (A) (A) (A) (A) (A) (A) (A) (A) (A)
                 (A) (A) (A) (A) (A) (A) (A) (A) (A) (A) (A) (A)
                 (A) (A) (A) (A) (A) (A) (A) (A) (A) (A) (A) (A)
                 (A) (A) (A) (A) (A) (A) (A) (A) (A) (A) (A) (A)
                 (A) (A) (A) (A) (A) (A) (A) (A) (A) (A) (A) (A)
                 (A) (A) (A) (A) (A) (A) (A) (A) (A) (A) (A) (A)
                 (A) (A) (A) (A) (A) (A) (A) (A) (A) (A) (A) (A)
                 (A) (A) (A) (A) (A) (A) (A) (A) (A) (A) (A) (A)
                 (A) (A) (A) (A) (A) (A) (A) (A) (A) (A) (A) (A)
                 (A) (A) (A) (A) (A) (A) (A) (A) (A) (A) (A) (A)
                 (A) (A) (A) (A) (A) (A) (A) (A) (A) (A) (A) (A)
                 (A) (A) (A) (A) (A) (A) (A) (A) (A) (A) (A) (A)
                 (A) (A) (A) (A) (A) (A) (A) (A) (A) (A) (A) (A)
                 (A) (A) (A) (A) (A) (A) (A) (A) (A) (A) (A) (A)
                 (A) (A) (A) (A) (A) (A) (A) (A) (A) (A) (A) (A)
                 (A) (A) (A) (A) (A) (A) (A) (A) (A) (A) (A) (A)
                 (A) (A) (A) (A) (A) (A) (A) (A) (A) (A) (A) (A)
                 (A) (A) (A) (A) (A) (A) (A) (A) (A) (A) (A) (A)
                 (A) (A) (A) (A) (A) (A) (A) (A) (A) (A) (A) (A)
                 (A) (A) (A) (A) (A) (A) (A) (A) (A) (A) (A) (A)
                 (A) (A) (A) (A) (A) (A) (A) (A) (A) (A) (A) (A)
                 (A) (A) (A) (A) (A) (A) (A) (A) (A) (A) (A) (A)
                 (A) (A) (A) (A) (A) (A) (A) (A) (A) (A) (A) (A)
                 (A) (A) (A) (A) (A) (A) (A) (A) (A) (A) (A) (A)
                 (A) (A) (A) (A) (A) (A) (A) (A) (A) (A) (A) (A)
                 (A) (A) (A) (A) (A) (A) (A) (A) (A) (A) (A) (A)
                 (A) (A) (A) (A) (A) (A) (A) (A) (A) (A) (A) (A)
                 (A) (A) (A) (A) (A) (A) (A) (A) (A) (A) (A) (A)
                 (A) (A) (A) (A) (A) (A) (A) (A) (A) (A) (A) (A)
                 (A) (A) (A) (A) (A) (A) (A) (A) (A) (A) (A) (A)
                 (A) (A) (A) (A) (A) (A) (A) (A) (A) (A) (A) (A)
                 (A) (A) (A) (A) (A) (A) (A) (A) (A) (A) (A) (A)
                 (A) (A) (A) (A) (A) (A) (A) (A) (A) (A) (A) (A)
                 (A) (A) (A) (A) (A) (A) (A) (A) (A) (A) (A) (A)
                 (A) (A) (A) (A) (A) (A) (A) (A) (A) (A) (A) (A)
                 (A) (A) (A) (A) (A) (A) (A) (A) (A) (A) (A) (A)
                 (A) (A) (A) (A) (A) (A) (A) (A) (A) (A) (A) (A)
                 (A) (A) (A) (A) (A) (A) (A) (A) (A) (A) (A) (A)
                 (A) (A) (A) (A) (A) (A) (A) (A) (A) (A) (A) (A)
                 (A) (A) (A) (A) (A) (A) (A) (A) (A) (A) (A) (A)
                 (A) (A) (A) (A) (A) (A) (A) (A) (A) (A) (A) (A)
                 (A) (A) (A) (A) (A) (A) (A) (A) (A) (A) (A) (A)
                 (A) (A) (A) (A) (A) (A) (A) (A) (A) (A) (A) (A)
                 (A) (A) (A) (A) (A) (A) (A) (A) (A) (A) (A) (A)
                 (A) (A) (A) (A) (A) (A) (A) (A) (A) (A) (A) (A)
                 (A) (A) (A) (A) (A) (A) (A) (A) (A) (A) (A) (A)
                 (A) (A) (A) (A) (A) (A) (A) (A) (A) (A) (A) (A)
                 (A) (A) (A) (A) (A) (A) (A) (A) (A) (A) (A) (A)
                 (A) (A) (A) (A) (A) (A) (A) (A) (A) (A) (A) (A)
                 (A) (A) (A) (A) (A) (A) (A) (A) (A) (A) (A) (A)
                 (A) (A) (A) (A) (A) (A) (A) (A) (A) (A) (A) (A)
                 (A) (A) (A) (A) (A) (A) (A) (A) (A) (A) (A) (A)
                 (A) (A) (A) (A) (A) (A) (A) (A) (A) (A) (A) (A)
                 (A) (A) (A) (A) (A) (A) (A) (A) (A) (A) (A) (A)
                 (A) (A) (A) (A) (A) (A) (A)
 The electronic state is 1-A.
 Alpha  occ. eigenvalues --  -89.87005 -19.66414 -19.63249 -19.61885 -19.61041
 Alpha  occ. eigenvalues --  -19.57272 -14.87608 -14.77827 -10.66487 -10.66178
 Alpha  occ. eigenvalues --  -10.64053 -10.63126 -10.61130 -10.61098 -10.60556
 Alpha  occ. eigenvalues --  -10.60462 -10.59489 -10.59462 -10.59429 -10.55068
 Alpha  occ. eigenvalues --  -10.53819 -10.52462 -10.52407 -10.49473  -8.22911
 Alpha  occ. eigenvalues --   -6.14878  -6.14651  -6.14386  -1.22337  -1.18365
 Alpha  occ. eigenvalues --   -1.17043  -1.15432  -1.13966  -1.10821  -1.03140
 Alpha  occ. eigenvalues --   -0.97581  -0.93013  -0.90609  -0.88310  -0.87658
 Alpha  occ. eigenvalues --   -0.85655  -0.81424  -0.80463  -0.79275  -0.76763
 Alpha  occ. eigenvalues --   -0.73179  -0.72088  -0.69881  -0.69128  -0.67058
 Alpha  occ. eigenvalues --   -0.66199  -0.64051  -0.62848  -0.62163  -0.61094
 Alpha  occ. eigenvalues --   -0.60042  -0.58262  -0.57847  -0.57397  -0.56138
 Alpha  occ. eigenvalues --   -0.55768  -0.54278  -0.53067  -0.52745  -0.52000
 Alpha  occ. eigenvalues --   -0.51805  -0.51105  -0.50232  -0.50145  -0.48768
 Alpha  occ. eigenvalues --   -0.48528  -0.48208  -0.47735  -0.47177  -0.46254
 Alpha  occ. eigenvalues --   -0.45693  -0.45596  -0.44922  -0.44111  -0.43403
 Alpha  occ. eigenvalues --   -0.43182  -0.40742  -0.39714  -0.38832  -0.37907
 Alpha  occ. eigenvalues --   -0.37442  -0.37089  -0.36779  -0.36569  -0.36119
 Alpha  occ. eigenvalues --   -0.34851  -0.34272  -0.29469  -0.28167  -0.21385
 Alpha virt. eigenvalues --   -0.06384  -0.03954   0.03723   0.04685   0.05212
 Alpha virt. eigenvalues --    0.06236   0.07074   0.07281   0.08168   0.08857
 Alpha virt. eigenvalues --    0.09345   0.10064   0.10289   0.10729   0.11305
 Alpha virt. eigenvalues --    0.11468   0.11957   0.12600   0.12885   0.13252
 Alpha virt. eigenvalues --    0.13784   0.14014   0.14331   0.14546   0.15178
 Alpha virt. eigenvalues --    0.15443   0.15579   0.16218   0.16351   0.16736
 Alpha virt. eigenvalues --    0.17594   0.17688   0.18535   0.18915   0.19541
 Alpha virt. eigenvalues --    0.20693   0.20941   0.21395   0.21608   0.22164
 Alpha virt. eigenvalues --    0.22799   0.23078   0.23558   0.23664   0.24143
 Alpha virt. eigenvalues --    0.24713   0.25421   0.25702   0.25811   0.26181
 Alpha virt. eigenvalues --    0.26647   0.27115   0.27758   0.28147   0.28768
 Alpha virt. eigenvalues --    0.29118   0.29481   0.29895   0.30442   0.31527
 Alpha virt. eigenvalues --    0.31609   0.31866   0.32541   0.33046   0.33478
 Alpha virt. eigenvalues --    0.33935   0.34536   0.35101   0.35743   0.36146
 Alpha virt. eigenvalues --    0.36729   0.36984   0.37403   0.37608   0.38202
 Alpha virt. eigenvalues --    0.38709   0.39089   0.39447   0.39696   0.39786
 Alpha virt. eigenvalues --    0.40255   0.40584   0.41199   0.41760   0.42014
 Alpha virt. eigenvalues --    0.42703   0.42961   0.43162   0.43701   0.44143
 Alpha virt. eigenvalues --    0.44219   0.44515   0.45007   0.45357   0.45664
 Alpha virt. eigenvalues --    0.45824   0.46244   0.46553   0.46906   0.47545
 Alpha virt. eigenvalues --    0.47751   0.48088   0.48497   0.48834   0.49177
 Alpha virt. eigenvalues --    0.49500   0.49599   0.49919   0.50589   0.50756
 Alpha virt. eigenvalues --    0.51332   0.51458   0.52076   0.52951   0.53379
 Alpha virt. eigenvalues --    0.53693   0.54033   0.54165   0.54838   0.55237
 Alpha virt. eigenvalues --    0.55456   0.55853   0.56002   0.56556   0.57544
 Alpha virt. eigenvalues --    0.58069   0.58792   0.59320   0.59873   0.60056
 Alpha virt. eigenvalues --    0.60653   0.61308   0.61671   0.61767   0.62923
 Alpha virt. eigenvalues --    0.63312   0.63470   0.64494   0.65000   0.65358
 Alpha virt. eigenvalues --    0.65872   0.66020   0.66964   0.67116   0.67440
 Alpha virt. eigenvalues --    0.67788   0.68241   0.68738   0.69411   0.70779
 Alpha virt. eigenvalues --    0.71641   0.71842   0.72529   0.72665   0.73444
 Alpha virt. eigenvalues --    0.74117   0.74498   0.75161   0.75936   0.77136
 Alpha virt. eigenvalues --    0.77433   0.78569   0.79426   0.79999   0.81154
 Alpha virt. eigenvalues --    0.81918   0.82017   0.82231   0.82982   0.83875
 Alpha virt. eigenvalues --    0.84367   0.85998   0.86630   0.87299   0.87490
 Alpha virt. eigenvalues --    0.87662   0.88859   0.89538   0.89741   0.90192
 Alpha virt. eigenvalues --    0.90599   0.91399   0.92076   0.92409   0.92997
 Alpha virt. eigenvalues --    0.93492   0.94598   0.95141   0.95647   0.95988
 Alpha virt. eigenvalues --    0.96568   0.97417   0.98213   0.98915   0.99655
 Alpha virt. eigenvalues --    1.00017   1.01144   1.01777   1.01936   1.02825
 Alpha virt. eigenvalues --    1.03379   1.03609   1.04269   1.05590   1.06434
 Alpha virt. eigenvalues --    1.07088   1.07973   1.08663   1.08916   1.09539
 Alpha virt. eigenvalues --    1.10170   1.10848   1.12104   1.12344   1.13005
 Alpha virt. eigenvalues --    1.14035   1.15029   1.16054   1.16570   1.17396
 Alpha virt. eigenvalues --    1.17860   1.18417   1.18811   1.19179   1.19906
 Alpha virt. eigenvalues --    1.21252   1.21601   1.22771   1.23761   1.24032
 Alpha virt. eigenvalues --    1.24496   1.25960   1.26167   1.27168   1.27981
 Alpha virt. eigenvalues --    1.28544   1.29034   1.29184   1.29815   1.31287
 Alpha virt. eigenvalues --    1.31819   1.32575   1.33457   1.34073   1.34392
 Alpha virt. eigenvalues --    1.35410   1.36034   1.37690   1.39238   1.39711
 Alpha virt. eigenvalues --    1.40274   1.41246   1.42626   1.42713   1.43776
 Alpha virt. eigenvalues --    1.45004   1.45280   1.46121   1.47558   1.50161
 Alpha virt. eigenvalues --    1.50935   1.52168   1.52985   1.53105   1.53198
 Alpha virt. eigenvalues --    1.54002   1.54501   1.54744   1.55204   1.55941
 Alpha virt. eigenvalues --    1.56603   1.56979   1.57112   1.58050   1.58743
 Alpha virt. eigenvalues --    1.59354   1.59491   1.60106   1.60643   1.61163
 Alpha virt. eigenvalues --    1.61325   1.61625   1.62447   1.62932   1.63187
 Alpha virt. eigenvalues --    1.63444   1.64098   1.64537   1.64756   1.65422
 Alpha virt. eigenvalues --    1.65966   1.67186   1.67511   1.68280   1.68660
 Alpha virt. eigenvalues --    1.69499   1.69990   1.70622   1.71360   1.71608
 Alpha virt. eigenvalues --    1.72073   1.72605   1.73151   1.74351   1.74952
 Alpha virt. eigenvalues --    1.75792   1.76684   1.77171   1.78028   1.78119
 Alpha virt. eigenvalues --    1.78456   1.79106   1.79896   1.80551   1.80886
 Alpha virt. eigenvalues --    1.82746   1.83223   1.83947   1.84271   1.84861
 Alpha virt. eigenvalues --    1.86183   1.86459   1.87139   1.88155   1.89114
 Alpha virt. eigenvalues --    1.89371   1.89549   1.90334   1.91389   1.91525
 Alpha virt. eigenvalues --    1.92417   1.93152   1.94322   1.94439   1.94515
 Alpha virt. eigenvalues --    1.95083   1.96496   1.96679   1.97939   1.98141
 Alpha virt. eigenvalues --    1.99181   2.00186   2.00325   2.01412   2.02714
 Alpha virt. eigenvalues --    2.03119   2.03586   2.04102   2.04571   2.04883
 Alpha virt. eigenvalues --    2.05995   2.06621   2.07544   2.08767   2.09484
 Alpha virt. eigenvalues --    2.10249   2.10921   2.11399   2.12509   2.13487
 Alpha virt. eigenvalues --    2.14061   2.14706   2.16519   2.16661   2.17374
 Alpha virt. eigenvalues --    2.17881   2.18721   2.19008   2.19798   2.20332
 Alpha virt. eigenvalues --    2.21183   2.21525   2.22631   2.22821   2.23179
 Alpha virt. eigenvalues --    2.23511   2.24538   2.25106   2.26368   2.26814
 Alpha virt. eigenvalues --    2.27795   2.28210   2.29144   2.29734   2.30120
 Alpha virt. eigenvalues --    2.30964   2.31998   2.32687   2.33847   2.34606
 Alpha virt. eigenvalues --    2.34994   2.35201   2.36109   2.36312   2.37069
 Alpha virt. eigenvalues --    2.37727   2.37878   2.38566   2.38865   2.39725
 Alpha virt. eigenvalues --    2.40463   2.41464   2.42372   2.42611   2.43759
 Alpha virt. eigenvalues --    2.45383   2.45609   2.46013   2.46421   2.47197
 Alpha virt. eigenvalues --    2.47932   2.50035   2.50685   2.51545   2.51819
 Alpha virt. eigenvalues --    2.53846   2.53850   2.54537   2.55576   2.55957
 Alpha virt. eigenvalues --    2.56787   2.57196   2.57836   2.58213   2.58433
 Alpha virt. eigenvalues --    2.59802   2.60101   2.60350   2.61160   2.61547
 Alpha virt. eigenvalues --    2.62225   2.63395   2.63693   2.64194   2.65517
 Alpha virt. eigenvalues --    2.66163   2.66448   2.67172   2.67403   2.68458
 Alpha virt. eigenvalues --    2.69283   2.69589   2.70042   2.70397   2.71171
 Alpha virt. eigenvalues --    2.71917   2.72216   2.73203   2.73956   2.74310
 Alpha virt. eigenvalues --    2.74887   2.76150   2.76888   2.77263   2.78467
 Alpha virt. eigenvalues --    2.79089   2.79535   2.80507   2.80927   2.81978
 Alpha virt. eigenvalues --    2.82210   2.82937   2.83640   2.84049   2.84547
 Alpha virt. eigenvalues --    2.85427   2.86448   2.86489   2.86823   2.87766
 Alpha virt. eigenvalues --    2.88716   2.89755   2.90230   2.90495   2.91740
 Alpha virt. eigenvalues --    2.93042   2.93674   2.94042   2.94871   2.95491
 Alpha virt. eigenvalues --    2.96909   2.97587   2.98442   2.99069   2.99494
 Alpha virt. eigenvalues --    3.00475   3.01535   3.01986   3.02873   3.03058
 Alpha virt. eigenvalues --    3.03860   3.04517   3.05502   3.05820   3.06773
 Alpha virt. eigenvalues --    3.08325   3.08394   3.08782   3.09820   3.10005
 Alpha virt. eigenvalues --    3.10390   3.10815   3.11421   3.12398   3.13032
 Alpha virt. eigenvalues --    3.13405   3.14128   3.14459   3.14964   3.15703
 Alpha virt. eigenvalues --    3.16110   3.16586   3.17367   3.17884   3.18490
 Alpha virt. eigenvalues --    3.19821   3.20180   3.20536   3.20809   3.21120
 Alpha virt. eigenvalues --    3.21861   3.22551   3.23712   3.24029   3.25096
 Alpha virt. eigenvalues --    3.25653   3.26585   3.26749   3.27357   3.28408
 Alpha virt. eigenvalues --    3.28962   3.29938   3.30341   3.30554   3.31455
 Alpha virt. eigenvalues --    3.32097   3.32615   3.33030   3.33660   3.34377
 Alpha virt. eigenvalues --    3.34977   3.35543   3.35949   3.36458   3.37079
 Alpha virt. eigenvalues --    3.38559   3.38870   3.39168   3.40097   3.40538
 Alpha virt. eigenvalues --    3.41149   3.41571   3.41898   3.42850   3.43366
 Alpha virt. eigenvalues --    3.44140   3.44594   3.44948   3.45561   3.45935
 Alpha virt. eigenvalues --    3.46541   3.47634   3.48334   3.48843   3.50009
 Alpha virt. eigenvalues --    3.50086   3.51389   3.52916   3.53142   3.54075
 Alpha virt. eigenvalues --    3.54422   3.55237   3.56051   3.56434   3.56844
 Alpha virt. eigenvalues --    3.57643   3.58221   3.59136   3.59783   3.60084
 Alpha virt. eigenvalues --    3.60770   3.61733   3.62523   3.63935   3.64556
 Alpha virt. eigenvalues --    3.66270   3.66804   3.67349   3.68757   3.70028
 Alpha virt. eigenvalues --    3.70750   3.71289   3.72843   3.73726   3.74531
 Alpha virt. eigenvalues --    3.76182   3.76472   3.77741   3.78964   3.79592
 Alpha virt. eigenvalues --    3.80317   3.80794   3.82248   3.82898   3.85599
 Alpha virt. eigenvalues --    3.85919   3.86810   3.87897   3.88331   3.89377
 Alpha virt. eigenvalues --    3.91316   3.91831   3.93285   3.94216   3.94539
 Alpha virt. eigenvalues --    3.96792   3.97451   3.97842   3.98227   3.99595
 Alpha virt. eigenvalues --    4.00572   4.01370   4.04025   4.06042   4.07203
 Alpha virt. eigenvalues --    4.08795   4.09689   4.11286   4.12795   4.13617
 Alpha virt. eigenvalues --    4.14254   4.15740   4.16865   4.17885   4.19058
 Alpha virt. eigenvalues --    4.19647   4.20683   4.21084   4.23489   4.24895
 Alpha virt. eigenvalues --    4.26804   4.27194   4.28295   4.29635   4.31161
 Alpha virt. eigenvalues --    4.32131   4.33239   4.34985   4.36437   4.37260
 Alpha virt. eigenvalues --    4.39367   4.40028   4.41117   4.42845   4.43945
 Alpha virt. eigenvalues --    4.44757   4.45993   4.46109   4.47748   4.49866
 Alpha virt. eigenvalues --    4.50643   4.51891   4.55249   4.57007   4.57346
 Alpha virt. eigenvalues --    4.59447   4.60854   4.63004   4.64641   4.67246
 Alpha virt. eigenvalues --    4.67848   4.72654   4.73679   4.75576   4.75898
 Alpha virt. eigenvalues --    4.77924   4.80351   4.80799   4.82692   4.83548
 Alpha virt. eigenvalues --    4.85260   4.86823   4.88935   4.90084   4.90830
 Alpha virt. eigenvalues --    4.92216   4.93343   4.95146   4.97546   4.98059
 Alpha virt. eigenvalues --    4.99880   5.02824   5.04651   5.05087   5.06767
 Alpha virt. eigenvalues --    5.08946   5.13164   5.15686   5.19091   5.20542
 Alpha virt. eigenvalues --    5.21571   5.25196   5.26595   5.27152   5.28038
 Alpha virt. eigenvalues --    5.30652   5.31514   5.32062   5.34754   5.37961
 Alpha virt. eigenvalues --    5.39697   5.42405   5.43278   5.45524   5.47215
 Alpha virt. eigenvalues --    5.48861   5.49385   5.50850   5.53300   5.58186
 Alpha virt. eigenvalues --    5.64415   5.67243   5.72564   5.74600   5.77728
 Alpha virt. eigenvalues --    5.80034   5.81038   5.83490   5.84427   5.86836
 Alpha virt. eigenvalues --    5.89220   5.90606   5.91864   5.94172   5.95652
 Alpha virt. eigenvalues --    5.97419   6.03641   6.06068   6.15258   6.17384
 Alpha virt. eigenvalues --    6.20269   6.22691   6.25907   6.26868   6.38319
 Alpha virt. eigenvalues --    6.41764   6.44245   6.47909   6.49148   6.55235
 Alpha virt. eigenvalues --    6.59048   6.67414   6.73201   6.75231   6.76270
 Alpha virt. eigenvalues --    6.77831   6.80637   6.83994   6.85182   6.87110
 Alpha virt. eigenvalues --    6.89119   6.95420   6.99901   7.07713   7.08979
 Alpha virt. eigenvalues --    7.09645   7.12041   7.16866   7.19400   7.22218
 Alpha virt. eigenvalues --    7.32331   7.40495   9.06417   9.42643   9.59095
 Alpha virt. eigenvalues --   19.82700  22.36362  22.46703  22.49570  22.60209
 Alpha virt. eigenvalues --   22.64956  22.70851  22.74889  22.76446  22.82268
 Alpha virt. eigenvalues --   22.86740  22.95455  22.97479  23.07387  23.18290
 Alpha virt. eigenvalues --   23.29285  23.52084  32.18934  33.16816  44.14047
 Alpha virt. eigenvalues --   44.22733  44.26085  44.35820  44.51505
          Condensed to atoms (all electrons):
               1          2          3          4          5          6
     1  C    5.146576   0.429065   0.412918   0.007035  -0.006666  -0.000251
     2  H    0.429065   0.496438  -0.013903  -0.002287   0.000470  -0.000005
     3  H    0.412918  -0.013903   0.505585  -0.000705   0.000201  -0.000009
     4  C    0.007035  -0.002287  -0.000705   5.597538   0.543019   0.232239
     5  H   -0.006666   0.000470   0.000201   0.543019   0.527906  -0.035258
     6  O   -0.000251  -0.000005  -0.000009   0.232239  -0.035258   8.170874
     7  H    0.000000  -0.000003  -0.000003  -0.056610  -0.006879   0.307848
     8  C   -0.006695   0.010986  -0.000885  -0.053159  -0.106665  -0.061451
     9  H    0.006942  -0.000299  -0.002019  -0.074586   0.002076   0.001281
    10  O    0.005244  -0.000190  -0.000017   0.050639   0.005636  -0.022264
[...]
      9        1          -0.000029651    0.000007511    0.000037442
     10        8          -0.000412380    0.000167521    0.000123888
     11        1          -0.000038622    0.000007561    0.000023497
     12        6           0.000059485    0.000049409    0.000241478
     13        1           0.000015304    0.000016043   -0.000009975
     14        6          -0.000173598   -0.000000159    0.000289907
     15        1          -0.000011414   -0.000000075    0.000026934
     16        8          -0.000081040    0.000015430    0.000274851
     17        7           0.000142093   -0.000078407    0.000030688
     18        6           0.000877323    0.000145052   -0.000663192
     19        1           0.000032646    0.000014312   -0.000003419
     20        6           0.001874297    0.000222766   -0.002339604
     21        1           0.000205337    0.000052190   -0.000237429
     22        6           0.002717601    0.000260098   -0.003178504
     23        1           0.000167973    0.000039386   -0.000254217
     24        1          -0.000243729   -0.000342716    0.000292950
     25        6           0.000529000   -0.000115160   -0.000594517
     26        6          -0.000185718   -0.000114187    0.000834659
     27        1          -0.000090825   -0.000025190    0.000186203
     28        6          -0.000025286   -0.000147471    0.000030569
     29        8           0.000193918   -0.000378455   -0.000171639
     30        7          -0.000312932   -0.000367215    0.000723616
     31        1          -0.000005200   -0.000012666    0.000082395
     32        1          -0.000002803    0.000010038    0.000181770
     33        1          -0.000045153   -0.000010549    0.000022434
     34        6          -0.000216446   -0.000052325    0.000143467
     35        6          -0.000052540   -0.000137647   -0.000444528
     36        6          -0.000197008   -0.000657056    0.000101976
     37        6          -0.002134202    0.001635979    0.002911982
     38        6          -0.001780046   -0.001274778    0.001725302
     39        8           0.001141796    0.000084971   -0.001508609
     40       16           0.000423544    0.000162100   -0.000745093
     41        1          -0.000028386   -0.000016420    0.000004728
     42        1          -0.000001668   -0.000000304    0.000033085
     43        1          -0.000023430    0.000651436    0.000217524
     44        1           0.000002692   -0.000062676   -0.000058364
     45        1          -0.000438214    0.000043014    0.000623514
     46        1          -0.000376334   -0.000093467    0.000491983
     47        1          -0.000065829   -0.000091709    0.000104493
     48        1          -0.000025482   -0.000012578   -0.000022255
 -------------------------------------------------------------------
 Cartesian Forces:  Max     0.003178504 RMS     0.000656549
 Leave Link  716 at Sat Aug 13 20:46:49 2022, MaxMem=  2684354560 cpu:               0.4 elap:               0.0
 (Enter /storage/apps/GAUSSIAN/G16_RevA03/g16/l103.exe)

 GradGradGradGradGradGradGradGradGradGradGradGradGradGradGradGradGradGrad
 Berny optimization.
 Search for a local minimum.
 Step number   1 out of a maximum of    2
 All quantities printed in internal units (Hartrees-Bohrs-Radians)
 Second derivative matrix not updated -- first step.
 ITU=  0
     Eigenvalues ---    0.00025   0.00090   0.00108   0.00128   0.00185
     Eigenvalues ---    0.00218   0.00323   0.00363   0.00449   0.00493
     Eigenvalues ---    0.00611   0.00617   0.00807   0.00925   0.00958
     Eigenvalues ---    0.00974   0.01116   0.01168   0.01371   0.01508
     Eigenvalues ---    0.01720   0.02154   0.02353   0.02435   0.02676
     Eigenvalues ---    0.03037   0.03128   0.03309   0.03730   0.04269
     Eigenvalues ---    0.04401   0.04604   0.04825   0.05015   0.05258
     Eigenvalues ---    0.05327   0.05549   0.05741   0.05826   0.05975
     Eigenvalues ---    0.06167   0.06301   0.06471   0.06855   0.07036
     Eigenvalues ---    0.07055   0.07130   0.07666   0.08064   0.08332
     Eigenvalues ---    0.08604   0.08775   0.09290   0.09366   0.10231
     Eigenvalues ---    0.10764   0.10841   0.11199   0.12271   0.12564
     Eigenvalues ---    0.12829   0.13081   0.13240   0.13295   0.13707
     Eigenvalues ---    0.13861   0.14049   0.15480   0.16137   0.16527
     Eigenvalues ---    0.17452   0.18140   0.18684   0.19303   0.19849
     Eigenvalues ---    0.20318   0.20682   0.21279   0.21936   0.22514
     Eigenvalues ---    0.25158   0.26135   0.27086   0.28001   0.30619
     Eigenvalues ---    0.33176   0.33555   0.33980   0.34761   0.37692
     Eigenvalues ---    0.37882   0.37882   0.37882   0.37882   0.40179
     Eigenvalues ---    0.43700   0.48162   0.48880   0.57097   0.59426
     Eigenvalues ---    0.59950   0.61757   0.69596   0.72328   0.73649
     Eigenvalues ---    0.79314   0.81015   0.82730   0.87473   0.90875
     Eigenvalues ---    0.91275   0.92157   0.93085   0.93467   0.95431
     Eigenvalues ---    0.96657   0.99999   1.00771   1.02286   1.04143
     Eigenvalues ---    1.05981   1.08551   1.11590   1.12586   1.12630
     Eigenvalues ---    1.20516   1.20820   1.27437   1.27661   1.29701
     Eigenvalues ---    1.32859   1.37143   1.43795   1.55185   1.72698
     Eigenvalues ---    1.82956   1.89736   2.35144
 Quadratic step=7.838D+00 exceeds max=3.000D-01 adjusted using Lamda=-9.391D-03.
 Angle between NR and scaled steps=  41.81 degrees.
 Angle between quadratic step and forces=  54.99 degrees.
 Linear search not attempted -- first point.
 Variable       Old X    -DE/DX   Delta X   Delta X   Delta X     New X
                                 (Linear)    (Quad)   (Total)
    X1        6.80029  -0.00008   0.00000  -0.02439  -0.02439   6.77589
    Y1       -6.83290  -0.00001   0.00000  -0.01445  -0.01445  -6.84735
    Z1       -0.83842   0.00012   0.00000   0.01303   0.01303  -0.82539
    X2        7.08485  -0.00001   0.00000  -0.02810  -0.02810   7.05675
    Y2       -7.01173   0.00002   0.00000  -0.01862  -0.01862  -7.03035
    Z2       -2.86927   0.00001   0.00000   0.01233   0.01233  -2.85694
    X3        8.19145  -0.00001   0.00000  -0.02014  -0.02014   8.17131
    Y3       -8.00665  -0.00001   0.00000  -0.01294  -0.01294  -8.01958
    Z3        0.12676  -0.00000   0.00000   0.00932   0.00932   0.13609
    X4        3.51581  -0.00028   0.00000  -0.00653  -0.00653   3.50928
    Y4       -2.71684   0.00009   0.00000   0.01213   0.01213  -2.70471
    Z4        2.34843   0.00018   0.00000   0.01458   0.01458   2.36301
    X5        2.29110  -0.00006   0.00000  -0.01032  -0.01032   2.28078
    Y5       -4.36676   0.00001   0.00000   0.01403   0.01403  -4.35273
    Z5        2.05702   0.00001   0.00000   0.02179   0.02179   2.07881
    X6        2.76440  -0.00059   0.00000   0.00133   0.00133   2.76574
    Y6       -1.28176   0.00029   0.00000   0.02684   0.02684  -1.25493
    Z6        4.39415  -0.00006   0.00000   0.00767   0.00767   4.40182
    X7        0.98888  -0.00005   0.00000   0.00514   0.00514   0.99402
    Y7       -0.69975   0.00002   0.00000   0.03354   0.03354  -0.66621
    Z7        4.08990  -0.00003   0.00000   0.00149   0.00149   4.09139
    X8        6.26511  -0.00029   0.00000  -0.00709  -0.00709   6.25802
    Y8       -3.56057   0.00002   0.00000   0.00506   0.00506  -3.55550
    Z8        2.66237   0.00025   0.00000   0.00650   0.00650   2.66887
    X9        6.42325  -0.00003   0.00000  -0.00141  -0.00141   6.42183
    Y9       -5.23438   0.00001   0.00000   0.01113   0.01113  -5.22324
    Z9        3.86629   0.00004   0.00000   0.01385   0.01385   3.88014
   X10        7.70504  -0.00041   0.00000   0.00248   0.00248   7.70752
   Y10       -1.54337   0.00017   0.00000   0.00887   0.00887  -1.53450
   Z10        3.61803   0.00012   0.00000  -0.01645  -0.01645   3.60158
   X11        6.67177  -0.00004   0.00000   0.01414   0.01414   6.68591
   Y11       -0.71428   0.00001   0.00000   0.01948   0.01948  -0.69480
   Z11        4.87879   0.00002   0.00000  -0.01456  -0.01456   4.86423
   X12        3.73131   0.00006   0.00000  -0.00712  -0.00712   3.72419
   Y12       -1.24559   0.00005   0.00000   0.00032   0.00032  -1.24527
   Z12       -0.14935   0.00024   0.00000   0.00892   0.00892  -0.14042
   X13        4.27032   0.00002   0.00000   0.00467   0.00467   4.27499
   Y13        0.71208   0.00002   0.00000  -0.00020  -0.00020   0.71187
   Z13        0.22713  -0.00001   0.00000  -0.00495  -0.00495   0.22219
   X14        7.09092  -0.00017   0.00000  -0.01908  -0.01908   7.07184
   Y14       -4.09985  -0.00000   0.00000  -0.01223  -0.01223  -4.11208
   Z14       -0.04329   0.00029   0.00000   0.00569   0.00569  -0.03760
   X15        9.03276  -0.00001   0.00000  -0.01798  -0.01798   9.01479
   Y15       -3.46058  -0.00000   0.00000  -0.01781  -0.01781  -3.47839
   Z15       -0.30021   0.00003   0.00000  -0.00668  -0.00668  -0.30689
   X16        5.50376  -0.00008   0.00000  -0.02072  -0.02072   5.48305
   Y16       -2.52554   0.00002   0.00000  -0.01436  -0.01436  -2.53990
   Z16       -1.61539   0.00027   0.00000   0.00701   0.00701  -1.60838
   X17        1.36186   0.00014   0.00000  -0.00367  -0.00367   1.35820
   Y17       -1.13629  -0.00008   0.00000  -0.00087  -0.00087  -1.13716
   Z17       -1.62440   0.00003   0.00000   0.00720   0.00720  -1.61720
   X18        0.38368   0.00088   0.00000   0.02044   0.02044   0.40412
   Y18       -3.33341   0.00015   0.00000   0.00121   0.00121  -3.33219
   Z18       -2.51873  -0.00066   0.00000  -0.02289  -0.02289  -2.54162
   X19        1.45098   0.00003   0.00000   0.01880   0.01880   1.46978
   Y19       -5.01841   0.00001   0.00000   0.00232   0.00232  -5.01609
   Z19       -2.10139  -0.00000   0.00000  -0.01400  -0.01400  -2.11539
   X20       -1.76666   0.00187   0.00000   0.04835   0.04835  -1.71831
   Y20       -3.31448   0.00022   0.00000   0.00320   0.00320  -3.31129
   Z20       -3.93425  -0.00234   0.00000  -0.06444  -0.06444  -3.99869
   X21       -2.51241   0.00021   0.00000   0.05887   0.05887  -2.45354
   Y21       -5.07534   0.00005   0.00000   0.00410   0.00410  -5.07124
   Z21       -4.64761  -0.00024   0.00000  -0.07700  -0.07700  -4.72461
   X22       -2.96721   0.00272   0.00000   0.04763   0.04763  -2.91958
   Y22       -1.01929   0.00026   0.00000   0.00202   0.00202  -1.01727
   Z22       -4.45085  -0.00318   0.00000  -0.06589  -0.06589  -4.51674
   X23       -4.56757   0.00017   0.00000   0.05900   0.05900  -4.50857
   Y23       -0.96870   0.00004   0.00000   0.00535   0.00535  -0.96335
   Z23       -5.72138  -0.00025   0.00000  -0.07969  -0.07969  -5.80107
   X24       -5.45221  -0.00024   0.00000  -0.01616  -0.01616  -5.46836
   Y24       -1.37153  -0.00034   0.00000  -0.04427  -0.04427  -1.41580
   Z24       -1.82718   0.00029   0.00000   0.04012   0.04012  -1.78705
   X25       -1.92769   0.00053   0.00000   0.00638   0.00638  -1.92131
   Y25        1.21822  -0.00012   0.00000  -0.00346  -0.00346   1.21477
   Z25       -3.51700  -0.00059   0.00000  -0.00847  -0.00847  -3.52547
   X26        0.26513  -0.00019   0.00000  -0.01107  -0.01107   0.25405
   Y26        1.07477  -0.00011   0.00000  -0.00293  -0.00293   1.07183
   Z26       -2.10616   0.00083   0.00000   0.01823   0.01823  -2.08793
   X27        1.13420  -0.00009   0.00000  -0.02349  -0.02349   1.11071
   Y27        2.76959  -0.00003   0.00000  -0.00488  -0.00488   2.76471
   Z27       -1.35860   0.00019   0.00000   0.03742   0.03742  -1.32117
   X28       -2.90484  -0.00003   0.00000  -0.01718  -0.01718  -2.92202
   Y28        3.81145  -0.00015   0.00000  -0.00540  -0.00540   3.80604
   Z28       -4.08920   0.00003   0.00000   0.02812   0.02812  -4.06108
   X29       -1.56955   0.00019   0.00000  -0.02447  -0.02447  -1.59401
   Y29        5.65052  -0.00038   0.00000  -0.00118  -0.00118   5.64934
   Z29       -3.86469  -0.00017   0.00000   0.03258   0.03258  -3.83211
   X30       -5.30806  -0.00031   0.00000  -0.02493  -0.02493  -5.33299
   Y30        3.90275  -0.00037   0.00000  -0.00741  -0.00741   3.89534
   Z30       -5.04041   0.00072   0.00000   0.04858   0.04858  -4.99183
   X31       -6.01603  -0.00001   0.00000  -0.02436  -0.02436  -6.04038
   Y31        5.66628  -0.00001   0.00000  -0.00737  -0.00737   5.65891
   Z31       -5.19807   0.00008   0.00000   0.04712   0.04712  -5.15095
   X32       -6.54571  -0.00000   0.00000  -0.01914  -0.01914  -6.56485
   Y32        2.57956   0.00001   0.00000  -0.01162  -0.01162   2.56793
   Z32       -4.44637   0.00018   0.00000   0.04785   0.04785  -4.39852
   X33        4.92197  -0.00005   0.00000  -0.02268  -0.02268   4.89929
   Y33       -7.55082  -0.00001   0.00000  -0.01344  -0.01344  -7.56426
   Z33       -0.36972   0.00002   0.00000   0.01878   0.01878  -0.35094
   X34        0.38095  -0.00022   0.00000  -0.00894  -0.00894   0.37201
   Y34        4.15719  -0.00005   0.00000   0.00631   0.00631   4.16350
   Z34        5.37879   0.00014   0.00000   0.00622   0.00622   5.38501
   X35       -3.14072  -0.00005   0.00000   0.02748   0.02748  -3.11324
   Y35        1.69529  -0.00014   0.00000  -0.00477  -0.00477   1.69051
   Z35        2.33249  -0.00044   0.00000  -0.02525  -0.02525   2.30724
   X36       -5.30858  -0.00020   0.00000   0.00769   0.00769  -5.30088
   Y36        1.61801  -0.00066   0.00000  -0.01951  -0.01951   1.59851
   Z36        0.88874   0.00010   0.00000   0.00397   0.00397   0.89271
   X37       -9.20278  -0.00213   0.00000  -0.01274  -0.01274  -9.21552
   Y37       -0.72942   0.00164   0.00000   0.01835   0.01835  -0.71107
   Z37       -0.65624   0.00291   0.00000   0.01476   0.01476  -0.64148
   X38       -6.38767  -0.00178   0.00000  -0.01744  -0.01744  -6.40511
   Y38       -0.77950  -0.00127   0.00000  -0.02124  -0.02124  -0.80074
   Z38       -0.05154   0.00173   0.00000   0.03534   0.03534  -0.01621
   X39       -1.73260   0.00114   0.00000   0.05695   0.05695  -1.67565
   Y39       -0.15541   0.00008   0.00000   0.00860   0.00860  -0.14681
   Z39        2.88144  -0.00151   0.00000  -0.05503  -0.05503   2.82641
   X40       -2.29347   0.00042   0.00000   0.01669   0.01669  -2.27678
   Y40        4.83238   0.00016   0.00000   0.00160   0.00160   4.83398
   Z40        3.39297  -0.00075   0.00000  -0.02894  -0.02894   3.36403
   X41        0.83387  -0.00003   0.00000  -0.02245  -0.02245   0.81142
   Y41        5.91412  -0.00002   0.00000   0.00782   0.00782   5.92193
   Z41        6.34761   0.00000   0.00000   0.00911   0.00911   6.35672
   X42        2.01428  -0.00000   0.00000   0.00459   0.00459   2.01887
   Y42        3.54797  -0.00000   0.00000   0.00636   0.00636   3.55433
   Z42        4.29055   0.00003   0.00000   0.02609   0.02609   4.31664
   X43      -10.34690  -0.00002   0.00000  -0.03086  -0.03086 -10.37776
   Y43       -0.63167   0.00065   0.00000   0.06718   0.06718  -0.56449
   Z43        1.05428   0.00022   0.00000  -0.00447  -0.00447   1.04981
   X44       -9.69185   0.00000   0.00000   0.03545   0.03545  -9.65640
   Y44        0.92153  -0.00006   0.00000   0.00071   0.00071   0.92224
   Z44       -1.80126  -0.00006   0.00000  -0.03255  -0.03255  -1.83381
   X45       -9.76397  -0.00044   0.00000  -0.01902  -0.01902  -9.78300
   Y45       -2.41231   0.00004   0.00000   0.00941   0.00941  -2.40291
   Z45       -1.70827   0.00062   0.00000   0.02989   0.02989  -1.67838
   X46       -5.92460  -0.00038   0.00000  -0.03320  -0.03320  -5.95779
   Y46       -2.32470  -0.00009   0.00000  -0.01734  -0.01734  -2.34204
   Z46        1.24217   0.00049   0.00000   0.04417   0.04417   1.28634
   X47       -6.33918  -0.00007   0.00000   0.01440   0.01440  -6.32477
   Y47        3.36548  -0.00009   0.00000  -0.01830  -0.01830   3.34717
   Z47        0.60138   0.00010   0.00000  -0.01153  -0.01153   0.58985
   X48       -0.09227  -0.00003   0.00000  -0.02559  -0.02559  -0.11786
   Y48        2.71619  -0.00001   0.00000   0.00622   0.00622   2.72241
   Z48        6.76694  -0.00002   0.00000   0.00011   0.00011   6.76706
         Item               Value     Threshold  Converged?
 Maximum Force            0.003179     0.000450     NO 
 RMS     Force            0.000657     0.000300     NO 
 Maximum Displacement     0.079686     0.001800     NO 
 RMS     Displacement     0.025007     0.001200     NO 
 Predicted change in Energy=-1.100951D-03
 GradGradGradGradGradGradGradGradGradGradGradGradGradGradGradGradGradGrad

 Leave Link  103 at Sat Aug 13 20:46:49 2022, MaxMem=  2684354560 cpu:               0.9 elap:               0.1
 (Enter /storage/apps/GAUSSIAN/G16_RevA03/g16/l9999.exe)

 Test job not archived.
 1\1\GINC-T080\Force\RM062X\def2TZVP\C16H24N2O5S1\LV87696\13-Aug-2022\0
 \\#P M062X/Def2TZVP scf=(direct,conver=8) EmpiricalDispersion=GD3 Forc
 e Charge Prop=(Field,Read)\\Gaussian run\\0,1\C,3.598557,-3.615817,-0.
 443671\H,3.749143,-3.710447,-1.518352\H,4.334729,-4.236935,0.06708\C,1
 .860487,-1.43769,1.242734\H,1.2124,-2.310789,1.088529\O,1.46286,-0.678
 28,2.325286\H,0.523291,-0.370291,2.16428\C,3.315352,-1.884171,1.408866
 \H,3.399035,-2.769912,2.045954\O,4.077332,-0.816718,1.914579\H,3.53054
 6,-0.377983,2.581746\C,1.974524,-0.65914,-0.07903\H,2.259758,0.376814,
 0.120194\C,3.752351,-2.169548,-0.022909\H,4.779932,-1.831261,-0.158866
 \O,2.912467,-1.336457,-0.854827\N,0.720667,-0.6013,-0.859597\C,0.20303
 5,-1.763963,-1.332852\H,0.767826,-2.655628,-1.112006\C,-0.934875,-1.75
 3948,-2.081918\H,-1.329508,-2.685752,-2.459409\C,-1.570182,-0.539383,-
 2.355287\H,-2.417054,-0.512614,-3.027625\H,-2.885183,-0.725785,-0.9669
 01\C,-1.02009,0.644656,-1.861116\C,0.1403,0.568743,-1.114532\H,0.60019
 3,1.465602,-0.718938\C,-1.537176,2.016931,-2.16391\O,-0.830569,2.99012
 6,-2.045104\N,-2.808903,2.065248,-2.66727\H,-3.183544,2.998468,-2.7506
 98\H,-3.463838,1.365043,-2.35292\H,2.604596,-3.995721,-0.195649\C,0.20
 1589,2.199892,2.846332\C,-1.661998,0.897107,1.234299\C,-2.809177,0.856
 215,0.470299\C,-4.869899,-0.385991,-0.347269\C,-3.380209,-0.412493,-0.
 027276\O,-0.916855,-0.082238,1.524791\S,-1.213653,2.557187,1.795482\H,
 0.441264,3.129615,3.35901\H,1.06591,1.877507,2.270459\H,-5.475345,-0.3
 34268,0.557902\H,-5.128707,0.487651,-0.953186\H,-5.166872,-1.276541,-0
 .903977\H,-3.135161,-1.23018,0.657328\H,-3.354547,1.780934,0.318234\H,
 -0.048826,1.437347,3.580912\\Version=ES64L-G16RevA.03\State=1-A\HF=-15
 07.9016975\RMSD=4.377e-09\RMSF=6.565e-04\Dipole=-0.0919723,-2.2415805,
 -1.6644752\Quadrupole=1.9446308,1.2144552,-3.1590861,-3.8772481,9.5705
 465,4.7272996\PG=C01 [X(C16H24N2O5S1)]\\@


 EXPERIMENTALISTS THINK SILICON IS REALLY FUN TO USE
     ITS PLACE IN NOVEL COMPOUNDS IS CERTAIN TO AMUSE
 THEY SIT ALL DAY IN LABORATORIES MAKING ALL THIS SLUDGE
     "LOADED WITH THE SILICON THEY SAY", TO ME IT LOOKS LIKE FUDGE.
 FOR HAPPY THOUGH THEY BE WITH CRUD, I'D LIKE TO KNOW A LITTLE
      ABOUT THE PI BONDS ON THE EDGE AND SIGMAS IN THE MIDDLE.

 SO LETS DERIVE A WAVEFUNCTION.....6-31G*
     USE AN OPTIMAL GEOMETRY AND SEE WHERE ELECTRONS ARE.
 BUT WHAT OF CORRELATION?  ASKS THE WIRY LITTLE SKEPTIC.
     WE'LL THROW IN PERTURBATION AS AN ELECTRON ANTISEPTIC.
 AND WHEN THE PROGRAM GIVES US ANSWERS IN THEM WE CAN TRUST
     SINCE NOBODY CAN MAKE THE STUFF, WE HAVE NO CHOICE, WE MUST.

 SO THEORY GUYS HAVE GOT IT MADE, IN ROOMS FREE OF POLLUTION.
     INSTEAD OF PROBLEMS WITH THE REFLUX, THEY HAVE ONLY SOLUTIONS.
 AND WHEN THE FEDS ANNOUNCE THE LIST OF CARCINOGENIC TERRORS,
     THE THEORISTS SIT SAFELY AT THEIR TERMINALS FIXING ERRORS.
 IN OTHER WORDS, EXPERIMENTALISTS WILL LIKELY DIE OF CANCER
     FROM WORKING HARD YET FRUITLESSLY...TILL THEORY GIVES THE ANSWER.
          -- THOMAS A. HOLME, 1983
 Job cpu time:       0 days  3 hours 20 minutes 35.0 seconds.
 Elapsed time:       0 days  0 hours 12 minutes 33.5 seconds.
 File lengths (MBytes):  RWF=    435 Int=      0 D2E=      0 Chk=     48 Scr=      1
 Normal termination of Gaussian 16 at Sat Aug 13 20:46:49 2022.
