 Entering Gaussian System, Link 0=g16
 Initial command:
 /storage/apps/GAUSSIAN/G16_RevA03/g16/l1.exe "/scratch/tmp/1019313/Gau-139871.inp" -scrdir="/scratch/tmp/1019313/"
 Entering Link 1 = /storage/apps/GAUSSIAN/G16_RevA03/g16/l1.exe PID=    139872.
  
 Copyright (c) 1988,1990,1992,1993,1995,1998,2003,2009,2016,
            Gaussian, Inc.  All Rights Reserved.
  
 This is part of the Gaussian(R) 16 program.  It is based on
 the Gaussian(R) 09 system (copyright 2009, Gaussian, Inc.),
 the Gaussian(R) 03 system (copyright 2003, Gaussian, Inc.),
 the Gaussian(R) 98 system (copyright 1998, Gaussian, Inc.),
 the Gaussian(R) 94 system (copyright 1995, Gaussian, Inc.),
 the Gaussian 92(TM) system (copyright 1992, Gaussian, Inc.),
 the Gaussian 90(TM) system (copyright 1990, Gaussian, Inc.),
 the Gaussian 88(TM) system (copyright 1988, Gaussian, Inc.),
 the Gaussian 86(TM) system (copyright 1986, Carnegie Mellon
 University), and the Gaussian 82(TM) system (copyright 1983,
 Carnegie Mellon University). Gaussian is a federally registered
 trademark of Gaussian, Inc.
  
 This software contains proprietary and confidential information,
 including trade secrets, belonging to Gaussian, Inc.
  
 This software is provided under written license and may be
 used, copied, transmitted, or stored only in accord with that
 written license.
  
 The following legend is applicable only to US Government
 contracts under FAR:
  
                    RESTRICTED RIGHTS LEGEND
  
 Use, reproduction and disclosure by the US Government is
 subject to restrictions as set forth in subparagraphs (a)
 and (c) of the Commercial Computer Software - Restricted
 Rights clause in FAR 52.227-19.
  
 Gaussian, Inc.
 340 Quinnipiac St., Bldg. 40, Wallingford CT 06492
  
  
 ---------------------------------------------------------------
 Warning -- This program may not be used in any manner that
 competes with the business of Gaussian, Inc. or will provide
 assistance to any competitor of Gaussian, Inc.  The licensee
 of this program is prohibited from giving any competitor of
 Gaussian, Inc. access to this program.  By using this program,
 the user acknowledges that Gaussian, Inc. is engaged in the
 business of creating and licensing software in the field of
 computational chemistry and represents and warrants to the
 licensee that it is not a competitor of Gaussian, Inc. and that
 it will not use this program in any manner prohibited above.
 ---------------------------------------------------------------
  

 Cite this work as:
 Gaussian 16, Revision A.03,
 M. J. Frisch, G. W. Trucks, H. B. Schlegel, G. E. Scuseria, 
 M. A. Robb, J. R. Cheeseman, G. Scalmani, V. Barone, 
 G. A. Petersson, H. Nakatsuji, X. Li, M. Caricato, A. V. Marenich, 
 J. Bloino, B. G. Janesko, R. Gomperts, B. Mennucci, H. P. Hratchian, 
 J. V. Ortiz, A. F. Izmaylov, J. L. Sonnenberg, D. Williams-Young, 
 F. Ding, F. Lipparini, F. Egidi, J. Goings, B. Peng, A. Petrone, 
 T. Henderson, D. Ranasinghe, V. G. Zakrzewski, J. Gao, N. Rega, 
 G. Zheng, W. Liang, M. Hada, M. Ehara, K. Toyota, R. Fukuda, 
 J. Hasegawa, M. Ishida, T. Nakajima, Y. Honda, O. Kitao, H. Nakai, 
 T. Vreven, K. Throssell, J. A. Montgomery, Jr., J. E. Peralta, 
 F. Ogliaro, M. J. Bearpark, J. J. Heyd, E. N. Brothers, K. N. Kudin, 
 V. N. Staroverov, T. A. Keith, R. Kobayashi, J. Normand, 
 K. Raghavachari, A. P. Rendell, J. C. Burant, S. S. Iyengar, 
 J. Tomasi, M. Cossi, J. M. Millam, M. Klene, C. Adamo, R. Cammi, 
 J. W. Ochterski, R. L. Martin, K. Morokuma, O. Farkas, 
 J. B. Foresman, and D. J. Fox, Gaussian, Inc., Wallingford CT, 2016.
 
 ******************************************
 Gaussian 16:  ES64L-G16RevA.03 25-Dec-2016
                13-Aug-2022 
 ******************************************
 %NProcShared=16
 Will use up to   16 processors via shared memory.
 %mem=20GB
 ----------------------------------------------------------------------
 #P M062X/Def2TZVP scf=(direct,conver=8) EmpiricalDispersion=GD3 Force 
 Charge Prop=(Field,Read)
 ----------------------------------------------------------------------
 1/10=7,18=10,28=-2,30=1,38=1,125=101/1,3;
 2/12=2,17=6,18=5,29=2,40=1/2;
 3/5=44,7=101,11=2,25=1,30=1,71=1,74=-55,124=31/1,2,3;
 4//1;
 5/5=2,6=8,38=5/2;
 6/7=2,8=2,9=2,10=2,14=2,15=1,28=1/1,2;
 7/7=1,16=-2,29=1/1,2,3,16;
 1/10=7,18=10,28=-2,30=1/3;
 99/12=1/99;
 Leave Link    1 at Sat Aug 13 20:34:15 2022, MaxMem=  2684354560 cpu:               0.5 elap:               0.0
 (Enter /storage/apps/GAUSSIAN/G16_RevA03/g16/l101.exe)
 ------------
 Gaussian run
 ------------
 Symbolic Z-matrix:
 Charge =  0 Multiplicity = 1
 C                     3.59836  -3.61585  -0.44337 
 H                     3.74905  -3.71021  -1.51807 
 H                     4.33458  -4.237     0.06726 
 C                     1.85991  -1.43751   1.24316 
 H                     1.21177  -2.31056   1.08868 
 O                     1.46192  -0.67782   2.32521 
 H                     0.5223   -0.36931   2.16316 
 C                     3.31476  -1.88413   1.4094 
 H                     3.3984   -2.76974   2.04668 
 O                     4.07667  -0.8165    1.91484 
 H                     3.52972  -0.37752   2.58173 
 C                     1.97462  -0.65906  -0.07847 
 H                     2.25973   0.37692   0.12069 
 C                     3.75203  -2.16967  -0.02229 
 H                     4.77962  -1.83135  -0.15804 
 O                     2.91234  -1.33642  -0.85432 
 N                     0.72092  -0.60137  -0.8596 
 C                     0.20505  -1.76365  -1.33441 
 H                     0.76934  -2.65532  -1.11233 
 C                    -0.93089  -1.7533   -2.08709 
 H                    -1.32439  -2.68489  -2.46625 
 C                    -1.5644   -0.53878  -2.36212 
 H                    -2.41214  -0.5117   -3.03343 
 H                    -2.89082  -0.73537  -0.96039 
 C                    -1.01899   0.64429  -1.86233 
 C                     0.13982   0.56847  -1.11277 
 H                     0.59756   1.46494  -0.71378 
 C                    -1.53724   2.01661  -2.1638 
 O                    -0.83031   2.98951  -2.0454 
 N                    -2.80944   2.06459  -2.66586 
 H                    -3.18424   2.99783  -2.74869 
 H                    -3.46373   1.36488  -2.34889 
 H                     2.60445  -3.99597  -0.19547 
 C                     0.20123   2.19977   2.84667 
 C                    -1.66217   0.89675   1.2332 
 C                    -2.80958   0.85483   0.47065 
 C                    -4.8744   -0.38234  -0.34092 
 C                    -3.38411  -0.41536  -0.02323 
 O                    -0.91511  -0.08209   1.52235 
 S                    -1.21333   2.55728   1.79478 
 H                     0.44043   3.12947   3.35963 
 H                     1.0661    1.87752   2.27153 
 H                    -5.4775   -0.31727   0.56499 
 H                    -5.12873   0.48688  -0.95512 
 H                    -5.17857  -1.27633  -0.88813 
 H                    -3.14412  -1.22993   0.66677 
 H                    -3.35657   1.77895   0.32052 
 H                    -0.04965   1.43715   3.58102 
 
 ITRead=  0  0  0  0  0  0  0  0  0  0  0  0  0  0  0  0  0  0  0  0
 ITRead=  0  0  0  0  0  0  0  0  0  0  0  0  0  0  0  0  0  0  0  0
 ITRead=  0  0  0  0  0  0  0  0
 MicOpt= -1 -1 -1 -1 -1 -1 -1 -1 -1 -1 -1 -1 -1 -1 -1 -1 -1 -1 -1 -1
 MicOpt= -1 -1 -1 -1 -1 -1 -1 -1 -1 -1 -1 -1 -1 -1 -1 -1 -1 -1 -1 -1
 MicOpt= -1 -1 -1 -1 -1 -1 -1 -1
 NAtoms=     48 NQM=       48 NQMF=       0 NMMI=      0 NMMIF=      0
                NMic=       0 NMicF=      0.
                    Isotopes and Nuclear Properties:
 (Nuclear quadrupole moments (NQMom) in fm**2, nuclear magnetic moments (NMagM)
  in nuclear magnetons)

  Atom         1           2           3           4           5           6           7           8           9          10
 IAtWgt=          12           1           1          12           1          16           1          12           1          16
 AtmWgt=  12.0000000   1.0078250   1.0078250  12.0000000   1.0078250  15.9949146   1.0078250  12.0000000   1.0078250  15.9949146
 NucSpn=           0           1           1           0           1           0           1           0           1           0
 AtZEff=  -0.0000000  -0.0000000  -0.0000000  -0.0000000  -0.0000000  -0.0000000  -0.0000000  -0.0000000  -0.0000000  -0.0000000
 NQMom=    0.0000000   0.0000000   0.0000000   0.0000000   0.0000000   0.0000000   0.0000000   0.0000000   0.0000000   0.0000000
 NMagM=    0.0000000   2.7928460   2.7928460   0.0000000   2.7928460   0.0000000   2.7928460   0.0000000   2.7928460   0.0000000
 AtZNuc=   6.0000000   1.0000000   1.0000000   6.0000000   1.0000000   8.0000000   1.0000000   6.0000000   1.0000000   8.0000000

  Atom        11          12          13          14          15          16          17          18          19          20
 IAtWgt=           1          12           1          12           1          16          14          12           1          12
 AtmWgt=   1.0078250  12.0000000   1.0078250  12.0000000   1.0078250  15.9949146  14.0030740  12.0000000   1.0078250  12.0000000
 NucSpn=           1           0           1           0           1           0           2           0           1           0
 AtZEff=  -0.0000000  -0.0000000  -0.0000000  -0.0000000  -0.0000000  -0.0000000  -0.0000000  -0.0000000  -0.0000000  -0.0000000
 NQMom=    0.0000000   0.0000000   0.0000000   0.0000000   0.0000000   0.0000000   2.0440000   0.0000000   0.0000000   0.0000000
 NMagM=    2.7928460   0.0000000   2.7928460   0.0000000   2.7928460   0.0000000   0.4037610   0.0000000   2.7928460   0.0000000
 AtZNuc=   1.0000000   6.0000000   1.0000000   6.0000000   1.0000000   8.0000000   7.0000000   6.0000000   1.0000000   6.0000000

  Atom        21          22          23          24          25          26          27          28          29          30
 IAtWgt=           1          12           1           1          12          12           1          12          16          14
 AtmWgt=   1.0078250  12.0000000   1.0078250   1.0078250  12.0000000  12.0000000   1.0078250  12.0000000  15.9949146  14.0030740
 NucSpn=           1           0           1           1           0           0           1           0           0           2
 AtZEff=  -0.0000000  -0.0000000  -0.0000000  -0.0000000  -0.0000000  -0.0000000  -0.0000000  -0.0000000  -0.0000000  -0.0000000
 NQMom=    0.0000000   0.0000000   0.0000000   0.0000000   0.0000000   0.0000000   0.0000000   0.0000000   0.0000000   2.0440000
 NMagM=    2.7928460   0.0000000   2.7928460   2.7928460   0.0000000   0.0000000   2.7928460   0.0000000   0.0000000   0.4037610
 AtZNuc=   1.0000000   6.0000000   1.0000000   1.0000000   6.0000000   6.0000000   1.0000000   6.0000000   8.0000000   7.0000000

  Atom        31          32          33          34          35          36          37          38          39          40
 IAtWgt=           1           1           1          12          12          12          12          12          16          32
 AtmWgt=   1.0078250   1.0078250   1.0078250  12.0000000  12.0000000  12.0000000  12.0000000  12.0000000  15.9949146  31.9720718
 NucSpn=           1           1           1           0           0           0           0           0           0           0
 AtZEff=  -0.0000000  -0.0000000  -0.0000000  -0.0000000  -0.0000000  -0.0000000  -0.0000000  -0.0000000  -0.0000000  -0.0000000
 NQMom=    0.0000000   0.0000000   0.0000000   0.0000000   0.0000000   0.0000000   0.0000000   0.0000000   0.0000000   0.0000000
 NMagM=    2.7928460   2.7928460   2.7928460   0.0000000   0.0000000   0.0000000   0.0000000   0.0000000   0.0000000   0.0000000
 AtZNuc=   1.0000000   1.0000000   1.0000000   6.0000000   6.0000000   6.0000000   6.0000000   6.0000000   8.0000000  16.0000000

  Atom        41          42          43          44          45          46          47          48
 IAtWgt=           1           1           1           1           1           1           1           1
 AtmWgt=   1.0078250   1.0078250   1.0078250   1.0078250   1.0078250   1.0078250   1.0078250   1.0078250
 NucSpn=           1           1           1           1           1           1           1           1
 AtZEff=  -0.0000000  -0.0000000  -0.0000000  -0.0000000  -0.0000000  -0.0000000  -0.0000000  -0.0000000
 NQMom=    0.0000000   0.0000000   0.0000000   0.0000000   0.0000000   0.0000000   0.0000000   0.0000000
 NMagM=    2.7928460   2.7928460   2.7928460   2.7928460   2.7928460   2.7928460   2.7928460   2.7928460
 AtZNuc=   1.0000000   1.0000000   1.0000000   1.0000000   1.0000000   1.0000000   1.0000000   1.0000000
 Background charge distribution read from input stream:
 Leave Link  101 at Sat Aug 13 20:34:16 2022, MaxMem=  2684354560 cpu:               1.5 elap:               0.1
 (Enter /storage/apps/GAUSSIAN/G16_RevA03/g16/l103.exe)

 GradGradGradGradGradGradGradGradGradGradGradGradGradGradGradGradGradGrad
 Berny optimization.
 Initialization pass.
 Trust Radius=3.00D-01 FncErr=1.00D-07 GrdErr=1.00D-07 EigMax=2.50D+02 EigMin=1.00D-04
 Number of steps in this run=      2 maximum allowed number of steps=      2.
 GradGradGradGradGradGradGradGradGradGradGradGradGradGradGradGradGradGrad

 Leave Link  103 at Sat Aug 13 20:34:16 2022, MaxMem=  2684354560 cpu:               0.3 elap:               0.0
 (Enter /storage/apps/GAUSSIAN/G16_RevA03/g16/l202.exe)
 ---------------------------------------------------------------------------------------------------
                            Z-MATRIX (ANGSTROMS AND DEGREES)
   CD    Cent   Atom    N1       Length/X        N2       Alpha/Y        N3        Beta/Z          J
 ---------------------------------------------------------------------------------------------------
      1      1  C        0   3.598356         -3.615851         -0.443372
      2      2  H        0   3.749046         -3.710210         -1.518067
      3      3  H        0   4.334584         -4.236997          0.067260
      4      4  C        0   1.859905         -1.437506          1.243164
      5      5  H        0   1.211769         -2.310555          1.088675
      6      6  O        0   1.461922         -0.677823          2.325211
      7      7  H        0   0.522303         -0.369313          2.163160
      8      8  C        0   3.314764         -1.884126          1.409403
      9      9  H        0   3.398399         -2.769735          2.046677
     10     10  O        0   4.076669         -0.816504          1.914840
     11     11  H        0   3.529720         -0.377520          2.581732
     12     12  C        0   1.974619         -0.659058         -0.078472
     13     13  H        0   2.259734          0.376917          0.120694
     14     14  C        0   3.752025         -2.169672         -0.022289
     15     15  H        0   4.779619         -1.831353         -0.158039
     16     16  O        0   2.912335         -1.336418         -0.854316
     17     17  N        0   0.720917         -0.601367         -0.859604
     18     18  C        0   0.205051         -1.763650         -1.334407
     19     19  H        0   0.769341         -2.655318         -1.112334
     20     20  C        0  -0.930888         -1.753296         -2.087091
     21     21  H        0  -1.324390         -2.684892         -2.466249
     22     22  C        0  -1.564403         -0.538778         -2.362120
     23     23  H        0  -2.412141         -0.511701         -3.033434
     24     24  H        0  -2.890823         -0.735366         -0.960385
     25     25  C        0  -1.018991          0.644285         -1.862333
     26     26  C        0   0.139823          0.568471         -1.112765
     27     27  H        0   0.597555          1.464936         -0.713783
     28     28  C        0  -1.537240          2.016607         -2.163803
     29     29  O        0  -0.830305          2.989509         -2.045401
     30     30  N        0  -2.809440          2.064590         -2.665859
     31     31  H        0  -3.184241          2.997825         -2.748690
     32     32  H        0  -3.463729          1.364881         -2.348889
     33     33  H        0   2.604448         -3.995974         -0.195469
     34     34  C        0   0.201232          2.199766          2.846668
     35     35  C        0  -1.662172          0.896749          1.233201
     36     36  C        0  -2.809579          0.854834          0.470649
     37     37  C        0  -4.874402         -0.382341         -0.340924
     38     38  C        0  -3.384108         -0.415360         -0.023227
     39     39  O        0  -0.915114         -0.082086          1.522349
     40     40  S        0  -1.213329          2.557278          1.794782
     41     41  H        0   0.440425          3.129468          3.359628
     42     42  H        0   1.066098          1.877520          2.271534
     43     43  H        0  -5.477499         -0.317265          0.564991
     44     44  H        0  -5.128729          0.486881         -0.955121
     45     45  H        0  -5.178566         -1.276331         -0.888125
     46     46  H        0  -3.144123         -1.229931          0.666774
     47     47  H        0  -3.356565          1.778949          0.320521
     48     48  H        0  -0.049650          1.437152          3.581020
 ---------------------------------------------------------------------------------------------------
                         Z-Matrix orientation:                         
 ---------------------------------------------------------------------
 Center     Atomic      Atomic             Coordinates (Angstroms)
 Number     Number       Type             X           Y           Z
 ---------------------------------------------------------------------
      1          6           0        3.598356   -3.615851   -0.443372
      2          1           0        3.749046   -3.710210   -1.518067
      3          1           0        4.334584   -4.236997    0.067260
      4          6           0        1.859905   -1.437506    1.243164
      5          1           0        1.211769   -2.310555    1.088675
      6          8           0        1.461922   -0.677823    2.325211
      7          1           0        0.522303   -0.369313    2.163160
      8          6           0        3.314764   -1.884126    1.409403
      9          1           0        3.398399   -2.769735    2.046677
     10          8           0        4.076669   -0.816504    1.914840
     11          1           0        3.529720   -0.377520    2.581732
     12          6           0        1.974619   -0.659058   -0.078472
     13          1           0        2.259734    0.376917    0.120694
     14          6           0        3.752025   -2.169672   -0.022289
     15          1           0        4.779619   -1.831353   -0.158039
     16          8           0        2.912335   -1.336418   -0.854316
     17          7           0        0.720917   -0.601367   -0.859604
     18          6           0        0.205051   -1.763650   -1.334407
     19          1           0        0.769341   -2.655318   -1.112334
     20          6           0       -0.930888   -1.753296   -2.087091
     21          1           0       -1.324390   -2.684892   -2.466249
     22          6           0       -1.564403   -0.538778   -2.362120
     23          1           0       -2.412141   -0.511701   -3.033434
     24          1           0       -2.890823   -0.735366   -0.960385
     25          6           0       -1.018991    0.644285   -1.862333
     26          6           0        0.139823    0.568471   -1.112765
     27          1           0        0.597555    1.464936   -0.713783
     28          6           0       -1.537240    2.016607   -2.163803
     29          8           0       -0.830305    2.989509   -2.045401
     30          7           0       -2.809440    2.064590   -2.665859
     31          1           0       -3.184241    2.997825   -2.748690
     32          1           0       -3.463729    1.364881   -2.348889
     33          1           0        2.604448   -3.995974   -0.195469
     34          6           0        0.201232    2.199766    2.846668
     35          6           0       -1.662172    0.896749    1.233201
     36          6           0       -2.809579    0.854834    0.470649
     37          6           0       -4.874402   -0.382341   -0.340924
     38          6           0       -3.384108   -0.415360   -0.023227
     39          8           0       -0.915114   -0.082086    1.522349
     40         16           0       -1.213329    2.557278    1.794782
     41          1           0        0.440425    3.129468    3.359628
     42          1           0        1.066098    1.877520    2.271534
     43          1           0       -5.477499   -0.317265    0.564991
     44          1           0       -5.128729    0.486881   -0.955121
     45          1           0       -5.178566   -1.276331   -0.888125
     46          1           0       -3.144123   -1.229931    0.666774
     47          1           0       -3.356565    1.778949    0.320521
     48          1           0       -0.049650    1.437152    3.581020
 ---------------------------------------------------------------------
                    Distance matrix (angstroms):
                    1          2          3          4          5
     1  C    0.000000
     2  H    1.089303   0.000000
     3  H    1.090229   1.770204   0.000000
     4  C    3.257576   4.044556   3.917134   0.000000
     5  H    3.121981   3.897680   3.808732   1.098254   0.000000
     6  O    4.567429   5.403433   5.100809   1.380701   2.063350
     7  H    5.176497   5.926626   5.821105   1.943350   2.323425
     8  C    2.551876   3.477537   2.894371   1.530921   2.169630
     9  H    2.637468   3.703356   2.635791   2.188020   2.431042
    10  O    3.691381   4.501747   3.896132   2.398090   3.335025
    11  H    4.432015   5.288032   4.676103   2.388225   3.367305
    12  C    3.392978   3.811896   4.288627   1.538136   2.161392
    13  H    4.248797   4.648462   5.059255   2.170699   3.042651
    14  C    1.514054   2.147235   2.149704   2.391141   2.776147
    15  H    2.158988   2.538082   2.456815   3.262394   3.809657
    16  O    2.415640   2.602987   3.359383   2.348883   2.759725
    17  N    4.188080   4.389538   5.209172   2.533388   2.637812
    18  C    3.967255   4.047558   5.013498   3.080387   2.680282
    19  H    3.061611   3.186857   4.074814   2.867188   2.271353
    20  C    5.165750   5.104418   6.207672   4.356472   3.871306
    21  H    5.402975   5.262136   6.391532   5.045340   4.382889
    22  C    6.309045   6.245250   7.374060   5.052887   4.770148
    23  H    7.243635   7.105422   8.307252   6.115291   5.775845
    24  H    7.118563   7.297162   8.094688   5.283753   4.848828
    25  C    6.440660   6.466400   7.497400   4.718687   4.734535
    26  C    5.469743   5.612296   6.486987   3.540202   3.779444
    27  H    5.906973   6.112357   6.862030   3.721201   4.228528
    28  C    7.814014   7.820373   8.863607   5.922746   6.071243
    29  O    8.112356   8.132329   9.130269   6.135988   6.487155
    30  N    8.846847   8.813596   9.910450   7.024807   7.029121
    31  H    9.749811   9.725360  10.807634   7.813480   7.888547
    32  H    8.849392   8.858382   9.901136   7.006946   6.869204
    33  H    1.092613   1.772295   1.766491   3.028162   2.535590
    34  C    7.495747   8.158781   8.138896   4.307223   4.945171
    35  C    7.130751   7.620684   7.979715   4.225384   4.308970
    36  C    7.866644   8.234694   8.782285   5.258867   5.154889
    37  C    9.069383   9.317952   9.991517   6.998114   6.542419
    38  C    7.692494   7.998279   8.613437   5.490738   5.094131
    39  O    6.059948   6.645435   6.851270   3.100941   3.110913
    40  S    8.140588   8.653412   8.940125   5.070241   5.484112
    41  H    8.362695   9.028847   8.959295   5.229875   5.945254
    42  H    6.630247   7.265123   7.275242   3.560488   4.354348
    43  H    9.709202  10.048897  10.577760   7.453345   6.999554
    44  H    9.656931   9.836024  10.626127   7.574743   7.225280
    45  H    9.094257   9.274850  10.008912   7.355844   6.768585
    46  H    7.237822   7.644677   8.082878   5.041390   4.507720
    47  H    8.835062   9.165205   9.767780   6.197452   6.179302
    48  H    7.418660   8.180838   7.985235   4.168409   4.674213
                    6          7          8          9         10
     6  O    0.000000
     7  H    1.002159   0.000000
     8  C    2.393093   3.265065   0.000000
     9  H    2.864196   3.748002   1.094265   0.000000
    10  O    2.650385   3.590983   1.405625   2.071845   0.000000
    11  H    2.105178   3.036417   1.921047   2.454836   0.967784
    12  C    2.457825   2.686650   2.347457   3.316378   2.901154
    13  H    2.570773   2.783378   2.808233   3.861009   2.818593
    14  C    3.602907   4.295181   1.523967   2.183059   2.385147
    15  H    4.301660   5.064609   2.146033   2.765701   2.412651
    16  O    3.556239   3.968968   2.363548   3.272066   3.048641
    17  N    3.270777   3.038157   3.677214   4.507460   4.359460
    18  C    4.018899   3.778598   4.148894   4.758299   5.142384
    19  H    4.025776   4.001963   3.665116   4.111495   4.845971
    20  C    5.133283   4.700192   5.501650   6.071566   6.478322
    21  H    5.894909   5.495781   6.097840   6.532873   7.201129
    22  C    5.581133   4.986103   6.311942   7.003147   7.084576
    23  H    6.614457   5.969575   7.376977   8.041680   8.165964
    24  H    5.453883   4.641116   6.741280   7.261914   7.537868
    25  C    5.043652   4.428043   5.989871   6.815367   6.508970
    26  C    3.888557   3.428909   4.738862   5.634182   5.155900
    27  H    3.817595   3.412760   4.807012   5.779040   4.921266
    28  C    6.033753   5.353218   7.178124   8.062118   7.495187
    29  O    6.148648   5.551866   7.271147   8.233828   7.365300
    30  N    7.118718   6.351678   8.349012   9.171475   8.757968
    31  H    7.800108   7.014439   9.130183   9.979551   9.434958
    32  H    7.090972   6.265338   8.404093   9.138099   8.932829
    33  H    4.320801   4.801159   2.745918   2.676049   4.090216
    34  C    3.184615   2.677767   5.332728   5.963036   4.998520
    35  C    3.664932   2.690663   5.703876   6.301922   6.027783
    36  C    4.902465   3.932501   6.774270   7.359372   7.231837
    37  C    6.880740   5.949372   8.507728   8.935297   9.241139
    38  C    5.391480   4.476880   7.006039   7.471947   7.718822
    39  O    2.578719   1.599783   4.599127   5.109283   5.060762
    40  S    4.231336   3.422434   6.354385   7.050429   6.275420
    41  H    4.075407   3.698609   6.099289   6.728599   5.557012
    42  H    2.586375   2.314242   4.466514   5.204533   4.055679
    43  H    7.168259   6.209225   8.970617   9.326927   9.661959
    44  H    7.453442   6.510830   9.083239   9.608759   9.730100
    45  H    7.401339   6.529390   8.819564   9.187363   9.681293
    46  H    4.926549   4.052470   6.534270   6.861467   7.339511
    47  H    5.768217   4.801663   7.688330   8.324643   8.033131
    48  H    2.887044   2.366595   5.202508   5.651650   4.988149
                   11         12         13         14         15
    11  H    0.000000
    12  C    3.094235   0.000000
    13  H    2.870322   1.092795   0.000000
    14  C    3.168936   2.333299   2.955079   0.000000
    15  H    3.343983   3.041156   3.362138   1.090338   0.000000
    16  O    3.620370   1.392861   2.076547   1.446257   2.053415
    17  N    4.447727   1.478264   2.070261   3.514014   4.298618
    18  C    5.320801   2.434927   3.304704   3.803621   4.723886
    19  H    5.143363   2.550808   3.596676   3.212546   4.203799
    20  C    6.602098   3.697821   4.426307   5.134827   6.028037
    21  H    7.373497   4.548510   5.377071   5.657595   6.581435
    22  C    7.100547   4.213572   4.650472   6.033161   6.839250
    23  H    8.176418   5.291236   5.706538   7.057819   7.856894
    24  H    7.341527   4.945313   5.379047   6.860371   7.789777
    25  C    6.440852   3.720560   3.841083   5.836669   6.531254
    26  C    5.102510   2.437840   2.460109   4.662035   5.310213
    27  H    4.780445   2.609842   2.154757   4.862018   5.353880
    28  C    7.343434   4.882719   4.724883   7.077241   7.663719
    29  O    7.194238   5.004843   4.589765   7.190819   7.633747
    30  N    8.584059   6.082767   6.025748   8.244408   8.891645
    31  H    9.213231   6.864160   6.688751   9.069072   9.667238
    32  H    8.732429   6.231112   6.311334   8.365001   9.108706
    33  H    4.654265   3.397850   4.397836   2.163863   3.068934
    34  C    4.217988   4.458051   3.871840   6.319101   6.799986
    35  C    5.513442   4.167406   4.109653   6.347655   7.132655
    36  C    6.794268   5.047965   5.103803   7.241911   8.075071
    37  C    8.897820   6.859631   7.189260   8.815403   9.763872
    38  C    7.388387   5.364550   5.700997   7.348606   8.286715
    39  O    4.578878   3.353518   3.500711   5.340984   6.189800
    40  S    5.632836   4.900705   4.429301   7.092288   7.680431
    41  H    4.737914   5.341087   4.623539   7.105276   7.470765
    42  H    3.354230   3.575216   2.881439   5.371740   5.783494
    43  H    9.230432   7.487652   7.781007   9.431883  10.393445
    44  H    9.392830   7.248396   7.467185   9.316396  10.207101
    45  H    9.417113   7.225276   7.686303   9.016828  10.000326
    46  H    6.995273   5.204114   5.664083   6.993910   7.989225
    47  H    7.562034   5.875763   5.792101   8.138868   8.914078
    48  H    4.135638   4.677996   4.293158   6.359697   6.927159
                   16         17         18         19         20
    16  O    0.000000
    17  N    2.311415   0.000000
    18  C    2.782517   1.357372   0.000000
    19  H    2.529524   2.070008   1.078337   0.000000
    20  C    4.057571   2.358416   1.362717   2.157446   0.000000
    21  H    4.729329   3.332516   2.113987   2.493526   1.080035
    22  C    4.790708   2.735719   2.384842   3.389405   1.397153
    23  H    5.811950   3.814398   3.362107   4.290402   2.152030
    24  H    5.835166   3.615630   3.283549   4.135953   2.479313
    25  C    4.516039   2.363132   2.752296   3.827272   2.409704
    26  C    3.373755   1.330519   2.343538   3.284678   2.736117
    27  H    3.636694   2.075112   3.311042   4.143048   3.818263
    28  C    5.723308   3.695131   4.244269   5.315335   3.819125
    29  O    5.842917   4.087395   4.916299   5.940838   4.744055
    30  N    6.898351   4.778421   5.051271   6.123614   4.294203
    31  H    7.716382   5.636762   6.013247   7.089887   5.299855
    32  H    7.084134   4.857506   4.927152   5.967407   4.025773
    33  H    2.757193   3.938543   3.469518   2.450636   4.594174
    34  C    5.792405   4.674705   5.761082   6.290333   6.422645
    35  C    5.501898   3.507606   4.142083   4.902139   4.310667
    36  C    6.268765   4.044069   4.382086   5.256964   4.107780
    37  C    7.861750   5.623575   5.356852   6.132971   4.525475
    38  C    6.417496   4.193490   4.052054   4.843006   3.473888
    39  O    4.676671   2.935975   3.499069   4.049749   3.977593
    40  S    6.260966   4.556765   5.520330   6.289154   5.807733
    41  H    6.619048   5.639124   6.784686   7.319179   7.442354
    42  H    4.848600   4.008498   5.196377   5.664384   6.014016
    43  H    8.569855   6.366360   6.163693   6.877712   5.455950
    44  H    8.245804   5.950779   5.801548   6.684711   4.890973
    45  H    8.091195   5.938038   5.424019   6.109785   4.439345
    46  H    6.245457   4.202792   3.937835   4.529035   3.571567
    47  H    7.098229   4.866668   5.289036   6.224058   4.915003
    48  H    6.011510   4.946562   5.871237   6.280655   6.563766
                   21         22         23         24         25
    21  H    0.000000
    22  C    2.162002   0.000000
    23  H    2.495528   1.081691   0.000000
    24  H    2.919245   1.939819   2.139321   0.000000
    25  C    3.397264   1.395313   2.156072   2.494134   0.000000
    26  C    3.815784   2.385639   3.371685   3.302730   1.382190
    27  H    4.897559   3.377269   4.283240   4.131697   2.146126
    28  C    4.716023   2.563213   2.813192   3.294504   1.497576
    29  O    5.711397   3.617737   3.966974   4.392913   2.359914
    30  N    4.980241   2.901706   2.632534   3.279484   2.422525
    31  H    5.985991   3.909076   3.604718   4.149800   3.318597
    32  H    4.581616   2.689151   2.257432   2.582093   2.594752
    33  H    4.723468   5.833172   6.735011   6.435423   6.118803
    34  C    7.376618   6.143986   6.982648   5.715720   5.107167
    35  C    5.160250   3.872548   4.555256   2.997533   3.171711
    36  C    4.833303   3.393700   3.782059   2.140840   2.948447
    37  C    4.735117   3.881469   3.650900   2.107829   4.269993
    38  C    3.919384   2.965970   3.164703   1.106345   3.177882
    39  O    4.780274   3.964750   4.814646   3.239470   3.463304
    40  S    6.756409   5.195060   5.845293   4.609386   4.131803
    41  H    8.417969   7.086167   7.890912   6.685557   5.964470
    42  H    6.998330   5.850537   6.778585   5.738440   4.791380
    43  H    5.660600   4.891765   4.731056   3.031909   5.166699
    44  H    5.178479   3.966868   3.563201   2.549929   4.211622
    45  H    4.396498   3.972256   3.583311   2.351942   4.684006
    46  H    3.904379   3.485313   3.839686   1.719419   3.798059
    47  H    5.641072   3.972438   4.169895   2.859968   3.393607
    48  H    7.428706   6.443577   7.289060   5.780697   5.585548
                   26         27         28         29         30
    26  C    0.000000
    27  H    1.082753   0.000000
    28  C    2.452411   2.638986   0.000000
    29  O    2.769907   2.477158   1.208435   0.000000
    30  N    3.653577   3.972128   1.368523   2.270995   0.000000
    31  H    4.430284   4.559888   2.004369   2.456766   1.009091
    32  H    3.892025   4.379225   2.042147   3.109090   1.009038
    33  H    5.267824   5.841045   7.561683   8.001047   8.493730
    34  C    4.282757   3.657029   5.306661   5.061630   6.282545
    35  C    2.976325   3.036437   3.579012   3.977547   4.228800
    36  C    3.359788   3.658369   3.147841   3.847710   3.361725
    37  C    5.161612   5.787380   4.496053   5.534378   3.956875
    38  C    3.817474   4.457131   3.729269   4.712136   3.669319
    39  O    2.912034   3.111548   4.287105   4.708580   5.073241
    40  S    3.773619   3.281068   4.008446   3.883367   4.763153
    41  H    5.162496   4.403185   5.971424   5.554159   6.928353
    42  H    3.745007   3.049898   5.144796   4.844460   6.279541
    43  H    5.929056   6.458931   5.330940   6.272584   4.819768
    44  H    5.271541   5.814221   4.086535   5.091985   3.285558
    45  H    5.633739   6.395976   5.072480   6.200327   4.464846
    46  H    4.145517   4.813356   4.597200   5.523886   4.698119
    47  H    3.967908   4.099202   3.088412   3.666747   3.049492
    48  H    4.777251   4.343383   5.962523   5.888620   6.858106
                   31         32         33         34         35
    31  H    0.000000
    32  H    1.704248   0.000000
    33  H    9.430858   8.378470   0.000000
    34  C    6.588350   6.412705   7.308710   0.000000
    35  C    4.752544   4.036846   6.647096   2.788082   0.000000
    36  C    3.885476   2.939023   7.299708   4.064393   1.378327
    37  C    4.481016   3.012425   8.307388   6.526108   3.798995
    38  C    4.372405   2.929898   6.979489   5.284869   2.503059
    39  O    5.733809   4.855475   5.536852   2.864768   1.264840
    40  S    4.972093   4.863756   7.841022   1.798683   1.809472
    41  H    7.104019   7.137461   8.251887   1.088433   3.731975
    42  H    6.672564   6.490797   6.553667   1.087481   3.079530
    43  H    5.218174   3.921171   8.912299   6.617362   4.059194
    44  H    3.647295   2.342157   8.970791   6.767279   4.119923
    45  H    5.070251   3.471383   8.273544   7.414456   4.646216
    46  H    5.435156   3.991168   6.437432   5.263664   2.653260
    47  H    3.306873   2.703458   8.315627   4.383654   2.117128
    48  H    7.233712   6.842878   7.129163   1.088023   2.899054
                   36         37         38         39         40
    36  C    0.000000
    37  C    2.540226   0.000000
    38  C    1.478983   1.524138   0.000000
    39  O    2.360697   4.386103   2.931861   0.000000
    40  S    2.683218   5.158106   4.105364   2.670093   0.000000
    41  H    4.907411   7.367108   6.215832   3.940452   2.347562
    42  H    4.394308   6.871786   5.507046   2.885574   2.425933
    43  H    2.915564   1.090249   2.176674   4.667676   5.287583
    44  H    2.747120   1.094288   2.173975   4.920989   5.213336
    45  H    3.464135   1.091404   2.170115   5.041193   6.133323
    46  H    2.120526   2.174334   1.094176   2.649158   4.398104
    47  H    1.084307   2.722593   2.221241   3.296745   2.715272
    48  H    4.198894   6.478459   5.247953   2.700970   2.408210
                   41         42         43         44         45
    41  H    0.000000
    42  H    1.772791   0.000000
    43  H    7.396742   7.109714   0.000000
    44  H    7.524347   7.121872   1.754717   0.000000
    45  H    8.308281   7.676330   1.766554   1.765188   0.000000
    46  H    6.253384   5.473342   2.507581   3.084906   2.561020
    47  H    5.047495   4.834885   2.992029   2.537177   3.757027
    48  H    1.775703   1.775830   6.452593   6.875801   7.324072
                   46         47         48
    46  H    0.000000
    47  H    3.036179   0.000000
    48  H    5.018159   4.656540   0.000000
 Stoichiometry    C16H24N2O5S
 Framework group  C1[X(C16H24N2O5S)]
 Deg. of freedom   138
 Full point group                 C1      NOp   1
 Largest Abelian subgroup         C1      NOp   1
 Largest concise Abelian subgroup C1      NOp   1
                         Standard orientation:                         
 ---------------------------------------------------------------------
 Center     Atomic      Atomic             Coordinates (Angstroms)
 Number     Number       Type             X           Y           Z
 ---------------------------------------------------------------------
      1          6           0       -4.680412   -1.967609   -0.549355
      2          1           0       -4.639295   -2.910533   -0.005496
      3          1           0       -5.704622   -1.803764   -0.885132
      4          6           0       -2.514449    0.461258   -0.694327
      5          1           0       -2.321673   -0.188600   -1.558436
      6          8           0       -2.038269    1.742514   -0.889188
      7          1           0       -1.050642    1.688852   -1.050542
      8          6           0       -4.012497    0.489482   -0.380041
      9          1           0       -4.617714    0.563333   -1.288707
     10          8           0       -4.284938    1.548298    0.503399
     11          1           0       -3.743495    2.296445    0.214052
     12          6           0       -1.993299   -0.229228    0.577480
     13          1           0       -1.805938    0.513554    1.356821
     14          6           0       -4.235784   -0.831200    0.346882
     15          1           0       -4.944026   -0.677332    1.161471
     16          8           0       -2.960602   -1.162162    0.943570
     17          7           0       -0.724609   -0.964980    0.392121
     18          6           0       -0.714771   -2.027062   -0.453067
     19          1           0       -1.656160   -2.264952   -0.922116
     20          6           0        0.424543   -2.753836   -0.628452
     21          1           0        0.414841   -3.602211   -1.296765
     22          6           0        1.584265   -2.395035    0.063172
     23          1           0        2.465289   -3.019508    0.000841
     24          1           0        2.363165   -1.432353   -1.429964
     25          6           0        1.553347   -1.298310    0.925228
     26          6           0        0.364876   -0.606966    1.066754
     27          1           0        0.298891    0.244989    1.731715
     28          6           0        2.690726   -0.868029    1.799277
     29          8           0        2.499929   -0.190474    2.781534
     30          7           0        3.915205   -1.375320    1.458450
     31          1           0        4.683622   -0.981661    1.980783
     32          1           0        4.098398   -1.536264    0.479321
     33          1           0       -4.042909   -2.046256   -1.433214
     34          6           0        0.266773    3.602055    0.281565
     35          6           0        1.607249    1.389386   -0.757964
     36          6           0        2.734547    0.625539   -0.971325
     37          6           0        4.119341   -0.893651   -2.463690
     38          6           0        2.749627   -0.515000   -1.912778
     39          8           0        0.454216    1.177473   -1.232754
     40         16           0        1.866182    2.783518    0.366109
     41          1           0        0.382541    4.548898    0.805753
     42          1           0       -0.515002    3.020657    0.764699
     43          1           0        4.490497   -0.147522   -3.166668
     44          1           0        4.860320   -0.971467   -1.662215
     45          1           0        4.083051   -1.855981   -2.977273
     46          1           0        2.030933   -0.345497   -2.720223
     47          1           0        3.661414    0.942794   -0.506579
     48          1           0       -0.011753    3.794238   -0.752497
 ---------------------------------------------------------------------
 Rotational constants (GHZ):           0.3328803           0.1646960           0.1401835
 Leave Link  202 at Sat Aug 13 20:34:16 2022, MaxMem=  2684354560 cpu:               0.2 elap:               0.0
 (Enter /storage/apps/GAUSSIAN/G16_RevA03/g16/l301.exe)
 Standard basis: def2TZVP (5D, 7F)
 Ernie: Thresh=  0.10000D-02 Tol=  0.10000D-05 Strict=F.
 There are  1014 symmetry adapted cartesian basis functions of A   symmetry.
 There are   894 symmetry adapted basis functions of A   symmetry.
   894 basis functions,  1434 primitive gaussians,  1014 cartesian basis functions
    95 alpha electrons       95 beta electrons
       nuclear repulsion energy      2497.9225323084 Hartrees.
 IExCor= 4336 DFT=T Ex+Corr=M062X ExCW=0 ScaHFX=  0.540000
 ScaDFX=  1.000000  1.000000  1.000000  1.000000 ScalE2=  1.000000  1.000000
 IRadAn=      5 IRanWt=     -1 IRanGd=            0 ICorTp=0 IEmpDi=131
 NAtoms=   48 NActive=   48 NUniq=   48 SFac= 1.00D+00 NAtFMM=   60 NAOKFM=F Big=F
 Integral buffers will be    131072 words long.
 Raffenetti 2 integral format.
 Two-electron integral symmetry is turned on.
 R6Disp:  Grimme-D3 Dispersion energy=       -0.0042710239 Hartrees.
 Nuclear repulsion after empirical dispersion term =     2497.9182612845 Hartrees.
 Leave Link  301 at Sat Aug 13 20:34:16 2022, MaxMem=  2684354560 cpu:               0.8 elap:               0.1
 (Enter /storage/apps/GAUSSIAN/G16_RevA03/g16/l302.exe)
 NPDir=0 NMtPBC=     1 NCelOv=     1 NCel=       1 NClECP=     1 NCelD=      1
         NCelK=      1 NCelE2=     1 NClLst=     1 CellRange=     0.0.
 One-electron integrals computed using PRISM.
 One-electron integral symmetry used in STVInt
   1 Symmetry operations used in ECPInt.
 ECPInt:  NShTT=   65703 NPrTT=  200010 LenC2=   56962 LenP2D=  121467.
 LDataN:  DoStor=T MaxTD1= 6 Len=  172
 NBasis=   894 RedAO= T EigKep=  1.69D-05  NBF=   894
 NBsUse=   894 1.00D-06 EigRej= -1.00D+00 NBFU=   894
 Precomputing XC quadrature grid using
 IXCGrd= 4 IRadAn=           5 IRanWt=          -1 IRanGd=           0 AccXCQ= 0.00D+00.
 Generated NRdTot=       0 NPtTot=           0 NUsed=           0 NTot=          32
 NSgBfM=   998   997   997   997   998 MxSgAt=    48 MxSgA2=    48.
 Leave Link  302 at Sat Aug 13 20:34:17 2022, MaxMem=  2684354560 cpu:              18.4 elap:               1.2
 (Enter /storage/apps/GAUSSIAN/G16_RevA03/g16/l303.exe)
 DipDrv:  MaxL=1.
 Leave Link  303 at Sat Aug 13 20:34:17 2022, MaxMem=  2684354560 cpu:               2.0 elap:               0.2
 (Enter /storage/apps/GAUSSIAN/G16_RevA03/g16/l401.exe)
 ExpMin= 9.52D-02 ExpMax= 6.07D+04 ExpMxC= 2.07D+03 IAcc=3 IRadAn=         5 AccDes= 0.00D+00
 Harris functional with IExCor= 1009 and IRadAn=       5 diagonalized for initial guess.
 HarFok:  IExCor= 1009 AccDes= 0.00D+00 IRadAn=         5 IDoV= 1 UseB2=F ITyADJ=14
 ICtDFT=  3500011 ScaDFX=  1.000000  1.000000  1.000000  1.000000
 FoFCou: FMM=F IPFlag=           0 FMFlag=      100000 FMFlg1=           0
         NFxFlg=           0 DoJE=T BraDBF=F KetDBF=T FulRan=T
         wScrn=  0.000000 ICntrl=       500 IOpCl=  0 I1Cent=   200000004 NGrid=           0
         NMat0=    1 NMatS0=      1 NMatT0=    0 NMatD0=    1 NMtDS0=    0 NMtDT0=    0
 Petite list used in FoFCou.
 Harris En= -1507.24118718274    
 JPrj=0 DoOrth=F DoCkMO=F.
 Leave Link  401 at Sat Aug 13 20:34:21 2022, MaxMem=  2684354560 cpu:              60.1 elap:               3.8
 (Enter /storage/apps/GAUSSIAN/G16_RevA03/g16/l502.exe)
 Integral symmetry usage will be decided dynamically.
 Closed shell SCF:
 Using DIIS extrapolation, IDIIS=  1040.
 NGot=  2684354560 LenX=  2682272944 LenY=  2681243734
 Requested convergence on RMS density matrix=1.00D-08 within 128 cycles.
 Requested convergence on MAX density matrix=1.00D-06.
 Requested convergence on             energy=1.00D-06.
 No special actions if energy rises.
 Fock matrices will be formed incrementally for  20 cycles.
 Integral accuracy reduced to 1.0D-05 until final iterations.

 Cycle   1  Pass 0  IDiag  1:
 FoFJK:  IHMeth= 1 ICntrl=       0 DoSepK=F KAlg= 0 I1Cent=           0 FoldK=F
 IRaf= 800000000 NMat=       1 IRICut=       1 DoRegI=T DoRafI=F ISym2E= 0 IDoP0=0 IntGTp=1.
 FoFCou: FMM=F IPFlag=           0 FMFlag=      100000 FMFlg1=           0
         NFxFlg=           0 DoJE=F BraDBF=F KetDBF=F FulRan=T
         wScrn=  0.000000 ICntrl=         0 IOpCl=  0 I1Cent=           0 NGrid=           0
         NMat0=    1 NMatS0=      1 NMatT0=    0 NMatD0=    1 NMtDS0=    0 NMtDT0=    0
 Symmetry not used in FoFCou.
 E= -1507.15871279756    
 DIIS: error= 1.80D-02 at cycle   1 NSaved=   1.
 NSaved= 1 IEnMin= 1 EnMin= -1507.15871279756     IErMin= 1 ErrMin= 1.80D-02
 ErrMax= 1.80D-02  0.00D+00 EMaxC= 1.00D-01 BMatC= 9.95D-01 BMatP= 9.95D-01
 IDIUse=3 WtCom= 8.20D-01 WtEn= 1.80D-01
 Coeff-Com:  0.100D+01
 Coeff-En:   0.100D+01
 Coeff:      0.100D+01
 Gap=     0.174 Goal=   None    Shift=    0.000
 GapD=    0.174 DampG=1.000 DampE=0.500 DampFc=0.5000 IDamp=-1.
 Damping current iteration by 5.00D-01
 RMSDP=4.00D-03 MaxDP=1.00D+00              OVMax= 5.50D-01

 Cycle   2  Pass 0  IDiag  1:
 RMSU=  2.00D-03    CP:  1.01D+00
 E= -1507.46301107822     Delta-E=       -0.304298280665 Rises=F Damp=T
 DIIS: error= 7.40D-03 at cycle   2 NSaved=   2.
 NSaved= 2 IEnMin= 2 EnMin= -1507.46301107822     IErMin= 2 ErrMin= 7.40D-03
 ErrMax= 7.40D-03  0.00D+00 EMaxC= 1.00D-01 BMatC= 9.94D-02 BMatP= 9.95D-01
 IDIUse=3 WtCom= 9.26D-01 WtEn= 7.40D-02
 Coeff-Com:  0.157D-01 0.984D+00
 Coeff-En:   0.132D+00 0.868D+00
 Coeff:      0.243D-01 0.976D+00
 Gap=     0.160 Goal=   None    Shift=    0.000
 RMSDP=1.35D-03 MaxDP=2.19D-01 DE=-3.04D-01 OVMax= 4.36D-01

 Cycle   3  Pass 0  IDiag  1:
 RMSU=  1.16D-03    CP:  1.00D+00  6.61D-01
 E= -1507.82590713469     Delta-E=       -0.362896056464 Rises=F Damp=F
 DIIS: error= 7.48D-03 at cycle   3 NSaved=   3.
 NSaved= 3 IEnMin= 3 EnMin= -1507.82590713469     IErMin= 2 ErrMin= 7.40D-03
 ErrMax= 7.48D-03  0.00D+00 EMaxC= 1.00D-01 BMatC= 7.44D-02 BMatP= 9.94D-02
 IDIUse=3 WtCom= 9.25D-01 WtEn= 7.48D-02
 Coeff-Com: -0.721D-01 0.489D+00 0.583D+00
 Coeff-En:   0.000D+00 0.000D+00 0.100D+01
 Coeff:     -0.667D-01 0.452D+00 0.614D+00
 Gap=     0.130 Goal=   None    Shift=    0.000
 RMSDP=6.00D-04 MaxDP=2.99D-02 DE=-3.63D-01 OVMax= 1.68D-01

 Cycle   4  Pass 0  IDiag  1:
 RMSU=  4.88D-04    CP:  1.00D+00  8.03D-01  8.24D-01
 E= -1507.89184444892     Delta-E=       -0.065937314237 Rises=F Damp=F
 DIIS: error= 3.67D-03 at cycle   4 NSaved=   4.
 NSaved= 4 IEnMin= 4 EnMin= -1507.89184444892     IErMin= 4 ErrMin= 3.67D-03
 ErrMax= 3.67D-03  0.00D+00 EMaxC= 1.00D-01 BMatC= 1.00D-02 BMatP= 7.44D-02
 IDIUse=3 WtCom= 9.63D-01 WtEn= 3.67D-02
 Coeff-Com: -0.372D-01 0.107D+00 0.300D+00 0.630D+00
 Coeff-En:   0.000D+00 0.000D+00 0.653D-01 0.935D+00
 Coeff:     -0.359D-01 0.103D+00 0.291D+00 0.641D+00
 Gap=     0.150 Goal=   None    Shift=    0.000
 RMSDP=2.15D-04 MaxDP=2.05D-02 DE=-6.59D-02 OVMax= 6.27D-02

 Cycle   5  Pass 0  IDiag  1:
 RMSU=  1.76D-04    CP:  1.00D+00  7.85D-01  9.01D-01  8.41D-01
 E= -1507.90104097426     Delta-E=       -0.009196525339 Rises=F Damp=F
 DIIS: error= 9.53D-04 at cycle   5 NSaved=   5.
 NSaved= 5 IEnMin= 5 EnMin= -1507.90104097426     IErMin= 5 ErrMin= 9.53D-04
 ErrMax= 9.53D-04  0.00D+00 EMaxC= 1.00D-01 BMatC= 9.53D-04 BMatP= 1.00D-02
 IDIUse=3 WtCom= 9.90D-01 WtEn= 9.53D-03
 Coeff-Com: -0.120D-01 0.218D-01 0.948D-01 0.321D+00 0.575D+00
 Coeff-En:   0.000D+00 0.000D+00 0.000D+00 0.000D+00 0.100D+01
 Coeff:     -0.118D-01 0.216D-01 0.939D-01 0.318D+00 0.579D+00
 Gap=     0.148 Goal=   None    Shift=    0.000
 RMSDP=7.53D-05 MaxDP=7.61D-03 DE=-9.20D-03 OVMax= 8.44D-03

 Cycle   6  Pass 0  IDiag  1:
 RMSU=  6.44D-05    CP:  1.00D+00  7.86D-01  8.91D-01  9.16D-01  9.54D-01
 E= -1507.90193353176     Delta-E=       -0.000892557493 Rises=F Damp=F
 DIIS: error= 1.81D-04 at cycle   6 NSaved=   6.
 NSaved= 6 IEnMin= 6 EnMin= -1507.90193353176     IErMin= 6 ErrMin= 1.81D-04
 ErrMax= 1.81D-04  0.00D+00 EMaxC= 1.00D-01 BMatC= 1.02D-04 BMatP= 9.53D-04
 IDIUse=3 WtCom= 9.98D-01 WtEn= 1.81D-03
 Coeff-Com: -0.298D-03-0.387D-02-0.389D-02 0.584D-01 0.277D+00 0.672D+00
 Coeff-En:   0.000D+00 0.000D+00 0.000D+00 0.000D+00 0.000D+00 0.100D+01
 Coeff:     -0.297D-03-0.386D-02-0.389D-02 0.583D-01 0.277D+00 0.673D+00
 Gap=     0.150 Goal=   None    Shift=    0.000
 RMSDP=4.20D-05 MaxDP=5.18D-03 DE=-8.93D-04 OVMax= 6.25D-03

 Cycle   7  Pass 0  IDiag  1:
 RMSU=  2.32D-05    CP:  1.01D+00  7.87D-01  8.99D-01  9.40D-01  1.13D+00
                    CP:  1.08D+00
 E= -1507.90203362671     Delta-E=       -0.000100094957 Rises=F Damp=F
 DIIS: error= 9.08D-05 at cycle   7 NSaved=   7.
 NSaved= 7 IEnMin= 7 EnMin= -1507.90203362671     IErMin= 7 ErrMin= 9.08D-05
 ErrMax= 9.08D-05  0.00D+00 EMaxC= 1.00D-01 BMatC= 1.39D-05 BMatP= 1.02D-04
 IDIUse=1 WtCom= 1.00D+00 WtEn= 0.00D+00
 Coeff-Com:  0.140D-02-0.436D-02-0.159D-01-0.152D-01 0.496D-01 0.313D+00
 Coeff-Com:  0.672D+00
 Coeff:      0.140D-02-0.436D-02-0.159D-01-0.152D-01 0.496D-01 0.313D+00
 Coeff:      0.672D+00
 Gap=     0.150 Goal=   None    Shift=    0.000
 RMSDP=1.93D-05 MaxDP=2.15D-03 DE=-1.00D-04 OVMax= 2.74D-03

 Cycle   8  Pass 0  IDiag  1:
 RMSU=  1.21D-05    CP:  1.01D+00  7.85D-01  8.99D-01  9.53D-01  1.19D+00
                    CP:  1.19D+00  1.16D+00
 E= -1507.90204044714     Delta-E=       -0.000006820426 Rises=F Damp=F
 DIIS: error= 3.30D-05 at cycle   8 NSaved=   8.
 NSaved= 8 IEnMin= 8 EnMin= -1507.90204044714     IErMin= 8 ErrMin= 3.30D-05
 ErrMax= 3.30D-05  0.00D+00 EMaxC= 1.00D-01 BMatC= 2.56D-06 BMatP= 1.39D-05
 IDIUse=1 WtCom= 1.00D+00 WtEn= 0.00D+00
 Coeff-Com:  0.738D-03-0.145D-02-0.840D-02-0.177D-01-0.265D-01 0.409D-01
 Coeff-Com:  0.324D+00 0.689D+00
 Coeff:      0.738D-03-0.145D-02-0.840D-02-0.177D-01-0.265D-01 0.409D-01
 Coeff:      0.324D+00 0.689D+00
 Gap=     0.150 Goal=   None    Shift=    0.000
 RMSDP=1.70D-05 MaxDP=2.66D-03 DE=-6.82D-06 OVMax= 1.78D-03

 Cycle   9  Pass 0  IDiag  1:
 RMSU=  1.31D-05    CP:  1.00D+00  7.82D-01  8.97D-01  9.55D-01  1.20D+00
                    CP:  1.26D+00  1.30D+00  1.61D+00
 E= -1507.90203892687     Delta-E=        0.000001520267 Rises=F Damp=F
 DIIS: error= 1.68D-05 at cycle   9 NSaved=   9.
 NSaved= 9 IEnMin= 8 EnMin= -1507.90204044714     IErMin= 9 ErrMin= 1.68D-05
 ErrMax= 1.68D-05  0.00D+00 EMaxC= 1.00D-01 BMatC= 5.74D-07 BMatP= 2.56D-06
 IDIUse=1 WtCom= 1.00D+00 WtEn= 0.00D+00
 Coeff-Com:  0.211D-03-0.238D-03-0.315D-02-0.742D-02-0.208D-01-0.967D-02
 Coeff-Com:  0.814D-01 0.339D+00 0.621D+00
 Coeff:      0.211D-03-0.238D-03-0.315D-02-0.742D-02-0.208D-01-0.967D-02
 Coeff:      0.814D-01 0.339D+00 0.621D+00
 Gap=     0.150 Goal=   None    Shift=    0.000
 RMSDP=1.95D-05 MaxDP=2.71D-03 DE= 1.52D-06 OVMax= 7.91D-04

 Cycle  10  Pass 0  IDiag  1:
 RMSU=  1.08D-05    CP:  1.00D+00  7.81D-01  8.96D-01  9.56D-01  1.20D+00
                    CP:  1.31D+00  1.41D+00  2.20D+00  2.05D+00
 E= -1507.90203706853     Delta-E=        0.000001858339 Rises=F Damp=F
 DIIS: error= 2.56D-05 at cycle  10 NSaved=  10.
 NSaved=10 IEnMin= 8 EnMin= -1507.90204044714     IErMin= 9 ErrMin= 1.68D-05
 ErrMax= 2.56D-05  0.00D+00 EMaxC= 1.00D-01 BMatC= 4.19D-07 BMatP= 5.74D-07
 IDIUse=1 WtCom= 1.00D+00 WtEn= 0.00D+00
 Coeff-Com:  0.186D-03-0.207D-03-0.288D-02-0.667D-02-0.191D-01-0.900D-02
 Coeff-Com:  0.714D-01 0.304D+00 0.565D+00 0.969D-01
 Coeff:      0.186D-03-0.207D-03-0.288D-02-0.667D-02-0.191D-01-0.900D-02
 Coeff:      0.714D-01 0.304D+00 0.565D+00 0.969D-01
 Gap=     0.150 Goal=   None    Shift=    0.000
 RMSDP=4.35D-06 MaxDP=6.05D-04 DE= 1.86D-06 OVMax= 4.94D-05

 Initial convergence to 1.0D-05 achieved.  Increase integral accuracy.
 Cycle  11  Pass 1  IDiag  1:
 E= -1507.90196458952     Delta-E=        0.000072479009 Rises=F Damp=F
 DIIS: error= 3.32D-04 at cycle   1 NSaved=   1.
 NSaved= 1 IEnMin= 1 EnMin= -1507.90196458952     IErMin= 1 ErrMin= 3.32D-04
 ErrMax= 3.32D-04  0.00D+00 EMaxC= 1.00D-01 BMatC= 9.71D-05 BMatP= 9.71D-05
 IDIUse=3 WtCom= 9.97D-01 WtEn= 3.32D-03
 Coeff-Com:  0.100D+01
 Coeff-En:   0.100D+01
 Coeff:      0.100D+01
 Gap=     0.149 Goal=   None    Shift=    0.000
 RMSDP=4.35D-06 MaxDP=6.05D-04 DE= 7.25D-05 OVMax= 1.08D-03

 Cycle  12  Pass 1  IDiag  1:
 RMSU=  6.06D-04    CP:  9.90D-01
 E= -1507.90202642950     Delta-E=       -0.000061839975 Rises=F Damp=F
 DIIS: error= 1.33D-05 at cycle   2 NSaved=   2.
 NSaved= 2 IEnMin= 2 EnMin= -1507.90202642950     IErMin= 2 ErrMin= 1.33D-05
 ErrMax= 1.33D-05  0.00D+00 EMaxC= 1.00D-01 BMatC= 1.43D-07 BMatP= 9.71D-05
 IDIUse=1 WtCom= 1.00D+00 WtEn= 0.00D+00
 Coeff-Com: -0.151D-01 0.102D+01
 Coeff:     -0.151D-01 0.102D+01
 Gap=     0.150 Goal=   None    Shift=    0.000
 RMSDP=2.32D-05 MaxDP=2.31D-03 DE=-6.18D-05 OVMax= 5.51D-04

 Cycle  13  Pass 1  IDiag  1:
 RMSU=  8.86D-06    CP:  9.90D-01  1.04D+00
 E= -1507.90202637351     Delta-E=        0.000000055993 Rises=F Damp=F
 DIIS: error= 1.66D-05 at cycle   3 NSaved=   3.
 NSaved= 3 IEnMin= 2 EnMin= -1507.90202642950     IErMin= 2 ErrMin= 1.33D-05
 ErrMax= 1.66D-05  0.00D+00 EMaxC= 1.00D-01 BMatC= 2.61D-07 BMatP= 1.43D-07
 IDIUse=1 WtCom= 1.00D+00 WtEn= 0.00D+00
 Coeff-Com: -0.103D-01 0.612D+00 0.398D+00
 Coeff:     -0.103D-01 0.612D+00 0.398D+00
 Gap=     0.149 Goal=   None    Shift=    0.000
 RMSDP=1.06D-06 MaxDP=6.52D-05 DE= 5.60D-08 OVMax= 1.99D-04

 Cycle  14  Pass 1  IDiag  1:
 RMSU=  1.01D-06    CP:  9.90D-01  1.04D+00  1.00D+00
 E= -1507.90202664370     Delta-E=       -0.000000270192 Rises=F Damp=F
 DIIS: error= 1.42D-06 at cycle   4 NSaved=   4.
 NSaved= 4 IEnMin= 4 EnMin= -1507.90202664370     IErMin= 4 ErrMin= 1.42D-06
 ErrMax= 1.42D-06  0.00D+00 EMaxC= 1.00D-01 BMatC= 1.12D-09 BMatP= 1.43D-07
 IDIUse=1 WtCom= 1.00D+00 WtEn= 0.00D+00
 Coeff-Com:  0.178D-03-0.213D-01 0.548D-03 0.102D+01
 Coeff:      0.178D-03-0.213D-01 0.548D-03 0.102D+01
 Gap=     0.149 Goal=   None    Shift=    0.000
 RMSDP=6.51D-07 MaxDP=5.54D-05 DE=-2.70D-07 OVMax= 9.76D-05

 Cycle  15  Pass 1  IDiag  1:
 RMSU=  3.13D-07    CP:  9.90D-01  1.04D+00  1.04D+00  1.02D+00
 E= -1507.90202664889     Delta-E=       -0.000000005190 Rises=F Damp=F
 DIIS: error= 6.39D-07 at cycle   5 NSaved=   5.
 NSaved= 5 IEnMin= 5 EnMin= -1507.90202664889     IErMin= 5 ErrMin= 6.39D-07
 ErrMax= 6.39D-07  0.00D+00 EMaxC= 1.00D-01 BMatC= 1.07D-09 BMatP= 1.12D-09
 IDIUse=1 WtCom= 1.00D+00 WtEn= 0.00D+00
 Coeff-Com:  0.812D-03-0.535D-01-0.424D-01 0.506D+00 0.589D+00
 Coeff:      0.812D-03-0.535D-01-0.424D-01 0.506D+00 0.589D+00
 Gap=     0.149 Goal=   None    Shift=    0.000
 RMSDP=1.21D-07 MaxDP=1.04D-05 DE=-5.19D-09 OVMax= 2.76D-05

 Cycle  16  Pass 1  IDiag  1:
 RMSU=  7.69D-08    CP:  9.90D-01  1.04D+00  1.05D+00  1.02D+00  1.21D+00
 E= -1507.90202665056     Delta-E=       -0.000000001673 Rises=F Damp=F
 DIIS: error= 3.34D-07 at cycle   6 NSaved=   6.
 NSaved= 6 IEnMin= 6 EnMin= -1507.90202665056     IErMin= 6 ErrMin= 3.34D-07
 ErrMax= 3.34D-07  0.00D+00 EMaxC= 1.00D-01 BMatC= 1.63D-10 BMatP= 1.07D-09
 IDIUse=1 WtCom= 1.00D+00 WtEn= 0.00D+00
 Coeff-Com:  0.101D-03-0.371D-02-0.249D-01-0.186D+00 0.781D-01 0.114D+01
 Coeff:      0.101D-03-0.371D-02-0.249D-01-0.186D+00 0.781D-01 0.114D+01
 Gap=     0.149 Goal=   None    Shift=    0.000
 RMSDP=1.29D-07 MaxDP=1.45D-05 DE=-1.67D-09 OVMax= 3.68D-05

 Cycle  17  Pass 1  IDiag  1:
 RMSU=  5.15D-08    CP:  9.90D-01  1.04D+00  1.05D+00  1.03D+00  1.55D+00
                    CP:  1.59D+00
 E= -1507.90202665119     Delta-E=       -0.000000000625 Rises=F Damp=F
 DIIS: error= 1.57D-07 at cycle   7 NSaved=   7.
 NSaved= 7 IEnMin= 7 EnMin= -1507.90202665119     IErMin= 7 ErrMin= 1.57D-07
 ErrMax= 1.57D-07  0.00D+00 EMaxC= 1.00D-01 BMatC= 5.15D-11 BMatP= 1.63D-10
 IDIUse=1 WtCom= 1.00D+00 WtEn= 0.00D+00
 Coeff-Com: -0.859D-04 0.731D-02-0.925D-02-0.188D+00-0.532D-01 0.665D+00
 Coeff-Com:  0.579D+00
 Coeff:     -0.859D-04 0.731D-02-0.925D-02-0.188D+00-0.532D-01 0.665D+00
 Coeff:      0.579D+00
 Gap=     0.149 Goal=   None    Shift=    0.000
 RMSDP=3.22D-08 MaxDP=3.43D-06 DE=-6.25D-10 OVMax= 1.01D-05

 Cycle  18  Pass 1  IDiag  1:
 RMSU=  1.18D-08    CP:  9.90D-01  1.04D+00  1.05D+00  1.03D+00  1.62D+00
                    CP:  1.79D+00  1.21D+00
 E= -1507.90202665125     Delta-E=       -0.000000000063 Rises=F Damp=F
 DIIS: error= 3.19D-08 at cycle   8 NSaved=   8.
 NSaved= 8 IEnMin= 8 EnMin= -1507.90202665125     IErMin= 8 ErrMin= 3.19D-08
 ErrMax= 3.19D-08  0.00D+00 EMaxC= 1.00D-01 BMatC= 2.45D-12 BMatP= 5.15D-11
 IDIUse=1 WtCom= 1.00D+00 WtEn= 0.00D+00
 Coeff-Com: -0.416D-04 0.296D-02-0.864D-03-0.426D-01-0.288D-01 0.943D-01
 Coeff-Com:  0.196D+00 0.779D+00
 Coeff:     -0.416D-04 0.296D-02-0.864D-03-0.426D-01-0.288D-01 0.943D-01
 Coeff:      0.196D+00 0.779D+00
 Gap=     0.149 Goal=   None    Shift=    0.000
 RMSDP=1.07D-08 MaxDP=9.19D-07 DE=-6.28D-11 OVMax= 2.93D-06

 Cycle  19  Pass 1  IDiag  1:
 RMSU=  4.29D-09    CP:  9.90D-01  1.04D+00  1.05D+00  1.03D+00  1.64D+00
                    CP:  1.85D+00  1.33D+00  1.11D+00
 E= -1507.90202665125     Delta-E=       -0.000000000002 Rises=F Damp=F
 DIIS: error= 2.00D-08 at cycle   9 NSaved=   9.
 NSaved= 9 IEnMin= 9 EnMin= -1507.90202665125     IErMin= 9 ErrMin= 2.00D-08
 ErrMax= 2.00D-08  0.00D+00 EMaxC= 1.00D-01 BMatC= 4.61D-13 BMatP= 2.45D-12
 IDIUse=1 WtCom= 1.00D+00 WtEn= 0.00D+00
 Coeff-Com: -0.654D-05 0.293D-03 0.835D-03 0.769D-02-0.566D-02-0.511D-01
 Coeff-Com: -0.244D-02 0.333D+00 0.717D+00
 Coeff:     -0.654D-05 0.293D-03 0.835D-03 0.769D-02-0.566D-02-0.511D-01
 Coeff:     -0.244D-02 0.333D+00 0.717D+00
 Gap=     0.149 Goal=   None    Shift=    0.000
 RMSDP=4.28D-09 MaxDP=6.19D-07 DE=-1.82D-12 OVMax= 1.03D-06

 SCF Done:  E(RM062X) =  -1507.90202665     A.U. after   19 cycles
            NFock= 19  Conv=0.43D-08     -V/T= 2.0037
 KE= 1.502300419473D+03 PE=-8.533241059240D+03 EE= 3.025120351831D+03
 Leave Link  502 at Sat Aug 13 20:43:28 2022, MaxMem=  2684354560 cpu:            8736.3 elap:             546.8
 (Enter /storage/apps/GAUSSIAN/G16_RevA03/g16/l601.exe)
 Copying SCF densities to generalized density rwf, IOpCl= 0 IROHF=0.

 **********************************************************************

            Population analysis using the SCF density.

 **********************************************************************

 Orbital symmetries:
       Occupied  (A) (A) (A) (A) (A) (A) (A) (A) (A) (A) (A) (A)
                 (A) (A) (A) (A) (A) (A) (A) (A) (A) (A) (A) (A)
                 (A) (A) (A) (A) (A) (A) (A) (A) (A) (A) (A) (A)
                 (A) (A) (A) (A) (A) (A) (A) (A) (A) (A) (A) (A)
                 (A) (A) (A) (A) (A) (A) (A) (A) (A) (A) (A) (A)
                 (A) (A) (A) (A) (A) (A) (A) (A) (A) (A) (A) (A)
                 (A) (A) (A) (A) (A) (A) (A) (A) (A) (A) (A) (A)
                 (A) (A) (A) (A) (A) (A) (A) (A) (A) (A) (A)
       Virtual   (A) (A) (A) (A) (A) (A) (A) (A) (A) (A) (A) (A)
                 (A) (A) (A) (A) (A) (A) (A) (A) (A) (A) (A) (A)
                 (A) (A) (A) (A) (A) (A) (A) (A) (A) (A) (A) (A)
                 (A) (A) (A) (A) (A) (A) (A) (A) (A) (A) (A) (A)
                 (A) (A) (A) (A) (A) (A) (A) (A) (A) (A) (A) (A)
                 (A) (A) (A) (A) (A) (A) (A) (A) (A) (A) (A) (A)
                 (A) (A) (A) (A) (A) (A) (A) (A) (A) (A) (A) (A)
                 (A) (A) (A) (A) (A) (A) (A) (A) (A) (A) (A) (A)
                 (A) (A) (A) (A) (A) (A) (A) (A) (A) (A) (A) (A)
                 (A) (A) (A) (A) (A) (A) (A) (A) (A) (A) (A) (A)
                 (A) (A) (A) (A) (A) (A) (A) (A) (A) (A) (A) (A)
                 (A) (A) (A) (A) (A) (A) (A) (A) (A) (A) (A) (A)
                 (A) (A) (A) (A) (A) (A) (A) (A) (A) (A) (A) (A)
                 (A) (A) (A) (A) (A) (A) (A) (A) (A) (A) (A) (A)
                 (A) (A) (A) (A) (A) (A) (A) (A) (A) (A) (A) (A)
                 (A) (A) (A) (A) (A) (A) (A) (A) (A) (A) (A) (A)
                 (A) (A) (A) (A) (A) (A) (A) (A) (A) (A) (A) (A)
                 (A) (A) (A) (A) (A) (A) (A) (A) (A) (A) (A) (A)
                 (A) (A) (A) (A) (A) (A) (A) (A) (A) (A) (A) (A)
                 (A) (A) (A) (A) (A) (A) (A) (A) (A) (A) (A) (A)
                 (A) (A) (A) (A) (A) (A) (A) (A) (A) (A) (A) (A)
                 (A) (A) (A) (A) (A) (A) (A) (A) (A) (A) (A) (A)
                 (A) (A) (A) (A) (A) (A) (A) (A) (A) (A) (A) (A)
                 (A) (A) (A) (A) (A) (A) (A) (A) (A) (A) (A) (A)
                 (A) (A) (A) (A) (A) (A) (A) (A) (A) (A) (A) (A)
                 (A) (A) (A) (A) (A) (A) (A) (A) (A) (A) (A) (A)
                 (A) (A) (A) (A) (A) (A) (A) (A) (A) (A) (A) (A)
                 (A) (A) (A) (A) (A) (A) (A) (A) (A) (A) (A) (A)
                 (A) (A) (A) (A) (A) (A) (A) (A) (A) (A) (A) (A)
                 (A) (A) (A) (A) (A) (A) (A) (A) (A) (A) (A) (A)
                 (A) (A) (A) (A) (A) (A) (A) (A) (A) (A) (A) (A)
                 (A) (A) (A) (A) (A) (A) (A) (A) (A) (A) (A) (A)
                 (A) (A) (A) (A) (A) (A) (A) (A) (A) (A) (A) (A)
                 (A) (A) (A) (A) (A) (A) (A) (A) (A) (A) (A) (A)
                 (A) (A) (A) (A) (A) (A) (A) (A) (A) (A) (A) (A)
                 (A) (A) (A) (A) (A) (A) (A) (A) (A) (A) (A) (A)
                 (A) (A) (A) (A) (A) (A) (A) (A) (A) (A) (A) (A)
                 (A) (A) (A) (A) (A) (A) (A) (A) (A) (A) (A) (A)
                 (A) (A) (A) (A) (A) (A) (A) (A) (A) (A) (A) (A)
                 (A) (A) (A) (A) (A) (A) (A) (A) (A) (A) (A) (A)
                 (A) (A) (A) (A) (A) (A) (A) (A) (A) (A) (A) (A)
                 (A) (A) (A) (A) (A) (A) (A) (A) (A) (A) (A) (A)
                 (A) (A) (A) (A) (A) (A) (A) (A) (A) (A) (A) (A)
                 (A) (A) (A) (A) (A) (A) (A) (A) (A) (A) (A) (A)
                 (A) (A) (A) (A) (A) (A) (A) (A) (A) (A) (A) (A)
                 (A) (A) (A) (A) (A) (A) (A) (A) (A) (A) (A) (A)
                 (A) (A) (A) (A) (A) (A) (A) (A) (A) (A) (A) (A)
                 (A) (A) (A) (A) (A) (A) (A) (A) (A) (A) (A) (A)
                 (A) (A) (A) (A) (A) (A) (A) (A) (A) (A) (A) (A)
                 (A) (A) (A) (A) (A) (A) (A) (A) (A) (A) (A) (A)
                 (A) (A) (A) (A) (A) (A) (A) (A) (A) (A) (A) (A)
                 (A) (A) (A) (A) (A) (A) (A) (A) (A) (A) (A) (A)
                 (A) (A) (A) (A) (A) (A) (A) (A) (A) (A) (A) (A)
                 (A) (A) (A) (A) (A) (A) (A) (A) (A) (A) (A) (A)
                 (A) (A) (A) (A) (A) (A) (A) (A) (A) (A) (A) (A)
                 (A) (A) (A) (A) (A) (A) (A) (A) (A) (A) (A) (A)
                 (A) (A) (A) (A) (A) (A) (A) (A) (A) (A) (A) (A)
                 (A) (A) (A) (A) (A) (A) (A) (A) (A) (A) (A) (A)
                 (A) (A) (A) (A) (A) (A) (A) (A) (A) (A) (A) (A)
                 (A) (A) (A) (A) (A) (A) (A) (A) (A) (A) (A) (A)
                 (A) (A) (A) (A) (A) (A) (A) (A) (A) (A) (A) (A)
                 (A) (A) (A) (A) (A) (A) (A) (A) (A) (A) (A) (A)
                 (A) (A) (A) (A) (A) (A) (A) (A) (A) (A) (A) (A)
                 (A) (A) (A) (A) (A) (A) (A) (A) (A) (A) (A) (A)
                 (A) (A) (A) (A) (A) (A) (A) (A) (A) (A) (A) (A)
                 (A) (A) (A) (A) (A) (A) (A) (A) (A) (A) (A) (A)
                 (A) (A) (A) (A) (A) (A) (A)
 The electronic state is 1-A.
 Alpha  occ. eigenvalues --  -89.86975 -19.66434 -19.63255 -19.61869 -19.61069
 Alpha  occ. eigenvalues --  -19.57233 -14.87665 -14.77835 -10.66508 -10.66195
 Alpha  occ. eigenvalues --  -10.64087 -10.63172 -10.61142 -10.61104 -10.60572
 Alpha  occ. eigenvalues --  -10.60470 -10.59530 -10.59476 -10.59411 -10.55081
 Alpha  occ. eigenvalues --  -10.53801 -10.52429 -10.52372 -10.49424  -8.22880
 Alpha  occ. eigenvalues --   -6.14847  -6.14620  -6.14355  -1.22364  -1.18393
 Alpha  occ. eigenvalues --   -1.17050  -1.15469  -1.13969  -1.10768  -1.03156
 Alpha  occ. eigenvalues --   -0.97615  -0.93052  -0.90621  -0.88278  -0.87651
 Alpha  occ. eigenvalues --   -0.85618  -0.81439  -0.80500  -0.79241  -0.76780
 Alpha  occ. eigenvalues --   -0.73193  -0.72046  -0.69896  -0.69142  -0.67073
 Alpha  occ. eigenvalues --   -0.66183  -0.64057  -0.62856  -0.62200  -0.61112
 Alpha  occ. eigenvalues --   -0.60050  -0.58272  -0.57853  -0.57401  -0.56146
 Alpha  occ. eigenvalues --   -0.55795  -0.54283  -0.53092  -0.52733  -0.51983
 Alpha  occ. eigenvalues --   -0.51816  -0.51087  -0.50221  -0.50144  -0.48781
 Alpha  occ. eigenvalues --   -0.48543  -0.48200  -0.47741  -0.47185  -0.46233
 Alpha  occ. eigenvalues --   -0.45700  -0.45602  -0.44905  -0.44069  -0.43384
 Alpha  occ. eigenvalues --   -0.43139  -0.40705  -0.39699  -0.38806  -0.37908
 Alpha  occ. eigenvalues --   -0.37442  -0.37138  -0.36780  -0.36595  -0.36138
 Alpha  occ. eigenvalues --   -0.34866  -0.34304  -0.29437  -0.28141  -0.21361
 Alpha virt. eigenvalues --   -0.06412  -0.03983   0.03724   0.04677   0.05198
 Alpha virt. eigenvalues --    0.06239   0.07076   0.07278   0.08167   0.08863
 Alpha virt. eigenvalues --    0.09345   0.10063   0.10290   0.10735   0.11295
 Alpha virt. eigenvalues --    0.11462   0.11953   0.12598   0.12895   0.13253
 Alpha virt. eigenvalues --    0.13773   0.14016   0.14329   0.14553   0.15190
 Alpha virt. eigenvalues --    0.15441   0.15566   0.16232   0.16342   0.16735
 Alpha virt. eigenvalues --    0.17589   0.17686   0.18546   0.18903   0.19540
 Alpha virt. eigenvalues --    0.20695   0.20915   0.21400   0.21599   0.22173
 Alpha virt. eigenvalues --    0.22789   0.23058   0.23532   0.23669   0.24148
 Alpha virt. eigenvalues --    0.24703   0.25423   0.25685   0.25812   0.26163
 Alpha virt. eigenvalues --    0.26650   0.27140   0.27731   0.28138   0.28781
 Alpha virt. eigenvalues --    0.29107   0.29484   0.29885   0.30422   0.31508
 Alpha virt. eigenvalues --    0.31594   0.31869   0.32544   0.33052   0.33490
 Alpha virt. eigenvalues --    0.33929   0.34536   0.35107   0.35749   0.36131
 Alpha virt. eigenvalues --    0.36715   0.36991   0.37420   0.37595   0.38211
 Alpha virt. eigenvalues --    0.38697   0.39069   0.39422   0.39690   0.39776
 Alpha virt. eigenvalues --    0.40250   0.40586   0.41205   0.41769   0.42014
 Alpha virt. eigenvalues --    0.42713   0.42962   0.43151   0.43710   0.44130
 Alpha virt. eigenvalues --    0.44215   0.44526   0.44996   0.45367   0.45664
 Alpha virt. eigenvalues --    0.45839   0.46235   0.46559   0.46891   0.47557
 Alpha virt. eigenvalues --    0.47752   0.48079   0.48504   0.48828   0.49171
 Alpha virt. eigenvalues --    0.49513   0.49576   0.49922   0.50577   0.50749
 Alpha virt. eigenvalues --    0.51339   0.51481   0.52071   0.52944   0.53372
 Alpha virt. eigenvalues --    0.53682   0.54028   0.54165   0.54821   0.55257
 Alpha virt. eigenvalues --    0.55438   0.55843   0.56010   0.56553   0.57518
 Alpha virt. eigenvalues --    0.58037   0.58812   0.59317   0.59881   0.60068
 Alpha virt. eigenvalues --    0.60643   0.61281   0.61675   0.61753   0.62896
 Alpha virt. eigenvalues --    0.63240   0.63471   0.64497   0.65010   0.65319
 Alpha virt. eigenvalues --    0.65855   0.66009   0.66938   0.67080   0.67419
 Alpha virt. eigenvalues --    0.67758   0.68198   0.68698   0.69434   0.70763
 Alpha virt. eigenvalues --    0.71655   0.71821   0.72443   0.72611   0.73367
 Alpha virt. eigenvalues --    0.74117   0.74513   0.75165   0.75950   0.77114
 Alpha virt. eigenvalues --    0.77357   0.78596   0.79396   0.79972   0.81130
 Alpha virt. eigenvalues --    0.81893   0.81953   0.82214   0.82977   0.83850
 Alpha virt. eigenvalues --    0.84280   0.86001   0.86632   0.87314   0.87458
 Alpha virt. eigenvalues --    0.87630   0.88853   0.89549   0.89749   0.90204
 Alpha virt. eigenvalues --    0.90597   0.91418   0.92080   0.92413   0.92989
 Alpha virt. eigenvalues --    0.93493   0.94583   0.95156   0.95693   0.96036
 Alpha virt. eigenvalues --    0.96544   0.97376   0.98194   0.98914   0.99617
 Alpha virt. eigenvalues --    1.00052   1.01140   1.01758   1.01938   1.02842
 Alpha virt. eigenvalues --    1.03375   1.03631   1.04262   1.05579   1.06418
 Alpha virt. eigenvalues --    1.07060   1.07979   1.08663   1.08892   1.09577
 Alpha virt. eigenvalues --    1.10227   1.10834   1.12147   1.12340   1.13017
 Alpha virt. eigenvalues --    1.14018   1.15034   1.16035   1.16513   1.17390
 Alpha virt. eigenvalues --    1.17848   1.18438   1.18829   1.19177   1.19892
 Alpha virt. eigenvalues --    1.21242   1.21562   1.22802   1.23774   1.24055
 Alpha virt. eigenvalues --    1.24489   1.25954   1.26160   1.27157   1.27945
 Alpha virt. eigenvalues --    1.28551   1.28994   1.29183   1.29791   1.31244
 Alpha virt. eigenvalues --    1.31820   1.32571   1.33445   1.34062   1.34348
 Alpha virt. eigenvalues --    1.35363   1.36004   1.37647   1.39259   1.39651
 Alpha virt. eigenvalues --    1.40236   1.41252   1.42622   1.42703   1.43725
 Alpha virt. eigenvalues --    1.45002   1.45267   1.46159   1.47548   1.50128
 Alpha virt. eigenvalues --    1.50926   1.52139   1.53001   1.53084   1.53171
 Alpha virt. eigenvalues --    1.53992   1.54506   1.54744   1.55178   1.55927
 Alpha virt. eigenvalues --    1.56588   1.56974   1.57097   1.58063   1.58707
 Alpha virt. eigenvalues --    1.59300   1.59477   1.60093   1.60635   1.61148
 Alpha virt. eigenvalues --    1.61330   1.61621   1.62436   1.62934   1.63160
 Alpha virt. eigenvalues --    1.63450   1.64072   1.64536   1.64754   1.65388
 Alpha virt. eigenvalues --    1.65953   1.67170   1.67518   1.68269   1.68656
 Alpha virt. eigenvalues --    1.69467   1.69956   1.70658   1.71386   1.71629
 Alpha virt. eigenvalues --    1.72080   1.72595   1.73164   1.74355   1.74920
 Alpha virt. eigenvalues --    1.75776   1.76706   1.77138   1.78005   1.78119
 Alpha virt. eigenvalues --    1.78434   1.79112   1.79787   1.80546   1.80874
 Alpha virt. eigenvalues --    1.82743   1.83197   1.83908   1.84267   1.84858
 Alpha virt. eigenvalues --    1.86152   1.86407   1.87151   1.88130   1.89108
 Alpha virt. eigenvalues --    1.89365   1.89575   1.90348   1.91390   1.91492
 Alpha virt. eigenvalues --    1.92337   1.93143   1.94315   1.94443   1.94515
 Alpha virt. eigenvalues --    1.95107   1.96448   1.96614   1.97902   1.98168
 Alpha virt. eigenvalues --    1.99132   2.00174   2.00286   2.01402   2.02705
 Alpha virt. eigenvalues --    2.03092   2.03557   2.04141   2.04567   2.04894
 Alpha virt. eigenvalues --    2.05982   2.06636   2.07541   2.08671   2.09454
 Alpha virt. eigenvalues --    2.10230   2.10912   2.11357   2.12482   2.13462
 Alpha virt. eigenvalues --    2.14087   2.14706   2.16460   2.16594   2.17365
 Alpha virt. eigenvalues --    2.17871   2.18704   2.18972   2.19746   2.20298
 Alpha virt. eigenvalues --    2.21177   2.21502   2.22522   2.22798   2.23174
 Alpha virt. eigenvalues --    2.23478   2.24568   2.25051   2.26348   2.26751
 Alpha virt. eigenvalues --    2.27762   2.28178   2.29153   2.29608   2.30101
 Alpha virt. eigenvalues --    2.30931   2.31957   2.32569   2.33830   2.34591
 Alpha virt. eigenvalues --    2.34956   2.35155   2.36068   2.36317   2.37102
 Alpha virt. eigenvalues --    2.37737   2.37812   2.38503   2.38820   2.39722
 Alpha virt. eigenvalues --    2.40460   2.41374   2.42370   2.42594   2.43754
 Alpha virt. eigenvalues --    2.45412   2.45579   2.46038   2.46419   2.47186
 Alpha virt. eigenvalues --    2.47874   2.50036   2.50681   2.51444   2.51817
 Alpha virt. eigenvalues --    2.53736   2.53795   2.54545   2.55476   2.55939
 Alpha virt. eigenvalues --    2.56763   2.57126   2.57829   2.58213   2.58413
 Alpha virt. eigenvalues --    2.59768   2.60098   2.60339   2.61095   2.61537
 Alpha virt. eigenvalues --    2.62259   2.63361   2.63598   2.64189   2.65484
 Alpha virt. eigenvalues --    2.66131   2.66434   2.67119   2.67406   2.68443
 Alpha virt. eigenvalues --    2.69241   2.69542   2.70034   2.70369   2.71201
 Alpha virt. eigenvalues --    2.71860   2.72199   2.73237   2.73897   2.74217
 Alpha virt. eigenvalues --    2.74869   2.76066   2.76858   2.77275   2.78393
 Alpha virt. eigenvalues --    2.79042   2.79500   2.80471   2.80925   2.81967
 Alpha virt. eigenvalues --    2.82182   2.82928   2.83565   2.84024   2.84538
 Alpha virt. eigenvalues --    2.85445   2.86420   2.86489   2.86659   2.87735
 Alpha virt. eigenvalues --    2.88723   2.89725   2.90184   2.90484   2.91753
 Alpha virt. eigenvalues --    2.93139   2.93615   2.93974   2.94766   2.95436
 Alpha virt. eigenvalues --    2.96823   2.97566   2.98395   2.98974   2.99482
 Alpha virt. eigenvalues --    3.00443   3.01515   3.01944   3.02838   3.02976
 Alpha virt. eigenvalues --    3.03821   3.04492   3.05458   3.05829   3.06776
 Alpha virt. eigenvalues --    3.08275   3.08360   3.08772   3.09807   3.09976
 Alpha virt. eigenvalues --    3.10389   3.10830   3.11395   3.12364   3.13021
 Alpha virt. eigenvalues --    3.13348   3.14091   3.14458   3.14959   3.15653
 Alpha virt. eigenvalues --    3.16076   3.16593   3.17384   3.17909   3.18472
 Alpha virt. eigenvalues --    3.19826   3.20178   3.20459   3.20777   3.21075
 Alpha virt. eigenvalues --    3.21854   3.22534   3.23727   3.23976   3.25061
 Alpha virt. eigenvalues --    3.25655   3.26485   3.26716   3.27307   3.28369
 Alpha virt. eigenvalues --    3.28927   3.29871   3.30307   3.30527   3.31418
 Alpha virt. eigenvalues --    3.32099   3.32548   3.33030   3.33607   3.34314
 Alpha virt. eigenvalues --    3.34920   3.35504   3.35892   3.36456   3.37084
 Alpha virt. eigenvalues --    3.38573   3.38865   3.39061   3.40098   3.40497
 Alpha virt. eigenvalues --    3.41154   3.41522   3.41900   3.42791   3.43344
 Alpha virt. eigenvalues --    3.44080   3.44587   3.44924   3.45558   3.45956
 Alpha virt. eigenvalues --    3.46529   3.47637   3.48277   3.48848   3.50003
 Alpha virt. eigenvalues --    3.50066   3.51388   3.52832   3.53136   3.54031
 Alpha virt. eigenvalues --    3.54421   3.55126   3.56025   3.56445   3.56819
 Alpha virt. eigenvalues --    3.57609   3.58229   3.59058   3.59735   3.60066
 Alpha virt. eigenvalues --    3.60758   3.61755   3.62533   3.63966   3.64582
 Alpha virt. eigenvalues --    3.66280   3.66801   3.67286   3.68800   3.70053
 Alpha virt. eigenvalues --    3.70738   3.71312   3.72808   3.73718   3.74547
 Alpha virt. eigenvalues --    3.76199   3.76470   3.77710   3.78961   3.79602
 Alpha virt. eigenvalues --    3.80251   3.80748   3.82265   3.82887   3.85599
 Alpha virt. eigenvalues --    3.85892   3.86788   3.87825   3.88257   3.89345
 Alpha virt. eigenvalues --    3.91232   3.91745   3.93244   3.94141   3.94502
 Alpha virt. eigenvalues --    3.96753   3.97423   3.97829   3.98216   3.99597
 Alpha virt. eigenvalues --    4.00489   4.01370   4.03898   4.06015   4.07147
 Alpha virt. eigenvalues --    4.08720   4.09755   4.11228   4.12750   4.13610
 Alpha virt. eigenvalues --    4.14269   4.15735   4.16879   4.17853   4.18901
 Alpha virt. eigenvalues --    4.19518   4.20650   4.21069   4.23495   4.24718
 Alpha virt. eigenvalues --    4.26850   4.27180   4.28328   4.29642   4.31180
 Alpha virt. eigenvalues --    4.32172   4.33312   4.34966   4.36467   4.37291
 Alpha virt. eigenvalues --    4.39364   4.40029   4.41095   4.42790   4.43953
 Alpha virt. eigenvalues --    4.44718   4.45943   4.45998   4.47737   4.49826
 Alpha virt. eigenvalues --    4.50612   4.51859   4.55192   4.56972   4.57347
 Alpha virt. eigenvalues --    4.59402   4.60773   4.62934   4.64563   4.67210
 Alpha virt. eigenvalues --    4.67828   4.72566   4.73669   4.75574   4.75947
 Alpha virt. eigenvalues --    4.77880   4.80355   4.80794   4.82555   4.83537
 Alpha virt. eigenvalues --    4.85250   4.86770   4.88930   4.89998   4.90724
 Alpha virt. eigenvalues --    4.92123   4.93336   4.95150   4.97474   4.98031
 Alpha virt. eigenvalues --    4.99881   5.02762   5.04633   5.05003   5.06690
 Alpha virt. eigenvalues --    5.08911   5.13154   5.15625   5.19042   5.20504
 Alpha virt. eigenvalues --    5.21541   5.25158   5.26637   5.27153   5.28094
 Alpha virt. eigenvalues --    5.30650   5.31496   5.32060   5.34664   5.37939
 Alpha virt. eigenvalues --    5.39682   5.42394   5.43275   5.45520   5.47174
 Alpha virt. eigenvalues --    5.48862   5.49378   5.50814   5.53295   5.58211
 Alpha virt. eigenvalues --    5.64425   5.67242   5.72542   5.74584   5.77707
 Alpha virt. eigenvalues --    5.80041   5.81032   5.83485   5.84448   5.86839
 Alpha virt. eigenvalues --    5.89170   5.90602   5.91855   5.94174   5.95623
 Alpha virt. eigenvalues --    5.97415   6.03613   6.06057   6.15252   6.17415
 Alpha virt. eigenvalues --    6.20273   6.22652   6.25886   6.26857   6.38297
 Alpha virt. eigenvalues --    6.41765   6.44288   6.47919   6.49199   6.55260
 Alpha virt. eigenvalues --    6.58984   6.67508   6.73224   6.75243   6.76268
 Alpha virt. eigenvalues --    6.77786   6.80625   6.83980   6.85175   6.87136
 Alpha virt. eigenvalues --    6.89169   6.95400   6.99900   7.07750   7.08944
 Alpha virt. eigenvalues --    7.09655   7.11987   7.16866   7.19390   7.22309
 Alpha virt. eigenvalues --    7.32331   7.40594   9.06436   9.42642   9.59090
 Alpha virt. eigenvalues --   19.82490  22.36377  22.46653  22.49553  22.60086
 Alpha virt. eigenvalues --   22.64938  22.70682  22.74867  22.76356  22.82283
 Alpha virt. eigenvalues --   22.86767  22.95435  22.97467  23.07372  23.18309
 Alpha virt. eigenvalues --   23.29266  23.52045  32.18895  33.16770  44.13998
 Alpha virt. eigenvalues --   44.22751  44.26093  44.35930  44.51495
          Condensed to atoms (all electrons):
               1          2          3          4          5          6
     1  C    5.146546   0.429105   0.412920   0.006914  -0.006662  -0.000250
     2  H    0.429105   0.496435  -0.013890  -0.002284   0.000470  -0.000005
     3  H    0.412920  -0.013890   0.505483  -0.000698   0.000200  -0.000009
     4  C    0.006914  -0.002284  -0.000698   5.596847   0.543040   0.232703
     5  H   -0.006662   0.000470   0.000200   0.543040   0.528025  -0.035266
     6  O   -0.000250  -0.000005  -0.000009   0.232703  -0.035266   8.171362
     7  H   -0.000000  -0.000003  -0.000003  -0.056740  -0.006872   0.307628
     8  C   -0.006643   0.010984  -0.000893  -0.053122  -0.106723  -0.061456
     9  H    0.006953  -0.000300  -0.002017  -0.074614   0.002073   0.001278
    10  O    0.005244  -0.000190  -0.000017   0.050661   0.005638  -0.022286
[...]
 Number     Number              X              Y              Z
 -------------------------------------------------------------------
      1        6          -0.000086838   -0.000012767    0.000135139
      2        1          -0.000010527    0.000016475    0.000006774
      3        1          -0.000012311   -0.000015229    0.000000835
      4        6          -0.000269657    0.000076673    0.000183028
      5        1          -0.000063242    0.000004624    0.000006332
      6        8          -0.000554386    0.000262125   -0.000024895
      7        1          -0.000052241    0.000013070   -0.000021483
      8        6          -0.000285624    0.000015557    0.000258996
      9        1          -0.000029147    0.000007555    0.000038595
     10        8          -0.000409111    0.000165718    0.000144387
     11        1          -0.000039306    0.000007745    0.000025229
     12        6           0.000046421    0.000044372    0.000240141
     13        1           0.000014222    0.000015407   -0.000009487
     14        6          -0.000164971    0.000000801    0.000302758
     15        1          -0.000010879   -0.000001137    0.000028122
     16        8          -0.000056716    0.000024617    0.000297110
     17        7           0.000157617   -0.000082714   -0.000002335
     18        6           0.000888898    0.000151632   -0.000752991
     19        1           0.000040460    0.000016175   -0.000022886
     20        6           0.001826512    0.000219465   -0.002300703
     21        1           0.000203608    0.000052343   -0.000238353
     22        6           0.002479325    0.000252357   -0.002971277
     23        1           0.000188779    0.000037267   -0.000224404
     24        1          -0.000234232   -0.000317948    0.000283918
     25        6           0.000509139   -0.000101193   -0.000571569
     26        6          -0.000167052   -0.000102354    0.000769251
     27        1          -0.000087636   -0.000025647    0.000168671
     28        6          -0.000011762   -0.000139203    0.000029504
     29        8           0.000180670   -0.000335953   -0.000179805
     30        7          -0.000302902   -0.000371986    0.000733794
     31        1          -0.000006691   -0.000014878    0.000084219
     32        1           0.000002319    0.000009511    0.000171930
     33        1          -0.000046260   -0.000009072    0.000023710
     34        6          -0.000244070   -0.000059403    0.000120420
     35        6          -0.000032753   -0.000146463   -0.000440333
     36        6          -0.000213379   -0.000628830    0.000134735
     37        6          -0.002034219    0.001603811    0.002859818
     38        6          -0.001702696   -0.001154392    0.001664878
     39        8           0.001102545    0.000052246   -0.001503528
     40       16           0.000385474    0.000089926   -0.000833764
     41        1          -0.000030688   -0.000016445    0.000003061
     42        1          -0.000002826   -0.000000586    0.000031505
     43        1          -0.000004986    0.000633667    0.000194092
     44        1           0.000003617   -0.000075324   -0.000049536
     45        1          -0.000417561    0.000054028    0.000618721
     46        1          -0.000353738   -0.000114408    0.000506065
     47        1          -0.000062986   -0.000088496    0.000105240
     48        1          -0.000028217   -0.000012742   -0.000023631
 -------------------------------------------------------------------
 Cartesian Forces:  Max     0.002971277 RMS     0.000631339
 Leave Link  716 at Sat Aug 13 20:46:47 2022, MaxMem=  2684354560 cpu:               0.4 elap:               0.0
 (Enter /storage/apps/GAUSSIAN/G16_RevA03/g16/l103.exe)

 GradGradGradGradGradGradGradGradGradGradGradGradGradGradGradGradGradGrad
 Berny optimization.
 Search for a local minimum.
 Step number   1 out of a maximum of    2
 All quantities printed in internal units (Hartrees-Bohrs-Radians)
 Second derivative matrix not updated -- first step.
 ITU=  0
     Eigenvalues ---    0.00025   0.00089   0.00107   0.00128   0.00184
     Eigenvalues ---    0.00218   0.00321   0.00361   0.00449   0.00492
     Eigenvalues ---    0.00611   0.00617   0.00807   0.00925   0.00958
     Eigenvalues ---    0.00973   0.01116   0.01167   0.01369   0.01507
     Eigenvalues ---    0.01720   0.02155   0.02351   0.02433   0.02677
     Eigenvalues ---    0.03033   0.03128   0.03309   0.03727   0.04267
     Eigenvalues ---    0.04400   0.04604   0.04823   0.05015   0.05257
     Eigenvalues ---    0.05326   0.05542   0.05741   0.05826   0.05975
     Eigenvalues ---    0.06166   0.06301   0.06470   0.06847   0.07038
     Eigenvalues ---    0.07055   0.07129   0.07667   0.08067   0.08333
     Eigenvalues ---    0.08609   0.08778   0.09282   0.09360   0.10243
     Eigenvalues ---    0.10759   0.10838   0.11200   0.12268   0.12563
     Eigenvalues ---    0.12830   0.13080   0.13239   0.13295   0.13701
     Eigenvalues ---    0.13864   0.14049   0.15487   0.16145   0.16523
     Eigenvalues ---    0.17463   0.18139   0.18682   0.19301   0.19853
     Eigenvalues ---    0.20321   0.20678   0.21271   0.21936   0.22518
     Eigenvalues ---    0.25161   0.26091   0.27076   0.28014   0.30620
     Eigenvalues ---    0.33183   0.33568   0.34024   0.34751   0.37693
     Eigenvalues ---    0.37881   0.37881   0.37881   0.37881   0.40150
     Eigenvalues ---    0.43711   0.48160   0.48917   0.57099   0.59364
     Eigenvalues ---    0.59951   0.61752   0.69594   0.72325   0.73667
     Eigenvalues ---    0.79313   0.81126   0.82721   0.87470   0.90871
     Eigenvalues ---    0.91270   0.92137   0.93048   0.93456   0.95420
     Eigenvalues ---    0.96697   0.99998   1.00690   1.02278   1.04152
     Eigenvalues ---    1.05991   1.08554   1.11590   1.12518   1.12595
     Eigenvalues ---    1.20486   1.20810   1.27447   1.27690   1.29574
     Eigenvalues ---    1.32929   1.37174   1.43767   1.55311   1.72685
     Eigenvalues ---    1.83088   1.89545   2.35214
 Quadratic step=7.709D+00 exceeds max=3.000D-01 adjusted using Lamda=-9.030D-03.
 Angle between NR and scaled steps=  41.01 degrees.
 Angle between quadratic step and forces=  55.10 degrees.
 Linear search not attempted -- first point.
 Variable       Old X    -DE/DX   Delta X   Delta X   Delta X     New X
                                 (Linear)    (Quad)   (Total)
    X1        6.79991  -0.00009   0.00000  -0.02457  -0.02457   6.77534
    Y1       -6.83297  -0.00001   0.00000  -0.01481  -0.01481  -6.84778
    Z1       -0.83785   0.00014   0.00000   0.01389   0.01389  -0.82396
    X2        7.08467  -0.00001   0.00000  -0.02820  -0.02820   7.05647
    Y2       -7.01128   0.00002   0.00000  -0.01918  -0.01918  -7.03046
    Z2       -2.86873   0.00001   0.00000   0.01320   0.01320  -2.85553
    X3        8.19118  -0.00001   0.00000  -0.02058  -0.02058   8.17060
    Y3       -8.00676  -0.00002   0.00000  -0.01354  -0.01354  -8.02031
    Z3        0.12710   0.00000   0.00000   0.01026   0.01026   0.13736
    X4        3.51471  -0.00027   0.00000  -0.00645  -0.00645   3.50826
    Y4       -2.71649   0.00008   0.00000   0.01223   0.01223  -2.70427
    Z4        2.34924   0.00018   0.00000   0.01452   0.01452   2.36376
    X5        2.28991  -0.00006   0.00000  -0.01036  -0.01036   2.27955
    Y5       -4.36632   0.00000   0.00000   0.01419   0.01419  -4.35213
    Z5        2.05730   0.00001   0.00000   0.02176   0.02176   2.07906
    X6        2.76263  -0.00055   0.00000   0.00167   0.00167   2.76431
    Y6       -1.28090   0.00026   0.00000   0.02688   0.02688  -1.25402
    Z6        4.39401  -0.00002   0.00000   0.00776   0.00776   4.40178
    X7        0.98701  -0.00005   0.00000   0.00563   0.00563   0.99264
    Y7       -0.69790   0.00001   0.00000   0.03396   0.03396  -0.66394
    Z7        4.08778  -0.00002   0.00000   0.00148   0.00148   4.08926
    X8        6.26400  -0.00029   0.00000  -0.00711  -0.00711   6.25688
    Y8       -3.56048   0.00002   0.00000   0.00503   0.00503  -3.55546
    Z8        2.66339   0.00026   0.00000   0.00702   0.00702   2.67041
    X9        6.42204  -0.00003   0.00000  -0.00177  -0.00177   6.42028
    Y9       -5.23404   0.00001   0.00000   0.01117   0.01117  -5.22287
    Z9        3.86766   0.00004   0.00000   0.01450   0.01450   3.88215
   X10        7.70379  -0.00041   0.00000   0.00242   0.00242   7.70621
   Y10       -1.54297   0.00017   0.00000   0.00880   0.00880  -1.53417
   Z10        3.61852   0.00014   0.00000  -0.01575  -0.01575   3.60277
   X11        6.67020  -0.00004   0.00000   0.01380   0.01380   6.68400
   Y11       -0.71341   0.00001   0.00000   0.01983   0.01983  -0.69358
   Z11        4.87877   0.00003   0.00000  -0.01440  -0.01440   4.86437
   X12        3.73149   0.00005   0.00000  -0.00675  -0.00675   3.72473
   Y12       -1.24544   0.00004   0.00000   0.00023   0.00023  -1.24521
   Z12       -0.14829   0.00024   0.00000   0.00850   0.00850  -0.13979
   X13        4.27028   0.00001   0.00000   0.00496   0.00496   4.27524
   Y13        0.71227   0.00002   0.00000  -0.00029  -0.00029   0.71198
   Z13        0.22808  -0.00001   0.00000  -0.00538  -0.00538   0.22269
   X14        7.09030  -0.00016   0.00000  -0.01876  -0.01876   7.07154
   Y14       -4.10009   0.00000   0.00000  -0.01258  -0.01258  -4.11266
   Z14       -0.04212   0.00030   0.00000   0.00642   0.00642  -0.03570
   X15        9.03217  -0.00001   0.00000  -0.01751  -0.01751   9.01466
   Y15       -3.46076  -0.00000   0.00000  -0.01858  -0.01858  -3.47933
   Z15       -0.29865   0.00003   0.00000  -0.00582  -0.00582  -0.30447
   X16        5.50352  -0.00006   0.00000  -0.01976  -0.01976   5.48375
   Y16       -2.52546   0.00002   0.00000  -0.01447  -0.01447  -2.53993
   Z16       -1.61442   0.00030   0.00000   0.00734   0.00734  -1.60709
   X17        1.36234   0.00016   0.00000  -0.00295  -0.00295   1.35939
   Y17       -1.13642  -0.00008   0.00000  -0.00082  -0.00082  -1.13724
   Z17       -1.62442  -0.00000   0.00000   0.00582   0.00582  -1.61860
   X18        0.38749   0.00089   0.00000   0.02147   0.02147   0.40896
   Y18       -3.33282   0.00015   0.00000   0.00161   0.00161  -3.33120
   Z18       -2.52166  -0.00075   0.00000  -0.02541  -0.02541  -2.54708
   X19        1.45384   0.00004   0.00000   0.02071   0.02071   1.47455
   Y19       -5.01782   0.00002   0.00000   0.00279   0.00279  -5.01504
   Z19       -2.10201  -0.00002   0.00000  -0.01843  -0.01843  -2.12044
   X20       -1.75912   0.00183   0.00000   0.04816   0.04816  -1.71096
   Y20       -3.31325   0.00022   0.00000   0.00376   0.00376  -3.30949
   Z20       -3.94403  -0.00230   0.00000  -0.06491  -0.06491  -4.00894
   X21       -2.50273   0.00020   0.00000   0.05948   0.05948  -2.44325
   Y21       -5.07371   0.00005   0.00000   0.00485   0.00485  -5.06886
   Z21       -4.66054  -0.00024   0.00000  -0.07877  -0.07877  -4.73930
   X22       -2.95629   0.00248   0.00000   0.04573   0.04573  -2.91056
   Y22       -1.01814   0.00025   0.00000   0.00244   0.00244  -1.01570
   Z22       -4.46376  -0.00297   0.00000  -0.06334  -0.06334  -4.52710
   X23       -4.55829   0.00019   0.00000   0.05703   0.05703  -4.50125
   Y23       -0.96697   0.00004   0.00000   0.00574   0.00574  -0.96123
   Z23       -5.73236  -0.00022   0.00000  -0.07695  -0.07695  -5.80931
   X24       -5.46286  -0.00023   0.00000  -0.01585  -0.01585  -5.47871
   Y24       -1.38964  -0.00032   0.00000  -0.04356  -0.04356  -1.43320
   Z24       -1.81486   0.00028   0.00000   0.04060   0.04060  -1.77426
   X25       -1.92561   0.00051   0.00000   0.00562   0.00562  -1.92000
   Y25        1.21752  -0.00010   0.00000  -0.00323  -0.00323   1.21430
   Z25       -3.51930  -0.00057   0.00000  -0.00742  -0.00742  -3.52672
   X26        0.26423  -0.00017   0.00000  -0.01076  -0.01076   0.25346
   Y26        1.07425  -0.00010   0.00000  -0.00291  -0.00291   1.07135
   Z26       -2.10282   0.00077   0.00000   0.01748   0.01748  -2.08534
   X27        1.12922  -0.00009   0.00000  -0.02293  -0.02293   1.10629
   Y27        2.76833  -0.00003   0.00000  -0.00495  -0.00495   2.76337
   Z27       -1.34885   0.00017   0.00000   0.03630   0.03630  -1.31255
   X28       -2.90496  -0.00001   0.00000  -0.01769  -0.01769  -2.92265
   Y28        3.81083  -0.00014   0.00000  -0.00513  -0.00513   3.80571
   Z28       -4.08900   0.00003   0.00000   0.02887   0.02887  -4.06012
   X29       -1.56905   0.00018   0.00000  -0.02532  -0.02532  -1.59437
   Y29        5.64935  -0.00034   0.00000  -0.00061  -0.00061   5.64874
   Z29       -3.86525  -0.00018   0.00000   0.03329   0.03329  -3.83196
   X30       -5.30907  -0.00030   0.00000  -0.02513  -0.02513  -5.33420
   Y30        3.90151  -0.00037   0.00000  -0.00765  -0.00765   3.89386
   Z30       -5.03774   0.00073   0.00000   0.04867   0.04867  -4.98907
   X31       -6.01734  -0.00001   0.00000  -0.02494  -0.02494  -6.04228
   Y31        5.66507  -0.00001   0.00000  -0.00782  -0.00782   5.65725
   Z31       -5.19427   0.00008   0.00000   0.04693   0.04693  -5.14734
   X32       -6.54550   0.00000   0.00000  -0.01917  -0.01917  -6.56467
   Y32        2.57925   0.00001   0.00000  -0.01228  -0.01228   2.56697
   Z32       -4.43876   0.00017   0.00000   0.04738   0.04738  -4.39137
   X33        4.92169  -0.00005   0.00000  -0.02301  -0.02301   4.89869
   Y33       -7.55130  -0.00001   0.00000  -0.01352  -0.01352  -7.56481
   Z33       -0.36938   0.00002   0.00000   0.01951   0.01951  -0.34987
   X34        0.38027  -0.00024   0.00000  -0.00948  -0.00948   0.37079
   Y34        4.15696  -0.00006   0.00000   0.00604   0.00604   4.16299
   Z34        5.37942   0.00012   0.00000   0.00569   0.00569   5.38512
   X35       -3.14105  -0.00003   0.00000   0.02744   0.02744  -3.11361
   Y35        1.69461  -0.00015   0.00000  -0.00531  -0.00531   1.68930
   Z35        2.33041  -0.00044   0.00000  -0.02534  -0.02534   2.30507
   X36       -5.30933  -0.00021   0.00000   0.00749   0.00749  -5.30185
   Y36        1.61540  -0.00063   0.00000  -0.01934  -0.01934   1.59607
   Z36        0.88940   0.00013   0.00000   0.00450   0.00450   0.89390
   X37       -9.21128  -0.00203   0.00000  -0.01207  -0.01207  -9.22335
   Y37       -0.72252   0.00160   0.00000   0.01853   0.01853  -0.70399
   Z37       -0.64425   0.00286   0.00000   0.01485   0.01485  -0.62940
   X38       -6.39504  -0.00170   0.00000  -0.01710  -0.01710  -6.41214
   Y38       -0.78492  -0.00115   0.00000  -0.02074  -0.02074  -0.80566
   Z38       -0.04389   0.00166   0.00000   0.03564   0.03564  -0.00825
   X39       -1.72931   0.00110   0.00000   0.05629   0.05629  -1.67303
   Y39       -0.15512   0.00005   0.00000   0.00769   0.00769  -0.14743
   Z39        2.87682  -0.00150   0.00000  -0.05512  -0.05512   2.82170
   X40       -2.29286   0.00039   0.00000   0.01725   0.01725  -2.27561
   Y40        4.83256   0.00009   0.00000   0.00111   0.00111   4.83367
   Z40        3.39165  -0.00083   0.00000  -0.03087  -0.03087   3.36078
   X41        0.83228  -0.00003   0.00000  -0.02331  -0.02331   0.80898
   Y41        5.91384  -0.00002   0.00000   0.00768   0.00768   5.92152
   Z41        6.34878   0.00000   0.00000   0.00848   0.00848   6.35726
   X42        2.01463  -0.00000   0.00000   0.00451   0.00451   2.01914
   Y42        3.54800  -0.00000   0.00000   0.00586   0.00586   3.55385
   Z42        4.29258   0.00003   0.00000   0.02642   0.02642   4.31900
   X43      -10.35097  -0.00000   0.00000  -0.02978  -0.02978 -10.38075
   Y43       -0.59954   0.00063   0.00000   0.06796   0.06796  -0.53158
   Z43        1.06768   0.00019   0.00000  -0.00479  -0.00479   1.06289
   X44       -9.69189   0.00000   0.00000   0.03598   0.03598  -9.65592
   Y44        0.92007  -0.00008   0.00000   0.00007   0.00007   0.92014
   Z44       -1.80492  -0.00005   0.00000  -0.03244  -0.03244  -1.83735
   X45       -9.78607  -0.00042   0.00000  -0.01884  -0.01884  -9.80491
   Y45       -2.41192   0.00005   0.00000   0.00978   0.00978  -2.40214
   Z45       -1.67831   0.00062   0.00000   0.03051   0.03051  -1.64780
   X46       -5.94153  -0.00035   0.00000  -0.03292  -0.03292  -5.97445
   Y46       -2.32423  -0.00011   0.00000  -0.01669  -0.01669  -2.34092
   Z46        1.26002   0.00051   0.00000   0.04466   0.04466   1.30468
   X47       -6.34299  -0.00006   0.00000   0.01426   0.01426  -6.32873
   Y47        3.36173  -0.00009   0.00000  -0.01802  -0.01802   3.34371
   Z47        0.60570   0.00011   0.00000  -0.01065  -0.01065   0.59505
   X48       -0.09382  -0.00003   0.00000  -0.02677  -0.02677  -0.12060
   Y48        2.71582  -0.00001   0.00000   0.00620   0.00620   2.72202
   Z48        6.76715  -0.00002   0.00000  -0.00039  -0.00039   6.76676
         Item               Value     Threshold  Converged?
 Maximum Force            0.002971     0.000450     NO 
 RMS     Force            0.000631     0.000300     NO 
 Maximum Displacement     0.078767     0.001800     NO 
 RMS     Displacement     0.025005     0.001200     NO 
 Predicted change in Energy=-1.056875D-03
 GradGradGradGradGradGradGradGradGradGradGradGradGradGradGradGradGradGrad

 Leave Link  103 at Sat Aug 13 20:46:47 2022, MaxMem=  2684354560 cpu:               0.9 elap:               0.1
 (Enter /storage/apps/GAUSSIAN/G16_RevA03/g16/l9999.exe)

 Test job not archived.
 1\1\GINC-T082\Force\RM062X\def2TZVP\C16H24N2O5S1\LV87696\13-Aug-2022\0
 \\#P M062X/Def2TZVP scf=(direct,conver=8) EmpiricalDispersion=GD3 Forc
 e Charge Prop=(Field,Read)\\Gaussian run\\0,1\C,3.598356,-3.615851,-0.
 443372\H,3.749046,-3.71021,-1.518067\H,4.334584,-4.236997,0.06726\C,1.
 859905,-1.437506,1.243164\H,1.211769,-2.310555,1.088675\O,1.461922,-0.
 677823,2.325211\H,0.522303,-0.369313,2.16316\C,3.314764,-1.884126,1.40
 9403\H,3.398399,-2.769735,2.046677\O,4.076669,-0.816504,1.91484\H,3.52
 972,-0.37752,2.581732\C,1.974619,-0.659058,-0.078472\H,2.259734,0.3769
 17,0.120694\C,3.752025,-2.169672,-0.022289\H,4.779619,-1.831353,-0.158
 039\O,2.912335,-1.336418,-0.854316\N,0.720917,-0.601367,-0.859604\C,0.
 205051,-1.76365,-1.334407\H,0.769341,-2.655318,-1.112334\C,-0.930888,-
 1.753296,-2.087091\H,-1.32439,-2.684892,-2.466249\C,-1.564403,-0.53877
 8,-2.36212\H,-2.412141,-0.511701,-3.033434\H,-2.890823,-0.735366,-0.96
 0385\C,-1.018991,0.644285,-1.862333\C,0.139823,0.568471,-1.112765\H,0.
 597555,1.464936,-0.713783\C,-1.53724,2.016607,-2.163803\O,-0.830305,2.
 989509,-2.045401\N,-2.80944,2.06459,-2.665859\H,-3.184241,2.997825,-2.
 74869\H,-3.463729,1.364881,-2.348889\H,2.604448,-3.995974,-0.195469\C,
 0.201232,2.199766,2.846668\C,-1.662172,0.896749,1.233201\C,-2.809579,0
 .854834,0.470649\C,-4.874402,-0.382341,-0.340924\C,-3.384108,-0.41536,
 -0.023227\O,-0.915114,-0.082086,1.522349\S,-1.213329,2.557278,1.794782
 \H,0.440425,3.129468,3.359628\H,1.066098,1.87752,2.271534\H,-5.477499,
 -0.317265,0.564991\H,-5.128729,0.486881,-0.955121\H,-5.178566,-1.27633
 1,-0.888125\H,-3.144123,-1.229931,0.666774\H,-3.356565,1.778949,0.3205
 21\H,-0.04965,1.437152,3.58102\\Version=ES64L-G16RevA.03\State=1-A\HF=
 -1507.9020267\RMSD=4.282e-09\RMSF=6.313e-04\Dipole=-0.0786345,-2.24815
 72,-1.6787933\Quadrupole=1.8795577,1.2310043,-3.110562,-3.8955971,9.56
 90099,4.7240074\PG=C01 [X(C16H24N2O5S1)]\\@


 PENOTUS DIED A HUNDRED YEARS OLD WANTING BUT TWO...
 AND HE USED TO SAY BEFORE HE DIED, HAVING SPENT HIS
 WHOLE LIFE IN VAINLY SEARCHING AFTER THE PHILOSOPHER'S
 STONE, THAT IF HE HAD A MORTAL ENEMY HE DID NOT DARE
 TO ENCOUNTER OPENLY, HE WOULD ADVISE HIM ABOVE ALL
 THINGS TO GIVE HIMSELF UP TO THE STUDY AND PRACTICE
 OF ALCHEMY.  --  NICOLAS LEMERY, M.D.
 "A COURSE OF CHYMISTRY", WALTER KETTILBY, LONDON, 1686
 Job cpu time:       0 days  3 hours 19 minutes 58.8 seconds.
 Elapsed time:       0 days  0 hours 12 minutes 31.4 seconds.
 File lengths (MBytes):  RWF=    435 Int=      0 D2E=      0 Chk=     48 Scr=      1
 Normal termination of Gaussian 16 at Sat Aug 13 20:46:47 2022.
