 Entering Gaussian System, Link 0=g16
 Initial command:
 /storage/apps/GAUSSIAN/G16_RevA03/g16/l1.exe "/scratch/tmp/1019314/Gau-134656.inp" -scrdir="/scratch/tmp/1019314/"
 Entering Link 1 = /storage/apps/GAUSSIAN/G16_RevA03/g16/l1.exe PID=    134657.
  
 Copyright (c) 1988,1990,1992,1993,1995,1998,2003,2009,2016,
            Gaussian, Inc.  All Rights Reserved.
  
 This is part of the Gaussian(R) 16 program.  It is based on
 the Gaussian(R) 09 system (copyright 2009, Gaussian, Inc.),
 the Gaussian(R) 03 system (copyright 2003, Gaussian, Inc.),
 the Gaussian(R) 98 system (copyright 1998, Gaussian, Inc.),
 the Gaussian(R) 94 system (copyright 1995, Gaussian, Inc.),
 the Gaussian 92(TM) system (copyright 1992, Gaussian, Inc.),
 the Gaussian 90(TM) system (copyright 1990, Gaussian, Inc.),
 the Gaussian 88(TM) system (copyright 1988, Gaussian, Inc.),
 the Gaussian 86(TM) system (copyright 1986, Carnegie Mellon
 University), and the Gaussian 82(TM) system (copyright 1983,
 Carnegie Mellon University). Gaussian is a federally registered
 trademark of Gaussian, Inc.
  
 This software contains proprietary and confidential information,
 including trade secrets, belonging to Gaussian, Inc.
  
 This software is provided under written license and may be
 used, copied, transmitted, or stored only in accord with that
 written license.
  
 The following legend is applicable only to US Government
 contracts under FAR:
  
                    RESTRICTED RIGHTS LEGEND
  
 Use, reproduction and disclosure by the US Government is
 subject to restrictions as set forth in subparagraphs (a)
 and (c) of the Commercial Computer Software - Restricted
 Rights clause in FAR 52.227-19.
  
 Gaussian, Inc.
 340 Quinnipiac St., Bldg. 40, Wallingford CT 06492
  
  
 ---------------------------------------------------------------
 Warning -- This program may not be used in any manner that
 competes with the business of Gaussian, Inc. or will provide
 assistance to any competitor of Gaussian, Inc.  The licensee
 of this program is prohibited from giving any competitor of
 Gaussian, Inc. access to this program.  By using this program,
 the user acknowledges that Gaussian, Inc. is engaged in the
 business of creating and licensing software in the field of
 computational chemistry and represents and warrants to the
 licensee that it is not a competitor of Gaussian, Inc. and that
 it will not use this program in any manner prohibited above.
 ---------------------------------------------------------------
  

 Cite this work as:
 Gaussian 16, Revision A.03,
 M. J. Frisch, G. W. Trucks, H. B. Schlegel, G. E. Scuseria, 
 M. A. Robb, J. R. Cheeseman, G. Scalmani, V. Barone, 
 G. A. Petersson, H. Nakatsuji, X. Li, M. Caricato, A. V. Marenich, 
 J. Bloino, B. G. Janesko, R. Gomperts, B. Mennucci, H. P. Hratchian, 
 J. V. Ortiz, A. F. Izmaylov, J. L. Sonnenberg, D. Williams-Young, 
 F. Ding, F. Lipparini, F. Egidi, J. Goings, B. Peng, A. Petrone, 
 T. Henderson, D. Ranasinghe, V. G. Zakrzewski, J. Gao, N. Rega, 
 G. Zheng, W. Liang, M. Hada, M. Ehara, K. Toyota, R. Fukuda, 
 J. Hasegawa, M. Ishida, T. Nakajima, Y. Honda, O. Kitao, H. Nakai, 
 T. Vreven, K. Throssell, J. A. Montgomery, Jr., J. E. Peralta, 
 F. Ogliaro, M. J. Bearpark, J. J. Heyd, E. N. Brothers, K. N. Kudin, 
 V. N. Staroverov, T. A. Keith, R. Kobayashi, J. Normand, 
 K. Raghavachari, A. P. Rendell, J. C. Burant, S. S. Iyengar, 
 J. Tomasi, M. Cossi, J. M. Millam, M. Klene, C. Adamo, R. Cammi, 
 J. W. Ochterski, R. L. Martin, K. Morokuma, O. Farkas, 
 J. B. Foresman, and D. J. Fox, Gaussian, Inc., Wallingford CT, 2016.
 
 ******************************************
 Gaussian 16:  ES64L-G16RevA.03 25-Dec-2016
                13-Aug-2022 
 ******************************************
 %NProcShared=16
 Will use up to   16 processors via shared memory.
 %mem=20GB
 ----------------------------------------------------------------------
 #P M062X/Def2TZVP scf=(direct,conver=8) EmpiricalDispersion=GD3 Force 
 Charge Prop=(Field,Read)
 ----------------------------------------------------------------------
 1/10=7,18=10,28=-2,30=1,38=1,125=101/1,3;
 2/12=2,17=6,18=5,29=2,40=1/2;
 3/5=44,7=101,11=2,25=1,30=1,71=1,74=-55,124=31/1,2,3;
 4//1;
 5/5=2,6=8,38=5/2;
 6/7=2,8=2,9=2,10=2,14=2,15=1,28=1/1,2;
 7/7=1,16=-2,29=1/1,2,3,16;
 1/10=7,18=10,28=-2,30=1/3;
 99/12=1/99;
 Leave Link    1 at Sat Aug 13 20:34:16 2022, MaxMem=  2684354560 cpu:               0.6 elap:               0.0
 (Enter /storage/apps/GAUSSIAN/G16_RevA03/g16/l101.exe)
 ------------
 Gaussian run
 ------------
 Symbolic Z-matrix:
 Charge =  0 Multiplicity = 1
 C                     3.59825  -3.61587  -0.44321 
 H                     3.74899  -3.71009  -1.51791 
 H                     4.3345   -4.23704   0.06737 
 C                     1.85961  -1.43742   1.24339 
 H                     1.21145  -2.31045   1.08876 
 O                     1.46147  -0.67761   2.3252 
 H                     0.52182  -0.36885   2.16264 
 C                     3.31447  -1.88411   1.40969 
 H                     3.39809  -2.76965   2.04706 
 O                     4.07633  -0.8164    1.91499 
 H                     3.5293   -0.37729   2.58174 
 C                     1.97466  -0.65902  -0.07819 
 H                     2.25971   0.37696   0.12096 
 C                     3.75186  -2.16974  -0.02196 
 H                     4.77947  -1.83141  -0.1576 
 O                     2.91228  -1.33639  -0.85404 
 N                     0.72105  -0.6014   -0.85963 
 C                     0.2061   -1.76348  -1.33528 
 H                     0.77021  -2.65512  -1.11276 
 C                    -0.92889  -1.75296  -2.08971 
 H                    -1.32175  -2.68444  -2.4698 
 C                    -1.56159  -0.53846  -2.36546 
 H                    -2.40969  -0.51125  -3.03632 
 H                    -2.89369  -0.73997  -0.95711 
 C                    -1.01844   0.6441   -1.86295 
 C                     0.13959   0.56834  -1.11191 
 H                     0.59628   1.46459  -0.71133 
 C                    -1.53726   2.01645  -2.16375 
 O                    -0.83018   2.98922  -2.04556 
 N                    -2.80971   2.06425  -2.66512 
 H                    -3.18462   2.99748  -2.74765 
 H                    -3.46361   1.36473  -2.34704 
 H                     2.60436  -3.99609  -0.19537 
 C                     0.20103   2.1997    2.84682 
 C                    -1.66225   0.89656   1.23266 
 C                    -2.8098    0.85416   0.47084 
 C                    -4.87662  -0.38049  -0.33772 
 C                    -3.38601  -0.41678  -0.02125 
 O                    -0.91424  -0.08203   1.5211 
 S                    -1.21317   2.5573    1.7944 
 H                     0.43997   3.12939   3.35992 
 H                     1.06617   1.87752   2.27206 
 H                    -5.47834  -0.30895   0.56845 
 H                    -5.12882   0.48642  -0.95596 
 H                    -5.18433  -1.27606  -0.88018 
 H                    -3.14899  -1.22979   0.67256 
 H                    -3.35749   1.77799   0.32159 
 H                    -0.0501    1.43705   3.58106 
 
 ITRead=  0  0  0  0  0  0  0  0  0  0  0  0  0  0  0  0  0  0  0  0
 ITRead=  0  0  0  0  0  0  0  0  0  0  0  0  0  0  0  0  0  0  0  0
 ITRead=  0  0  0  0  0  0  0  0
 MicOpt= -1 -1 -1 -1 -1 -1 -1 -1 -1 -1 -1 -1 -1 -1 -1 -1 -1 -1 -1 -1
 MicOpt= -1 -1 -1 -1 -1 -1 -1 -1 -1 -1 -1 -1 -1 -1 -1 -1 -1 -1 -1 -1
 MicOpt= -1 -1 -1 -1 -1 -1 -1 -1
 NAtoms=     48 NQM=       48 NQMF=       0 NMMI=      0 NMMIF=      0
                NMic=       0 NMicF=      0.
                    Isotopes and Nuclear Properties:
 (Nuclear quadrupole moments (NQMom) in fm**2, nuclear magnetic moments (NMagM)
  in nuclear magnetons)

  Atom         1           2           3           4           5           6           7           8           9          10
 IAtWgt=          12           1           1          12           1          16           1          12           1          16
 AtmWgt=  12.0000000   1.0078250   1.0078250  12.0000000   1.0078250  15.9949146   1.0078250  12.0000000   1.0078250  15.9949146
 NucSpn=           0           1           1           0           1           0           1           0           1           0
 AtZEff=  -0.0000000  -0.0000000  -0.0000000  -0.0000000  -0.0000000  -0.0000000  -0.0000000  -0.0000000  -0.0000000  -0.0000000
 NQMom=    0.0000000   0.0000000   0.0000000   0.0000000   0.0000000   0.0000000   0.0000000   0.0000000   0.0000000   0.0000000
 NMagM=    0.0000000   2.7928460   2.7928460   0.0000000   2.7928460   0.0000000   2.7928460   0.0000000   2.7928460   0.0000000
 AtZNuc=   6.0000000   1.0000000   1.0000000   6.0000000   1.0000000   8.0000000   1.0000000   6.0000000   1.0000000   8.0000000

  Atom        11          12          13          14          15          16          17          18          19          20
 IAtWgt=           1          12           1          12           1          16          14          12           1          12
 AtmWgt=   1.0078250  12.0000000   1.0078250  12.0000000   1.0078250  15.9949146  14.0030740  12.0000000   1.0078250  12.0000000
 NucSpn=           1           0           1           0           1           0           2           0           1           0
 AtZEff=  -0.0000000  -0.0000000  -0.0000000  -0.0000000  -0.0000000  -0.0000000  -0.0000000  -0.0000000  -0.0000000  -0.0000000
 NQMom=    0.0000000   0.0000000   0.0000000   0.0000000   0.0000000   0.0000000   2.0440000   0.0000000   0.0000000   0.0000000
 NMagM=    2.7928460   0.0000000   2.7928460   0.0000000   2.7928460   0.0000000   0.4037610   0.0000000   2.7928460   0.0000000
 AtZNuc=   1.0000000   6.0000000   1.0000000   6.0000000   1.0000000   8.0000000   7.0000000   6.0000000   1.0000000   6.0000000

  Atom        21          22          23          24          25          26          27          28          29          30
 IAtWgt=           1          12           1           1          12          12           1          12          16          14
 AtmWgt=   1.0078250  12.0000000   1.0078250   1.0078250  12.0000000  12.0000000   1.0078250  12.0000000  15.9949146  14.0030740
 NucSpn=           1           0           1           1           0           0           1           0           0           2
 AtZEff=  -0.0000000  -0.0000000  -0.0000000  -0.0000000  -0.0000000  -0.0000000  -0.0000000  -0.0000000  -0.0000000  -0.0000000
 NQMom=    0.0000000   0.0000000   0.0000000   0.0000000   0.0000000   0.0000000   0.0000000   0.0000000   0.0000000   2.0440000
 NMagM=    2.7928460   0.0000000   2.7928460   2.7928460   0.0000000   0.0000000   2.7928460   0.0000000   0.0000000   0.4037610
 AtZNuc=   1.0000000   6.0000000   1.0000000   1.0000000   6.0000000   6.0000000   1.0000000   6.0000000   8.0000000   7.0000000

  Atom        31          32          33          34          35          36          37          38          39          40
 IAtWgt=           1           1           1          12          12          12          12          12          16          32
 AtmWgt=   1.0078250   1.0078250   1.0078250  12.0000000  12.0000000  12.0000000  12.0000000  12.0000000  15.9949146  31.9720718
 NucSpn=           1           1           1           0           0           0           0           0           0           0
 AtZEff=  -0.0000000  -0.0000000  -0.0000000  -0.0000000  -0.0000000  -0.0000000  -0.0000000  -0.0000000  -0.0000000  -0.0000000
 NQMom=    0.0000000   0.0000000   0.0000000   0.0000000   0.0000000   0.0000000   0.0000000   0.0000000   0.0000000   0.0000000
 NMagM=    2.7928460   2.7928460   2.7928460   0.0000000   0.0000000   0.0000000   0.0000000   0.0000000   0.0000000   0.0000000
 AtZNuc=   1.0000000   1.0000000   1.0000000   6.0000000   6.0000000   6.0000000   6.0000000   6.0000000   8.0000000  16.0000000

  Atom        41          42          43          44          45          46          47          48
 IAtWgt=           1           1           1           1           1           1           1           1
 AtmWgt=   1.0078250   1.0078250   1.0078250   1.0078250   1.0078250   1.0078250   1.0078250   1.0078250
 NucSpn=           1           1           1           1           1           1           1           1
 AtZEff=  -0.0000000  -0.0000000  -0.0000000  -0.0000000  -0.0000000  -0.0000000  -0.0000000  -0.0000000
 NQMom=    0.0000000   0.0000000   0.0000000   0.0000000   0.0000000   0.0000000   0.0000000   0.0000000
 NMagM=    2.7928460   2.7928460   2.7928460   2.7928460   2.7928460   2.7928460   2.7928460   2.7928460
 AtZNuc=   1.0000000   1.0000000   1.0000000   1.0000000   1.0000000   1.0000000   1.0000000   1.0000000
 Background charge distribution read from input stream:
 Leave Link  101 at Sat Aug 13 20:34:16 2022, MaxMem=  2684354560 cpu:               1.5 elap:               0.1
 (Enter /storage/apps/GAUSSIAN/G16_RevA03/g16/l103.exe)

 GradGradGradGradGradGradGradGradGradGradGradGradGradGradGradGradGradGrad
 Berny optimization.
 Initialization pass.
 Trust Radius=3.00D-01 FncErr=1.00D-07 GrdErr=1.00D-07 EigMax=2.50D+02 EigMin=1.00D-04
 Number of steps in this run=      2 maximum allowed number of steps=      2.
 GradGradGradGradGradGradGradGradGradGradGradGradGradGradGradGradGradGrad

 Leave Link  103 at Sat Aug 13 20:34:16 2022, MaxMem=  2684354560 cpu:               0.3 elap:               0.0
 (Enter /storage/apps/GAUSSIAN/G16_RevA03/g16/l202.exe)
 ---------------------------------------------------------------------------------------------------
                            Z-MATRIX (ANGSTROMS AND DEGREES)
   CD    Cent   Atom    N1       Length/X        N2       Alpha/Y        N3        Beta/Z          J
 ---------------------------------------------------------------------------------------------------
      1      1  C        0   3.598247         -3.615868         -0.443206
      2      2  H        0   3.748992         -3.710090         -1.517907
      3      3  H        0   4.334495         -4.237036          0.067367
      4      4  C        0   1.859611         -1.437422          1.243389
      5      5  H        0   1.211449         -2.310446          1.088761
      6      6  O        0   1.461467         -0.677605          2.325197
      7      7  H        0   0.521822         -0.368845          2.162637
      8      8  C        0   3.314468         -1.884106          1.409687
      9      9  H        0   3.398085         -2.769647          2.047056
     10     10  O        0   4.076330         -0.816396          1.914986
     11     11  H        0   3.529297         -0.377289          2.581740
     12     12  C        0   1.974656         -0.659021         -0.078186
     13     13  H        0   2.259705          0.376964          0.120961
     14     14  C        0   3.751864         -2.169735         -0.021960
     15     15  H        0   4.779469         -1.831411         -0.157601
     16     16  O        0   2.912282         -1.336392         -0.854040
     17     17  N        0   0.721051         -0.601404         -0.859628
     18     18  C        0   0.206097         -1.763481         -1.335280
     19     19  H        0   0.770210         -2.655120         -1.112761
     20     20  C        0  -0.928889         -1.752964         -2.089709
     21     21  H        0  -1.321748         -2.684437         -2.469804
     22     22  C        0  -1.561587         -0.538457         -2.365456
     23     23  H        0  -2.409690         -0.511246         -3.036316
     24     24  H        0  -2.893685         -0.739966         -0.957106
     25     25  C        0  -1.018439          0.644101         -1.862947
     26     26  C        0   0.139591          0.568335         -1.111914
     27     27  H        0   0.596276          1.464590         -0.711334
     28     28  C        0  -1.537262          2.016449         -2.163752
     29     29  O        0  -0.830180          2.989218         -2.045558
     30     30  N        0  -2.809711          2.064251         -2.665115
     31     31  H        0  -3.184621          2.997477         -2.747652
     32     32  H        0  -3.463611          1.364733         -2.347044
     33     33  H        0   2.604361         -3.996092         -0.195367
     34     34  C        0   0.201027          2.199696          2.846822
     35     35  C        0  -1.662253          0.896560          1.232655
     36     36  C        0  -2.809800          0.854158          0.470839
     37     37  C        0  -4.876621         -0.380488         -0.337717
     38     38  C        0  -3.386010         -0.416775         -0.021248
     39     39  O        0  -0.914241         -0.082028          1.521102
     40     40  S        0  -1.213173          2.557302          1.794395
     41     41  H        0   0.439971          3.129391          3.359919
     42     42  H        0   1.066169          1.877517          2.272064
     43     43  H        0  -5.478344         -0.308952          0.568446
     44     44  H        0  -5.128816          0.486415         -0.955961
     45     45  H        0  -5.184327         -1.276057         -0.880175
     46     46  H        0  -3.148985         -1.229789          0.672563
     47     47  H        0  -3.357488          1.777990          0.321588
     48     48  H        0  -0.050098          1.437051          3.581059
 ---------------------------------------------------------------------------------------------------
                         Z-Matrix orientation:                         
 ---------------------------------------------------------------------
 Center     Atomic      Atomic             Coordinates (Angstroms)
 Number     Number       Type             X           Y           Z
 ---------------------------------------------------------------------
      1          6           0        3.598247   -3.615868   -0.443206
      2          1           0        3.748992   -3.710090   -1.517907
      3          1           0        4.334495   -4.237036    0.067367
      4          6           0        1.859611   -1.437422    1.243389
      5          1           0        1.211449   -2.310446    1.088761
      6          8           0        1.461467   -0.677605    2.325197
      7          1           0        0.521822   -0.368845    2.162637
      8          6           0        3.314468   -1.884106    1.409687
      9          1           0        3.398085   -2.769647    2.047056
     10          8           0        4.076330   -0.816396    1.914986
     11          1           0        3.529297   -0.377289    2.581740
     12          6           0        1.974656   -0.659021   -0.078186
     13          1           0        2.259705    0.376964    0.120961
     14          6           0        3.751864   -2.169735   -0.021960
     15          1           0        4.779469   -1.831411   -0.157601
     16          8           0        2.912282   -1.336392   -0.854040
     17          7           0        0.721051   -0.601404   -0.859628
     18          6           0        0.206097   -1.763481   -1.335280
     19          1           0        0.770210   -2.655120   -1.112761
     20          6           0       -0.928889   -1.752964   -2.089709
     21          1           0       -1.321748   -2.684437   -2.469804
     22          6           0       -1.561587   -0.538457   -2.365456
     23          1           0       -2.409690   -0.511246   -3.036316
     24          1           0       -2.893685   -0.739966   -0.957106
     25          6           0       -1.018439    0.644101   -1.862947
     26          6           0        0.139591    0.568335   -1.111914
     27          1           0        0.596276    1.464590   -0.711334
     28          6           0       -1.537262    2.016449   -2.163752
     29          8           0       -0.830180    2.989218   -2.045558
     30          7           0       -2.809711    2.064251   -2.665115
     31          1           0       -3.184621    2.997477   -2.747652
     32          1           0       -3.463611    1.364733   -2.347044
     33          1           0        2.604361   -3.996092   -0.195367
     34          6           0        0.201027    2.199696    2.846822
     35          6           0       -1.662253    0.896560    1.232655
     36          6           0       -2.809800    0.854158    0.470839
     37          6           0       -4.876621   -0.380488   -0.337717
     38          6           0       -3.386010   -0.416775   -0.021248
     39          8           0       -0.914241   -0.082028    1.521102
     40         16           0       -1.213173    2.557302    1.794395
     41          1           0        0.439971    3.129391    3.359919
     42          1           0        1.066169    1.877517    2.272064
     43          1           0       -5.478344   -0.308952    0.568446
     44          1           0       -5.128816    0.486415   -0.955961
     45          1           0       -5.184327   -1.276057   -0.880175
     46          1           0       -3.148985   -1.229789    0.672563
     47          1           0       -3.357488    1.777990    0.321588
     48          1           0       -0.050098    1.437051    3.581059
 ---------------------------------------------------------------------
                    Distance matrix (angstroms):
                    1          2          3          4          5
     1  C    0.000000
     2  H    1.089304   0.000000
     3  H    1.090227   1.770192   0.000000
     4  C    3.257773   4.044692   3.917387   0.000000
     5  H    3.122155   3.897800   3.808991   1.098269   0.000000
     6  O    4.567633   5.403534   5.101141   1.380634   2.063360
     7  H    5.176675   5.926630   5.821472   1.943336   2.323491
     8  C    2.552008   3.477619   2.894574   1.530944   2.169665
     9  H    2.637719   3.703583   2.636145   2.188060   2.431167
    10  O    3.691433   4.501707   3.896296   2.398032   3.335023
    11  H    4.432093   5.287999   4.676330   2.388078   3.367269
    12  C    3.392968   3.811835   4.288615   1.538085   2.161355
    13  H    4.248845   4.648427   5.059310   2.170695   3.042639
    14  C    1.514050   2.147221   2.149691   2.391236   2.776186
    15  H    2.158968   2.538060   2.456755   3.262449   3.809680
    16  O    2.415646   2.602930   3.359377   2.348943   2.759726
    17  N    4.187918   4.389269   5.209042   2.533362   2.637714
    18  C    3.966587   4.046572   5.012940   3.080577   2.680649
    19  H    3.060904   3.185945   4.074222   2.867233   2.271605
    20  C    5.164915   5.102928   6.206996   4.357160   3.872274
    21  H    5.401945   5.260273   6.390687   5.046176   4.384101
    22  C    6.307883   6.243384   7.373052   5.053365   4.770879
    23  H    7.242804   7.104050   8.306527   6.115604   5.776333
    24  H    7.118995   7.298033   8.094790   5.284169   4.848103
    25  C    6.440248   6.465789   7.497034   4.718605   4.734377
    26  C    5.469646   5.612266   6.486872   3.539630   3.778787
    27  H    5.907180   6.112895   6.862157   3.720031   4.227254
    28  C    7.813880   7.820156   8.863492   5.922549   6.070937
    29  O    8.112069   8.131910   9.130009   6.135739   6.486805
    30  N    8.846613   8.813381   9.910215   7.024293   7.028463
    31  H    9.749569   9.725159  10.807387   7.812875   7.887810
    32  H    8.848775   8.857931   9.900488   7.005710   6.867888
    33  H    1.092613   1.772312   1.766479   3.028442   2.535861
    34  C    7.495744   8.158706   8.138946   4.307032   4.945009
    35  C    7.130454   7.620262   7.979517   4.225058   4.308568
    36  C    7.866364   8.234393   8.782027   5.258476   5.154318
    37  C    9.072056   9.320960   9.994084   6.999559   6.544018
    38  C    7.693640   7.999635   8.614432   5.491591   5.094579
    39  O    6.058802   6.644107   6.850304   3.099754   3.109875
    40  S    8.140310   8.653013   8.939926   5.069855   5.483765
    41  H    8.362834   9.028915   8.959490   5.229805   5.945180
    42  H    6.630339   7.265175   7.275328   3.560413   4.354348
    43  H    9.713065  10.053076  10.581717   7.454836   7.002145
    44  H    9.656773   9.835747  10.626027   7.574721   7.225115
    45  H    9.099410   9.280916  10.013651   7.358847   6.771456
    46  H    7.243166   7.650630   8.087785   5.045294   4.511588
    47  H    8.835206   9.165414   9.767895   6.197315   6.178920
    48  H    7.418701   8.180807   7.985359   4.168247   4.674054
                    6          7          8          9         10
     6  O    0.000000
     7  H    1.002343   0.000000
     8  C    2.393202   3.265244   0.000000
     9  H    2.864348   3.748346   1.094264   0.000000
    10  O    2.650480   3.591122   1.405619   2.071871   0.000000
    11  H    2.105214   3.036548   1.921030   2.454889   0.967792
    12  C    2.457633   2.686302   2.347274   3.316255   2.900782
    13  H    2.570594   2.782968   2.808163   3.860947   2.818290
    14  C    3.602987   4.295211   1.523979   2.183090   2.385071
    15  H    4.301708   5.064599   2.146019   2.765686   2.412525
    16  O    3.556179   3.968726   2.363515   3.272091   3.048427
    17  N    3.270647   3.037740   3.677081   4.507394   4.359197
    18  C    4.019225   3.778904   4.148658   4.758293   5.141975
    19  H    4.025911   4.002122   3.664759   4.111361   4.845471
    20  C    5.134354   4.701361   5.501731   6.071999   6.478191
    21  H    5.896244   5.497293   6.097990   6.533461   7.201056
    22  C    5.582154   4.987283   6.311766   7.003343   7.084175
    23  H    6.615085   5.970189   7.376833   8.041847   8.165596
    24  H    5.453875   4.640713   6.741805   7.261609   7.538956
    25  C    5.043549   4.427617   5.989662   6.815239   6.508648
    26  C    3.887603   3.427403   4.738437   5.633738   5.155339
    27  H    3.815505   3.409800   4.806356   5.778201   4.920491
    28  C    6.033321   5.352298   7.177958   8.061964   7.494900
    29  O    6.148230   5.550982   7.270909   8.233604   7.364947
    30  N    7.117861   6.350296   8.348599   9.171034   8.757455
    31  H    7.799113   7.012901   9.129703   9.979026   9.434364
    32  H    7.089244   6.263082   8.402996   9.136963   8.931569
    33  H    4.321088   4.801466   2.746076   2.676308   4.090324
    34  C    3.184284   2.677391   5.332571   5.962816   4.998310
    35  C    3.664597   2.690037   5.703613   6.301694   6.027531
    36  C    4.901904   3.931618   6.773934   7.358958   7.231535
    37  C    6.881188   5.949377   8.509302   8.936777   9.242295
    38  C    5.391834   4.476919   7.006928   7.472472   7.719794
    39  O    2.577842   1.598783   4.598030   5.108432   5.059668
    40  S    4.230848   3.421717   6.354025   7.050101   6.274968
    41  H    4.075208   3.698356   6.099286   6.728499   5.556993
    42  H    2.586065   2.313964   4.466358   5.204286   4.055335
    43  H    7.168198   6.208625   8.972310   9.329110   9.662425
    44  H    7.453373   6.510517   9.083210   9.608751   9.730075
    45  H    7.402644   6.530075   8.822851   9.190065   9.684213
    46  H    4.928729   4.054179   6.538173   6.864730   7.343002
    47  H    5.767731   4.800772   7.688297   8.324422   8.033144
    48  H    2.886830   2.366490   5.202427   5.651499   4.988109
                   11         12         13         14         15
    11  H    0.000000
    12  C    3.093782   0.000000
    13  H    2.869877   1.092784   0.000000
    14  C    3.168857   2.333214   2.955104   0.000000
    15  H    3.343859   3.041016   3.362102   1.090336   0.000000
    16  O    3.620106   1.392811   2.076553   1.446276   2.053402
    17  N    4.447414   1.478343   2.070318   3.513855   4.298432
    18  C    5.320548   2.434732   3.304459   3.802935   4.723058
    19  H    5.142996   2.550578   3.596415   3.211807   4.202973
    20  C    6.602298   3.697771   4.426148   5.134076   6.026985
    21  H    7.373850   4.548453   5.376899   5.656713   6.580181
    22  C    7.100551   4.213212   4.650004   6.032065   6.837788
    23  H    8.176311   5.291017   5.706187   7.057030   7.855816
    24  H    7.342320   4.947706   5.382118   6.861637   7.791518
    25  C    6.440527   3.720499   3.841026   5.836326   6.530858
    26  C    5.101705   2.437716   2.459977   4.661925   5.310175
    27  H    4.779065   2.609700   2.154679   4.862231   5.354376
    28  C    7.343003   4.882755   4.724911   7.077165   7.663665
    29  O    7.193768   5.004728   4.589669   7.190610   7.633545
    30  N    8.583334   6.082646   6.025623   8.244221   8.891539
    31  H    9.212392   6.863976   6.688551   9.068864   9.667122
    32  H    8.730883   6.230413   6.310553   8.364303   9.108093
    33  H    4.654414   3.397985   4.398007   2.163888   3.068935
    34  C    4.217642   4.457992   3.871799   6.319041   6.799891
    35  C    5.513158   4.167163   4.109452   6.347353   7.132350
    36  C    6.793859   5.047986   5.103921   7.241700   8.074913
    37  C    8.898466   6.861846   7.191055   8.817702   9.766150
    38  C    7.389085   5.366439   5.703012   7.349974   8.288235
    39  O    4.577899   3.352069   3.499286   5.339672   6.188434
    40  S    5.632296   4.900362   4.428898   7.091940   7.680029
    41  H    4.737753   5.341151   4.623650   7.105384   7.470860
    42  H    3.353662   3.575339   2.881568   5.371755   5.783426
    43  H    9.230147   7.489185   7.781268   9.434396  10.395564
    44  H    9.392776   7.248574   7.467395   9.316328  10.207047
    45  H    9.419123   7.230142   7.690797   9.021680  10.005387
    46  H    6.997940   5.209712   5.669202   6.999113   7.994467
    47  H    7.561833   5.876274   5.792753   8.139130   8.914453
    48  H    4.135521   4.677950   4.293163   6.359683   6.927131
                   16         17         18         19         20
    16  O    0.000000
    17  N    2.311219   0.000000
    18  C    2.781624   1.357146   0.000000
    19  H    2.528725   2.069841   1.078313   0.000000
    20  C    4.056477   2.358282   1.362889   2.157603   0.000000
    21  H    4.728100   3.332375   2.114146   2.493735   1.080024
    22  C    4.789215   2.735309   2.384670   3.389216   1.396915
    23  H    5.810902   3.814137   3.362136   4.290457   2.151906
    24  H    5.837431   3.618704   3.286221   4.137169   2.483823
    25  C    4.515619   2.362997   2.752158   3.827127   2.409432
    26  C    3.373766   1.330426   2.343434   3.284561   2.736085
    27  H    3.637272   2.075064   3.310890   4.142874   3.818206
    28  C    5.723227   3.695115   4.244236   5.315314   3.818910
    29  O    5.842657   4.087213   4.915945   5.940531   4.743415
    30  N    6.898229   4.778261   5.051247   6.123569   4.294149
    31  H    7.716243   5.636564   6.013193   7.089810   5.299802
    32  H    7.083583   4.856902   4.927083   5.967237   4.026297
    33  H    2.757294   3.938528   3.469240   2.450291   4.593910
    34  C    5.792340   4.674864   5.761664   6.290589   6.424140
    35  C    5.501522   3.507375   4.142564   4.902273   4.312297
    36  C    6.268655   4.044220   4.382891   5.257308   4.109905
    37  C    7.864309   5.626289   5.361140   6.136884   4.531860
    38  C    6.419324   4.195822   4.055062   4.845178   3.478703
    39  O    4.675148   2.934588   3.498765   4.049125   3.978718
    40  S    6.260546   4.556587   5.520721   6.289253   5.809085
    41  H    6.619138   5.639363   6.785262   7.319460   7.443763
    42  H    4.848698   4.008946   5.197069   5.664753   6.015456
    43  H    8.572147   6.368471   6.168687   6.882978   5.463378
    44  H    8.245743   5.950931   5.802345   6.685233   4.892810
    45  H    8.096876   5.943826   5.431517   6.116569   4.449625
    46  H    6.251467   4.209472   3.946243   4.536413   3.582274
    47  H    7.098697   4.867368   5.290214   6.224766   4.917325
    48  H    6.011471   4.946683   5.871919   6.280980   6.565522
                   21         22         23         24         25
    21  H    0.000000
    22  C    2.161861   0.000000
    23  H    2.495458   1.081699   0.000000
    24  H    2.922364   1.948985   2.147016   0.000000
    25  C    3.396975   1.394980   2.155737   2.500547   0.000000
    26  C    3.815744   2.385448   3.371595   3.307020   1.382326
    27  H    4.897495   3.377083   4.283141   4.135251   2.146327
    28  C    4.715765   2.562971   2.812782   3.300561   1.497665
    29  O    5.710690   3.616875   3.966069   4.398817   2.359738
    30  N    4.980183   2.902016   2.632678   3.284506   2.422593
    31  H    5.985954   3.909366   3.604855   4.154417   3.318648
    32  H    4.582404   2.690756   2.259456   2.585827   2.594711
    33  H    4.723117   5.832637   6.734675   6.435147   6.118570
    34  C    7.378354   6.145904   6.984008   5.717405   5.107729
    35  C    5.162140   3.875024   4.556829   2.998282   3.171905
    36  C    4.835632   3.397349   3.784779   2.141797   2.949518
    37  C    4.742478   3.889233   3.658590   2.108294   4.273368
    38  C    3.924143   2.972985   3.170609   1.105743   3.181620
    39  O    4.781833   3.966449   4.815668   3.239228   3.462645
    40  S    6.758033   5.197064   5.846658   4.611600   4.132119
    41  H    8.419615   7.087966   7.892188   6.687443   5.965061
    42  H    6.999920   5.852232   6.779873   5.741010   4.792204
    43  H    5.670201   4.899126   4.738340   3.032086   5.168243
    44  H    5.180713   3.970159   3.566069   2.549475   4.212207
    45  H    4.407944   3.984264   3.596177   2.353795   4.691212
    46  H    3.915261   3.496760   3.849499   1.720734   3.805194
    47  H    5.643524   3.976354   4.173061   2.861865   3.395445
    48  H    7.430794   6.445795   7.290623   5.781032   5.586023
                   26         27         28         29         30
    26  C    0.000000
    27  H    1.082727   0.000000
    28  C    2.452597   2.639328   0.000000
    29  O    2.769986   2.477785   1.208393   0.000000
    30  N    3.653571   3.972103   1.368494   2.271114   0.000000
    31  H    4.430209   4.559771   2.004282   2.456908   1.009099
    32  H    3.891383   4.378150   2.041850   3.108827   1.008999
    33  H    5.267746   5.841034   7.561629   8.000865   8.493503
    34  C    4.282138   3.654733   5.306701   5.061829   6.282065
    35  C    2.975126   3.033596   3.578457   3.977216   4.227620
    36  C    3.359421   3.656708   3.148229   3.848328   3.361329
    37  C    5.163529   5.787616   4.497892   5.535822   3.957985
    38  C    3.819667   4.458066   3.732127   4.714964   3.671191
    39  O    2.909692   3.107645   4.286013   4.707513   5.071857
    40  S    3.772611   3.278232   4.008052   3.883101   4.762275
    41  H    5.162027   4.401261   5.971518   5.554468   6.927914
    42  H    3.744838   3.048274   5.145252   4.844985   6.279574
    43  H    5.929118   6.456338   5.329589   6.270277   4.817635
    44  H    5.271351   5.813205   4.086444   5.092103   3.284665
    45  H    5.639112   6.399611   5.078312   6.205585   4.470176
    46  H    4.151185   4.816828   4.602216   5.528567   4.701691
    47  H    3.968344   4.098463   3.089822   3.668479   3.049984
    48  H    4.776468   4.340875   5.962400   5.888681   6.857371
                   31         32         33         34         35
    31  H    0.000000
    32  H    1.704164   0.000000
    33  H    9.430614   8.377854   0.000000
    34  C    6.587656   6.411160   7.308811   0.000000
    35  C    4.751242   4.034640   6.646900   2.788460   0.000000
    36  C    3.884970   2.937451   7.299445   4.064584   1.378051
    37  C    4.481216   3.013269   8.310111   6.525423   3.798563
    38  C    4.373894   2.930720   6.980428   5.285696   2.503689
    39  O    5.732385   4.853345   5.535948   2.864895   1.265053
    40  S    4.970971   4.861914   7.840899   1.798735   1.809776
    41  H    7.103344   7.135923   8.252100   1.088437   3.732309
    42  H    6.672411   6.489839   6.553894   1.087482   3.080087
    43  H    5.214417   3.919241   8.916756   6.613590   4.056721
    44  H    3.646297   2.340825   8.970697   6.767844   4.120111
    45  H    5.074385   3.476541   8.278358   7.414405   4.646431
    46  H    5.437731   3.993565   6.442571   5.264157   2.654324
    47  H    3.307154   2.702525   8.315703   4.383796   2.116786
    48  H    7.232755   6.841031   7.129277   1.088023   2.899341
                   36         37         38         39         40
    36  C    0.000000
    37  C    2.539658   0.000000
    38  C    1.479675   1.524267   0.000000
    39  O    2.360644   4.386883   2.932668   0.000000
    40  S    2.683602   5.157263   4.106448   2.670227   0.000000
    41  H    4.907594   7.365997   6.216568   3.940603   2.347560
    42  H    4.394862   6.872139   5.508625   2.885444   2.426041
    43  H    2.912641   1.090101   2.176517   4.667985   5.282996
    44  H    2.747513   1.094234   2.174124   4.921546   5.213952
    45  H    3.464308   1.091324   2.170268   5.042368   6.133354
    46  H    2.120984   2.174098   1.094781   2.651689   4.398629
    47  H    1.084299   2.720565   2.221563   3.296658   2.715617
    48  H    4.198713   6.477313   5.248009   2.701438   2.408293
                   41         42         43         44         45
    41  H    0.000000
    42  H    1.772778   0.000000
    43  H    7.391953   7.107293   0.000000
    44  H    7.524861   7.122721   1.754593   0.000000
    45  H    8.307773   7.677912   1.766420   1.764974   0.000000
    46  H    6.253394   5.475516   2.506929   3.084992   2.560420
    47  H    5.047617   4.835598   2.985682   2.537302   3.756165
    48  H    1.775693   1.775818   6.449048   6.876164   7.322832
                   46         47         48
    46  H    0.000000
    47  H    3.035357   0.000000
    48  H    5.017418   4.656095   0.000000
 Stoichiometry    C16H24N2O5S
 Framework group  C1[X(C16H24N2O5S)]
 Deg. of freedom   138
 Full point group                 C1      NOp   1
 Largest Abelian subgroup         C1      NOp   1
 Largest concise Abelian subgroup C1      NOp   1
                         Standard orientation:                         
 ---------------------------------------------------------------------
 Center     Atomic      Atomic             Coordinates (Angstroms)
 Number     Number       Type             X           Y           Z
 ---------------------------------------------------------------------
      1          6           0       -4.680635   -1.966486   -0.551063
      2          1           0       -4.639726   -2.909623   -0.007552
      3          1           0       -5.704792   -1.802362   -0.886863
      4          6           0       -2.514061    0.462186   -0.694571
      5          1           0       -2.321220   -0.187370   -1.558911
      6          8           0       -2.037398    1.743318   -0.888582
      7          1           0       -1.049520    1.689278   -1.049419
      8          6           0       -4.012184    0.490511   -0.380537
      9          1           0       -4.617245    0.565039   -1.289250
     10          8           0       -4.284458    1.548848    0.503519
     11          1           0       -3.742699    2.296995    0.214737
     12          6           0       -1.993506   -0.228979    0.577049
     13          1           0       -1.806057    0.513359    1.356777
     14          6           0       -4.235943   -0.830499    0.345670
     15          1           0       -4.944293   -0.676835    1.160201
     16          8           0       -2.960934   -1.161962    0.942494
     17          7           0       -0.724969   -0.965137    0.391627
     18          6           0       -0.715725   -2.027317   -0.453082
     19          1           0       -1.657016   -2.264438   -0.922660
     20          6           0        0.423090   -2.755492   -0.627236
     21          1           0        0.413020   -3.604194   -1.295110
     22          6           0        1.582213   -2.397774    0.065471
     23          1           0        2.463430   -3.021938    0.002623
     24          1           0        2.362807   -1.431983   -1.436682
     25          6           0        1.552553   -1.299652    0.925248
     26          6           0        0.364586   -0.606992    1.065893
     27          1           0        0.299148    0.245781    1.729817
     28          6           0        2.690267   -0.869478    1.799065
     29          8           0        2.499309   -0.192625    2.781724
     30          7           0        3.914701   -1.376329    1.457538
     31          1           0        4.683148   -0.982829    1.979962
     32          1           0        4.097522   -1.535742    0.478128
     33          1           0       -4.043085   -2.044894   -1.434911
     34          6           0        0.267419    3.601894    0.283244
     35          6           0        1.607642    1.388892   -0.756916
     36          6           0        2.734594    0.625319   -0.971306
     37          6           0        4.121614   -0.889623   -2.464955
     38          6           0        2.750367   -0.513770   -1.915586
     39          8           0        0.454061    1.177033   -1.230965
     40         16           0        1.866522    2.782676    0.368089
     41          1           0        0.383461    4.548542    0.807734
     42          1           0       -0.514797    3.020755    0.765979
     43          1           0        4.494698   -0.139440   -3.162345
     44          1           0        4.860377   -0.972429   -1.662011
     45          1           0        4.086629   -1.848829   -2.984270
     46          1           0        2.034319   -0.339954   -2.725284
     47          1           0        3.661756    0.942715   -0.507266
     48          1           0       -0.010725    3.794516   -0.750839
 ---------------------------------------------------------------------
 Rotational constants (GHZ):           0.3328294           0.1646859           0.1401767
 Leave Link  202 at Sat Aug 13 20:34:16 2022, MaxMem=  2684354560 cpu:               0.2 elap:               0.0
 (Enter /storage/apps/GAUSSIAN/G16_RevA03/g16/l301.exe)
 Standard basis: def2TZVP (5D, 7F)
 Ernie: Thresh=  0.10000D-02 Tol=  0.10000D-05 Strict=F.
 There are  1014 symmetry adapted cartesian basis functions of A   symmetry.
 There are   894 symmetry adapted basis functions of A   symmetry.
   894 basis functions,  1434 primitive gaussians,  1014 cartesian basis functions
    95 alpha electrons       95 beta electrons
       nuclear repulsion energy      2497.8229053288 Hartrees.
 IExCor= 4336 DFT=T Ex+Corr=M062X ExCW=0 ScaHFX=  0.540000
 ScaDFX=  1.000000  1.000000  1.000000  1.000000 ScalE2=  1.000000  1.000000
 IRadAn=      5 IRanWt=     -1 IRanGd=            0 ICorTp=0 IEmpDi=131
 NAtoms=   48 NActive=   48 NUniq=   48 SFac= 1.00D+00 NAtFMM=   60 NAOKFM=F Big=F
 Integral buffers will be    131072 words long.
 Raffenetti 2 integral format.
 Two-electron integral symmetry is turned on.
 R6Disp:  Grimme-D3 Dispersion energy=       -0.0042713732 Hartrees.
 Nuclear repulsion after empirical dispersion term =     2497.8186339556 Hartrees.
 Leave Link  301 at Sat Aug 13 20:34:16 2022, MaxMem=  2684354560 cpu:               0.8 elap:               0.1
 (Enter /storage/apps/GAUSSIAN/G16_RevA03/g16/l302.exe)
 NPDir=0 NMtPBC=     1 NCelOv=     1 NCel=       1 NClECP=     1 NCelD=      1
         NCelK=      1 NCelE2=     1 NClLst=     1 CellRange=     0.0.
 One-electron integrals computed using PRISM.
 One-electron integral symmetry used in STVInt
   1 Symmetry operations used in ECPInt.
 ECPInt:  NShTT=   65703 NPrTT=  200010 LenC2=   56961 LenP2D=  121465.
 LDataN:  DoStor=T MaxTD1= 6 Len=  172
 NBasis=   894 RedAO= T EigKep=  1.69D-05  NBF=   894
 NBsUse=   894 1.00D-06 EigRej= -1.00D+00 NBFU=   894
 Precomputing XC quadrature grid using
 IXCGrd= 4 IRadAn=           5 IRanWt=          -1 IRanGd=           0 AccXCQ= 0.00D+00.
 Generated NRdTot=       0 NPtTot=           0 NUsed=           0 NTot=          32
 NSgBfM=   998   997   997   997   998 MxSgAt=    48 MxSgA2=    48.
 Leave Link  302 at Sat Aug 13 20:34:17 2022, MaxMem=  2684354560 cpu:              18.5 elap:               1.2
 (Enter /storage/apps/GAUSSIAN/G16_RevA03/g16/l303.exe)
 DipDrv:  MaxL=1.
 Leave Link  303 at Sat Aug 13 20:34:17 2022, MaxMem=  2684354560 cpu:               2.0 elap:               0.2
 (Enter /storage/apps/GAUSSIAN/G16_RevA03/g16/l401.exe)
 ExpMin= 9.52D-02 ExpMax= 6.07D+04 ExpMxC= 2.07D+03 IAcc=3 IRadAn=         5 AccDes= 0.00D+00
 Harris functional with IExCor= 1009 and IRadAn=       5 diagonalized for initial guess.
 HarFok:  IExCor= 1009 AccDes= 0.00D+00 IRadAn=         5 IDoV= 1 UseB2=F ITyADJ=14
 ICtDFT=  3500011 ScaDFX=  1.000000  1.000000  1.000000  1.000000
 FoFCou: FMM=F IPFlag=           0 FMFlag=      100000 FMFlg1=           0
         NFxFlg=           0 DoJE=T BraDBF=F KetDBF=T FulRan=T
         wScrn=  0.000000 ICntrl=       500 IOpCl=  0 I1Cent=   200000004 NGrid=           0
         NMat0=    1 NMatS0=      1 NMatT0=    0 NMatD0=    1 NMtDS0=    0 NMtDT0=    0
 Petite list used in FoFCou.
 Harris En= -1507.24138215495    
 JPrj=0 DoOrth=F DoCkMO=F.
 Leave Link  401 at Sat Aug 13 20:34:21 2022, MaxMem=  2684354560 cpu:              60.8 elap:               3.8
 (Enter /storage/apps/GAUSSIAN/G16_RevA03/g16/l502.exe)
 Integral symmetry usage will be decided dynamically.
 Closed shell SCF:
 Using DIIS extrapolation, IDIIS=  1040.
 NGot=  2684354560 LenX=  2682272944 LenY=  2681243734
 Requested convergence on RMS density matrix=1.00D-08 within 128 cycles.
 Requested convergence on MAX density matrix=1.00D-06.
 Requested convergence on             energy=1.00D-06.
 No special actions if energy rises.
 Fock matrices will be formed incrementally for  20 cycles.
 Integral accuracy reduced to 1.0D-05 until final iterations.

 Cycle   1  Pass 0  IDiag  1:
 FoFJK:  IHMeth= 1 ICntrl=       0 DoSepK=F KAlg= 0 I1Cent=           0 FoldK=F
 IRaf= 800000000 NMat=       1 IRICut=       1 DoRegI=T DoRafI=F ISym2E= 0 IDoP0=0 IntGTp=1.
 FoFCou: FMM=F IPFlag=           0 FMFlag=      100000 FMFlg1=           0
         NFxFlg=           0 DoJE=F BraDBF=F KetDBF=F FulRan=T
         wScrn=  0.000000 ICntrl=         0 IOpCl=  0 I1Cent=           0 NGrid=           0
         NMat0=    1 NMatS0=      1 NMatT0=    0 NMatD0=    1 NMtDS0=    0 NMtDT0=    0
 Symmetry not used in FoFCou.
 E= -1507.15896837762    
 DIIS: error= 1.81D-02 at cycle   1 NSaved=   1.
 NSaved= 1 IEnMin= 1 EnMin= -1507.15896837762     IErMin= 1 ErrMin= 1.81D-02
 ErrMax= 1.81D-02  0.00D+00 EMaxC= 1.00D-01 BMatC= 9.95D-01 BMatP= 9.95D-01
 IDIUse=3 WtCom= 8.19D-01 WtEn= 1.81D-01
 Coeff-Com:  0.100D+01
 Coeff-En:   0.100D+01
 Coeff:      0.100D+01
 Gap=     0.174 Goal=   None    Shift=    0.000
 GapD=    0.174 DampG=1.000 DampE=0.500 DampFc=0.5000 IDamp=-1.
 Damping current iteration by 5.00D-01
 RMSDP=4.00D-03 MaxDP=9.93D-01              OVMax= 5.51D-01

 Cycle   2  Pass 0  IDiag  1:
 RMSU=  2.00D-03    CP:  1.01D+00
 E= -1507.46311178682     Delta-E=       -0.304143409192 Rises=F Damp=T
 DIIS: error= 7.34D-03 at cycle   2 NSaved=   2.
 NSaved= 2 IEnMin= 2 EnMin= -1507.46311178682     IErMin= 2 ErrMin= 7.34D-03
 ErrMax= 7.34D-03  0.00D+00 EMaxC= 1.00D-01 BMatC= 9.94D-02 BMatP= 9.95D-01
 IDIUse=3 WtCom= 9.27D-01 WtEn= 7.34D-02
 Coeff-Com:  0.157D-01 0.984D+00
 Coeff-En:   0.132D+00 0.868D+00
 Coeff:      0.242D-01 0.976D+00
 Gap=     0.159 Goal=   None    Shift=    0.000
 RMSDP=1.35D-03 MaxDP=2.15D-01 DE=-3.04D-01 OVMax= 4.36D-01

 Cycle   3  Pass 0  IDiag  1:
 RMSU=  1.16D-03    CP:  1.00D+00  6.61D-01
 E= -1507.82603650514     Delta-E=       -0.362924718326 Rises=F Damp=F
 DIIS: error= 7.41D-03 at cycle   3 NSaved=   3.
 NSaved= 3 IEnMin= 3 EnMin= -1507.82603650514     IErMin= 2 ErrMin= 7.34D-03
 ErrMax= 7.41D-03  0.00D+00 EMaxC= 1.00D-01 BMatC= 7.45D-02 BMatP= 9.94D-02
 IDIUse=3 WtCom= 9.26D-01 WtEn= 7.41D-02
 Coeff-Com: -0.722D-01 0.489D+00 0.583D+00
 Coeff-En:   0.000D+00 0.000D+00 0.100D+01
 Coeff:     -0.668D-01 0.453D+00 0.614D+00
 Gap=     0.130 Goal=   None    Shift=    0.000
 RMSDP=5.99D-04 MaxDP=2.96D-02 DE=-3.63D-01 OVMax= 1.68D-01

 Cycle   4  Pass 0  IDiag  1:
 RMSU=  4.87D-04    CP:  1.00D+00  8.03D-01  8.24D-01
 E= -1507.89210809424     Delta-E=       -0.066071589100 Rises=F Damp=F
 DIIS: error= 3.60D-03 at cycle   4 NSaved=   4.
 NSaved= 4 IEnMin= 4 EnMin= -1507.89210809424     IErMin= 4 ErrMin= 3.60D-03
 ErrMax= 3.60D-03  0.00D+00 EMaxC= 1.00D-01 BMatC= 9.92D-03 BMatP= 7.45D-02
 IDIUse=3 WtCom= 9.64D-01 WtEn= 3.60D-02
 Coeff-Com: -0.373D-01 0.107D+00 0.299D+00 0.631D+00
 Coeff-En:   0.000D+00 0.000D+00 0.626D-01 0.937D+00
 Coeff:     -0.360D-01 0.104D+00 0.290D+00 0.642D+00
 Gap=     0.150 Goal=   None    Shift=    0.000
 RMSDP=2.16D-04 MaxDP=2.18D-02 DE=-6.61D-02 OVMax= 6.22D-02

 Cycle   5  Pass 0  IDiag  1:
 RMSU=  1.78D-04    CP:  1.00D+00  7.86D-01  9.01D-01  8.45D-01
 E= -1507.90120413152     Delta-E=       -0.009096037276 Rises=F Damp=F
 DIIS: error= 9.50D-04 at cycle   5 NSaved=   5.
 NSaved= 5 IEnMin= 5 EnMin= -1507.90120413152     IErMin= 5 ErrMin= 9.50D-04
 ErrMax= 9.50D-04  0.00D+00 EMaxC= 1.00D-01 BMatC= 9.49D-04 BMatP= 9.92D-03
 IDIUse=3 WtCom= 9.90D-01 WtEn= 9.50D-03
 Coeff-Com: -0.120D-01 0.219D-01 0.941D-01 0.320D+00 0.576D+00
 Coeff-En:   0.000D+00 0.000D+00 0.000D+00 0.000D+00 0.100D+01
 Coeff:     -0.119D-01 0.217D-01 0.932D-01 0.317D+00 0.580D+00
 Gap=     0.148 Goal=   None    Shift=    0.000
 RMSDP=7.54D-05 MaxDP=7.55D-03 DE=-9.10D-03 OVMax= 8.48D-03

 Cycle   6  Pass 0  IDiag  1:
 RMSU=  6.46D-05    CP:  1.00D+00  7.86D-01  8.91D-01  9.19D-01  9.55D-01
 E= -1507.90209326527     Delta-E=       -0.000889133751 Rises=F Damp=F
 DIIS: error= 1.79D-04 at cycle   6 NSaved=   6.
 NSaved= 6 IEnMin= 6 EnMin= -1507.90209326527     IErMin= 6 ErrMin= 1.79D-04
 ErrMax= 1.79D-04  0.00D+00 EMaxC= 1.00D-01 BMatC= 1.02D-04 BMatP= 9.49D-04
 IDIUse=3 WtCom= 9.98D-01 WtEn= 1.79D-03
 Coeff-Com: -0.308D-03-0.384D-02-0.413D-02 0.582D-01 0.278D+00 0.673D+00
 Coeff-En:   0.000D+00 0.000D+00 0.000D+00 0.000D+00 0.000D+00 0.100D+01
 Coeff:     -0.307D-03-0.384D-02-0.412D-02 0.581D-01 0.277D+00 0.673D+00
 Gap=     0.150 Goal=   None    Shift=    0.000
 RMSDP=4.21D-05 MaxDP=5.22D-03 DE=-8.89D-04 OVMax= 6.29D-03

 Cycle   7  Pass 0  IDiag  1:
 RMSU=  2.31D-05    CP:  1.01D+00  7.87D-01  8.98D-01  9.43D-01  1.13D+00
                    CP:  1.08D+00
 E= -1507.90219329189     Delta-E=       -0.000100026622 Rises=F Damp=F
 DIIS: error= 9.10D-05 at cycle   7 NSaved=   7.
 NSaved= 7 IEnMin= 7 EnMin= -1507.90219329189     IErMin= 7 ErrMin= 9.10D-05
 ErrMax= 9.10D-05  0.00D+00 EMaxC= 1.00D-01 BMatC= 1.39D-05 BMatP= 1.02D-04
 IDIUse=1 WtCom= 1.00D+00 WtEn= 0.00D+00
 Coeff-Com:  0.141D-02-0.437D-02-0.160D-01-0.154D-01 0.495D-01 0.313D+00
 Coeff-Com:  0.672D+00
 Coeff:      0.141D-02-0.437D-02-0.160D-01-0.154D-01 0.495D-01 0.313D+00
 Coeff:      0.672D+00
 Gap=     0.149 Goal=   None    Shift=    0.000
 RMSDP=1.90D-05 MaxDP=2.11D-03 DE=-1.00D-04 OVMax= 2.78D-03

 Cycle   8  Pass 0  IDiag  1:
 RMSU=  1.21D-05    CP:  1.01D+00  7.85D-01  8.98D-01  9.56D-01  1.19D+00
                    CP:  1.18D+00  1.15D+00
 E= -1507.90220011571     Delta-E=       -0.000006823820 Rises=F Damp=F
 DIIS: error= 3.33D-05 at cycle   8 NSaved=   8.
 NSaved= 8 IEnMin= 8 EnMin= -1507.90220011571     IErMin= 8 ErrMin= 3.33D-05
 ErrMax= 3.33D-05  0.00D+00 EMaxC= 1.00D-01 BMatC= 2.58D-06 BMatP= 1.39D-05
 IDIUse=1 WtCom= 1.00D+00 WtEn= 0.00D+00
 Coeff-Com:  0.742D-03-0.145D-02-0.840D-02-0.177D-01-0.266D-01 0.405D-01
 Coeff-Com:  0.324D+00 0.689D+00
 Coeff:      0.742D-03-0.145D-02-0.840D-02-0.177D-01-0.266D-01 0.405D-01
 Coeff:      0.324D+00 0.689D+00
 Gap=     0.149 Goal=   None    Shift=    0.000
 RMSDP=1.62D-05 MaxDP=2.95D-03 DE=-6.82D-06 OVMax= 1.81D-03

 Cycle   9  Pass 0  IDiag  1:
 RMSU=  1.26D-05    CP:  1.00D+00  7.83D-01  8.97D-01  9.59D-01  1.19D+00
                    CP:  1.24D+00  1.29D+00  1.61D+00
 E= -1507.90219894024     Delta-E=        0.000001175468 Rises=F Damp=F
 DIIS: error= 1.68D-05 at cycle   9 NSaved=   9.
 NSaved= 9 IEnMin= 8 EnMin= -1507.90220011571     IErMin= 9 ErrMin= 1.68D-05
 ErrMax= 1.68D-05  0.00D+00 EMaxC= 1.00D-01 BMatC= 5.74D-07 BMatP= 2.58D-06
 IDIUse=1 WtCom= 1.00D+00 WtEn= 0.00D+00
 Coeff-Com:  0.209D-03-0.234D-03-0.312D-02-0.739D-02-0.209D-01-0.104D-01
 Coeff-Com:  0.798D-01 0.337D+00 0.625D+00
 Coeff:      0.209D-03-0.234D-03-0.312D-02-0.739D-02-0.209D-01-0.104D-01
 Coeff:      0.798D-01 0.337D+00 0.625D+00
 Gap=     0.149 Goal=   None    Shift=    0.000
 RMSDP=1.88D-05 MaxDP=2.40D-03 DE= 1.18D-06 OVMax= 8.12D-04

 Cycle  10  Pass 0  IDiag  1:
 RMSU=  1.05D-05    CP:  1.00D+00  7.82D-01  8.97D-01  9.59D-01  1.19D+00
                    CP:  1.27D+00  1.39D+00  2.17D+00  2.08D+00
 E= -1507.90219739845     Delta-E=        0.000001541792 Rises=F Damp=F
 DIIS: error= 2.54D-05 at cycle  10 NSaved=  10.
 NSaved=10 IEnMin= 8 EnMin= -1507.90220011571     IErMin= 9 ErrMin= 1.68D-05
 ErrMax= 2.54D-05  0.00D+00 EMaxC= 1.00D-01 BMatC= 4.13D-07 BMatP= 5.74D-07
 IDIUse=1 WtCom= 1.00D+00 WtEn= 0.00D+00
 Coeff-Com:  0.180D-03-0.197D-03-0.279D-02-0.648D-02-0.188D-01-0.956D-02
 Coeff-Com:  0.678D-01 0.295D+00 0.558D+00 0.116D+00
 Coeff:      0.180D-03-0.197D-03-0.279D-02-0.648D-02-0.188D-01-0.956D-02
 Coeff:      0.678D-01 0.295D+00 0.558D+00 0.116D+00
 Gap=     0.149 Goal=   None    Shift=    0.000
 RMSDP=5.12D-06 MaxDP=6.86D-04 DE= 1.54D-06 OVMax= 6.13D-05

 Initial convergence to 1.0D-05 achieved.  Increase integral accuracy.
 Cycle  11  Pass 1  IDiag  1:
 E= -1507.90212445455     Delta-E=        0.000072943905 Rises=F Damp=F
 DIIS: error= 3.30D-04 at cycle   1 NSaved=   1.
 NSaved= 1 IEnMin= 1 EnMin= -1507.90212445455     IErMin= 1 ErrMin= 3.30D-04
 ErrMax= 3.30D-04  0.00D+00 EMaxC= 1.00D-01 BMatC= 9.71D-05 BMatP= 9.71D-05
 IDIUse=3 WtCom= 9.97D-01 WtEn= 3.30D-03
 Coeff-Com:  0.100D+01
 Coeff-En:   0.100D+01
 Coeff:      0.100D+01
 Gap=     0.149 Goal=   None    Shift=    0.000
 RMSDP=5.12D-06 MaxDP=6.86D-04 DE= 7.29D-05 OVMax= 1.07D-03

 Cycle  12  Pass 1  IDiag  1:
 RMSU=  6.06D-04    CP:  9.90D-01
 E= -1507.90218639201     Delta-E=       -0.000061937459 Rises=F Damp=F
 DIIS: error= 1.28D-05 at cycle   2 NSaved=   2.
 NSaved= 2 IEnMin= 2 EnMin= -1507.90218639201     IErMin= 2 ErrMin= 1.28D-05
 ErrMax= 1.28D-05  0.00D+00 EMaxC= 1.00D-01 BMatC= 1.38D-07 BMatP= 9.71D-05
 IDIUse=1 WtCom= 1.00D+00 WtEn= 0.00D+00
 Coeff-Com: -0.151D-01 0.102D+01
 Coeff:     -0.151D-01 0.102D+01
 Gap=     0.149 Goal=   None    Shift=    0.000
 RMSDP=2.32D-05 MaxDP=2.27D-03 DE=-6.19D-05 OVMax= 5.39D-04

 Cycle  13  Pass 1  IDiag  1:
 RMSU=  8.85D-06    CP:  9.90D-01  1.04D+00
 E= -1507.90218634438     Delta-E=        0.000000047630 Rises=F Damp=F
 DIIS: error= 1.60D-05 at cycle   3 NSaved=   3.
 NSaved= 3 IEnMin= 2 EnMin= -1507.90218639201     IErMin= 2 ErrMin= 1.28D-05
 ErrMax= 1.60D-05  0.00D+00 EMaxC= 1.00D-01 BMatC= 2.48D-07 BMatP= 1.38D-07
 IDIUse=1 WtCom= 1.00D+00 WtEn= 0.00D+00
 Coeff-Com: -0.103D-01 0.611D+00 0.400D+00
 Coeff:     -0.103D-01 0.611D+00 0.400D+00
 Gap=     0.149 Goal=   None    Shift=    0.000
 RMSDP=1.04D-06 MaxDP=6.35D-05 DE= 4.76D-08 OVMax= 1.92D-04

 Cycle  14  Pass 1  IDiag  1:
 RMSU=  9.89D-07    CP:  9.90D-01  1.04D+00  1.00D+00
 E= -1507.90218660113     Delta-E=       -0.000000256754 Rises=F Damp=F
 DIIS: error= 1.43D-06 at cycle   4 NSaved=   4.
 NSaved= 4 IEnMin= 4 EnMin= -1507.90218660113     IErMin= 4 ErrMin= 1.43D-06
 ErrMax= 1.43D-06  0.00D+00 EMaxC= 1.00D-01 BMatC= 1.11D-09 BMatP= 1.38D-07
 IDIUse=1 WtCom= 1.00D+00 WtEn= 0.00D+00
 Coeff-Com:  0.211D-03-0.233D-01 0.181D-02 0.102D+01
 Coeff:      0.211D-03-0.233D-01 0.181D-02 0.102D+01
 Gap=     0.149 Goal=   None    Shift=    0.000
 RMSDP=6.49D-07 MaxDP=5.61D-05 DE=-2.57D-07 OVMax= 9.83D-05

 Cycle  15  Pass 1  IDiag  1:
 RMSU=  3.11D-07    CP:  9.90D-01  1.04D+00  1.04D+00  1.01D+00
 E= -1507.90218660635     Delta-E=       -0.000000005223 Rises=F Damp=F
 DIIS: error= 6.28D-07 at cycle   5 NSaved=   5.
 NSaved= 5 IEnMin= 5 EnMin= -1507.90218660635     IErMin= 5 ErrMin= 6.28D-07
 ErrMax= 6.28D-07  0.00D+00 EMaxC= 1.00D-01 BMatC= 1.02D-09 BMatP= 1.11D-09
 IDIUse=1 WtCom= 1.00D+00 WtEn= 0.00D+00
 Coeff-Com:  0.805D-03-0.530D-01-0.413D-01 0.501D+00 0.593D+00
 Coeff:      0.805D-03-0.530D-01-0.413D-01 0.501D+00 0.593D+00
 Gap=     0.149 Goal=   None    Shift=    0.000
 RMSDP=1.20D-07 MaxDP=1.05D-05 DE=-5.22D-09 OVMax= 2.78D-05

 Cycle  16  Pass 1  IDiag  1:
 RMSU=  7.61D-08    CP:  9.90D-01  1.04D+00  1.05D+00  1.02D+00  1.22D+00
 E= -1507.90218660802     Delta-E=       -0.000000001672 Rises=F Damp=F
 DIIS: error= 3.39D-07 at cycle   6 NSaved=   6.
 NSaved= 6 IEnMin= 6 EnMin= -1507.90218660802     IErMin= 6 ErrMin= 3.39D-07
 ErrMax= 3.39D-07  0.00D+00 EMaxC= 1.00D-01 BMatC= 1.61D-10 BMatP= 1.02D-09
 IDIUse=1 WtCom= 1.00D+00 WtEn= 0.00D+00
 Coeff-Com:  0.937D-04-0.323D-02-0.255D-01-0.192D+00 0.837D-01 0.114D+01
 Coeff:      0.937D-04-0.323D-02-0.255D-01-0.192D+00 0.837D-01 0.114D+01
 Gap=     0.149 Goal=   None    Shift=    0.000
 RMSDP=1.30D-07 MaxDP=1.47D-05 DE=-1.67D-09 OVMax= 3.74D-05

 Cycle  17  Pass 1  IDiag  1:
 RMSU=  5.13D-08    CP:  9.90D-01  1.04D+00  1.05D+00  1.02D+00  1.56D+00
                    CP:  1.58D+00
 E= -1507.90218660860     Delta-E=       -0.000000000576 Rises=F Damp=F
 DIIS: error= 1.57D-07 at cycle   7 NSaved=   7.
 NSaved= 7 IEnMin= 7 EnMin= -1507.90218660860     IErMin= 7 ErrMin= 1.57D-07
 ErrMax= 1.57D-07  0.00D+00 EMaxC= 1.00D-01 BMatC= 5.04D-11 BMatP= 1.61D-10
 IDIUse=1 WtCom= 1.00D+00 WtEn= 0.00D+00
 Coeff-Com: -0.861D-04 0.732D-02-0.989D-02-0.189D+00-0.491D-01 0.663D+00
 Coeff-Com:  0.578D+00
 Coeff:     -0.861D-04 0.732D-02-0.989D-02-0.189D+00-0.491D-01 0.663D+00
 Coeff:      0.578D+00
 Gap=     0.149 Goal=   None    Shift=    0.000
 RMSDP=3.19D-08 MaxDP=3.35D-06 DE=-5.76D-10 OVMax= 1.00D-05

 Cycle  18  Pass 1  IDiag  1:
 RMSU=  1.15D-08    CP:  9.90D-01  1.04D+00  1.05D+00  1.02D+00  1.63D+00
                    CP:  1.78D+00  1.21D+00
 E= -1507.90218660870     Delta-E=       -0.000000000098 Rises=F Damp=F
 DIIS: error= 3.18D-08 at cycle   8 NSaved=   8.
 NSaved= 8 IEnMin= 8 EnMin= -1507.90218660870     IErMin= 8 ErrMin= 3.18D-08
 ErrMax= 3.18D-08  0.00D+00 EMaxC= 1.00D-01 BMatC= 2.42D-12 BMatP= 5.04D-11
 IDIUse=1 WtCom= 1.00D+00 WtEn= 0.00D+00
 Coeff-Com: -0.413D-04 0.293D-02-0.977D-03-0.421D-01-0.284D-01 0.930D-01
 Coeff-Com:  0.196D+00 0.780D+00
 Coeff:     -0.413D-04 0.293D-02-0.977D-03-0.421D-01-0.284D-01 0.930D-01
 Coeff:      0.196D+00 0.780D+00
 Gap=     0.149 Goal=   None    Shift=    0.000
 RMSDP=1.06D-08 MaxDP=9.17D-07 DE=-9.78D-11 OVMax= 2.95D-06

 Cycle  19  Pass 1  IDiag  1:
 RMSU=  4.28D-09    CP:  9.90D-01  1.04D+00  1.05D+00  1.02D+00  1.65D+00
                    CP:  1.84D+00  1.32D+00  1.11D+00
 E= -1507.90218660869     Delta-E=        0.000000000010 Rises=F Damp=F
 DIIS: error= 1.99D-08 at cycle   9 NSaved=   9.
 NSaved= 9 IEnMin= 8 EnMin= -1507.90218660870     IErMin= 9 ErrMin= 1.99D-08
 ErrMax= 1.99D-08  0.00D+00 EMaxC= 1.00D-01 BMatC= 4.55D-13 BMatP= 2.42D-12
 IDIUse=1 WtCom= 1.00D+00 WtEn= 0.00D+00
 Coeff-Com: -0.654D-05 0.294D-03 0.854D-03 0.760D-02-0.622D-02-0.500D-01
 Coeff-Com: -0.139D-02 0.334D+00 0.715D+00
 Coeff:     -0.654D-05 0.294D-03 0.854D-03 0.760D-02-0.622D-02-0.500D-01
 Coeff:     -0.139D-02 0.334D+00 0.715D+00
 Gap=     0.149 Goal=   None    Shift=    0.000
 RMSDP=4.23D-09 MaxDP=6.10D-07 DE= 9.55D-12 OVMax= 1.02D-06

 SCF Done:  E(RM062X) =  -1507.90218661     A.U. after   19 cycles
            NFock= 19  Conv=0.42D-08     -V/T= 2.0037
 KE= 1.502299949946D+03 PE=-8.533041010152D+03 EE= 3.025020239641D+03
 Leave Link  502 at Sat Aug 13 20:43:33 2022, MaxMem=  2684354560 cpu:            8819.0 elap:             552.0
 (Enter /storage/apps/GAUSSIAN/G16_RevA03/g16/l601.exe)
 Copying SCF densities to generalized density rwf, IOpCl= 0 IROHF=0.

 **********************************************************************

            Population analysis using the SCF density.

 **********************************************************************

 Orbital symmetries:
       Occupied  (A) (A) (A) (A) (A) (A) (A) (A) (A) (A) (A) (A)
                 (A) (A) (A) (A) (A) (A) (A) (A) (A) (A) (A) (A)
                 (A) (A) (A) (A) (A) (A) (A) (A) (A) (A) (A) (A)
                 (A) (A) (A) (A) (A) (A) (A) (A) (A) (A) (A) (A)
                 (A) (A) (A) (A) (A) (A) (A) (A) (A) (A) (A) (A)
                 (A) (A) (A) (A) (A) (A) (A) (A) (A) (A) (A) (A)
                 (A) (A) (A) (A) (A) (A) (A) (A) (A) (A) (A) (A)
                 (A) (A) (A) (A) (A) (A) (A) (A) (A) (A) (A)
       Virtual   (A) (A) (A) (A) (A) (A) (A) (A) (A) (A) (A) (A)
                 (A) (A) (A) (A) (A) (A) (A) (A) (A) (A) (A) (A)
                 (A) (A) (A) (A) (A) (A) (A) (A) (A) (A) (A) (A)
                 (A) (A) (A) (A) (A) (A) (A) (A) (A) (A) (A) (A)
                 (A) (A) (A) (A) (A) (A) (A) (A) (A) (A) (A) (A)
                 (A) (A) (A) (A) (A) (A) (A) (A) (A) (A) (A) (A)
                 (A) (A) (A) (A) (A) (A) (A) (A) (A) (A) (A) (A)
                 (A) (A) (A) (A) (A) (A) (A) (A) (A) (A) (A) (A)
                 (A) (A) (A) (A) (A) (A) (A) (A) (A) (A) (A) (A)
                 (A) (A) (A) (A) (A) (A) (A) (A) (A) (A) (A) (A)
                 (A) (A) (A) (A) (A) (A) (A) (A) (A) (A) (A) (A)
                 (A) (A) (A) (A) (A) (A) (A) (A) (A) (A) (A) (A)
                 (A) (A) (A) (A) (A) (A) (A) (A) (A) (A) (A) (A)
                 (A) (A) (A) (A) (A) (A) (A) (A) (A) (A) (A) (A)
                 (A) (A) (A) (A) (A) (A) (A) (A) (A) (A) (A) (A)
                 (A) (A) (A) (A) (A) (A) (A) (A) (A) (A) (A) (A)
                 (A) (A) (A) (A) (A) (A) (A) (A) (A) (A) (A) (A)
                 (A) (A) (A) (A) (A) (A) (A) (A) (A) (A) (A) (A)
                 (A) (A) (A) (A) (A) (A) (A) (A) (A) (A) (A) (A)
                 (A) (A) (A) (A) (A) (A) (A) (A) (A) (A) (A) (A)
                 (A) (A) (A) (A) (A) (A) (A) (A) (A) (A) (A) (A)
                 (A) (A) (A) (A) (A) (A) (A) (A) (A) (A) (A) (A)
                 (A) (A) (A) (A) (A) (A) (A) (A) (A) (A) (A) (A)
                 (A) (A) (A) (A) (A) (A) (A) (A) (A) (A) (A) (A)
                 (A) (A) (A) (A) (A) (A) (A) (A) (A) (A) (A) (A)
                 (A) (A) (A) (A) (A) (A) (A) (A) (A) (A) (A) (A)
                 (A) (A) (A) (A) (A) (A) (A) (A) (A) (A) (A) (A)
                 (A) (A) (A) (A) (A) (A) (A) (A) (A) (A) (A) (A)
                 (A) (A) (A) (A) (A) (A) (A) (A) (A) (A) (A) (A)
                 (A) (A) (A) (A) (A) (A) (A) (A) (A) (A) (A) (A)
                 (A) (A) (A) (A) (A) (A) (A) (A) (A) (A) (A) (A)
                 (A) (A) (A) (A) (A) (A) (A) (A) (A) (A) (A) (A)
                 (A) (A) (A) (A) (A) (A) (A) (A) (A) (A) (A) (A)
                 (A) (A) (A) (A) (A) (A) (A) (A) (A) (A) (A) (A)
                 (A) (A) (A) (A) (A) (A) (A) (A) (A) (A) (A) (A)
                 (A) (A) (A) (A) (A) (A) (A) (A) (A) (A) (A) (A)
                 (A) (A) (A) (A) (A) (A) (A) (A) (A) (A) (A) (A)
                 (A) (A) (A) (A) (A) (A) (A) (A) (A) (A) (A) (A)
                 (A) (A) (A) (A) (A) (A) (A) (A) (A) (A) (A) (A)
                 (A) (A) (A) (A) (A) (A) (A) (A) (A) (A) (A) (A)
                 (A) (A) (A) (A) (A) (A) (A) (A) (A) (A) (A) (A)
                 (A) (A) (A) (A) (A) (A) (A) (A) (A) (A) (A) (A)
                 (A) (A) (A) (A) (A) (A) (A) (A) (A) (A) (A) (A)
                 (A) (A) (A) (A) (A) (A) (A) (A) (A) (A) (A) (A)
                 (A) (A) (A) (A) (A) (A) (A) (A) (A) (A) (A) (A)
                 (A) (A) (A) (A) (A) (A) (A) (A) (A) (A) (A) (A)
                 (A) (A) (A) (A) (A) (A) (A) (A) (A) (A) (A) (A)
                 (A) (A) (A) (A) (A) (A) (A) (A) (A) (A) (A) (A)
                 (A) (A) (A) (A) (A) (A) (A) (A) (A) (A) (A) (A)
                 (A) (A) (A) (A) (A) (A) (A) (A) (A) (A) (A) (A)
                 (A) (A) (A) (A) (A) (A) (A) (A) (A) (A) (A) (A)
                 (A) (A) (A) (A) (A) (A) (A) (A) (A) (A) (A) (A)
                 (A) (A) (A) (A) (A) (A) (A) (A) (A) (A) (A) (A)
                 (A) (A) (A) (A) (A) (A) (A) (A) (A) (A) (A) (A)
                 (A) (A) (A) (A) (A) (A) (A) (A) (A) (A) (A) (A)
                 (A) (A) (A) (A) (A) (A) (A) (A) (A) (A) (A) (A)
                 (A) (A) (A) (A) (A) (A) (A) (A) (A) (A) (A) (A)
                 (A) (A) (A) (A) (A) (A) (A) (A) (A) (A) (A) (A)
                 (A) (A) (A) (A) (A) (A) (A) (A) (A) (A) (A) (A)
                 (A) (A) (A) (A) (A) (A) (A) (A) (A) (A) (A) (A)
                 (A) (A) (A) (A) (A) (A) (A) (A) (A) (A) (A) (A)
                 (A) (A) (A) (A) (A) (A) (A) (A) (A) (A) (A) (A)
                 (A) (A) (A) (A) (A) (A) (A) (A) (A) (A) (A) (A)
                 (A) (A) (A) (A) (A) (A) (A) (A) (A) (A) (A) (A)
                 (A) (A) (A) (A) (A) (A) (A) (A) (A) (A) (A) (A)
                 (A) (A) (A) (A) (A) (A) (A) (A) (A) (A) (A) (A)
                 (A) (A) (A) (A) (A) (A) (A)
 The electronic state is 1-A.
 Alpha  occ. eigenvalues --  -89.86960 -19.66443 -19.63257 -19.61861 -19.61083
 Alpha  occ. eigenvalues --  -19.57213 -14.87693 -14.77839 -10.66518 -10.66204
 Alpha  occ. eigenvalues --  -10.64103 -10.63195 -10.61149 -10.61107 -10.60580
 Alpha  occ. eigenvalues --  -10.60474 -10.59550 -10.59500 -10.59386 -10.55087
 Alpha  occ. eigenvalues --  -10.53792 -10.52410 -10.52358 -10.49399  -8.22864
 Alpha  occ. eigenvalues --   -6.14832  -6.14605  -6.14340  -1.22377  -1.18407
 Alpha  occ. eigenvalues --   -1.17053  -1.15487  -1.13970  -1.10742  -1.03164
 Alpha  occ. eigenvalues --   -0.97633  -0.93072  -0.90627  -0.88264  -0.87645
 Alpha  occ. eigenvalues --   -0.85600  -0.81447  -0.80519  -0.79225  -0.76789
 Alpha  occ. eigenvalues --   -0.73200  -0.72024  -0.69903  -0.69149  -0.67081
 Alpha  occ. eigenvalues --   -0.66172  -0.64061  -0.62860  -0.62218  -0.61122
 Alpha  occ. eigenvalues --   -0.60054  -0.58277  -0.57856  -0.57401  -0.56149
 Alpha  occ. eigenvalues --   -0.55808  -0.54286  -0.53105  -0.52728  -0.51974
 Alpha  occ. eigenvalues --   -0.51822  -0.51079  -0.50219  -0.50142  -0.48787
 Alpha  occ. eigenvalues --   -0.48551  -0.48196  -0.47744  -0.47190  -0.46223
 Alpha  occ. eigenvalues --   -0.45703  -0.45604  -0.44896  -0.44048  -0.43375
 Alpha  occ. eigenvalues --   -0.43119  -0.40682  -0.39688  -0.38790  -0.37909
 Alpha  occ. eigenvalues --   -0.37444  -0.37164  -0.36780  -0.36608  -0.36148
 Alpha  occ. eigenvalues --   -0.34873  -0.34319  -0.29421  -0.28127  -0.21349
 Alpha virt. eigenvalues --   -0.06427  -0.03997   0.03725   0.04674   0.05191
 Alpha virt. eigenvalues --    0.06241   0.07077   0.07276   0.08167   0.08866
 Alpha virt. eigenvalues --    0.09344   0.10063   0.10292   0.10738   0.11290
 Alpha virt. eigenvalues --    0.11459   0.11951   0.12597   0.12900   0.13252
 Alpha virt. eigenvalues --    0.13767   0.14016   0.14329   0.14555   0.15196
 Alpha virt. eigenvalues --    0.15439   0.15560   0.16239   0.16338   0.16734
 Alpha virt. eigenvalues --    0.17585   0.17685   0.18551   0.18897   0.19540
 Alpha virt. eigenvalues --    0.20696   0.20900   0.21404   0.21595   0.22178
 Alpha virt. eigenvalues --    0.22784   0.23047   0.23520   0.23671   0.24150
 Alpha virt. eigenvalues --    0.24699   0.25425   0.25676   0.25813   0.26154
 Alpha virt. eigenvalues --    0.26652   0.27151   0.27719   0.28134   0.28787
 Alpha virt. eigenvalues --    0.29102   0.29486   0.29880   0.30412   0.31497
 Alpha virt. eigenvalues --    0.31588   0.31872   0.32546   0.33054   0.33496
 Alpha virt. eigenvalues --    0.33926   0.34536   0.35110   0.35752   0.36123
 Alpha virt. eigenvalues --    0.36709   0.36995   0.37428   0.37589   0.38216
 Alpha virt. eigenvalues --    0.38690   0.39058   0.39409   0.39687   0.39772
 Alpha virt. eigenvalues --    0.40248   0.40587   0.41209   0.41772   0.42015
 Alpha virt. eigenvalues --    0.42719   0.42963   0.43145   0.43713   0.44124
 Alpha virt. eigenvalues --    0.44214   0.44532   0.44990   0.45372   0.45664
 Alpha virt. eigenvalues --    0.45846   0.46230   0.46563   0.46884   0.47561
 Alpha virt. eigenvalues --    0.47751   0.48075   0.48506   0.48824   0.49169
 Alpha virt. eigenvalues --    0.49520   0.49566   0.49923   0.50572   0.50746
 Alpha virt. eigenvalues --    0.51340   0.51496   0.52069   0.52940   0.53368
 Alpha virt. eigenvalues --    0.53675   0.54025   0.54166   0.54812   0.55267
 Alpha virt. eigenvalues --    0.55429   0.55839   0.56015   0.56551   0.57504
 Alpha virt. eigenvalues --    0.58019   0.58822   0.59316   0.59884   0.60075
 Alpha virt. eigenvalues --    0.60637   0.61267   0.61678   0.61748   0.62882
 Alpha virt. eigenvalues --    0.63203   0.63474   0.64497   0.65016   0.65299
 Alpha virt. eigenvalues --    0.65845   0.66006   0.66923   0.67063   0.67407
 Alpha virt. eigenvalues --    0.67744   0.68180   0.68680   0.69446   0.70755
 Alpha virt. eigenvalues --    0.71659   0.71807   0.72392   0.72597   0.73323
 Alpha virt. eigenvalues --    0.74116   0.74522   0.75168   0.75956   0.77095
 Alpha virt. eigenvalues --    0.77322   0.78609   0.79381   0.79959   0.81116
 Alpha virt. eigenvalues --    0.81879   0.81921   0.82209   0.82976   0.83833
 Alpha virt. eigenvalues --    0.84245   0.86003   0.86634   0.87322   0.87443
 Alpha virt. eigenvalues --    0.87615   0.88849   0.89556   0.89754   0.90211
 Alpha virt. eigenvalues --    0.90597   0.91428   0.92080   0.92417   0.92984
 Alpha virt. eigenvalues --    0.93494   0.94575   0.95163   0.95714   0.96063
 Alpha virt. eigenvalues --    0.96533   0.97358   0.98183   0.98915   0.99595
 Alpha virt. eigenvalues --    1.00073   1.01139   1.01747   1.01940   1.02851
 Alpha virt. eigenvalues --    1.03373   1.03642   1.04259   1.05577   1.06409
 Alpha virt. eigenvalues --    1.07047   1.07983   1.08663   1.08879   1.09598
 Alpha virt. eigenvalues --    1.10255   1.10828   1.12169   1.12338   1.13024
 Alpha virt. eigenvalues --    1.14011   1.15036   1.16024   1.16485   1.17388
 Alpha virt. eigenvalues --    1.17841   1.18448   1.18838   1.19177   1.19884
 Alpha virt. eigenvalues --    1.21236   1.21543   1.22818   1.23772   1.24075
 Alpha virt. eigenvalues --    1.24484   1.25951   1.26155   1.27153   1.27929
 Alpha virt. eigenvalues --    1.28555   1.28971   1.29186   1.29778   1.31223
 Alpha virt. eigenvalues --    1.31822   1.32568   1.33439   1.34057   1.34325
 Alpha virt. eigenvalues --    1.35339   1.35989   1.37625   1.39271   1.39620
 Alpha virt. eigenvalues --    1.40220   1.41255   1.42619   1.42699   1.43701
 Alpha virt. eigenvalues --    1.45000   1.45264   1.46179   1.47543   1.50113
 Alpha virt. eigenvalues --    1.50922   1.52121   1.53007   1.53074   1.53159
 Alpha virt. eigenvalues --    1.53988   1.54508   1.54746   1.55164   1.55921
 Alpha virt. eigenvalues --    1.56581   1.56970   1.57093   1.58067   1.58688
 Alpha virt. eigenvalues --    1.59278   1.59470   1.60087   1.60631   1.61139
 Alpha virt. eigenvalues --    1.61335   1.61621   1.62431   1.62936   1.63149
 Alpha virt. eigenvalues --    1.63454   1.64058   1.64533   1.64756   1.65372
 Alpha virt. eigenvalues --    1.65947   1.67163   1.67521   1.68266   1.68654
 Alpha virt. eigenvalues --    1.69450   1.69941   1.70676   1.71399   1.71640
 Alpha virt. eigenvalues --    1.72083   1.72591   1.73171   1.74357   1.74902
 Alpha virt. eigenvalues --    1.75769   1.76716   1.77121   1.77995   1.78121
 Alpha virt. eigenvalues --    1.78423   1.79116   1.79731   1.80547   1.80868
 Alpha virt. eigenvalues --    1.82742   1.83185   1.83888   1.84264   1.84858
 Alpha virt. eigenvalues --    1.86138   1.86384   1.87157   1.88116   1.89104
 Alpha virt. eigenvalues --    1.89362   1.89587   1.90355   1.91390   1.91476
 Alpha virt. eigenvalues --    1.92300   1.93139   1.94313   1.94445   1.94515
 Alpha virt. eigenvalues --    1.95119   1.96409   1.96598   1.97883   1.98180
 Alpha virt. eigenvalues --    1.99112   2.00168   2.00266   2.01398   2.02701
 Alpha virt. eigenvalues --    2.03081   2.03542   2.04159   2.04565   2.04900
 Alpha virt. eigenvalues --    2.05976   2.06644   2.07537   2.08622   2.09430
 Alpha virt. eigenvalues --    2.10220   2.10907   2.11336   2.12469   2.13452
 Alpha virt. eigenvalues --    2.14100   2.14706   2.16425   2.16562   2.17361
 Alpha virt. eigenvalues --    2.17867   2.18695   2.18948   2.19715   2.20281
 Alpha virt. eigenvalues --    2.21174   2.21493   2.22455   2.22792   2.23174
 Alpha virt. eigenvalues --    2.23462   2.24580   2.25027   2.26337   2.26717
 Alpha virt. eigenvalues --    2.27746   2.28157   2.29158   2.29534   2.30094
 Alpha virt. eigenvalues --    2.30914   2.31935   2.32519   2.33824   2.34587
 Alpha virt. eigenvalues --    2.34934   2.35142   2.36050   2.36319   2.37119
 Alpha virt. eigenvalues --    2.37734   2.37783   2.38475   2.38802   2.39721
 Alpha virt. eigenvalues --    2.40459   2.41332   2.42369   2.42588   2.43751
 Alpha virt. eigenvalues --    2.45419   2.45565   2.46051   2.46420   2.47183
 Alpha virt. eigenvalues --    2.47850   2.50037   2.50679   2.51389   2.51820
 Alpha virt. eigenvalues --    2.53675   2.53771   2.54551   2.55410   2.55946
 Alpha virt. eigenvalues --    2.56746   2.57098   2.57828   2.58214   2.58406
 Alpha virt. eigenvalues --    2.59756   2.60098   2.60336   2.61068   2.61535
 Alpha virt. eigenvalues --    2.62276   2.63345   2.63556   2.64188   2.65464
 Alpha virt. eigenvalues --    2.66115   2.66432   2.67087   2.67417   2.68433
 Alpha virt. eigenvalues --    2.69214   2.69517   2.70026   2.70347   2.71218
 Alpha virt. eigenvalues --    2.71832   2.72190   2.73249   2.73857   2.74166
 Alpha virt. eigenvalues --    2.74860   2.76027   2.76845   2.77281   2.78353
 Alpha virt. eigenvalues --    2.79006   2.79482   2.80453   2.80923   2.81957
 Alpha virt. eigenvalues --    2.82160   2.82924   2.83525   2.84011   2.84528
 Alpha virt. eigenvalues --    2.85455   2.86382   2.86510   2.86591   2.87720
 Alpha virt. eigenvalues --    2.88727   2.89709   2.90162   2.90480   2.91758
 Alpha virt. eigenvalues --    2.93191   2.93575   2.93938   2.94711   2.95411
 Alpha virt. eigenvalues --    2.96781   2.97561   2.98373   2.98929   2.99481
 Alpha virt. eigenvalues --    3.00430   3.01506   3.01925   3.02821   3.02937
 Alpha virt. eigenvalues --    3.03802   3.04480   3.05437   3.05837   3.06778
 Alpha virt. eigenvalues --    3.08250   3.08343   3.08770   3.09800   3.09962
 Alpha virt. eigenvalues --    3.10389   3.10840   3.11385   3.12347   3.13014
 Alpha virt. eigenvalues --    3.13319   3.14072   3.14458   3.14960   3.15626
 Alpha virt. eigenvalues --    3.16058   3.16595   3.17396   3.17920   3.18461
 Alpha virt. eigenvalues --    3.19831   3.20173   3.20414   3.20766   3.21057
 Alpha virt. eigenvalues --    3.21850   3.22527   3.23732   3.23953   3.25043
 Alpha virt. eigenvalues --    3.25664   3.26442   3.26702   3.27286   3.28355
 Alpha virt. eigenvalues --    3.28913   3.29837   3.30298   3.30517   3.31402
 Alpha virt. eigenvalues --    3.32099   3.32517   3.33031   3.33584   3.34280
 Alpha virt. eigenvalues --    3.34894   3.35490   3.35864   3.36455   3.37084
 Alpha virt. eigenvalues --    3.38573   3.38860   3.39011   3.40098   3.40478
 Alpha virt. eigenvalues --    3.41156   3.41500   3.41901   3.42766   3.43335
 Alpha virt. eigenvalues --    3.44048   3.44584   3.44915   3.45557   3.45965
 Alpha virt. eigenvalues --    3.46524   3.47638   3.48253   3.48849   3.49991
 Alpha virt. eigenvalues --    3.50060   3.51390   3.52779   3.53133   3.54009
 Alpha virt. eigenvalues --    3.54423   3.55075   3.56009   3.56450   3.56814
 Alpha virt. eigenvalues --    3.57594   3.58235   3.59017   3.59713   3.60058
 Alpha virt. eigenvalues --    3.60752   3.61763   3.62542   3.63981   3.64600
 Alpha virt. eigenvalues --    3.66286   3.66802   3.67260   3.68831   3.70073
 Alpha virt. eigenvalues --    3.70733   3.71325   3.72792   3.73713   3.74555
 Alpha virt. eigenvalues --    3.76200   3.76471   3.77696   3.78957   3.79608
 Alpha virt. eigenvalues --    3.80217   3.80726   3.82276   3.82889   3.85598
 Alpha virt. eigenvalues --    3.85879   3.86777   3.87798   3.88222   3.89330
 Alpha virt. eigenvalues --    3.91191   3.91700   3.93224   3.94097   3.94488
 Alpha virt. eigenvalues --    3.96719   3.97410   3.97823   3.98210   3.99599
 Alpha virt. eigenvalues --    4.00441   4.01378   4.03831   4.06002   4.07121
 Alpha virt. eigenvalues --    4.08687   4.09782   4.11197   4.12728   4.13607
 Alpha virt. eigenvalues --    4.14277   4.15732   4.16885   4.17834   4.18838
 Alpha virt. eigenvalues --    4.19462   4.20618   4.21083   4.23501   4.24651
 Alpha virt. eigenvalues --    4.26874   4.27174   4.28345   4.29646   4.31190
 Alpha virt. eigenvalues --    4.32189   4.33349   4.34959   4.36483   4.37310
 Alpha virt. eigenvalues --    4.39364   4.40028   4.41085   4.42766   4.43957
 Alpha virt. eigenvalues --    4.44704   4.45918   4.45946   4.47732   4.49809
 Alpha virt. eigenvalues --    4.50598   4.51845   4.55175   4.56959   4.57347
 Alpha virt. eigenvalues --    4.59343   4.60709   4.62900   4.64526   4.67192
 Alpha virt. eigenvalues --    4.67819   4.72524   4.73665   4.75573   4.75972
 Alpha virt. eigenvalues --    4.77855   4.80353   4.80790   4.82481   4.83532
 Alpha virt. eigenvalues --    4.85246   4.86744   4.88927   4.89952   4.90667
 Alpha virt. eigenvalues --    4.92079   4.93332   4.95152   4.97436   4.98017
 Alpha virt. eigenvalues --    4.99881   5.02731   5.04625   5.04962   5.06654
 Alpha virt. eigenvalues --    5.08895   5.13149   5.15597   5.19016   5.20485
 Alpha virt. eigenvalues --    5.21528   5.25139   5.26658   5.27154   5.28122
 Alpha virt. eigenvalues --    5.30650   5.31485   5.32060   5.34623   5.37928
 Alpha virt. eigenvalues --    5.39674   5.42388   5.43274   5.45517   5.47154
 Alpha virt. eigenvalues --    5.48861   5.49374   5.50796   5.53292   5.58223
 Alpha virt. eigenvalues --    5.64430   5.67242   5.72531   5.74576   5.77696
 Alpha virt. eigenvalues --    5.80045   5.81030   5.83485   5.84459   5.86840
 Alpha virt. eigenvalues --    5.89149   5.90602   5.91852   5.94175   5.95610
 Alpha virt. eigenvalues --    5.97413   6.03600   6.06051   6.15249   6.17431
 Alpha virt. eigenvalues --    6.20274   6.22632   6.25877   6.26851   6.38288
 Alpha virt. eigenvalues --    6.41766   6.44310   6.47923   6.49224   6.55273
 Alpha virt. eigenvalues --    6.58953   6.67554   6.73234   6.75249   6.76268
 Alpha virt. eigenvalues --    6.77765   6.80620   6.83973   6.85172   6.87149
 Alpha virt. eigenvalues --    6.89194   6.95390   6.99899   7.07768   7.08926
 Alpha virt. eigenvalues --    7.09660   7.11960   7.16866   7.19385   7.22353
 Alpha virt. eigenvalues --    7.32331   7.40640   9.06447   9.42642   9.59089
 Alpha virt. eigenvalues --   19.82393  22.36386  22.46667  22.49545  22.60021
 Alpha virt. eigenvalues --   22.64924  22.70546  22.74857  22.76310  22.82292
 Alpha virt. eigenvalues --   22.86779  22.95425  22.97460  23.07367  23.18314
 Alpha virt. eigenvalues --   23.29259  23.52028  32.18876  33.16747  44.13974
 Alpha virt. eigenvalues --   44.22761  44.26097  44.35983  44.51490
          Condensed to atoms (all electrons):
               1          2          3          4          5          6
     1  C    5.146548   0.429127   0.412920   0.006851  -0.006660  -0.000250
     2  H    0.429127   0.496433  -0.013882  -0.002284   0.000471  -0.000005
     3  H    0.412920  -0.013882   0.505428  -0.000694   0.000199  -0.000009
     4  C    0.006851  -0.002284  -0.000694   5.596456   0.543041   0.232932
     5  H   -0.006660   0.000471   0.000199   0.543041   0.528073  -0.035268
     6  O   -0.000250  -0.000005  -0.000009   0.232932  -0.035268   8.171608
     7  H   -0.000001  -0.000002  -0.000003  -0.056806  -0.006868   0.307517
     8  C   -0.006614   0.010984  -0.000897  -0.053078  -0.106750  -0.061458
     9  H    0.006958  -0.000300  -0.002016  -0.074629   0.002071   0.001277
    10  O    0.005243  -0.000190  -0.000017   0.050670   0.005639  -0.022299
[...]
 (Enter /storage/apps/GAUSSIAN/G16_RevA03/g16/l716.exe)
 Dipole        =-6.31262728D-01-2.62276642D+00-7.99467673D-01
 ***** Axes restored to original set *****
 -------------------------------------------------------------------
 Center     Atomic                   Forces (Hartrees/Bohr)
 Number     Number              X              Y              Z
 -------------------------------------------------------------------
      1        6          -0.000089863   -0.000012215    0.000142614
      2        1          -0.000010563    0.000016178    0.000007104
      3        1          -0.000012805   -0.000015521    0.000001595
      4        6          -0.000267733    0.000070308    0.000187032
      5        1          -0.000063908    0.000004512    0.000006113
      6        8          -0.000536758    0.000248415   -0.000008435
      7        1          -0.000051669    0.000012503   -0.000020196
      8        6          -0.000280900    0.000013748    0.000262699
      9        1          -0.000029684    0.000007539    0.000039094
     10        8          -0.000407320    0.000165255    0.000154929
     11        1          -0.000039465    0.000007518    0.000025670
     12        6           0.000043731    0.000041392    0.000238716
     13        1           0.000013435    0.000015737   -0.000009534
     14        6          -0.000160187    0.000000429    0.000309288
     15        1          -0.000010824   -0.000001371    0.000028501
     16        8          -0.000045036    0.000029939    0.000306624
     17        7           0.000163494   -0.000082313   -0.000023839
     18        6           0.000887359    0.000165418   -0.000797729
     19        1           0.000051443    0.000004332   -0.000024495
     20        6           0.001798705    0.000235760   -0.002282789
     21        1           0.000198886    0.000048787   -0.000237877
     22        6           0.002387214    0.000226184   -0.002874950
     23        1           0.000186714    0.000038519   -0.000216036
     24        1          -0.000179073   -0.000385854    0.000270591
     25        6           0.000494426   -0.000086267   -0.000555313
     26        6          -0.000158620   -0.000114697    0.000731808
     27        1          -0.000080206   -0.000011429    0.000170835
     28        6          -0.000011619   -0.000137142    0.000028078
     29        8           0.000174655   -0.000316683   -0.000183357
     30        7          -0.000257106   -0.000334698    0.000718804
     31        1          -0.000009616   -0.000015407    0.000084680
     32        1          -0.000031563   -0.000025554    0.000186266
     33        1          -0.000046793   -0.000008272    0.000024387
     34        6          -0.000255944   -0.000062046    0.000108704
     35        6          -0.000032873   -0.000153542   -0.000450586
     36        6          -0.000195702   -0.000616830    0.000145292
     37        6          -0.001910905    0.001578445    0.002774267
     38        6          -0.001686937   -0.001296057    0.002012883
     39        8           0.001081150    0.000038918   -0.001496007
     40       16           0.000369262    0.000059948   -0.000873911
     41        1          -0.000031286   -0.000016516    0.000002626
     42        1          -0.000003089   -0.000000778    0.000031701
     43        1          -0.000052192    0.000640697    0.000268182
     44        1          -0.000007560   -0.000035551   -0.000068353
     45        1          -0.000419860    0.000015320    0.000591619
     46        1          -0.000370995    0.000129782    0.000180188
     47        1          -0.000072371   -0.000073757    0.000106251
     48        1          -0.000029450   -0.000013088   -0.000023732
 -------------------------------------------------------------------
 Cartesian Forces:  Max     0.002874950 RMS     0.000625799
 Leave Link  716 at Sat Aug 13 20:46:54 2022, MaxMem=  2684354560 cpu:               0.4 elap:               0.0
 (Enter /storage/apps/GAUSSIAN/G16_RevA03/g16/l103.exe)

 GradGradGradGradGradGradGradGradGradGradGradGradGradGradGradGradGradGrad
 Berny optimization.
 Search for a local minimum.
 Step number   1 out of a maximum of    2
 All quantities printed in internal units (Hartrees-Bohrs-Radians)
 Second derivative matrix not updated -- first step.
 ITU=  0
     Eigenvalues ---    0.00025   0.00089   0.00107   0.00128   0.00184
     Eigenvalues ---    0.00218   0.00320   0.00360   0.00449   0.00491
     Eigenvalues ---    0.00611   0.00617   0.00807   0.00925   0.00957
     Eigenvalues ---    0.00973   0.01116   0.01167   0.01369   0.01507
     Eigenvalues ---    0.01720   0.02155   0.02350   0.02433   0.02677
     Eigenvalues ---    0.03031   0.03128   0.03308   0.03726   0.04265
     Eigenvalues ---    0.04400   0.04604   0.04822   0.05015   0.05257
     Eigenvalues ---    0.05324   0.05536   0.05741   0.05826   0.05974
     Eigenvalues ---    0.06166   0.06301   0.06469   0.06843   0.07039
     Eigenvalues ---    0.07056   0.07129   0.07668   0.08068   0.08334
     Eigenvalues ---    0.08611   0.08778   0.09276   0.09356   0.10249
     Eigenvalues ---    0.10756   0.10836   0.11200   0.12267   0.12563
     Eigenvalues ---    0.12831   0.13079   0.13240   0.13297   0.13700
     Eigenvalues ---    0.13866   0.14049   0.15491   0.16150   0.16522
     Eigenvalues ---    0.17468   0.18139   0.18681   0.19300   0.19855
     Eigenvalues ---    0.20322   0.20677   0.21267   0.21937   0.22520
     Eigenvalues ---    0.25163   0.26072   0.27071   0.28020   0.30621
     Eigenvalues ---    0.33186   0.33575   0.34046   0.34747   0.37694
     Eigenvalues ---    0.37881   0.37881   0.37881   0.37881   0.40135
     Eigenvalues ---    0.43716   0.48159   0.48935   0.57100   0.59327
     Eigenvalues ---    0.59954   0.61750   0.69593   0.72287   0.73678
     Eigenvalues ---    0.79314   0.81187   0.82719   0.87469   0.90870
     Eigenvalues ---    0.91268   0.92139   0.93029   0.93452   0.95414
     Eigenvalues ---    0.96746   0.99998   1.00639   1.02274   1.04157
     Eigenvalues ---    1.05997   1.08556   1.11591   1.12421   1.12602
     Eigenvalues ---    1.20485   1.20810   1.27452   1.27705   1.29504
     Eigenvalues ---    1.32964   1.37189   1.43756   1.55373   1.72680
     Eigenvalues ---    1.83151   1.89448   2.35250
 Quadratic step=7.647D+00 exceeds max=3.000D-01 adjusted using Lamda=-8.865D-03.
 Angle between NR and scaled steps=  40.65 degrees.
 Angle between quadratic step and forces=  55.44 degrees.
 Linear search not attempted -- first point.
 Variable       Old X    -DE/DX   Delta X   Delta X   Delta X     New X
                                 (Linear)    (Quad)   (Total)
    X1        6.79970  -0.00009   0.00000  -0.02460  -0.02460   6.77510
    Y1       -6.83300  -0.00001   0.00000  -0.01496  -0.01496  -6.84796
    Z1       -0.83754   0.00014   0.00000   0.01430   0.01430  -0.82323
    X2        7.08457  -0.00001   0.00000  -0.02817  -0.02817   7.05640
    Y2       -7.01105   0.00002   0.00000  -0.01942  -0.01942  -7.03047
    Z2       -2.86843   0.00001   0.00000   0.01362   0.01362  -2.85480
    X3        8.19101  -0.00001   0.00000  -0.02074  -0.02074   8.17027
    Y3       -8.00684  -0.00002   0.00000  -0.01381  -0.01381  -8.02065
    Z3        0.12731   0.00000   0.00000   0.01072   0.01072   0.13802
    X4        3.51416  -0.00027   0.00000  -0.00644  -0.00644   3.50771
    Y4       -2.71633   0.00007   0.00000   0.01224   0.01224  -2.70409
    Z4        2.34966   0.00019   0.00000   0.01444   0.01444   2.36410
    X5        2.28931  -0.00006   0.00000  -0.01038  -0.01038   2.27893
    Y5       -4.36611   0.00000   0.00000   0.01423   0.01423  -4.35188
    Z5        2.05746   0.00001   0.00000   0.02165   0.02165   2.07911
    X6        2.76177  -0.00054   0.00000   0.00175   0.00175   2.76352
    Y6       -1.28049   0.00025   0.00000   0.02683   0.02683  -1.25366
    Z6        4.39399  -0.00001   0.00000   0.00776   0.00776   4.40175
    X7        0.98610  -0.00005   0.00000   0.00578   0.00578   0.99188
    Y7       -0.69702   0.00001   0.00000   0.03410   0.03410  -0.66291
    Z7        4.08679  -0.00002   0.00000   0.00141   0.00141   4.08820
    X8        6.26344  -0.00028   0.00000  -0.00714  -0.00714   6.25629
    Y8       -3.56044   0.00001   0.00000   0.00500   0.00500  -3.55545
    Z8        2.66392   0.00026   0.00000   0.00727   0.00727   2.67119
    X9        6.42145  -0.00003   0.00000  -0.00198  -0.00198   6.41947
    Y9       -5.23387   0.00001   0.00000   0.01117   0.01117  -5.22271
    Z9        3.86838   0.00004   0.00000   0.01479   0.01479   3.88317
   X10        7.70315  -0.00041   0.00000   0.00235   0.00235   7.70550
   Y10       -1.54276   0.00017   0.00000   0.00874   0.00874  -1.53402
   Z10        3.61880   0.00015   0.00000  -0.01536  -0.01536   3.60344
   X11        6.66940  -0.00004   0.00000   0.01358   0.01358   6.68298
   Y11       -0.71297   0.00001   0.00000   0.01995   0.01995  -0.69302
   Z11        4.87878   0.00003   0.00000  -0.01425  -0.01425   4.86453
   X12        3.73156   0.00004   0.00000  -0.00655  -0.00655   3.72501
   Y12       -1.24537   0.00004   0.00000   0.00018   0.00018  -1.24519
   Z12       -0.14775   0.00024   0.00000   0.00826   0.00826  -0.13949
   X13        4.27022   0.00001   0.00000   0.00510   0.00510   4.27533
   Y13        0.71236   0.00002   0.00000  -0.00032  -0.00032   0.71204
   Z13        0.22858  -0.00001   0.00000  -0.00559  -0.00559   0.22299
   X14        7.09000  -0.00016   0.00000  -0.01856  -0.01856   7.07143
   Y14       -4.10020   0.00000   0.00000  -0.01272  -0.01272  -4.11293
   Z14       -0.04150   0.00031   0.00000   0.00678   0.00678  -0.03472
   X15        9.03189  -0.00001   0.00000  -0.01724  -0.01724   9.01465
   Y15       -3.46087  -0.00000   0.00000  -0.01893  -0.01893  -3.47979
   Z15       -0.29782   0.00003   0.00000  -0.00535  -0.00535  -0.30317
   X16        5.50342  -0.00005   0.00000  -0.01924  -0.01924   5.48418
   Y16       -2.52541   0.00003   0.00000  -0.01449  -0.01449  -2.53991
   Z16       -1.61390   0.00031   0.00000   0.00748   0.00748  -1.60642
   X17        1.36259   0.00016   0.00000  -0.00257  -0.00257   1.36002
   Y17       -1.13649  -0.00008   0.00000  -0.00079  -0.00079  -1.13728
   Z17       -1.62446  -0.00002   0.00000   0.00508   0.00508  -1.61938
   X18        0.38947   0.00089   0.00000   0.02198   0.02198   0.41145
   Y18       -3.33250   0.00017   0.00000   0.00180   0.00180  -3.33069
   Z18       -2.52331  -0.00080   0.00000  -0.02663  -0.02663  -2.54995
   X19        1.45549   0.00005   0.00000   0.02162   0.02162   1.47711
   Y19       -5.01745   0.00000   0.00000   0.00297   0.00297  -5.01448
   Z19       -2.10281  -0.00002   0.00000  -0.02045  -0.02045  -2.12326
   X20       -1.75535   0.00180   0.00000   0.04808   0.04808  -1.70727
   Y20       -3.31262   0.00024   0.00000   0.00404   0.00404  -3.30858
   Z20       -3.94898  -0.00228   0.00000  -0.06514  -0.06514  -4.01412
   X21       -2.49774   0.00020   0.00000   0.05970   0.05970  -2.43804
   Y21       -5.07285   0.00005   0.00000   0.00521   0.00521  -5.06764
   Z21       -4.66725  -0.00024   0.00000  -0.07952  -0.07952  -4.74677
   X22       -2.95097   0.00239   0.00000   0.04487   0.04487  -2.90610
   Y22       -1.01754   0.00023   0.00000   0.00263   0.00263  -1.01491
   Z22       -4.47006  -0.00287   0.00000  -0.06220  -0.06220  -4.53226
   X23       -4.55365   0.00019   0.00000   0.05605   0.05605  -4.49760
   Y23       -0.96611   0.00004   0.00000   0.00593   0.00593  -0.96019
   Z23       -5.73781  -0.00022   0.00000  -0.07567  -0.07567  -5.81348
   X24       -5.46827  -0.00018   0.00000  -0.01552  -0.01552  -5.48379
   Y24       -1.39833  -0.00039   0.00000  -0.04377  -0.04377  -1.44210
   Z24       -1.80867   0.00027   0.00000   0.04136   0.04136  -1.76731
   X25       -1.92457   0.00049   0.00000   0.00525   0.00525  -1.91932
   Y25        1.21717  -0.00009   0.00000  -0.00312  -0.00312   1.21406
   Z25       -3.52046  -0.00056   0.00000  -0.00694  -0.00694  -3.52740
   X26        0.26379  -0.00016   0.00000  -0.01060  -0.01060   0.25319
   Y26        1.07400  -0.00011   0.00000  -0.00290  -0.00290   1.07110
   Z26       -2.10121   0.00073   0.00000   0.01710   0.01710  -2.08411
   X27        1.12680  -0.00008   0.00000  -0.02266  -0.02266   1.10413
   Y27        2.76767  -0.00001   0.00000  -0.00497  -0.00497   2.76270
   Z27       -1.34423   0.00017   0.00000   0.03586   0.03586  -1.30837
   X28       -2.90500  -0.00001   0.00000  -0.01796  -0.01796  -2.92296
   Y28        3.81054  -0.00014   0.00000  -0.00500  -0.00500   3.80554
   Z28       -4.08890   0.00003   0.00000   0.02923   0.02923  -4.05967
   X29       -1.56881   0.00017   0.00000  -0.02573  -0.02573  -1.59454
   Y29        5.64880  -0.00032   0.00000  -0.00036  -0.00036   5.64845
   Z29       -3.86554  -0.00018   0.00000   0.03363   0.03363  -3.83191
   X30       -5.30958  -0.00026   0.00000  -0.02522  -0.02522  -5.33481
   Y30        3.90087  -0.00033   0.00000  -0.00772  -0.00772   3.89315
   Z30       -5.03634   0.00072   0.00000   0.04868   0.04868  -4.98766
   X31       -6.01806  -0.00001   0.00000  -0.02519  -0.02519  -6.04325
   Y31        5.66441  -0.00002   0.00000  -0.00796  -0.00796   5.65645
   Z31       -5.19231   0.00008   0.00000   0.04681   0.04681  -5.14550
   X32       -6.54528  -0.00003   0.00000  -0.01929  -0.01929  -6.56456
   Y32        2.57897  -0.00003   0.00000  -0.01255  -0.01255   2.56642
   Z32       -4.43527   0.00019   0.00000   0.04722   0.04722  -4.38805
   X33        4.92153  -0.00005   0.00000  -0.02312  -0.02312   4.89841
   Y33       -7.55152  -0.00001   0.00000  -0.01353  -0.01353  -7.56505
   Z33       -0.36919   0.00002   0.00000   0.01984   0.01984  -0.34935
   X34        0.37989  -0.00026   0.00000  -0.00970  -0.00970   0.37018
   Y34        4.15682  -0.00006   0.00000   0.00593   0.00593   4.16275
   Z34        5.37971   0.00011   0.00000   0.00541   0.00541   5.38513
   X35       -3.14120  -0.00003   0.00000   0.02742   0.02742  -3.11378
   Y35        1.69425  -0.00015   0.00000  -0.00552  -0.00552   1.68873
   Z35        2.32938  -0.00045   0.00000  -0.02537  -0.02537   2.30401
   X36       -5.30975  -0.00020   0.00000   0.00735   0.00735  -5.30240
   Y36        1.61412  -0.00062   0.00000  -0.01925  -0.01925   1.59487
   Z36        0.88976   0.00015   0.00000   0.00490   0.00490   0.89466
   X37       -9.21548  -0.00191   0.00000  -0.01181  -0.01181  -9.22729
   Y37       -0.71902   0.00158   0.00000   0.01857   0.01857  -0.70045
   Z37       -0.63819   0.00277   0.00000   0.01487   0.01487  -0.62333
   X38       -6.39863  -0.00169   0.00000  -0.01708  -0.01708  -6.41571
   Y38       -0.78759  -0.00130   0.00000  -0.02057  -0.02057  -0.80816
   Z38       -0.04015   0.00201   0.00000   0.03617   0.03617  -0.00398
   X39       -1.72767   0.00108   0.00000   0.05588   0.05588  -1.67178
   Y39       -0.15501   0.00004   0.00000   0.00727   0.00727  -0.14774
   Z39        2.87447  -0.00150   0.00000  -0.05500  -0.05500   2.81946
   X40       -2.29256   0.00037   0.00000   0.01762   0.01762  -2.27494
   Y40        4.83260   0.00006   0.00000   0.00094   0.00094   4.83354
   Z40        3.39092  -0.00087   0.00000  -0.03189  -0.03189   3.35902
   X41        0.83142  -0.00003   0.00000  -0.02366  -0.02366   0.80776
   Y41        5.91369  -0.00002   0.00000   0.00763   0.00763   5.92132
   Z41        6.34933   0.00000   0.00000   0.00817   0.00817   6.35750
   X42        2.01477  -0.00000   0.00000   0.00454   0.00454   2.01931
   Y42        3.54799  -0.00000   0.00000   0.00561   0.00561   3.55360
   Z42        4.29358   0.00003   0.00000   0.02661   0.02661   4.32019
   X43      -10.35257  -0.00005   0.00000  -0.02963  -0.02963 -10.38220
   Y43       -0.58383   0.00064   0.00000   0.06842   0.06842  -0.51541
   Z43        1.07421   0.00027   0.00000  -0.00483  -0.00483   1.06937
   X44       -9.69206  -0.00001   0.00000   0.03629   0.03629  -9.65577
   Y44        0.91919  -0.00004   0.00000  -0.00009  -0.00009   0.91910
   Z44       -1.80650  -0.00007   0.00000  -0.03244  -0.03244  -1.83895
   X45       -9.79696  -0.00042   0.00000  -0.01878  -0.01878  -9.81574
   Y45       -2.41140   0.00002   0.00000   0.00981   0.00981  -2.40159
   Z45       -1.66329   0.00059   0.00000   0.03067   0.03067  -1.63262
   X46       -5.95072  -0.00037   0.00000  -0.03249  -0.03249  -5.98321
   Y46       -2.32396   0.00013   0.00000  -0.01607  -0.01607  -2.34004
   Z46        1.27096   0.00018   0.00000   0.04369   0.04369   1.31465
   X47       -6.34473  -0.00007   0.00000   0.01410   0.01410  -6.33063
   Y47        3.35991  -0.00007   0.00000  -0.01785  -0.01785   3.34206
   Z47        0.60771   0.00011   0.00000  -0.01008  -0.01008   0.59763
   X48       -0.09467  -0.00003   0.00000  -0.02735  -0.02735  -0.12202
   Y48        2.71563  -0.00001   0.00000   0.00623   0.00623   2.72186
   Z48        6.76722  -0.00002   0.00000  -0.00065  -0.00065   6.76657
         Item               Value     Threshold  Converged?
 Maximum Force            0.002875     0.000450     NO 
 RMS     Force            0.000626     0.000300     NO 
 Maximum Displacement     0.079521     0.001800     NO 
 RMS     Displacement     0.025004     0.001200     NO 
 Predicted change in Energy=-1.038128D-03
 GradGradGradGradGradGradGradGradGradGradGradGradGradGradGradGradGradGrad

 Leave Link  103 at Sat Aug 13 20:46:54 2022, MaxMem=  2684354560 cpu:               0.9 elap:               0.1
 (Enter /storage/apps/GAUSSIAN/G16_RevA03/g16/l9999.exe)

 Test job not archived.
 1\1\GINC-T046\Force\RM062X\def2TZVP\C16H24N2O5S1\LV87696\13-Aug-2022\0
 \\#P M062X/Def2TZVP scf=(direct,conver=8) EmpiricalDispersion=GD3 Forc
 e Charge Prop=(Field,Read)\\Gaussian run\\0,1\C,3.598247,-3.615868,-0.
 443206\H,3.748992,-3.71009,-1.517907\H,4.334495,-4.237036,0.067367\C,1
 .859611,-1.437422,1.243389\H,1.211449,-2.310446,1.088761\O,1.461467,-0
 .677605,2.325197\H,0.521822,-0.368845,2.162637\C,3.314468,-1.884106,1.
 409687\H,3.398085,-2.769647,2.047056\O,4.07633,-0.816396,1.914986\H,3.
 529297,-0.377289,2.58174\C,1.974656,-0.659021,-0.078186\H,2.259705,0.3
 76964,0.120961\C,3.751864,-2.169735,-0.02196\H,4.779469,-1.831411,-0.1
 57601\O,2.912282,-1.336392,-0.85404\N,0.721051,-0.601404,-0.859628\C,0
 .206097,-1.763481,-1.33528\H,0.77021,-2.65512,-1.112761\C,-0.928889,-1
 .752964,-2.089709\H,-1.321748,-2.684437,-2.469804\C,-1.561587,-0.53845
 7,-2.365456\H,-2.40969,-0.511246,-3.036316\H,-2.893685,-0.739966,-0.95
 7106\C,-1.018439,0.644101,-1.862947\C,0.139591,0.568335,-1.111914\H,0.
 596276,1.46459,-0.711334\C,-1.537262,2.016449,-2.163752\O,-0.83018,2.9
 89218,-2.045558\N,-2.809711,2.064251,-2.665115\H,-3.184621,2.997477,-2
 .747652\H,-3.463611,1.364733,-2.347044\H,2.604361,-3.996092,-0.195367\
 C,0.201027,2.199696,2.846822\C,-1.662253,0.89656,1.232655\C,-2.8098,0.
 854158,0.470839\C,-4.876621,-0.380488,-0.337717\C,-3.38601,-0.416775,-
 0.021248\O,-0.914241,-0.082028,1.521102\S,-1.213173,2.557302,1.794395\
 H,0.439971,3.129391,3.359919\H,1.066169,1.877517,2.272064\H,-5.478344,
 -0.308952,0.568446\H,-5.128816,0.486415,-0.955961\H,-5.184327,-1.27605
 7,-0.880175\H,-3.148985,-1.229789,0.672563\H,-3.357488,1.77799,0.32158
 8\H,-0.050098,1.437051,3.581059\\Version=ES64L-G16RevA.03\State=1-A\HF
 =-1507.9021866\RMSD=4.233e-09\RMSF=6.258e-04\Dipole=-0.0720939,-2.2513
 342,-1.6860729\Quadrupole=1.847192,1.2369621,-3.0841541,-3.9052294,9.5
 684286,4.7223407\PG=C01 [X(C16H24N2O5S1)]\\@


 THE REASON MAN'S BEST FRIEND IS A DOG IS BECAUSE
 HE WAGS HIS TAIL INSTEAD OF HIS TONGUE.
 Job cpu time:       0 days  3 hours 21 minutes 55.0 seconds.
 Elapsed time:       0 days  0 hours 12 minutes 38.7 seconds.
 File lengths (MBytes):  RWF=    435 Int=      0 D2E=      0 Chk=     48 Scr=      1
 Normal termination of Gaussian 16 at Sat Aug 13 20:46:54 2022.
