 Entering Gaussian System, Link 0=g16
 Initial command:
 /storage/apps/GAUSSIAN/G16_RevA03/g16/l1.exe "/scratch/tmp/1019315/Gau-132296.inp" -scrdir="/scratch/tmp/1019315/"
 Entering Link 1 = /storage/apps/GAUSSIAN/G16_RevA03/g16/l1.exe PID=    132299.
  
 Copyright (c) 1988,1990,1992,1993,1995,1998,2003,2009,2016,
            Gaussian, Inc.  All Rights Reserved.
  
 This is part of the Gaussian(R) 16 program.  It is based on
 the Gaussian(R) 09 system (copyright 2009, Gaussian, Inc.),
 the Gaussian(R) 03 system (copyright 2003, Gaussian, Inc.),
 the Gaussian(R) 98 system (copyright 1998, Gaussian, Inc.),
 the Gaussian(R) 94 system (copyright 1995, Gaussian, Inc.),
 the Gaussian 92(TM) system (copyright 1992, Gaussian, Inc.),
 the Gaussian 90(TM) system (copyright 1990, Gaussian, Inc.),
 the Gaussian 88(TM) system (copyright 1988, Gaussian, Inc.),
 the Gaussian 86(TM) system (copyright 1986, Carnegie Mellon
 University), and the Gaussian 82(TM) system (copyright 1983,
 Carnegie Mellon University). Gaussian is a federally registered
 trademark of Gaussian, Inc.
  
 This software contains proprietary and confidential information,
 including trade secrets, belonging to Gaussian, Inc.
  
 This software is provided under written license and may be
 used, copied, transmitted, or stored only in accord with that
 written license.
  
 The following legend is applicable only to US Government
 contracts under FAR:
  
                    RESTRICTED RIGHTS LEGEND
  
 Use, reproduction and disclosure by the US Government is
 subject to restrictions as set forth in subparagraphs (a)
 and (c) of the Commercial Computer Software - Restricted
 Rights clause in FAR 52.227-19.
  
 Gaussian, Inc.
 340 Quinnipiac St., Bldg. 40, Wallingford CT 06492
  
  
 ---------------------------------------------------------------
 Warning -- This program may not be used in any manner that
 competes with the business of Gaussian, Inc. or will provide
 assistance to any competitor of Gaussian, Inc.  The licensee
 of this program is prohibited from giving any competitor of
 Gaussian, Inc. access to this program.  By using this program,
 the user acknowledges that Gaussian, Inc. is engaged in the
 business of creating and licensing software in the field of
 computational chemistry and represents and warrants to the
 licensee that it is not a competitor of Gaussian, Inc. and that
 it will not use this program in any manner prohibited above.
 ---------------------------------------------------------------
  

 Cite this work as:
 Gaussian 16, Revision A.03,
 M. J. Frisch, G. W. Trucks, H. B. Schlegel, G. E. Scuseria, 
 M. A. Robb, J. R. Cheeseman, G. Scalmani, V. Barone, 
 G. A. Petersson, H. Nakatsuji, X. Li, M. Caricato, A. V. Marenich, 
 J. Bloino, B. G. Janesko, R. Gomperts, B. Mennucci, H. P. Hratchian, 
 J. V. Ortiz, A. F. Izmaylov, J. L. Sonnenberg, D. Williams-Young, 
 F. Ding, F. Lipparini, F. Egidi, J. Goings, B. Peng, A. Petrone, 
 T. Henderson, D. Ranasinghe, V. G. Zakrzewski, J. Gao, N. Rega, 
 G. Zheng, W. Liang, M. Hada, M. Ehara, K. Toyota, R. Fukuda, 
 J. Hasegawa, M. Ishida, T. Nakajima, Y. Honda, O. Kitao, H. Nakai, 
 T. Vreven, K. Throssell, J. A. Montgomery, Jr., J. E. Peralta, 
 F. Ogliaro, M. J. Bearpark, J. J. Heyd, E. N. Brothers, K. N. Kudin, 
 V. N. Staroverov, T. A. Keith, R. Kobayashi, J. Normand, 
 K. Raghavachari, A. P. Rendell, J. C. Burant, S. S. Iyengar, 
 J. Tomasi, M. Cossi, J. M. Millam, M. Klene, C. Adamo, R. Cammi, 
 J. W. Ochterski, R. L. Martin, K. Morokuma, O. Farkas, 
 J. B. Foresman, and D. J. Fox, Gaussian, Inc., Wallingford CT, 2016.
 
 ******************************************
 Gaussian 16:  ES64L-G16RevA.03 25-Dec-2016
                13-Aug-2022 
 ******************************************
 %NProcShared=16
 Will use up to   16 processors via shared memory.
 %mem=20GB
 ----------------------------------------------------------------------
 #P M062X/Def2TZVP scf=(direct,conver=8) EmpiricalDispersion=GD3 Force 
 Charge Prop=(Field,Read)
 ----------------------------------------------------------------------
 1/10=7,18=10,28=-2,30=1,38=1,125=101/1,3;
 2/12=2,17=6,18=5,29=2,40=1/2;
 3/5=44,7=101,11=2,25=1,30=1,71=1,74=-55,124=31/1,2,3;
 4//1;
 5/5=2,6=8,38=5/2;
 6/7=2,8=2,9=2,10=2,14=2,15=1,28=1/1,2;
 7/7=1,16=-2,29=1/1,2,3,16;
 1/10=7,18=10,28=-2,30=1/3;
 99/12=1/99;
 Leave Link    1 at Sat Aug 13 20:34:15 2022, MaxMem=  2684354560 cpu:               0.7 elap:               0.1
 (Enter /storage/apps/GAUSSIAN/G16_RevA03/g16/l101.exe)
 ------------
 Gaussian run
 ------------
 Symbolic Z-matrix:
 Charge =  0 Multiplicity = 1
 C                     3.59814  -3.61588  -0.44303 
 H                     3.74894  -3.70997  -1.51773 
 H                     4.3344   -4.23708   0.06749 
 C                     1.85932  -1.43734   1.24362 
 H                     1.21112  -2.31034   1.08885 
 O                     1.46101  -0.67739   2.32519 
 H                     0.52136  -0.36837   2.16211 
 C                     3.31417  -1.88409   1.40998 
 H                     3.39776  -2.76956   2.04745 
 O                     4.07599  -0.81629   1.91515 
 H                     3.52886  -0.37705   2.58175 
 C                     1.97469  -0.65899  -0.0779 
 H                     2.25967   0.37701   0.12124 
 C                     3.75171  -2.1698   -0.02162 
 H                     4.77932  -1.83147  -0.15715 
 O                     2.91224  -1.33636  -0.85375 
 N                     0.7212   -0.60144  -0.85967 
 C                     0.20717  -1.76331  -1.33622 
 H                     0.7711   -2.65496  -1.11316 
 C                    -0.92686  -1.75263  -2.09237 
 H                    -1.31911  -2.684    -2.47336 
 C                    -1.55886  -0.53817  -2.36871 
 H                    -2.40733  -0.51077  -3.03919 
 H                    -2.89639  -0.74468  -0.95391 
 C                    -1.01789   0.64393  -1.86354 
 C                     0.13936   0.5682   -1.11108 
 H                     0.59496   1.46427  -0.70877 
 C                    -1.53728   2.01629  -2.1637 
 O                    -0.83005   2.98894  -2.04573 
 N                    -2.80998   2.0639   -2.66438 
 H                    -3.18501   2.99713  -2.74657 
 H                    -3.46356   1.36461  -2.34487 
 H                     2.60427  -3.99621  -0.19525 
 C                     0.2008    2.19962   2.84697 
 C                    -1.66231   0.89636   1.23208 
 C                    -2.81003   0.85346   0.47107 
 C                    -4.87884  -0.37864  -0.33447 
 C                    -3.38799  -0.41811  -0.01908 
 O                    -0.91337  -0.08198   1.51983 
 S                    -1.21302   2.55731   1.79398 
 H                     0.43949   3.12931   3.36021 
 H                     1.06624   1.87751   2.27261 
 H                    -5.47939  -0.30002   0.57211 
 H                    -5.12876   0.48595  -0.95705 
 H                    -5.19027  -1.27603  -0.8719 
 H                    -3.15281  -1.22962   0.676 
 H                    -3.35861   1.77699   0.32292 
 H                    -0.05058   1.43695   3.58109 
 
 ITRead=  0  0  0  0  0  0  0  0  0  0  0  0  0  0  0  0  0  0  0  0
 ITRead=  0  0  0  0  0  0  0  0  0  0  0  0  0  0  0  0  0  0  0  0
 ITRead=  0  0  0  0  0  0  0  0
 MicOpt= -1 -1 -1 -1 -1 -1 -1 -1 -1 -1 -1 -1 -1 -1 -1 -1 -1 -1 -1 -1
 MicOpt= -1 -1 -1 -1 -1 -1 -1 -1 -1 -1 -1 -1 -1 -1 -1 -1 -1 -1 -1 -1
 MicOpt= -1 -1 -1 -1 -1 -1 -1 -1
 NAtoms=     48 NQM=       48 NQMF=       0 NMMI=      0 NMMIF=      0
                NMic=       0 NMicF=      0.
                    Isotopes and Nuclear Properties:
 (Nuclear quadrupole moments (NQMom) in fm**2, nuclear magnetic moments (NMagM)
  in nuclear magnetons)

  Atom         1           2           3           4           5           6           7           8           9          10
 IAtWgt=          12           1           1          12           1          16           1          12           1          16
 AtmWgt=  12.0000000   1.0078250   1.0078250  12.0000000   1.0078250  15.9949146   1.0078250  12.0000000   1.0078250  15.9949146
 NucSpn=           0           1           1           0           1           0           1           0           1           0
 AtZEff=  -0.0000000  -0.0000000  -0.0000000  -0.0000000  -0.0000000  -0.0000000  -0.0000000  -0.0000000  -0.0000000  -0.0000000
 NQMom=    0.0000000   0.0000000   0.0000000   0.0000000   0.0000000   0.0000000   0.0000000   0.0000000   0.0000000   0.0000000
 NMagM=    0.0000000   2.7928460   2.7928460   0.0000000   2.7928460   0.0000000   2.7928460   0.0000000   2.7928460   0.0000000
 AtZNuc=   6.0000000   1.0000000   1.0000000   6.0000000   1.0000000   8.0000000   1.0000000   6.0000000   1.0000000   8.0000000

  Atom        11          12          13          14          15          16          17          18          19          20
 IAtWgt=           1          12           1          12           1          16          14          12           1          12
 AtmWgt=   1.0078250  12.0000000   1.0078250  12.0000000   1.0078250  15.9949146  14.0030740  12.0000000   1.0078250  12.0000000
 NucSpn=           1           0           1           0           1           0           2           0           1           0
 AtZEff=  -0.0000000  -0.0000000  -0.0000000  -0.0000000  -0.0000000  -0.0000000  -0.0000000  -0.0000000  -0.0000000  -0.0000000
 NQMom=    0.0000000   0.0000000   0.0000000   0.0000000   0.0000000   0.0000000   2.0440000   0.0000000   0.0000000   0.0000000
 NMagM=    2.7928460   0.0000000   2.7928460   0.0000000   2.7928460   0.0000000   0.4037610   0.0000000   2.7928460   0.0000000
 AtZNuc=   1.0000000   6.0000000   1.0000000   6.0000000   1.0000000   8.0000000   7.0000000   6.0000000   1.0000000   6.0000000

  Atom        21          22          23          24          25          26          27          28          29          30
 IAtWgt=           1          12           1           1          12          12           1          12          16          14
 AtmWgt=   1.0078250  12.0000000   1.0078250   1.0078250  12.0000000  12.0000000   1.0078250  12.0000000  15.9949146  14.0030740
 NucSpn=           1           0           1           1           0           0           1           0           0           2
 AtZEff=  -0.0000000  -0.0000000  -0.0000000  -0.0000000  -0.0000000  -0.0000000  -0.0000000  -0.0000000  -0.0000000  -0.0000000
 NQMom=    0.0000000   0.0000000   0.0000000   0.0000000   0.0000000   0.0000000   0.0000000   0.0000000   0.0000000   2.0440000
 NMagM=    2.7928460   0.0000000   2.7928460   2.7928460   0.0000000   0.0000000   2.7928460   0.0000000   0.0000000   0.4037610
 AtZNuc=   1.0000000   6.0000000   1.0000000   1.0000000   6.0000000   6.0000000   1.0000000   6.0000000   8.0000000   7.0000000

  Atom        31          32          33          34          35          36          37          38          39          40
 IAtWgt=           1           1           1          12          12          12          12          12          16          32
 AtmWgt=   1.0078250   1.0078250   1.0078250  12.0000000  12.0000000  12.0000000  12.0000000  12.0000000  15.9949146  31.9720718
 NucSpn=           1           1           1           0           0           0           0           0           0           0
 AtZEff=  -0.0000000  -0.0000000  -0.0000000  -0.0000000  -0.0000000  -0.0000000  -0.0000000  -0.0000000  -0.0000000  -0.0000000
 NQMom=    0.0000000   0.0000000   0.0000000   0.0000000   0.0000000   0.0000000   0.0000000   0.0000000   0.0000000   0.0000000
 NMagM=    2.7928460   2.7928460   2.7928460   0.0000000   0.0000000   0.0000000   0.0000000   0.0000000   0.0000000   0.0000000
 AtZNuc=   1.0000000   1.0000000   1.0000000   6.0000000   6.0000000   6.0000000   6.0000000   6.0000000   8.0000000  16.0000000

  Atom        41          42          43          44          45          46          47          48
 IAtWgt=           1           1           1           1           1           1           1           1
 AtmWgt=   1.0078250   1.0078250   1.0078250   1.0078250   1.0078250   1.0078250   1.0078250   1.0078250
 NucSpn=           1           1           1           1           1           1           1           1
 AtZEff=  -0.0000000  -0.0000000  -0.0000000  -0.0000000  -0.0000000  -0.0000000  -0.0000000  -0.0000000
 NQMom=    0.0000000   0.0000000   0.0000000   0.0000000   0.0000000   0.0000000   0.0000000   0.0000000
 NMagM=    2.7928460   2.7928460   2.7928460   2.7928460   2.7928460   2.7928460   2.7928460   2.7928460
 AtZNuc=   1.0000000   1.0000000   1.0000000   1.0000000   1.0000000   1.0000000   1.0000000   1.0000000
 Background charge distribution read from input stream:
 Leave Link  101 at Sat Aug 13 20:34:16 2022, MaxMem=  2684354560 cpu:               2.2 elap:               0.2
 (Enter /storage/apps/GAUSSIAN/G16_RevA03/g16/l103.exe)

 GradGradGradGradGradGradGradGradGradGradGradGradGradGradGradGradGradGrad
 Berny optimization.
 Initialization pass.
 Trust Radius=3.00D-01 FncErr=1.00D-07 GrdErr=1.00D-07 EigMax=2.50D+02 EigMin=1.00D-04
 Number of steps in this run=      2 maximum allowed number of steps=      2.
 GradGradGradGradGradGradGradGradGradGradGradGradGradGradGradGradGradGrad

 Leave Link  103 at Sat Aug 13 20:34:16 2022, MaxMem=  2684354560 cpu:               0.3 elap:               0.0
 (Enter /storage/apps/GAUSSIAN/G16_RevA03/g16/l202.exe)
 ---------------------------------------------------------------------------------------------------
                            Z-MATRIX (ANGSTROMS AND DEGREES)
   CD    Cent   Atom    N1       Length/X        N2       Alpha/Y        N3        Beta/Z          J
 ---------------------------------------------------------------------------------------------------
      1      1  C        0   3.598135         -3.615884         -0.443027
      2      2  H        0   3.748937         -3.709970         -1.517734
      3      3  H        0   4.334400         -4.237078          0.067488
      4      4  C        0   1.859315         -1.437343          1.243619
      5      5  H        0   1.211118         -2.310336          1.088850
      6      6  O        0   1.461013         -0.677393          2.325194
      7      7  H        0   0.521361         -0.368370          2.162114
      8      8  C        0   3.314170         -1.884087          1.409983
      9      9  H        0   3.397761         -2.769559          2.047450
     10     10  O        0   4.075985         -0.816285          1.915147
     11     11  H        0   3.528858         -0.377052          2.581752
     12     12  C        0   1.974690         -0.658986         -0.077898
     13     13  H        0   2.259666          0.377012          0.121235
     14     14  C        0   3.751706         -2.169799         -0.021616
     15     15  H        0   4.779323         -1.831472         -0.157145
     16     16  O        0   2.912243         -1.336361         -0.853750
     17     17  N        0   0.721204         -0.601439         -0.859672
     18     18  C        0   0.207172         -1.763311         -1.336216
     19     19  H        0   0.771101         -2.654957         -1.113164
     20     20  C        0  -0.926864         -1.752625         -2.092368
     21     21  H        0  -1.319109         -2.683996         -2.473359
     22     22  C        0  -1.558856         -0.538172         -2.368705
     23     23  H        0  -2.407329         -0.510766         -3.039187
     24     24  H        0  -2.896394         -0.744675         -0.953907
     25     25  C        0  -1.017889          0.643934         -1.863544
     26     26  C        0   0.139360          0.568200         -1.111083
     27     27  H        0   0.594959          1.464266         -0.708771
     28     28  C        0  -1.537275          2.016292         -2.163698
     29     29  O        0  -0.830053          2.988939         -2.045727
     30     30  N        0  -2.809975          2.063903         -2.664379
     31     31  H        0  -3.185006          2.997125         -2.746571
     32     32  H        0  -3.463555          1.364607         -2.344870
     33     33  H        0   2.604269         -3.996206         -0.195254
     34     34  C        0   0.200803          2.199620          2.846966
     35     35  C        0  -1.662310          0.896358          1.232084
     36     36  C        0  -2.810029          0.853460          0.471073
     37     37  C        0  -4.878835         -0.378635         -0.334473
     38     38  C        0  -3.387993         -0.418112         -0.019082
     39     39  O        0  -0.913371         -0.081977          1.519830
     40     40  S        0  -1.213023          2.557313          1.793980
     41     41  H        0   0.439492          3.129307          3.360210
     42     42  H        0   1.066238          1.877510          2.272607
     43     43  H        0  -5.479389         -0.300017          0.572114
     44     44  H        0  -5.128762          0.485950         -0.957053
     45     45  H        0  -5.190267         -1.276033         -0.871903
     46     46  H        0  -3.152815         -1.229622          0.675996
     47     47  H        0  -3.358608          1.776986          0.322919
     48     48  H        0  -0.050576          1.436946          3.581088
 ---------------------------------------------------------------------------------------------------
                         Z-Matrix orientation:                         
 ---------------------------------------------------------------------
 Center     Atomic      Atomic             Coordinates (Angstroms)
 Number     Number       Type             X           Y           Z
 ---------------------------------------------------------------------
      1          6           0        3.598135   -3.615884   -0.443027
      2          1           0        3.748937   -3.709970   -1.517734
      3          1           0        4.334400   -4.237078    0.067488
      4          6           0        1.859315   -1.437343    1.243619
      5          1           0        1.211118   -2.310336    1.088850
      6          8           0        1.461013   -0.677393    2.325194
      7          1           0        0.521361   -0.368370    2.162114
      8          6           0        3.314170   -1.884087    1.409983
      9          1           0        3.397761   -2.769559    2.047450
     10          8           0        4.075985   -0.816285    1.915147
     11          1           0        3.528858   -0.377052    2.581752
     12          6           0        1.974690   -0.658986   -0.077898
     13          1           0        2.259666    0.377012    0.121235
     14          6           0        3.751706   -2.169799   -0.021616
     15          1           0        4.779323   -1.831472   -0.157145
     16          8           0        2.912243   -1.336361   -0.853750
     17          7           0        0.721204   -0.601439   -0.859672
     18          6           0        0.207172   -1.763311   -1.336216
     19          1           0        0.771101   -2.654957   -1.113164
     20          6           0       -0.926864   -1.752625   -2.092368
     21          1           0       -1.319109   -2.683996   -2.473359
     22          6           0       -1.558856   -0.538172   -2.368705
     23          1           0       -2.407329   -0.510766   -3.039187
     24          1           0       -2.896394   -0.744675   -0.953907
     25          6           0       -1.017889    0.643934   -1.863544
     26          6           0        0.139360    0.568200   -1.111083
     27          1           0        0.594959    1.464266   -0.708771
     28          6           0       -1.537275    2.016292   -2.163698
     29          8           0       -0.830053    2.988939   -2.045727
     30          7           0       -2.809975    2.063903   -2.664379
     31          1           0       -3.185006    2.997125   -2.746571
     32          1           0       -3.463555    1.364607   -2.344870
     33          1           0        2.604269   -3.996206   -0.195254
     34          6           0        0.200803    2.199620    2.846966
     35          6           0       -1.662310    0.896358    1.232084
     36          6           0       -2.810029    0.853460    0.471073
     37          6           0       -4.878835   -0.378635   -0.334473
     38          6           0       -3.387993   -0.418112   -0.019082
     39          8           0       -0.913371   -0.081977    1.519830
     40         16           0       -1.213023    2.557313    1.793980
     41          1           0        0.439492    3.129307    3.360210
     42          1           0        1.066238    1.877510    2.272607
     43          1           0       -5.479389   -0.300017    0.572114
     44          1           0       -5.128762    0.485950   -0.957053
     45          1           0       -5.190267   -1.276033   -0.871903
     46          1           0       -3.152815   -1.229622    0.675996
     47          1           0       -3.358608    1.776986    0.322919
     48          1           0       -0.050576    1.436946    3.581088
 ---------------------------------------------------------------------
                    Distance matrix (angstroms):
                    1          2          3          4          5
     1  C    0.000000
     2  H    1.089306   0.000000
     3  H    1.090226   1.770180   0.000000
     4  C    3.257961   4.044821   3.917633   0.000000
     5  H    3.122331   3.897920   3.809253   1.098285   0.000000
     6  O    4.567830   5.403630   5.101465   1.380570   2.063370
     7  H    5.176837   5.926620   5.821823   1.943311   2.323552
     8  C    2.552137   3.477700   2.894776   1.530967   2.169710
     9  H    2.637971   3.703813   2.636504   2.188095   2.431297
    10  O    3.691487   4.501671   3.896466   2.397976   3.335029
    11  H    4.432169   5.287964   4.676561   2.387926   3.367234
    12  C    3.392954   3.811769   4.288602   1.538037   2.161319
    13  H    4.248895   4.648394   5.059371   2.170694   3.042626
    14  C    1.514045   2.147208   2.149678   2.391329   2.776234
    15  H    2.158949   2.538041   2.456696   3.262503   3.809711
    16  O    2.415650   2.602874   3.359370   2.349002   2.759737
    17  N    4.187744   4.388984   5.208904   2.533351   2.637628
    18  C    3.965910   4.045557   5.012377   3.080808   2.681061
    19  H    3.060161   3.185002   4.073591   2.867267   2.271837
    20  C    5.164076   5.101423   6.206318   4.357867   3.873262
    21  H    5.400921   5.258415   6.389846   5.047024   4.385317
    22  C    6.306751   6.241564   7.372069   5.053839   4.771583
    23  H    7.242058   7.102770   8.305886   6.115981   5.776876
    24  H    7.119252   7.298719   8.094721   5.284475   4.847247
    25  C    6.439844   6.465191   7.496677   4.718525   4.734217
    26  C    5.469550   5.612232   6.486762   3.539077   3.778140
    27  H    5.907420   6.113486   6.862312   3.718838   4.225957
    28  C    7.813741   7.819935   8.863374   5.922350   6.070621
    29  O    8.111793   8.131501   9.129763   6.135509   6.486468
    30  N    8.846370   8.813157   9.909972   7.023777   7.027794
    31  H    9.749318   9.724954  10.807131   7.812253   7.887047
    32  H    8.848150   8.857512   9.899821   7.004365   6.866455
    33  H    1.092614   1.772329   1.766467   3.028711   2.536129
    34  C    7.495732   8.158622   8.138993   4.306841   4.944837
    35  C    7.130120   7.619800   7.979284   4.224705   4.308131
    36  C    7.866078   8.234093   8.781761   5.258078   5.153725
    37  C    9.074722   9.323966   9.996642   7.000993   6.545597
    38  C    7.694898   8.001128   8.615530   5.492494   5.095081
    39  O    6.057639   6.642759   6.849326   3.098564   3.108823
    40  S    8.140012   8.652591   8.939711   5.069461   5.483400
    41  H    8.362968   9.028980   8.959685   5.229737   5.945099
    42  H    6.630426   7.265225   7.275412   3.560342   4.354346
    43  H    9.717352  10.057696  10.586102   7.456608   7.005090
    44  H    9.656500   9.835327  10.625823   7.574644   7.224888
    45  H    9.104661   9.287116  10.018459   7.361933   6.774368
    46  H    7.247192   7.654983   8.091567   5.048444   4.514676
    47  H    8.835496   9.165800   9.768141   6.197283   6.178612
    48  H    7.418739   8.180772   7.985484   4.168091   4.673890
                    6          7          8          9         10
     6  O    0.000000
     7  H    1.002515   0.000000
     8  C    2.393306   3.265407   0.000000
     9  H    2.864488   3.748671   1.094263   0.000000
    10  O    2.650568   3.591235   1.405615   2.071900   0.000000
    11  H    2.105234   3.036644   1.921012   2.454945   0.967799
    12  C    2.457449   2.685941   2.347098   3.316135   2.900416
    13  H    2.570419   2.782532   2.808099   3.860890   2.817994
    14  C    3.603064   4.295224   1.523990   2.183122   2.384996
    15  H    4.301754   5.064570   2.146004   2.765675   2.412402
    16  O    3.556120   3.968471   2.363480   3.272116   3.048207
    17  N    3.270544   3.037342   3.676954   4.507334   4.358937
    18  C    4.019609   3.779271   4.148449   4.758318   5.141589
    19  H    4.026046   4.002286   3.664384   4.111199   4.844960
    20  C    5.135459   4.702567   5.501828   6.072448   6.478071
    21  H    5.897597   5.498824   6.098153   6.534057   7.200998
    22  C    5.583160   4.988432   6.311605   7.003539   7.083796
    23  H    6.615770   5.970849   7.376766   8.042083   8.165300
    24  H    5.453808   4.640285   6.742206   7.261177   7.539938
    25  C    5.043450   4.427186   5.989458   6.815114   6.508325
    26  C    3.886678   3.425917   4.738027   5.633307   5.154792
    27  H    3.813358   3.406751   4.805694   5.777346   4.919695
    28  C    6.032895   5.351378   7.177790   8.061806   7.494609
    29  O    6.147839   5.550114   7.270688   8.233396   7.364609
    30  N    7.117013   6.348920   8.348186   9.170587   8.756939
    31  H    7.798101   7.011341   9.129209   9.978482   9.433753
    32  H    7.087357   6.260645   8.401815   9.135724   8.930213
    33  H    4.321367   4.801758   2.746232   2.676568   4.090432
    34  C    3.183957   2.677004   5.332414   5.962592   4.998100
    35  C    3.664250   2.689407   5.703321   6.301435   6.027251
    36  C    4.901334   3.930731   6.773591   7.358525   7.231223
    37  C    6.881625   5.949384   8.510866   8.938239   9.243437
    38  C    5.392190   4.476956   7.007874   7.473039   7.720800
    39  O    2.576981   1.597813   4.596930   5.107577   5.058573
    40  S    4.230364   3.420999   6.353658   7.049762   6.274508
    41  H    4.075013   3.698092   6.099285   6.728396   5.556976
    42  H    2.585758   2.313672   4.466199   5.204032   4.054983
    43  H    7.168325   6.208202   8.974296   9.331615   9.663097
    44  H    7.453298   6.510219   9.083118   9.608693   9.729991
    45  H    7.404007   6.530835   8.826221   9.192794   9.687231
    46  H    4.930742   4.055844   6.541327   6.867484   7.345876
    47  H    5.767307   4.799932   7.688376   8.324278   8.033269
    48  H    2.886624   2.366382   5.202353   5.651350   4.988077
                   11         12         13         14         15
    11  H    0.000000
    12  C    3.093326   0.000000
    13  H    2.869426   1.092775   0.000000
    14  C    3.168774   2.333133   2.955137   0.000000
    15  H    3.343734   3.040883   3.362078   1.090335   0.000000
    16  O    3.619829   1.392763   2.076560   1.446293   2.053383
    17  N    4.447097   1.478414   2.070365   3.513692   4.298239
    18  C    5.320318   2.434547   3.304221   3.802253   4.722226
    19  H    5.142614   2.550353   3.596165   3.211053   4.202136
    20  C    6.602504   3.697722   4.425988   5.133329   6.025934
    21  H    7.374207   4.548407   5.376739   5.655847   6.578945
    22  C    7.100551   4.212878   4.649567   6.031012   6.836383
    23  H    8.176255   5.290869   5.705897   7.056333   7.854833
    24  H    7.343017   4.949969   5.385078   6.862753   7.793112
    25  C    6.440185   3.720438   3.840958   5.835994   6.530475
    26  C    5.100905   2.437600   2.459849   4.661826   5.310149
    27  H    4.777631   2.609570   2.154595   4.862475   5.354912
    28  C    7.342554   4.882783   4.724925   7.077089   7.663612
    29  O    7.193300   5.004627   4.589581   7.190419   7.633361
    30  N    8.582596   6.082518   6.025488   8.244033   8.891435
    31  H    9.211518   6.863776   6.688330   9.068652   9.667006
    32  H    8.729194   6.229655   6.309697   8.363583   9.107475
    33  H    4.654557   3.398114   4.398176   2.163914   3.068939
    34  C    4.217289   4.457929   3.871747   6.318979   6.799796
    35  C    5.512840   4.166883   4.109209   6.347019   7.132016
    36  C    6.793424   5.048009   5.104037   7.241492   8.074762
    37  C    8.899083   6.864054   7.192835   8.819999   9.768429
    38  C    7.389780   5.368412   5.705082   7.351443   8.289855
    39  O    4.576914   3.350607   3.497843   5.338352   6.187063
    40  S    5.631742   4.900002   4.428471   7.091580   7.679618
    41  H    4.737587   5.341216   4.623756   7.105493   7.470960
    42  H    3.353076   3.575468   2.881695   5.371770   5.783359
    43  H    9.230010   7.490972   7.781686   9.437251  10.397997
    44  H    9.392673   7.248643   7.467492   9.316156  10.206882
    45  H    9.421202   7.235178   7.695478   9.026665  10.010600
    46  H    7.000253   5.213951   5.673093   7.003071   7.998447
    47  H    7.561706   5.876962   5.793583   8.139557   8.915007
    48  H    4.135409   4.677907   4.293164   6.359672   6.927111
                   16         17         18         19         20
    16  O    0.000000
    17  N    2.311017   0.000000
    18  C    2.780732   1.356934   0.000000
    19  H    2.527940   2.069706   1.078332   0.000000
    20  C    4.055391   2.358155   1.363055   2.157806   0.000000
    21  H    4.726901   3.332252   2.114306   2.493983   1.080029
    22  C    4.787789   2.734933   2.384503   3.389080   1.396665
    23  H    5.809956   3.813951   3.362231   4.290634   2.151850
    24  H    5.839554   3.621659   3.288754   4.138244   2.488193
    25  C    4.515218   2.362871   2.752032   3.827040   2.409178
    26  C    3.373789   1.330340   2.343337   3.284485   2.736052
    27  H    3.637903   2.075053   3.310788   4.142772   3.818203
    28  C    5.723151   3.695095   4.244198   5.315335   3.818694
    29  O    5.842415   4.087045   4.915600   5.940280   4.742782
    30  N    6.898112   4.778100   5.051214   6.123562   4.294088
    31  H    7.716108   5.636358   6.013129   7.089770   5.299746
    32  H    7.083041   4.856270   4.927016   5.967102   4.026871
    33  H    2.757397   3.938506   3.468961   2.449901   4.593648
    34  C    5.792268   4.675031   5.762280   6.290849   6.425643
    35  C    5.501116   3.507132   4.143063   4.902399   4.313928
    36  C    6.268562   4.044406   4.383752   5.257689   4.112082
    37  C    7.866879   5.629024   5.365471   6.140829   4.538295
    38  C    6.421279   4.198297   4.058277   4.847531   3.483762
    39  O    4.673616   2.933207   3.498500   4.048497   3.979852
    40  S    6.260111   4.556404   5.521130   6.289356   5.810435
    41  H    6.619226   5.639613   6.785875   7.319751   7.445186
    42  H    4.848795   4.009415   5.197805   5.665140   6.016921
    43  H    8.574764   6.370888   6.174134   6.888725   5.471290
    44  H    8.245559   5.950966   5.803028   6.685660   4.894497
    45  H    8.102755   5.949850   5.439244   6.123524   4.460188
    46  H    6.255913   4.214370   3.952636   4.542003   3.590575
    47  H    7.099370   4.868295   5.291618   6.225669   4.919872
    48  H    6.011432   4.946818   5.872645   6.281308   6.567294
                   21         22         23         24         25
    21  H    0.000000
    22  C    2.161710   0.000000
    23  H    2.495458   1.081760   0.000000
    24  H    2.925325   1.957883   2.154598   0.000000
    25  C    3.396723   1.394707   2.155461   2.506882   0.000000
    26  C    3.815718   2.385290   3.371554   3.311215   1.382447
    27  H    4.897500   3.376989   4.283144   4.138727   2.146561
    28  C    4.715527   2.562768   2.812383   3.306620   1.497739
    29  O    5.710012   3.616073   3.965186   4.404737   2.359560
    30  N    4.980132   2.902329   2.632779   3.289573   2.422647
    31  H    5.985930   3.909664   3.604956   4.159087   3.318681
    32  H    4.583268   2.692399   2.261573   2.589502   2.594673
    33  H    4.722770   5.832109   6.734416   6.434695   6.118343
    34  C    7.380088   6.147774   6.985366   5.719103   5.108255
    35  C    5.164013   3.877404   4.558378   2.999085   3.172051
    36  C    4.837987   3.400943   3.787506   2.142910   2.950611
    37  C    4.749860   3.896898   3.666235   2.108970   4.276752
    38  C    3.929120   2.980081   3.176684   1.105536   3.185494
    39  O    4.783376   3.968056   4.816680   3.238970   3.461949
    40  S    6.759642   5.198997   5.847989   4.613865   4.132382
    41  H    8.421265   7.089729   7.893466   6.689356   5.965622
    42  H    7.001529   5.853923   6.781201   5.743579   4.793020
    43  H    5.680334   4.906701   4.745889   3.032874   5.169957
    44  H    5.182779   3.973137   3.568602   2.549101   4.212596
    45  H    4.419602   3.996499   3.609362   2.356039   4.698762
    46  H    3.923789   3.505569   3.856824   1.719741   3.810169
    47  H    5.646157   3.980440   4.176422   2.864036   3.397557
    48  H    7.432877   6.447948   7.292181   5.781378   5.586464
                   26         27         28         29         30
    26  C    0.000000
    27  H    1.082756   0.000000
    28  C    2.452769   2.639691   0.000000
    29  O    2.770072   2.478455   1.208355   0.000000
    30  N    3.653551   3.972096   1.368471   2.271236   0.000000
    31  H    4.430114   4.559651   2.004194   2.457042   1.009112
    32  H    3.890693   4.377018   2.041585   3.108581   1.009093
    33  H    5.267668   5.841043   7.561567   8.000692   8.493264
    34  C    4.281525   3.652310   5.306720   5.062029   6.281570
    35  C    2.973909   3.030627   3.577879   3.976882   4.226431
    36  C    3.359090   3.655005   3.148666   3.849007   3.360987
    37  C    5.165453   5.787815   4.499751   5.537290   3.959121
    38  C    3.821976   4.459027   3.735085   4.717875   3.673159
    39  O    2.907349   3.103641   4.284900   4.706449   5.070455
    40  S    3.771591   3.275258   4.007625   3.882823   4.761373
    41  H    5.161570   4.399220   5.971597   5.554782   6.927467
    42  H    3.744697   3.046554   5.145711   4.845534   6.279618
    43  H    5.929359   6.453764   5.328247   6.267906   4.815473
    44  H    5.271015   5.812033   4.086162   5.092059   3.283545
    45  H    5.644761   6.403490   5.084534   6.211225   4.475928
    46  H    4.155025   4.818757   4.605409   5.531659   4.703504
    47  H    3.969043   4.097910   3.091567   3.670546   3.050782
    48  H    4.775695   4.338243   5.962255   5.888745   6.856618
                   31         32         33         34         35
    31  H    0.000000
    32  H    1.704133   0.000000
    33  H    9.430355   8.377210   0.000000
    34  C    6.586909   6.409362   7.308899   0.000000
    35  C    4.749897   4.032163   6.646666   2.788822   0.000000
    36  C    3.884474   2.935626   7.299169   4.064742   1.377765
    37  C    4.481409   3.013902   8.312824   6.524697   3.798123
    38  C    4.375414   2.931397   6.981475   5.286417   2.504242
    39  O    5.730914   4.850974   5.535024   2.865023   1.265246
    40  S    4.969784   4.859786   7.840751   1.798785   1.810071
    41  H    7.102621   7.134135   8.252304   1.088444   3.732634
    42  H    6.672238   6.488697   6.554115   1.087484   3.080637
    43  H    5.210471   3.917060   8.921670   6.609669   4.054253
    44  H    3.645074   2.339014   8.970498   6.768418   4.120321
    45  H    5.078910   3.481974   8.283235   7.414431   4.646776
    46  H    5.438786   3.994022   6.446478   5.264937   2.655302
    47  H    3.307665   2.701512   8.315898   4.383930   2.116486
    48  H    7.231741   6.838906   7.129383   1.088025   2.899611
                   36         37         38         39         40
    36  C    0.000000
    37  C    2.539079   0.000000
    38  C    1.480267   1.524349   0.000000
    39  O    2.360560   4.387636   2.933426   0.000000
    40  S    2.683957   5.156382   4.107413   2.670356   0.000000
    41  H    4.907747   7.364845   6.217189   3.940759   2.347565
    42  H    4.395412   6.872478   5.510163   2.885327   2.426159
    43  H    2.909674   1.090296   2.176556   4.668429   5.278179
    44  H    2.747932   1.094338   2.174257   4.922094   5.214570
    45  H    3.464658   1.091395   2.170604   5.043609   6.133510
    46  H    2.121020   2.173562   1.094071   2.654101   4.399268
    47  H    1.084338   2.718447   2.221775   3.296593   2.715965
    48  H    4.198479   6.476113   5.247934   2.701912   2.408373
                   41         42         43         44         45
    41  H    0.000000
    42  H    1.772762   0.000000
    43  H    7.386941   7.104825   0.000000
    44  H    7.525394   7.123564   1.754718   0.000000
    45  H    8.307345   7.679624   1.766744   1.765111   0.000000
    46  H    6.253794   5.477576   2.507569   3.084543   2.559171
    47  H    5.047720   4.836388   2.978884   2.537429   3.755463
    48  H    1.775680   1.775808   6.445384   6.876561   7.321599
                   46         47         48
    46  H    0.000000
    47  H    3.034255   0.000000
    48  H    5.017373   4.655574   0.000000
 Stoichiometry    C16H24N2O5S
 Framework group  C1[X(C16H24N2O5S)]
 Deg. of freedom   138
 Full point group                 C1      NOp   1
 Largest Abelian subgroup         C1      NOp   1
 Largest concise Abelian subgroup C1      NOp   1
                         Standard orientation:                         
 ---------------------------------------------------------------------
 Center     Atomic      Atomic             Coordinates (Angstroms)
 Number     Number       Type             X           Y           Z
 ---------------------------------------------------------------------
      1          6           0       -4.680864   -1.965341   -0.552770
      2          1           0       -4.640167   -2.908686   -0.009601
      3          1           0       -5.704966   -1.800938   -0.888598
      4          6           0       -2.513674    0.463119   -0.694825
      5          1           0       -2.320758   -0.186138   -1.559393
      6          8           0       -2.036528    1.744130   -0.887995
      7          1           0       -1.048408    1.689706   -1.048290
      8          6           0       -4.011870    0.491560   -0.381043
      9          1           0       -4.616770    0.566764   -1.289808
     10          8           0       -4.283971    1.549427    0.503622
     11          1           0       -3.741881    2.297562    0.215405
     12          6           0       -1.993713   -0.228720    0.576615
     13          1           0       -1.806167    0.513182    1.356721
     14          6           0       -4.236111   -0.829771    0.344453
     15          1           0       -4.944570   -0.676302    1.158924
     16          8           0       -2.961282   -1.161733    0.941425
     17          7           0       -0.725345   -0.965303    0.391156
     18          6           0       -0.716697   -2.027623   -0.453043
     19          1           0       -1.657918   -2.263919   -0.923222
     20          6           0        0.421617   -2.757181   -0.625972
     21          1           0        0.411183   -3.606193   -1.293454
     22          6           0        1.580192   -2.400472    0.067665
     23          1           0        2.461647   -3.024360    0.004383
     24          1           0        2.362279   -1.431732   -1.443357
     25          6           0        1.551759   -1.300970    0.925275
     26          6           0        0.364297   -0.607028    1.065045
     27          1           0        0.299425    0.246688    1.727858
     28          6           0        2.689797   -0.870921    1.798859
     29          8           0        2.498695   -0.194773    2.781928
     30          7           0        3.914183   -1.377351    1.456631
     31          1           0        4.682664   -0.983965    1.979117
     32          1           0        4.096641   -1.534942    0.476763
     33          1           0       -4.043264   -2.043514   -1.436603
     34          6           0        0.268090    3.601721    0.284896
     35          6           0        1.608016    1.388365   -0.755862
     36          6           0        2.734629    0.625114   -0.971334
     37          6           0        4.123873   -0.885585   -2.466229
     38          6           0        2.751174   -0.512362   -1.918469
     39          8           0        0.453912    1.176560   -1.229178
     40         16           0        1.866872    2.781800    0.370056
     41          1           0        0.384411    4.548182    0.809674
     42          1           0       -0.514586    3.020867    0.767233
     43          1           0        4.499316   -0.130899   -3.157776
     44          1           0        4.860360   -0.973611   -1.661608
     45          1           0        4.090183   -1.841573   -2.991678
     46          1           0        2.037294   -0.336311   -2.728637
     47          1           0        3.662199    0.942806   -0.508220
     48          1           0       -0.009661    3.794777   -0.749213
 ---------------------------------------------------------------------
 Rotational constants (GHZ):           0.3327806           0.1646756           0.1401700
 Leave Link  202 at Sat Aug 13 20:34:16 2022, MaxMem=  2684354560 cpu:               0.5 elap:               0.1
 (Enter /storage/apps/GAUSSIAN/G16_RevA03/g16/l301.exe)
 Standard basis: def2TZVP (5D, 7F)
 Ernie: Thresh=  0.10000D-02 Tol=  0.10000D-05 Strict=F.
 There are  1014 symmetry adapted cartesian basis functions of A   symmetry.
 There are   894 symmetry adapted basis functions of A   symmetry.
   894 basis functions,  1434 primitive gaussians,  1014 cartesian basis functions
    95 alpha electrons       95 beta electrons
       nuclear repulsion energy      2497.7282599951 Hartrees.
 IExCor= 4336 DFT=T Ex+Corr=M062X ExCW=0 ScaHFX=  0.540000
 ScaDFX=  1.000000  1.000000  1.000000  1.000000 ScalE2=  1.000000  1.000000
 IRadAn=      5 IRanWt=     -1 IRanGd=            0 ICorTp=0 IEmpDi=131
 NAtoms=   48 NActive=   48 NUniq=   48 SFac= 1.00D+00 NAtFMM=   60 NAOKFM=F Big=F
 Integral buffers will be    131072 words long.
 Raffenetti 2 integral format.
 Two-electron integral symmetry is turned on.
 R6Disp:  Grimme-D3 Dispersion energy=       -0.0042716285 Hartrees.
 Nuclear repulsion after empirical dispersion term =     2497.7239883666 Hartrees.
 Leave Link  301 at Sat Aug 13 20:34:16 2022, MaxMem=  2684354560 cpu:               1.6 elap:               0.1
 (Enter /storage/apps/GAUSSIAN/G16_RevA03/g16/l302.exe)
 NPDir=0 NMtPBC=     1 NCelOv=     1 NCel=       1 NClECP=     1 NCelD=      1
         NCelK=      1 NCelE2=     1 NClLst=     1 CellRange=     0.0.
 One-electron integrals computed using PRISM.
 One-electron integral symmetry used in STVInt
   1 Symmetry operations used in ECPInt.
 ECPInt:  NShTT=   65703 NPrTT=  200010 LenC2=   56963 LenP2D=  121458.
 LDataN:  DoStor=T MaxTD1= 6 Len=  172
 NBasis=   894 RedAO= T EigKep=  1.70D-05  NBF=   894
 NBsUse=   894 1.00D-06 EigRej= -1.00D+00 NBFU=   894
 Precomputing XC quadrature grid using
 IXCGrd= 4 IRadAn=           5 IRanWt=          -1 IRanGd=           0 AccXCQ= 0.00D+00.
 Generated NRdTot=       0 NPtTot=           0 NUsed=           0 NTot=          32
 NSgBfM=   997   996   996   996   997 MxSgAt=    48 MxSgA2=    48.
 Leave Link  302 at Sat Aug 13 20:34:17 2022, MaxMem=  2684354560 cpu:              19.0 elap:               1.3
 (Enter /storage/apps/GAUSSIAN/G16_RevA03/g16/l303.exe)
 DipDrv:  MaxL=1.
 Leave Link  303 at Sat Aug 13 20:34:17 2022, MaxMem=  2684354560 cpu:               2.5 elap:               0.2
 (Enter /storage/apps/GAUSSIAN/G16_RevA03/g16/l401.exe)
 ExpMin= 9.52D-02 ExpMax= 6.07D+04 ExpMxC= 2.07D+03 IAcc=3 IRadAn=         5 AccDes= 0.00D+00
 Harris functional with IExCor= 1009 and IRadAn=       5 diagonalized for initial guess.
 HarFok:  IExCor= 1009 AccDes= 0.00D+00 IRadAn=         5 IDoV= 1 UseB2=F ITyADJ=14
 ICtDFT=  3500011 ScaDFX=  1.000000  1.000000  1.000000  1.000000
 FoFCou: FMM=F IPFlag=           0 FMFlag=      100000 FMFlg1=           0
         NFxFlg=           0 DoJE=T BraDBF=F KetDBF=T FulRan=T
         wScrn=  0.000000 ICntrl=       500 IOpCl=  0 I1Cent=   200000004 NGrid=           0
         NMat0=    1 NMatS0=      1 NMatT0=    0 NMatD0=    1 NMtDS0=    0 NMtDT0=    0
 Petite list used in FoFCou.
 Harris En= -1507.24155371816    
 JPrj=0 DoOrth=F DoCkMO=F.
 Leave Link  401 at Sat Aug 13 20:34:21 2022, MaxMem=  2684354560 cpu:              61.1 elap:               3.9
 (Enter /storage/apps/GAUSSIAN/G16_RevA03/g16/l502.exe)
 Integral symmetry usage will be decided dynamically.
 Closed shell SCF:
 Using DIIS extrapolation, IDIIS=  1040.
 NGot=  2684354560 LenX=  2682272944 LenY=  2681243734
 Requested convergence on RMS density matrix=1.00D-08 within 128 cycles.
 Requested convergence on MAX density matrix=1.00D-06.
 Requested convergence on             energy=1.00D-06.
 No special actions if energy rises.
 Fock matrices will be formed incrementally for  20 cycles.
 Integral accuracy reduced to 1.0D-05 until final iterations.

 Cycle   1  Pass 0  IDiag  1:
 FoFJK:  IHMeth= 1 ICntrl=       0 DoSepK=F KAlg= 0 I1Cent=           0 FoldK=F
 IRaf= 800000000 NMat=       1 IRICut=       1 DoRegI=T DoRafI=F ISym2E= 0 IDoP0=0 IntGTp=1.
 FoFCou: FMM=F IPFlag=           0 FMFlag=      100000 FMFlg1=           0
         NFxFlg=           0 DoJE=F BraDBF=F KetDBF=F FulRan=T
         wScrn=  0.000000 ICntrl=         0 IOpCl=  0 I1Cent=           0 NGrid=           0
         NMat0=    1 NMatS0=      1 NMatT0=    0 NMatD0=    1 NMtDS0=    0 NMtDT0=    0
 Symmetry not used in FoFCou.
 E= -1507.15922532346    
 DIIS: error= 1.81D-02 at cycle   1 NSaved=   1.
 NSaved= 1 IEnMin= 1 EnMin= -1507.15922532346     IErMin= 1 ErrMin= 1.81D-02
 ErrMax= 1.81D-02  0.00D+00 EMaxC= 1.00D-01 BMatC= 9.95D-01 BMatP= 9.95D-01
 IDIUse=3 WtCom= 8.19D-01 WtEn= 1.81D-01
 Coeff-Com:  0.100D+01
 Coeff-En:   0.100D+01
 Coeff:      0.100D+01
 Gap=     0.174 Goal=   None    Shift=    0.000
 GapD=    0.174 DampG=1.000 DampE=0.500 DampFc=0.5000 IDamp=-1.
 Damping current iteration by 5.00D-01
 RMSDP=3.99D-03 MaxDP=9.82D-01              OVMax= 5.51D-01

 Cycle   2  Pass 0  IDiag  1:
 RMSU=  2.00D-03    CP:  1.01D+00
 E= -1507.46324678375     Delta-E=       -0.304021460296 Rises=F Damp=T
 DIIS: error= 7.28D-03 at cycle   2 NSaved=   2.
 NSaved= 2 IEnMin= 2 EnMin= -1507.46324678375     IErMin= 2 ErrMin= 7.28D-03
 ErrMax= 7.28D-03  0.00D+00 EMaxC= 1.00D-01 BMatC= 9.94D-02 BMatP= 9.95D-01
 IDIUse=3 WtCom= 9.27D-01 WtEn= 7.28D-02
 Coeff-Com:  0.156D-01 0.984D+00
 Coeff-En:   0.132D+00 0.868D+00
 Coeff:      0.241D-01 0.976D+00
 Gap=     0.159 Goal=   None    Shift=    0.000
 RMSDP=1.35D-03 MaxDP=2.12D-01 DE=-3.04D-01 OVMax= 4.36D-01

 Cycle   3  Pass 0  IDiag  1:
 RMSU=  1.16D-03    CP:  1.00D+00  6.60D-01
 E= -1507.82620177003     Delta-E=       -0.362954986274 Rises=F Damp=F
 DIIS: error= 7.33D-03 at cycle   3 NSaved=   3.
 NSaved= 3 IEnMin= 3 EnMin= -1507.82620177003     IErMin= 2 ErrMin= 7.28D-03
 ErrMax= 7.33D-03  0.00D+00 EMaxC= 1.00D-01 BMatC= 7.45D-02 BMatP= 9.94D-02
 IDIUse=3 WtCom= 9.27D-01 WtEn= 7.33D-02
 Coeff-Com: -0.722D-01 0.489D+00 0.583D+00
 Coeff-En:   0.000D+00 0.000D+00 0.100D+01
 Coeff:     -0.669D-01 0.453D+00 0.614D+00
 Gap=     0.129 Goal=   None    Shift=    0.000
 RMSDP=5.98D-04 MaxDP=2.88D-02 DE=-3.63D-01 OVMax= 1.67D-01

 Cycle   4  Pass 0  IDiag  1:
 RMSU=  4.85D-04    CP:  1.00D+00  8.01D-01  8.24D-01
 E= -1507.89236876954     Delta-E=       -0.066166999512 Rises=F Damp=F
 DIIS: error= 3.53D-03 at cycle   4 NSaved=   4.
 NSaved= 4 IEnMin= 4 EnMin= -1507.89236876954     IErMin= 4 ErrMin= 3.53D-03
 ErrMax= 3.53D-03  0.00D+00 EMaxC= 1.00D-01 BMatC= 9.82D-03 BMatP= 7.45D-02
 IDIUse=3 WtCom= 9.65D-01 WtEn= 3.53D-02
 Coeff-Com: -0.375D-01 0.108D+00 0.298D+00 0.632D+00
 Coeff-En:   0.000D+00 0.000D+00 0.600D-01 0.940D+00
 Coeff:     -0.361D-01 0.104D+00 0.289D+00 0.643D+00
 Gap=     0.149 Goal=   None    Shift=    0.000
 RMSDP=2.15D-04 MaxDP=2.19D-02 DE=-6.62D-02 OVMax= 6.16D-02

 Cycle   5  Pass 0  IDiag  1:
 RMSU=  1.78D-04    CP:  1.00D+00  7.84D-01  9.00D-01  8.46D-01
 E= -1507.90136608025     Delta-E=       -0.008997310714 Rises=F Damp=F
 DIIS: error= 9.46D-04 at cycle   5 NSaved=   5.
 NSaved= 5 IEnMin= 5 EnMin= -1507.90136608025     IErMin= 5 ErrMin= 9.46D-04
 ErrMax= 9.46D-04  0.00D+00 EMaxC= 1.00D-01 BMatC= 9.43D-04 BMatP= 9.82D-03
 IDIUse=3 WtCom= 9.91D-01 WtEn= 9.46D-03
 Coeff-Com: -0.120D-01 0.220D-01 0.934D-01 0.320D+00 0.576D+00
 Coeff-En:   0.000D+00 0.000D+00 0.000D+00 0.000D+00 0.100D+01
 Coeff:     -0.119D-01 0.218D-01 0.925D-01 0.317D+00 0.580D+00
 Gap=     0.148 Goal=   None    Shift=    0.000
 RMSDP=7.51D-05 MaxDP=7.59D-03 DE=-9.00D-03 OVMax= 8.51D-03

 Cycle   6  Pass 0  IDiag  1:
 RMSU=  6.45D-05    CP:  1.00D+00  7.85D-01  8.90D-01  9.20D-01  9.54D-01
 E= -1507.90225137754     Delta-E=       -0.000885297292 Rises=F Damp=F
 DIIS: error= 1.76D-04 at cycle   6 NSaved=   6.
 NSaved= 6 IEnMin= 6 EnMin= -1507.90225137754     IErMin= 6 ErrMin= 1.76D-04
 ErrMax= 1.76D-04  0.00D+00 EMaxC= 1.00D-01 BMatC= 1.01D-04 BMatP= 9.43D-04
 IDIUse=3 WtCom= 9.98D-01 WtEn= 1.76D-03
 Coeff-Com: -0.317D-03-0.382D-02-0.433D-02 0.579D-01 0.278D+00 0.673D+00
 Coeff-En:   0.000D+00 0.000D+00 0.000D+00 0.000D+00 0.000D+00 0.100D+01
 Coeff:     -0.317D-03-0.381D-02-0.432D-02 0.578D-01 0.277D+00 0.673D+00
 Gap=     0.149 Goal=   None    Shift=    0.000
 RMSDP=4.18D-05 MaxDP=5.03D-03 DE=-8.85D-04 OVMax= 6.32D-03

 Cycle   7  Pass 0  IDiag  1:
 RMSU=  2.30D-05    CP:  1.00D+00  7.86D-01  8.97D-01  9.43D-01  1.13D+00
                    CP:  1.08D+00
 E= -1507.90235165486     Delta-E=       -0.000100277315 Rises=F Damp=F
 DIIS: error= 9.10D-05 at cycle   7 NSaved=   7.
 NSaved= 7 IEnMin= 7 EnMin= -1507.90235165486     IErMin= 7 ErrMin= 9.10D-05
 ErrMax= 9.10D-05  0.00D+00 EMaxC= 1.00D-01 BMatC= 1.39D-05 BMatP= 1.01D-04
 IDIUse=1 WtCom= 1.00D+00 WtEn= 0.00D+00
 Coeff-Com:  0.142D-02-0.438D-02-0.161D-01-0.156D-01 0.494D-01 0.312D+00
 Coeff-Com:  0.673D+00
 Coeff:      0.142D-02-0.438D-02-0.161D-01-0.156D-01 0.494D-01 0.312D+00
 Coeff:      0.673D+00
 Gap=     0.149 Goal=   None    Shift=    0.000
 RMSDP=1.89D-05 MaxDP=2.08D-03 DE=-1.00D-04 OVMax= 2.81D-03

 Cycle   8  Pass 0  IDiag  1:
 RMSU=  1.22D-05    CP:  1.00D+00  7.84D-01  8.97D-01  9.56D-01  1.19D+00
                    CP:  1.17D+00  1.15D+00
 E= -1507.90235882952     Delta-E=       -0.000007174663 Rises=F Damp=F
 DIIS: error= 3.34D-05 at cycle   8 NSaved=   8.
 NSaved= 8 IEnMin= 8 EnMin= -1507.90235882952     IErMin= 8 ErrMin= 3.34D-05
 ErrMax= 3.34D-05  0.00D+00 EMaxC= 1.00D-01 BMatC= 2.59D-06 BMatP= 1.39D-05
 IDIUse=1 WtCom= 1.00D+00 WtEn= 0.00D+00
 Coeff-Com:  0.747D-03-0.146D-02-0.841D-02-0.178D-01-0.268D-01 0.402D-01
 Coeff-Com:  0.325D+00 0.688D+00
 Coeff:      0.747D-03-0.146D-02-0.841D-02-0.178D-01-0.268D-01 0.402D-01
 Coeff:      0.325D+00 0.688D+00
 Gap=     0.149 Goal=   None    Shift=    0.000
 RMSDP=1.56D-05 MaxDP=2.59D-03 DE=-7.17D-06 OVMax= 1.84D-03

 Cycle   9  Pass 0  IDiag  1:
 RMSU=  1.17D-05    CP:  1.00D+00  7.82D-01  8.96D-01  9.59D-01  1.20D+00
                    CP:  1.23D+00  1.30D+00  1.61D+00
 E= -1507.90235815551     Delta-E=        0.000000674009 Rises=F Damp=F
 DIIS: error= 1.67D-05 at cycle   9 NSaved=   9.
 NSaved= 9 IEnMin= 8 EnMin= -1507.90235882952     IErMin= 9 ErrMin= 1.67D-05
 ErrMax= 1.67D-05  0.00D+00 EMaxC= 1.00D-01 BMatC= 5.83D-07 BMatP= 2.59D-06
 IDIUse=1 WtCom= 1.00D+00 WtEn= 0.00D+00
 Coeff-Com:  0.212D-03-0.241D-03-0.313D-02-0.743D-02-0.210D-01-0.106D-01
 Coeff-Com:  0.802D-01 0.338D+00 0.624D+00
 Coeff:      0.212D-03-0.241D-03-0.313D-02-0.743D-02-0.210D-01-0.106D-01
 Coeff:      0.802D-01 0.338D+00 0.624D+00
 Gap=     0.149 Goal=   None    Shift=    0.000
 RMSDP=1.81D-05 MaxDP=2.12D-03 DE= 6.74D-07 OVMax= 8.25D-04

 Cycle  10  Pass 0  IDiag  1:
 RMSU=  1.04D-05    CP:  1.00D+00  7.81D-01  8.96D-01  9.60D-01  1.20D+00
                    CP:  1.28D+00  1.41D+00  2.17D+00  2.06D+00
 E= -1507.90235580569     Delta-E=        0.000002349824 Rises=F Damp=F
 DIIS: error= 2.59D-05 at cycle  10 NSaved=  10.
 NSaved=10 IEnMin= 8 EnMin= -1507.90235882952     IErMin= 9 ErrMin= 1.67D-05
 ErrMax= 2.59D-05  0.00D+00 EMaxC= 1.00D-01 BMatC= 4.25D-07 BMatP= 5.83D-07
 IDIUse=1 WtCom= 1.00D+00 WtEn= 0.00D+00
 Coeff-Com:  0.186D-03-0.207D-03-0.284D-02-0.661D-02-0.191D-01-0.980D-02
 Coeff-Com:  0.694D-01 0.300D+00 0.564D+00 0.105D+00
 Coeff:      0.186D-03-0.207D-03-0.284D-02-0.661D-02-0.191D-01-0.980D-02
 Coeff:      0.694D-01 0.300D+00 0.564D+00 0.105D+00
 Gap=     0.149 Goal=   None    Shift=    0.000
 RMSDP=4.46D-06 MaxDP=5.33D-04 DE= 2.35D-06 OVMax= 5.64D-05

 Initial convergence to 1.0D-05 achieved.  Increase integral accuracy.
 Cycle  11  Pass 1  IDiag  1:
 E= -1507.90228130412     Delta-E=        0.000074501568 Rises=F Damp=F
 DIIS: error= 3.31D-04 at cycle   1 NSaved=   1.
 NSaved= 1 IEnMin= 1 EnMin= -1507.90228130412     IErMin= 1 ErrMin= 3.31D-04
 ErrMax= 3.31D-04  0.00D+00 EMaxC= 1.00D-01 BMatC= 9.70D-05 BMatP= 9.70D-05
 IDIUse=3 WtCom= 9.97D-01 WtEn= 3.31D-03
 Coeff-Com:  0.100D+01
 Coeff-En:   0.100D+01
 Coeff:      0.100D+01
 Gap=     0.149 Goal=   None    Shift=    0.000
 RMSDP=4.46D-06 MaxDP=5.33D-04 DE= 7.45D-05 OVMax= 1.05D-03

 Cycle  12  Pass 1  IDiag  1:
 RMSU=  6.00D-04    CP:  9.90D-01
 E= -1507.90234312508     Delta-E=       -0.000061820956 Rises=F Damp=F
 DIIS: error= 1.27D-05 at cycle   2 NSaved=   2.
 NSaved= 2 IEnMin= 2 EnMin= -1507.90234312508     IErMin= 2 ErrMin= 1.27D-05
 ErrMax= 1.27D-05  0.00D+00 EMaxC= 1.00D-01 BMatC= 1.40D-07 BMatP= 9.70D-05
 IDIUse=1 WtCom= 1.00D+00 WtEn= 0.00D+00
 Coeff-Com: -0.151D-01 0.102D+01
 Coeff:     -0.151D-01 0.102D+01
 Gap=     0.149 Goal=   None    Shift=    0.000
 RMSDP=2.30D-05 MaxDP=2.22D-03 DE=-6.18D-05 OVMax= 5.46D-04

 Cycle  13  Pass 1  IDiag  1:
 RMSU=  8.85D-06    CP:  9.90D-01  1.04D+00
 E= -1507.90234307609     Delta-E=        0.000000048988 Rises=F Damp=F
 DIIS: error= 1.59D-05 at cycle   3 NSaved=   3.
 NSaved= 3 IEnMin= 2 EnMin= -1507.90234312508     IErMin= 2 ErrMin= 1.27D-05
 ErrMax= 1.59D-05  0.00D+00 EMaxC= 1.00D-01 BMatC= 2.53D-07 BMatP= 1.40D-07
 IDIUse=1 WtCom= 1.00D+00 WtEn= 0.00D+00
 Coeff-Com: -0.103D-01 0.611D+00 0.399D+00
 Coeff:     -0.103D-01 0.611D+00 0.399D+00
 Gap=     0.149 Goal=   None    Shift=    0.000
 RMSDP=1.04D-06 MaxDP=6.31D-05 DE= 4.90D-08 OVMax= 1.91D-04

 Cycle  14  Pass 1  IDiag  1:
 RMSU=  9.95D-07    CP:  9.90D-01  1.04D+00  1.00D+00
 E= -1507.90234333763     Delta-E=       -0.000000261539 Rises=F Damp=F
 DIIS: error= 1.44D-06 at cycle   4 NSaved=   4.
 NSaved= 4 IEnMin= 4 EnMin= -1507.90234333763     IErMin= 4 ErrMin= 1.44D-06
 ErrMax= 1.44D-06  0.00D+00 EMaxC= 1.00D-01 BMatC= 1.14D-09 BMatP= 1.40D-07
 IDIUse=1 WtCom= 1.00D+00 WtEn= 0.00D+00
 Coeff-Com:  0.224D-03-0.242D-01-0.123D-03 0.102D+01
 Coeff:      0.224D-03-0.242D-01-0.123D-03 0.102D+01
 Gap=     0.149 Goal=   None    Shift=    0.000
 RMSDP=6.51D-07 MaxDP=5.93D-05 DE=-2.62D-07 OVMax= 1.01D-04

 Cycle  15  Pass 1  IDiag  1:
 RMSU=  3.17D-07    CP:  9.90D-01  1.04D+00  1.04D+00  1.01D+00
 E= -1507.90234334326     Delta-E=       -0.000000005628 Rises=F Damp=F
 DIIS: error= 6.30D-07 at cycle   5 NSaved=   5.
 NSaved= 5 IEnMin= 5 EnMin= -1507.90234334326     IErMin= 5 ErrMin= 6.30D-07
 ErrMax= 6.30D-07  0.00D+00 EMaxC= 1.00D-01 BMatC= 1.04D-09 BMatP= 1.14D-09
 IDIUse=1 WtCom= 1.00D+00 WtEn= 0.00D+00
 Coeff-Com:  0.823D-03-0.541D-01-0.429D-01 0.498D+00 0.598D+00
 Coeff:      0.823D-03-0.541D-01-0.429D-01 0.498D+00 0.598D+00
 Gap=     0.149 Goal=   None    Shift=    0.000
 RMSDP=1.24D-07 MaxDP=1.12D-05 DE=-5.63D-09 OVMax= 2.94D-05

 Cycle  16  Pass 1  IDiag  1:
 RMSU=  7.66D-08    CP:  9.90D-01  1.04D+00  1.05D+00  1.02D+00  1.23D+00
 E= -1507.90234334489     Delta-E=       -0.000000001633 Rises=F Damp=F
 DIIS: error= 3.50D-07 at cycle   6 NSaved=   6.
 NSaved= 6 IEnMin= 6 EnMin= -1507.90234334489     IErMin= 6 ErrMin= 3.50D-07
 ErrMax= 3.50D-07  0.00D+00 EMaxC= 1.00D-01 BMatC= 1.66D-10 BMatP= 1.04D-09
 IDIUse=1 WtCom= 1.00D+00 WtEn= 0.00D+00
 Coeff-Com:  0.903D-04-0.294D-02-0.253D-01-0.201D+00 0.868D-01 0.114D+01
 Coeff:      0.903D-04-0.294D-02-0.253D-01-0.201D+00 0.868D-01 0.114D+01
 Gap=     0.149 Goal=   None    Shift=    0.000
 RMSDP=1.36D-07 MaxDP=1.54D-05 DE=-1.63D-09 OVMax= 3.90D-05

 Cycle  17  Pass 1  IDiag  1:
 RMSU=  5.14D-08    CP:  9.90D-01  1.04D+00  1.05D+00  1.02D+00  1.58D+00
                    CP:  1.57D+00
 E= -1507.90234334554     Delta-E=       -0.000000000647 Rises=F Damp=F
 DIIS: error= 1.50D-07 at cycle   7 NSaved=   7.
 NSaved= 7 IEnMin= 7 EnMin= -1507.90234334554     IErMin= 7 ErrMin= 1.50D-07
 ErrMax= 1.50D-07  0.00D+00 EMaxC= 1.00D-01 BMatC= 5.03D-11 BMatP= 1.66D-10
 IDIUse=1 WtCom= 1.00D+00 WtEn= 0.00D+00
 Coeff-Com: -0.864D-04 0.735D-02-0.960D-02-0.190D+00-0.442D-01 0.663D+00
 Coeff-Com:  0.574D+00
 Coeff:     -0.864D-04 0.735D-02-0.960D-02-0.190D+00-0.442D-01 0.663D+00
 Coeff:      0.574D+00
 Gap=     0.149 Goal=   None    Shift=    0.000
 RMSDP=3.16D-08 MaxDP=3.36D-06 DE=-6.47D-10 OVMax= 9.98D-06

 Cycle  18  Pass 1  IDiag  1:
 RMSU=  1.13D-08    CP:  9.90D-01  1.04D+00  1.05D+00  1.02D+00  1.65D+00
                    CP:  1.76D+00  1.20D+00
 E= -1507.90234334563     Delta-E=       -0.000000000088 Rises=F Damp=F
 DIIS: error= 3.26D-08 at cycle   8 NSaved=   8.
 NSaved= 8 IEnMin= 8 EnMin= -1507.90234334563     IErMin= 8 ErrMin= 3.26D-08
 ErrMax= 3.26D-08  0.00D+00 EMaxC= 1.00D-01 BMatC= 2.43D-12 BMatP= 5.03D-11
 IDIUse=1 WtCom= 1.00D+00 WtEn= 0.00D+00
 Coeff-Com: -0.413D-04 0.294D-02-0.868D-03-0.420D-01-0.274D-01 0.932D-01
 Coeff-Com:  0.196D+00 0.778D+00
 Coeff:     -0.413D-04 0.294D-02-0.868D-03-0.420D-01-0.274D-01 0.932D-01
 Coeff:      0.196D+00 0.778D+00
 Gap=     0.149 Goal=   None    Shift=    0.000
 RMSDP=1.05D-08 MaxDP=9.02D-07 DE=-8.82D-11 OVMax= 2.96D-06

 Cycle  19  Pass 1  IDiag  1:
 RMSU=  4.27D-09    CP:  9.90D-01  1.04D+00  1.05D+00  1.02D+00  1.67D+00
                    CP:  1.81D+00  1.31D+00  1.10D+00
 E= -1507.90234334565     Delta-E=       -0.000000000022 Rises=F Damp=F
 DIIS: error= 1.88D-08 at cycle   9 NSaved=   9.
 NSaved= 9 IEnMin= 9 EnMin= -1507.90234334565     IErMin= 9 ErrMin= 1.88D-08
 ErrMax= 1.88D-08  0.00D+00 EMaxC= 1.00D-01 BMatC= 4.41D-13 BMatP= 2.43D-12
 IDIUse=1 WtCom= 1.00D+00 WtEn= 0.00D+00
 Coeff-Com: -0.636D-05 0.281D-03 0.851D-03 0.783D-02-0.630D-02-0.492D-01
 Coeff-Com: -0.104D-02 0.328D+00 0.719D+00
 Coeff:     -0.636D-05 0.281D-03 0.851D-03 0.783D-02-0.630D-02-0.492D-01
 Coeff:     -0.104D-02 0.328D+00 0.719D+00
 Gap=     0.149 Goal=   None    Shift=    0.000
 RMSDP=4.13D-09 MaxDP=6.15D-07 DE=-2.23D-11 OVMax= 1.01D-06

 SCF Done:  E(RM062X) =  -1507.90234335     A.U. after   19 cycles
            NFock= 19  Conv=0.41D-08     -V/T= 2.0037
 KE= 1.502299525064D+03 PE=-8.532850928880D+03 EE= 3.024925072103D+03
 Leave Link  502 at Sat Aug 13 20:43:29 2022, MaxMem=  2684354560 cpu:            8753.0 elap:             548.0
 (Enter /storage/apps/GAUSSIAN/G16_RevA03/g16/l601.exe)
 Copying SCF densities to generalized density rwf, IOpCl= 0 IROHF=0.

 **********************************************************************

            Population analysis using the SCF density.

 **********************************************************************

 Orbital symmetries:
       Occupied  (A) (A) (A) (A) (A) (A) (A) (A) (A) (A) (A) (A)
                 (A) (A) (A) (A) (A) (A) (A) (A) (A) (A) (A) (A)
                 (A) (A) (A) (A) (A) (A) (A) (A) (A) (A) (A) (A)
                 (A) (A) (A) (A) (A) (A) (A) (A) (A) (A) (A) (A)
                 (A) (A) (A) (A) (A) (A) (A) (A) (A) (A) (A) (A)
                 (A) (A) (A) (A) (A) (A) (A) (A) (A) (A) (A) (A)
                 (A) (A) (A) (A) (A) (A) (A) (A) (A) (A) (A) (A)
                 (A) (A) (A) (A) (A) (A) (A) (A) (A) (A) (A)
       Virtual   (A) (A) (A) (A) (A) (A) (A) (A) (A) (A) (A) (A)
                 (A) (A) (A) (A) (A) (A) (A) (A) (A) (A) (A) (A)
                 (A) (A) (A) (A) (A) (A) (A) (A) (A) (A) (A) (A)
                 (A) (A) (A) (A) (A) (A) (A) (A) (A) (A) (A) (A)
                 (A) (A) (A) (A) (A) (A) (A) (A) (A) (A) (A) (A)
                 (A) (A) (A) (A) (A) (A) (A) (A) (A) (A) (A) (A)
                 (A) (A) (A) (A) (A) (A) (A) (A) (A) (A) (A) (A)
                 (A) (A) (A) (A) (A) (A) (A) (A) (A) (A) (A) (A)
                 (A) (A) (A) (A) (A) (A) (A) (A) (A) (A) (A) (A)
                 (A) (A) (A) (A) (A) (A) (A) (A) (A) (A) (A) (A)
                 (A) (A) (A) (A) (A) (A) (A) (A) (A) (A) (A) (A)
                 (A) (A) (A) (A) (A) (A) (A) (A) (A) (A) (A) (A)
                 (A) (A) (A) (A) (A) (A) (A) (A) (A) (A) (A) (A)
                 (A) (A) (A) (A) (A) (A) (A) (A) (A) (A) (A) (A)
                 (A) (A) (A) (A) (A) (A) (A) (A) (A) (A) (A) (A)
                 (A) (A) (A) (A) (A) (A) (A) (A) (A) (A) (A) (A)
                 (A) (A) (A) (A) (A) (A) (A) (A) (A) (A) (A) (A)
                 (A) (A) (A) (A) (A) (A) (A) (A) (A) (A) (A) (A)
                 (A) (A) (A) (A) (A) (A) (A) (A) (A) (A) (A) (A)
                 (A) (A) (A) (A) (A) (A) (A) (A) (A) (A) (A) (A)
                 (A) (A) (A) (A) (A) (A) (A) (A) (A) (A) (A) (A)
                 (A) (A) (A) (A) (A) (A) (A) (A) (A) (A) (A) (A)
                 (A) (A) (A) (A) (A) (A) (A) (A) (A) (A) (A) (A)
                 (A) (A) (A) (A) (A) (A) (A) (A) (A) (A) (A) (A)
                 (A) (A) (A) (A) (A) (A) (A) (A) (A) (A) (A) (A)
                 (A) (A) (A) (A) (A) (A) (A) (A) (A) (A) (A) (A)
                 (A) (A) (A) (A) (A) (A) (A) (A) (A) (A) (A) (A)
                 (A) (A) (A) (A) (A) (A) (A) (A) (A) (A) (A) (A)
                 (A) (A) (A) (A) (A) (A) (A) (A) (A) (A) (A) (A)
                 (A) (A) (A) (A) (A) (A) (A) (A) (A) (A) (A) (A)
                 (A) (A) (A) (A) (A) (A) (A) (A) (A) (A) (A) (A)
                 (A) (A) (A) (A) (A) (A) (A) (A) (A) (A) (A) (A)
                 (A) (A) (A) (A) (A) (A) (A) (A) (A) (A) (A) (A)
                 (A) (A) (A) (A) (A) (A) (A) (A) (A) (A) (A) (A)
                 (A) (A) (A) (A) (A) (A) (A) (A) (A) (A) (A) (A)
                 (A) (A) (A) (A) (A) (A) (A) (A) (A) (A) (A) (A)
                 (A) (A) (A) (A) (A) (A) (A) (A) (A) (A) (A) (A)
                 (A) (A) (A) (A) (A) (A) (A) (A) (A) (A) (A) (A)
                 (A) (A) (A) (A) (A) (A) (A) (A) (A) (A) (A) (A)
                 (A) (A) (A) (A) (A) (A) (A) (A) (A) (A) (A) (A)
                 (A) (A) (A) (A) (A) (A) (A) (A) (A) (A) (A) (A)
                 (A) (A) (A) (A) (A) (A) (A) (A) (A) (A) (A) (A)
                 (A) (A) (A) (A) (A) (A) (A) (A) (A) (A) (A) (A)
                 (A) (A) (A) (A) (A) (A) (A) (A) (A) (A) (A) (A)
                 (A) (A) (A) (A) (A) (A) (A) (A) (A) (A) (A) (A)
                 (A) (A) (A) (A) (A) (A) (A) (A) (A) (A) (A) (A)
                 (A) (A) (A) (A) (A) (A) (A) (A) (A) (A) (A) (A)
                 (A) (A) (A) (A) (A) (A) (A) (A) (A) (A) (A) (A)
                 (A) (A) (A) (A) (A) (A) (A) (A) (A) (A) (A) (A)
                 (A) (A) (A) (A) (A) (A) (A) (A) (A) (A) (A) (A)
                 (A) (A) (A) (A) (A) (A) (A) (A) (A) (A) (A) (A)
                 (A) (A) (A) (A) (A) (A) (A) (A) (A) (A) (A) (A)
                 (A) (A) (A) (A) (A) (A) (A) (A) (A) (A) (A) (A)
                 (A) (A) (A) (A) (A) (A) (A) (A) (A) (A) (A) (A)
                 (A) (A) (A) (A) (A) (A) (A) (A) (A) (A) (A) (A)
                 (A) (A) (A) (A) (A) (A) (A) (A) (A) (A) (A) (A)
                 (A) (A) (A) (A) (A) (A) (A) (A) (A) (A) (A) (A)
                 (A) (A) (A) (A) (A) (A) (A) (A) (A) (A) (A) (A)
                 (A) (A) (A) (A) (A) (A) (A) (A) (A) (A) (A) (A)
                 (A) (A) (A) (A) (A) (A) (A) (A) (A) (A) (A) (A)
                 (A) (A) (A) (A) (A) (A) (A) (A) (A) (A) (A) (A)
                 (A) (A) (A) (A) (A) (A) (A) (A) (A) (A) (A) (A)
                 (A) (A) (A) (A) (A) (A) (A) (A) (A) (A) (A) (A)
                 (A) (A) (A) (A) (A) (A) (A) (A) (A) (A) (A) (A)
                 (A) (A) (A) (A) (A) (A) (A) (A) (A) (A) (A) (A)
                 (A) (A) (A) (A) (A) (A) (A) (A) (A) (A) (A) (A)
                 (A) (A) (A) (A) (A) (A) (A)
 The electronic state is 1-A.
 Alpha  occ. eigenvalues --  -89.86947 -19.66452 -19.63259 -19.61853 -19.61095
 Alpha  occ. eigenvalues --  -19.57196 -14.87718 -14.77843 -10.66527 -10.66211
 Alpha  occ. eigenvalues --  -10.64117 -10.63216 -10.61154 -10.61109 -10.60588
 Alpha  occ. eigenvalues --  -10.60478 -10.59568 -10.59520 -10.59363 -10.55092
 Alpha  occ. eigenvalues --  -10.53784 -10.52399 -10.52340 -10.49378  -8.22851
 Alpha  occ. eigenvalues --   -6.14818  -6.14592  -6.14326  -1.22389  -1.18418
 Alpha  occ. eigenvalues --   -1.17056  -1.15504  -1.13971  -1.10719  -1.03170
 Alpha  occ. eigenvalues --   -0.97647  -0.93089  -0.90632  -0.88252  -0.87641
 Alpha  occ. eigenvalues --   -0.85585  -0.81454  -0.80535  -0.79209  -0.76796
 Alpha  occ. eigenvalues --   -0.73206  -0.72006  -0.69910  -0.69153  -0.67087
 Alpha  occ. eigenvalues --   -0.66168  -0.64062  -0.62863  -0.62234  -0.61130
 Alpha  occ. eigenvalues --   -0.60057  -0.58281  -0.57861  -0.57403  -0.56152
 Alpha  occ. eigenvalues --   -0.55820  -0.54288  -0.53116  -0.52722  -0.51965
 Alpha  occ. eigenvalues --   -0.51827  -0.51071  -0.50214  -0.50140  -0.48794
 Alpha  occ. eigenvalues --   -0.48558  -0.48192  -0.47747  -0.47193  -0.46213
 Alpha  occ. eigenvalues --   -0.45706  -0.45607  -0.44888  -0.44029  -0.43367
 Alpha  occ. eigenvalues --   -0.43098  -0.40670  -0.39686  -0.38780  -0.37910
 Alpha  occ. eigenvalues --   -0.37446  -0.37184  -0.36780  -0.36620  -0.36155
 Alpha  occ. eigenvalues --   -0.34879  -0.34332  -0.29408  -0.28116  -0.21339
 Alpha virt. eigenvalues --   -0.06439  -0.04010   0.03726   0.04670   0.05184
 Alpha virt. eigenvalues --    0.06242   0.07077   0.07274   0.08167   0.08869
 Alpha virt. eigenvalues --    0.09344   0.10063   0.10292   0.10741   0.11286
 Alpha virt. eigenvalues --    0.11457   0.11949   0.12596   0.12905   0.13253
 Alpha virt. eigenvalues --    0.13763   0.14018   0.14327   0.14559   0.15201
 Alpha virt. eigenvalues --    0.15438   0.15554   0.16245   0.16333   0.16733
 Alpha virt. eigenvalues --    0.17582   0.17684   0.18555   0.18891   0.19539
 Alpha virt. eigenvalues --    0.20697   0.20889   0.21406   0.21590   0.22183
 Alpha virt. eigenvalues --    0.22779   0.23038   0.23507   0.23675   0.24153
 Alpha virt. eigenvalues --    0.24694   0.25424   0.25668   0.25814   0.26145
 Alpha virt. eigenvalues --    0.26654   0.27163   0.27706   0.28128   0.28792
 Alpha virt. eigenvalues --    0.29097   0.29488   0.29875   0.30404   0.31485
 Alpha virt. eigenvalues --    0.31583   0.31874   0.32546   0.33057   0.33503
 Alpha virt. eigenvalues --    0.33926   0.34536   0.35112   0.35755   0.36116
 Alpha virt. eigenvalues --    0.36702   0.36999   0.37436   0.37584   0.38221
 Alpha virt. eigenvalues --    0.38685   0.39046   0.39397   0.39684   0.39770
 Alpha virt. eigenvalues --    0.40247   0.40588   0.41210   0.41777   0.42016
 Alpha virt. eigenvalues --    0.42723   0.42963   0.43140   0.43718   0.44119
 Alpha virt. eigenvalues --    0.44213   0.44538   0.44985   0.45378   0.45664
 Alpha virt. eigenvalues --    0.45854   0.46226   0.46566   0.46877   0.47567
 Alpha virt. eigenvalues --    0.47752   0.48071   0.48511   0.48821   0.49166
 Alpha virt. eigenvalues --    0.49525   0.49556   0.49925   0.50566   0.50743
 Alpha virt. eigenvalues --    0.51339   0.51510   0.52066   0.52937   0.53364
 Alpha virt. eigenvalues --    0.53670   0.54022   0.54166   0.54801   0.55278
 Alpha virt. eigenvalues --    0.55419   0.55833   0.56018   0.56548   0.57493
 Alpha virt. eigenvalues --    0.58005   0.58831   0.59314   0.59885   0.60082
 Alpha virt. eigenvalues --    0.60633   0.61252   0.61680   0.61744   0.62866
 Alpha virt. eigenvalues --    0.63170   0.63475   0.64496   0.65021   0.65278
 Alpha virt. eigenvalues --    0.65835   0.66001   0.66908   0.67047   0.67398
 Alpha virt. eigenvalues --    0.67729   0.68166   0.68661   0.69458   0.70748
 Alpha virt. eigenvalues --    0.71664   0.71792   0.72347   0.72586   0.73293
 Alpha virt. eigenvalues --    0.74115   0.74534   0.75173   0.75964   0.77078
 Alpha virt. eigenvalues --    0.77298   0.78620   0.79365   0.79947   0.81102
 Alpha virt. eigenvalues --    0.81866   0.81892   0.82205   0.82976   0.83818
 Alpha virt. eigenvalues --    0.84213   0.86005   0.86635   0.87330   0.87427
 Alpha virt. eigenvalues --    0.87601   0.88846   0.89564   0.89758   0.90215
 Alpha virt. eigenvalues --    0.90595   0.91438   0.92076   0.92422   0.92980
 Alpha virt. eigenvalues --    0.93495   0.94566   0.95168   0.95729   0.96079
 Alpha virt. eigenvalues --    0.96524   0.97339   0.98172   0.98916   0.99580
 Alpha virt. eigenvalues --    1.00092   1.01135   1.01732   1.01944   1.02860
 Alpha virt. eigenvalues --    1.03369   1.03652   1.04257   1.05571   1.06404
 Alpha virt. eigenvalues --    1.07034   1.07987   1.08663   1.08866   1.09618
 Alpha virt. eigenvalues --    1.10283   1.10820   1.12189   1.12337   1.13031
 Alpha virt. eigenvalues --    1.14005   1.15041   1.16013   1.16458   1.17386
 Alpha virt. eigenvalues --    1.17835   1.18458   1.18845   1.19176   1.19880
 Alpha virt. eigenvalues --    1.21228   1.21528   1.22832   1.23767   1.24096
 Alpha virt. eigenvalues --    1.24482   1.25947   1.26151   1.27148   1.27911
 Alpha virt. eigenvalues --    1.28561   1.28948   1.29186   1.29769   1.31204
 Alpha virt. eigenvalues --    1.31824   1.32566   1.33435   1.34051   1.34310
 Alpha virt. eigenvalues --    1.35318   1.35978   1.37601   1.39281   1.39592
 Alpha virt. eigenvalues --    1.40204   1.41259   1.42615   1.42695   1.43677
 Alpha virt. eigenvalues --    1.44999   1.45260   1.46199   1.47539   1.50097
 Alpha virt. eigenvalues --    1.50918   1.52100   1.53011   1.53064   1.53149
 Alpha virt. eigenvalues --    1.53982   1.54510   1.54745   1.55156   1.55915
 Alpha virt. eigenvalues --    1.56574   1.56963   1.57089   1.58075   1.58672
 Alpha virt. eigenvalues --    1.59255   1.59463   1.60082   1.60628   1.61129
 Alpha virt. eigenvalues --    1.61332   1.61615   1.62427   1.62932   1.63139
 Alpha virt. eigenvalues --    1.63455   1.64046   1.64534   1.64751   1.65356
 Alpha virt. eigenvalues --    1.65940   1.67153   1.67523   1.68261   1.68651
 Alpha virt. eigenvalues --    1.69432   1.69926   1.70693   1.71410   1.71649
 Alpha virt. eigenvalues --    1.72085   1.72585   1.73178   1.74356   1.74884
 Alpha virt. eigenvalues --    1.75762   1.76728   1.77107   1.77983   1.78119
 Alpha virt. eigenvalues --    1.78411   1.79119   1.79679   1.80552   1.80862
 Alpha virt. eigenvalues --    1.82741   1.83172   1.83868   1.84262   1.84857
 Alpha virt. eigenvalues --    1.86124   1.86359   1.87162   1.88103   1.89100
 Alpha virt. eigenvalues --    1.89359   1.89602   1.90361   1.91393   1.91461
 Alpha virt. eigenvalues --    1.92263   1.93135   1.94311   1.94448   1.94515
 Alpha virt. eigenvalues --    1.95131   1.96362   1.96587   1.97866   1.98191
 Alpha virt. eigenvalues --    1.99092   2.00162   2.00249   2.01394   2.02696
 Alpha virt. eigenvalues --    2.03067   2.03530   2.04178   2.04564   2.04907
 Alpha virt. eigenvalues --    2.05969   2.06653   2.07532   2.08569   2.09427
 Alpha virt. eigenvalues --    2.10210   2.10904   2.11318   2.12456   2.13446
 Alpha virt. eigenvalues --    2.14112   2.14705   2.16394   2.16539   2.17358
 Alpha virt. eigenvalues --    2.17864   2.18686   2.18932   2.19696   2.20265
 Alpha virt. eigenvalues --    2.21172   2.21486   2.22397   2.22789   2.23176
 Alpha virt. eigenvalues --    2.23449   2.24589   2.25007   2.26332   2.26683
 Alpha virt. eigenvalues --    2.27732   2.28137   2.29162   2.29469   2.30087
 Alpha virt. eigenvalues --    2.30900   2.31912   2.32474   2.33819   2.34571
 Alpha virt. eigenvalues --    2.34908   2.35131   2.36034   2.36326   2.37130
 Alpha virt. eigenvalues --    2.37728   2.37766   2.38449   2.38781   2.39719
 Alpha virt. eigenvalues --    2.40458   2.41288   2.42364   2.42582   2.43750
 Alpha virt. eigenvalues --    2.45424   2.45546   2.46064   2.46428   2.47182
 Alpha virt. eigenvalues --    2.47823   2.50036   2.50676   2.51340   2.51818
 Alpha virt. eigenvalues --    2.53621   2.53746   2.54556   2.55353   2.55939
 Alpha virt. eigenvalues --    2.56727   2.57094   2.57825   2.58213   2.58398
 Alpha virt. eigenvalues --    2.59739   2.60097   2.60332   2.61036   2.61532
 Alpha virt. eigenvalues --    2.62291   2.63321   2.63514   2.64183   2.65449
 Alpha virt. eigenvalues --    2.66096   2.66430   2.67055   2.67422   2.68427
 Alpha virt. eigenvalues --    2.69197   2.69493   2.70028   2.70340   2.71233
 Alpha virt. eigenvalues --    2.71802   2.72183   2.73266   2.73838   2.74136
 Alpha virt. eigenvalues --    2.74851   2.75979   2.76834   2.77277   2.78317
 Alpha virt. eigenvalues --    2.79017   2.79471   2.80436   2.80922   2.81950
 Alpha virt. eigenvalues --    2.82164   2.82917   2.83488   2.84003   2.84527
 Alpha virt. eigenvalues --    2.85464   2.86330   2.86524   2.86545   2.87707
 Alpha virt. eigenvalues --    2.88732   2.89695   2.90140   2.90474   2.91763
 Alpha virt. eigenvalues --    2.93236   2.93551   2.93906   2.94669   2.95386
 Alpha virt. eigenvalues --    2.96745   2.97549   2.98351   2.98882   2.99474
 Alpha virt. eigenvalues --    3.00412   3.01497   3.01906   3.02799   3.02903
 Alpha virt. eigenvalues --    3.03786   3.04470   3.05417   3.05842   3.06778
 Alpha virt. eigenvalues --    3.08224   3.08326   3.08766   3.09794   3.09949
 Alpha virt. eigenvalues --    3.10389   3.10848   3.11371   3.12332   3.13004
 Alpha virt. eigenvalues --    3.13298   3.14054   3.14449   3.14958   3.15608
 Alpha virt. eigenvalues --    3.16045   3.16600   3.17405   3.17930   3.18447
 Alpha virt. eigenvalues --    3.19830   3.20169   3.20367   3.20753   3.21047
 Alpha virt. eigenvalues --    3.21846   3.22524   3.23736   3.23921   3.25021
 Alpha virt. eigenvalues --    3.25665   3.26390   3.26688   3.27263   3.28326
 Alpha virt. eigenvalues --    3.28899   3.29808   3.30284   3.30506   3.31380
 Alpha virt. eigenvalues --    3.32099   3.32483   3.33033   3.33556   3.34243
 Alpha virt. eigenvalues --    3.34871   3.35472   3.35841   3.36455   3.37084
 Alpha virt. eigenvalues --    3.38578   3.38854   3.38966   3.40095   3.40458
 Alpha virt. eigenvalues --    3.41159   3.41480   3.41903   3.42735   3.43324
 Alpha virt. eigenvalues --    3.44012   3.44586   3.44902   3.45555   3.45973
 Alpha virt. eigenvalues --    3.46520   3.47631   3.48232   3.48852   3.49984
 Alpha virt. eigenvalues --    3.50062   3.51391   3.52728   3.53133   3.53987
 Alpha virt. eigenvalues --    3.54423   3.55029   3.55998   3.56453   3.56811
 Alpha virt. eigenvalues --    3.57580   3.58238   3.58978   3.59688   3.60052
 Alpha virt. eigenvalues --    3.60743   3.61769   3.62545   3.63993   3.64602
 Alpha virt. eigenvalues --    3.66292   3.66801   3.67241   3.68846   3.70072
 Alpha virt. eigenvalues --    3.70725   3.71334   3.72781   3.73708   3.74568
 Alpha virt. eigenvalues --    3.76207   3.76474   3.77684   3.78956   3.79614
 Alpha virt. eigenvalues --    3.80184   3.80704   3.82286   3.82882   3.85598
 Alpha virt. eigenvalues --    3.85868   3.86767   3.87752   3.88187   3.89316
 Alpha virt. eigenvalues --    3.91153   3.91667   3.93205   3.94053   3.94485
 Alpha virt. eigenvalues --    3.96715   3.97396   3.97818   3.98203   3.99600
 Alpha virt. eigenvalues --    4.00405   4.01372   4.03776   4.05989   4.07089
 Alpha virt. eigenvalues --    4.08651   4.09827   4.11171   4.12704   4.13603
 Alpha virt. eigenvalues --    4.14283   4.15729   4.16890   4.17815   4.18750
 Alpha virt. eigenvalues --    4.19398   4.20581   4.21091   4.23501   4.24550
 Alpha virt. eigenvalues --    4.26894   4.27167   4.28361   4.29648   4.31198
 Alpha virt. eigenvalues --    4.32201   4.33385   4.34951   4.36496   4.37327
 Alpha virt. eigenvalues --    4.39363   4.40023   4.41075   4.42739   4.43960
 Alpha virt. eigenvalues --    4.44684   4.45874   4.45909   4.47726   4.49783
 Alpha virt. eigenvalues --    4.50583   4.51829   4.55134   4.56950   4.57351
 Alpha virt. eigenvalues --    4.59364   4.60698   4.62864   4.64491   4.67174
 Alpha virt. eigenvalues --    4.67810   4.72482   4.73661   4.75574   4.75995
 Alpha virt. eigenvalues --    4.77833   4.80358   4.80787   4.82424   4.83528
 Alpha virt. eigenvalues --    4.85244   4.86721   4.88924   4.89915   4.90629
 Alpha virt. eigenvalues --    4.92036   4.93330   4.95155   4.97398   4.98004
 Alpha virt. eigenvalues --    4.99883   5.02701   5.04610   5.04926   5.06614
 Alpha virt. eigenvalues --    5.08880   5.13145   5.15563   5.18994   5.20470
 Alpha virt. eigenvalues --    5.21516   5.25122   5.26678   5.27154   5.28149
 Alpha virt. eigenvalues --    5.30649   5.31474   5.32061   5.34579   5.37917
 Alpha virt. eigenvalues --    5.39667   5.42383   5.43273   5.45514   5.47134
 Alpha virt. eigenvalues --    5.48863   5.49371   5.50780   5.53290   5.58235
 Alpha virt. eigenvalues --    5.64436   5.67242   5.72519   5.74569   5.77686
 Alpha virt. eigenvalues --    5.80049   5.81029   5.83481   5.84469   5.86842
 Alpha virt. eigenvalues --    5.89119   5.90598   5.91847   5.94175   5.95596
 Alpha virt. eigenvalues --    5.97411   6.03584   6.06046   6.15247   6.17447
 Alpha virt. eigenvalues --    6.20277   6.22615   6.25870   6.26846   6.38277
 Alpha virt. eigenvalues --    6.41768   6.44329   6.47926   6.49249   6.55286
 Alpha virt. eigenvalues --    6.58923   6.67600   6.73245   6.75256   6.76268
 Alpha virt. eigenvalues --    6.77744   6.80615   6.83967   6.85170   6.87161
 Alpha virt. eigenvalues --    6.89218   6.95381   6.99899   7.07785   7.08910
 Alpha virt. eigenvalues --    7.09665   7.11934   7.16866   7.19382   7.22396
 Alpha virt. eigenvalues --    7.32332   7.40684   9.06455   9.42640   9.59087
 Alpha virt. eigenvalues --   19.82301  22.36392  22.46605  22.49538  22.59958
 Alpha virt. eigenvalues --   22.64920  22.70523  22.74846  22.76270  22.82297
 Alpha virt. eigenvalues --   22.86791  22.95412  22.97453  23.07357  23.18328
 Alpha virt. eigenvalues --   23.29244  23.52009  32.18859  33.16728  44.13951
 Alpha virt. eigenvalues --   44.22771  44.26101  44.36036  44.51486
          Condensed to atoms (all electrons):
               1          2          3          4          5          6
     1  C    5.146555   0.429149   0.412918   0.006788  -0.006659  -0.000250
     2  H    0.429149   0.496429  -0.013874  -0.002283   0.000471  -0.000005
     3  H    0.412918  -0.013874   0.505379  -0.000690   0.000199  -0.000009
     4  C    0.006788  -0.002283  -0.000690   5.596060   0.543038   0.233134
     5  H   -0.006659   0.000471   0.000199   0.543038   0.528127  -0.035271
     6  O   -0.000250  -0.000005  -0.000009   0.233134  -0.035271   8.171846
     7  H   -0.000001  -0.000002  -0.000003  -0.056871  -0.006866   0.307420
     8  C   -0.006585   0.010984  -0.000901  -0.053002  -0.106774  -0.061455
     9  H    0.006963  -0.000300  -0.002014  -0.074646   0.002070   0.001275
    10  O    0.005243  -0.000190  -0.000017   0.050678   0.005640  -0.022312
[...]
 Dipole        =-6.36740102D-01-2.62838881D+00-7.97205308D-01
 ***** Axes restored to original set *****
 -------------------------------------------------------------------
 Center     Atomic                   Forces (Hartrees/Bohr)
 Number     Number              X              Y              Z
 -------------------------------------------------------------------
      1        6          -0.000092187   -0.000012795    0.000150270
      2        1          -0.000010836    0.000016132    0.000007720
      3        1          -0.000013558   -0.000015738    0.000002239
      4        6          -0.000264022    0.000064227    0.000185885
      5        1          -0.000063165    0.000004404    0.000006655
      6        8          -0.000519099    0.000235897    0.000009064
      7        1          -0.000049877    0.000010632   -0.000018241
      8        6          -0.000277423    0.000011034    0.000267265
      9        1          -0.000029007    0.000007713    0.000039616
     10        8          -0.000406273    0.000163665    0.000165360
     11        1          -0.000039255    0.000007431    0.000026324
     12        6           0.000036551    0.000039741    0.000236294
     13        1           0.000013361    0.000014940   -0.000009217
     14        6          -0.000155905    0.000002338    0.000314171
     15        1          -0.000010245   -0.000002386    0.000029426
     16        8          -0.000030558    0.000033781    0.000316761
     17        7           0.000173798   -0.000086898   -0.000038996
     18        6           0.000897510    0.000157062   -0.000833298
     19        1           0.000047041    0.000017549   -0.000040020
     20        6           0.001777553    0.000211891   -0.002254219
     21        1           0.000200632    0.000053494   -0.000236906
     22        6           0.002240481    0.000248430   -0.002781321
     23        1           0.000217974    0.000034628   -0.000189198
     24        1          -0.000227818   -0.000287482    0.000271050
     25        6           0.000487269   -0.000088333   -0.000545455
     26        6          -0.000147069   -0.000091107    0.000708907
     27        1          -0.000085129   -0.000026227    0.000151569
     28        6          -0.000002651   -0.000132538    0.000030483
     29        8           0.000168253   -0.000296556   -0.000187816
     30        7          -0.000297226   -0.000374883    0.000741362
     31        1          -0.000007986   -0.000015433    0.000085011
     32        1           0.000007654    0.000011446    0.000161864
     33        1          -0.000047131   -0.000007335    0.000024916
     34        6          -0.000266002   -0.000063818    0.000099919
     35        6          -0.000013252   -0.000154813   -0.000433616
     36        6          -0.000231623   -0.000597563    0.000169939
     37        6          -0.001944531    0.001566260    0.002804423
     38        6          -0.001624260   -0.001023892    0.001573014
     39        8           0.001061182    0.000022445   -0.001493979
     40       16           0.000355695    0.000027629   -0.000915281
     41        1          -0.000033016   -0.000017585    0.000000795
     42        1          -0.000004904   -0.000000706    0.000030805
     43        1           0.000017479    0.000611231    0.000162530
     44        1           0.000004262   -0.000091954   -0.000037243
     45        1          -0.000394900    0.000069166    0.000614167
     46        1          -0.000328756   -0.000154688    0.000545764
     47        1          -0.000058230   -0.000087121    0.000105816
     48        1          -0.000030800   -0.000013315   -0.000024576
 -------------------------------------------------------------------
 Cartesian Forces:  Max     0.002804423 RMS     0.000606732
 Leave Link  716 at Sat Aug 13 20:46:48 2022, MaxMem=  2684354560 cpu:               0.8 elap:               0.1
 (Enter /storage/apps/GAUSSIAN/G16_RevA03/g16/l103.exe)

 GradGradGradGradGradGradGradGradGradGradGradGradGradGradGradGradGradGrad
 Berny optimization.
 Search for a local minimum.
 Step number   1 out of a maximum of    2
 All quantities printed in internal units (Hartrees-Bohrs-Radians)
 Second derivative matrix not updated -- first step.
 ITU=  0
     Eigenvalues ---    0.00025   0.00089   0.00107   0.00128   0.00184
     Eigenvalues ---    0.00217   0.00319   0.00359   0.00448   0.00491
     Eigenvalues ---    0.00610   0.00617   0.00807   0.00925   0.00957
     Eigenvalues ---    0.00973   0.01116   0.01167   0.01368   0.01507
     Eigenvalues ---    0.01720   0.02155   0.02349   0.02432   0.02677
     Eigenvalues ---    0.03030   0.03128   0.03308   0.03725   0.04265
     Eigenvalues ---    0.04400   0.04603   0.04820   0.05014   0.05256
     Eigenvalues ---    0.05324   0.05535   0.05740   0.05826   0.05974
     Eigenvalues ---    0.06166   0.06301   0.06469   0.06840   0.07039
     Eigenvalues ---    0.07056   0.07129   0.07668   0.08069   0.08334
     Eigenvalues ---    0.08614   0.08781   0.09274   0.09355   0.10255
     Eigenvalues ---    0.10755   0.10836   0.11200   0.12264   0.12562
     Eigenvalues ---    0.12831   0.13079   0.13238   0.13296   0.13697
     Eigenvalues ---    0.13867   0.14048   0.15494   0.16153   0.16520
     Eigenvalues ---    0.17472   0.18138   0.18680   0.19298   0.19857
     Eigenvalues ---    0.20323   0.20674   0.21264   0.21937   0.22522
     Eigenvalues ---    0.25164   0.26046   0.27073   0.28025   0.30621
     Eigenvalues ---    0.33188   0.33580   0.34067   0.34743   0.37694
     Eigenvalues ---    0.37881   0.37881   0.37881   0.37881   0.40123
     Eigenvalues ---    0.43721   0.48158   0.48951   0.57100   0.59303
     Eigenvalues ---    0.59953   0.61748   0.69592   0.72325   0.73683
     Eigenvalues ---    0.79313   0.81222   0.82713   0.87467   0.90866
     Eigenvalues ---    0.91265   0.92118   0.93010   0.93447   0.95410
     Eigenvalues ---    0.96728   0.99995   1.00615   1.02270   1.04161
     Eigenvalues ---    1.05999   1.08556   1.11590   1.12419   1.12602
     Eigenvalues ---    1.20454   1.20802   1.27456   1.27715   1.29463
     Eigenvalues ---    1.32993   1.37202   1.43739   1.55428   1.72673
     Eigenvalues ---    1.83210   1.89367   2.35281
 Quadratic step=7.562D+00 exceeds max=3.000D-01 adjusted using Lamda=-8.666D-03.
 Angle between NR and scaled steps=  40.21 degrees.
 Angle between quadratic step and forces=  55.21 degrees.
 Linear search not attempted -- first point.
 Variable       Old X    -DE/DX   Delta X   Delta X   Delta X     New X
                                 (Linear)    (Quad)   (Total)
    X1        6.79949  -0.00009   0.00000  -0.02472  -0.02472   6.77477
    Y1       -6.83303  -0.00001   0.00000  -0.01519  -0.01519  -6.84822
    Z1       -0.83720   0.00015   0.00000   0.01478   0.01478  -0.82242
    X2        7.08446  -0.00001   0.00000  -0.02825  -0.02825   7.05621
    Y2       -7.01083   0.00002   0.00000  -0.01976  -0.01976  -7.03059
    Z2       -2.86810   0.00001   0.00000   0.01411   0.01411  -2.85399
    X3        8.19083  -0.00001   0.00000  -0.02101  -0.02101   8.16982
    Y3       -8.00692  -0.00002   0.00000  -0.01417  -0.01417  -8.02109
    Z3        0.12753   0.00000   0.00000   0.01124   0.01124   0.13878
    X4        3.51360  -0.00026   0.00000  -0.00639  -0.00639   3.50721
    Y4       -2.71618   0.00006   0.00000   0.01233   0.01233  -2.70385
    Z4        2.35010   0.00019   0.00000   0.01436   0.01436   2.36446
    X5        2.28868  -0.00006   0.00000  -0.01039  -0.01039   2.27829
    Y5       -4.36590   0.00000   0.00000   0.01437   0.01437  -4.35154
    Z5        2.05763   0.00001   0.00000   0.02160   0.02160   2.07923
    X6        2.76091  -0.00052   0.00000   0.00192   0.00192   2.76283
    Y6       -1.28009   0.00024   0.00000   0.02692   0.02692  -1.25317
    Z6        4.39398   0.00001   0.00000   0.00774   0.00774   4.40172
    X7        0.98523  -0.00005   0.00000   0.00603   0.00603   0.99126
    Y7       -0.69612   0.00001   0.00000   0.03439   0.03439  -0.66173
    Z7        4.08580  -0.00002   0.00000   0.00131   0.00131   4.08712
    X8        6.26287  -0.00028   0.00000  -0.00715  -0.00715   6.25572
    Y8       -3.56041   0.00001   0.00000   0.00499   0.00499  -3.55542
    Z8        2.66448   0.00027   0.00000   0.00753   0.00753   2.67201
    X9        6.42084  -0.00003   0.00000  -0.00218  -0.00218   6.41865
    Y9       -5.23371   0.00001   0.00000   0.01121   0.01121  -5.22250
    Z9        3.86912   0.00004   0.00000   0.01514   0.01514   3.88426
   X10        7.70250  -0.00041   0.00000   0.00234   0.00234   7.70483
   Y10       -1.54256   0.00016   0.00000   0.00871   0.00871  -1.53385
   Z10        3.61910   0.00017   0.00000  -0.01501  -0.01501   3.60409
   X11        6.66858  -0.00004   0.00000   0.01343   0.01343   6.68200
   Y11       -0.71253   0.00001   0.00000   0.02017   0.02017  -0.69235
   Z11        4.87880   0.00003   0.00000  -0.01421  -0.01421   4.86459
   X12        3.73162   0.00004   0.00000  -0.00632  -0.00632   3.72531
   Y12       -1.24530   0.00004   0.00000   0.00014   0.00014  -1.24516
   Z12       -0.14721   0.00024   0.00000   0.00800   0.00800  -0.13921
   X13        4.27015   0.00001   0.00000   0.00532   0.00532   4.27547
   Y13        0.71245   0.00001   0.00000  -0.00036  -0.00036   0.71209
   Z13        0.22910  -0.00001   0.00000  -0.00589  -0.00589   0.22321
   X14        7.08970  -0.00016   0.00000  -0.01838  -0.01838   7.07131
   Y14       -4.10033   0.00000   0.00000  -0.01293  -0.01293  -4.11326
   Z14       -0.04085   0.00031   0.00000   0.00716   0.00716  -0.03369
   X15        9.03161  -0.00001   0.00000  -0.01698  -0.01698   9.01464
   Y15       -3.46098  -0.00000   0.00000  -0.01939  -0.01939  -3.48037
   Z15       -0.29696   0.00003   0.00000  -0.00491  -0.00491  -0.30187
   X16        5.50334  -0.00003   0.00000  -0.01871  -0.01871   5.48463
   Y16       -2.52536   0.00003   0.00000  -0.01458  -0.01458  -2.53994
   Z16       -1.61335   0.00032   0.00000   0.00762   0.00762  -1.60574
   X17        1.36288   0.00017   0.00000  -0.00218  -0.00218   1.36070
   Y17       -1.13655  -0.00009   0.00000  -0.00076  -0.00076  -1.13732
   Z17       -1.62454  -0.00004   0.00000   0.00439   0.00439  -1.62016
   X18        0.39150   0.00090   0.00000   0.02252   0.02252   0.41402
   Y18       -3.33217   0.00016   0.00000   0.00200   0.00200  -3.33018
   Z18       -2.52508  -0.00083   0.00000  -0.02787  -0.02787  -2.55295
   X19        1.45717   0.00005   0.00000   0.02265   0.02265   1.47982
   Y19       -5.01714   0.00002   0.00000   0.00324   0.00324  -5.01390
   Z19       -2.10358  -0.00004   0.00000  -0.02277  -0.02277  -2.12634
   X20       -1.75152   0.00178   0.00000   0.04796   0.04796  -1.70356
   Y20       -3.31198   0.00021   0.00000   0.00429   0.00429  -3.30769
   Z20       -3.95400  -0.00225   0.00000  -0.06530  -0.06530  -4.01930
   X21       -2.49275   0.00020   0.00000   0.06006   0.06006  -2.43270
   Y21       -5.07202   0.00005   0.00000   0.00559   0.00559  -5.06643
   Z21       -4.67397  -0.00024   0.00000  -0.08041  -0.08041  -4.75438
   X22       -2.94581   0.00224   0.00000   0.04386   0.04386  -2.90195
   Y22       -1.01700   0.00025   0.00000   0.00284   0.00284  -1.01416
   Z22       -4.47620  -0.00278   0.00000  -0.06085  -0.06085  -4.53705
   X23       -4.54919   0.00022   0.00000   0.05511   0.05511  -4.49408
   Y23       -0.96521   0.00003   0.00000   0.00611   0.00611  -0.95909
   Z23       -5.74323  -0.00019   0.00000  -0.07426  -0.07426  -5.81749
   X24       -5.47339  -0.00023   0.00000  -0.01554  -0.01554  -5.48893
   Y24       -1.40723  -0.00029   0.00000  -0.04273  -0.04273  -1.44996
   Z24       -1.80262   0.00027   0.00000   0.04096   0.04096  -1.76166
   X25       -1.92353   0.00049   0.00000   0.00483   0.00483  -1.91871
   Y25        1.21686  -0.00009   0.00000  -0.00302  -0.00302   1.21384
   Z25       -3.52159  -0.00055   0.00000  -0.00635  -0.00635  -3.52794
   X26        0.26335  -0.00015   0.00000  -0.01044  -0.01044   0.25291
   Y26        1.07374  -0.00009   0.00000  -0.00289  -0.00289   1.07085
   Z26       -2.09964   0.00071   0.00000   0.01675   0.01675  -2.08289
   X27        1.12431  -0.00009   0.00000  -0.02237  -0.02237   1.10194
   Y27        2.76706  -0.00003   0.00000  -0.00503  -0.00503   2.76203
   Z27       -1.33938   0.00015   0.00000   0.03521   0.03521  -1.30417
   X28       -2.90503  -0.00000   0.00000  -0.01827  -0.01827  -2.92330
   Y28        3.81024  -0.00013   0.00000  -0.00488  -0.00488   3.80536
   Z28       -4.08880   0.00003   0.00000   0.02968   0.02968  -4.05912
   X29       -1.56857   0.00017   0.00000  -0.02620  -0.02620  -1.59477
   Y29        5.64828  -0.00030   0.00000  -0.00009  -0.00009   5.64818
   Z29       -3.86586  -0.00019   0.00000   0.03405   0.03405  -3.83181
   X30       -5.31008  -0.00030   0.00000  -0.02538  -0.02538  -5.33546
   Y30        3.90021  -0.00037   0.00000  -0.00785  -0.00785   3.89236
   Z30       -5.03495   0.00074   0.00000   0.04877   0.04877  -4.98617
   X31       -6.01879  -0.00001   0.00000  -0.02551  -0.02551  -6.04430
   Y31        5.66375  -0.00002   0.00000  -0.00819  -0.00819   5.65556
   Z31       -5.19027   0.00009   0.00000   0.04675   0.04675  -5.14352
   X32       -6.54517   0.00001   0.00000  -0.01929  -0.01929  -6.56446
   Y32        2.57873   0.00001   0.00000  -0.01283  -0.01283   2.56590
   Z32       -4.43116   0.00016   0.00000   0.04693   0.04693  -4.38424
   X33        4.92136  -0.00005   0.00000  -0.02332  -0.02332   4.89803
   Y33       -7.55173  -0.00001   0.00000  -0.01357  -0.01357  -7.56530
   Z33       -0.36898   0.00002   0.00000   0.02025   0.02025  -0.34872
   X34        0.37946  -0.00027   0.00000  -0.00994  -0.00994   0.36952
   Y34        4.15668  -0.00006   0.00000   0.00577   0.00577   4.16245
   Z34        5.37999   0.00010   0.00000   0.00517   0.00517   5.38516
   X35       -3.14131  -0.00001   0.00000   0.02731   0.02731  -3.11400
   Y35        1.69387  -0.00015   0.00000  -0.00577  -0.00577   1.68810
   Z35        2.32830  -0.00043   0.00000  -0.02535  -0.02535   2.30296
   X36       -5.31019  -0.00023   0.00000   0.00723   0.00723  -5.30295
   Y36        1.61281  -0.00060   0.00000  -0.01911  -0.01911   1.59369
   Z36        0.89020   0.00017   0.00000   0.00505   0.00505   0.89525
   X37       -9.21966  -0.00194   0.00000  -0.01142  -0.01142  -9.23108
   Y37       -0.71552   0.00157   0.00000   0.01863   0.01863  -0.69689
   Z37       -0.63206   0.00280   0.00000   0.01487   0.01487  -0.61719
   X38       -6.40238  -0.00162   0.00000  -0.01676  -0.01676  -6.41914
   Y38       -0.79012  -0.00102   0.00000  -0.02021  -0.02021  -0.81033
   Z38       -0.03606   0.00157   0.00000   0.03586   0.03586  -0.00020
   X39       -1.72602   0.00106   0.00000   0.05544   0.05544  -1.67058
   Y39       -0.15491   0.00002   0.00000   0.00681   0.00681  -0.14811
   Z39        2.87206  -0.00149   0.00000  -0.05501  -0.05501   2.81705
   X40       -2.29228   0.00036   0.00000   0.01792   0.01792  -2.27436
   Y40        4.83262   0.00003   0.00000   0.00071   0.00071   4.83334
   Z40        3.39013  -0.00092   0.00000  -0.03280  -0.03280   3.35733
   X41        0.83052  -0.00003   0.00000  -0.02405  -0.02405   0.80647
   Y41        5.91353  -0.00002   0.00000   0.00753   0.00753   5.92106
   Z41        6.34988   0.00000   0.00000   0.00787   0.00787   6.35775
   X42        2.01490  -0.00000   0.00000   0.00451   0.00451   2.01940
   Y42        3.54798  -0.00000   0.00000   0.00532   0.00532   3.55330
   Z42        4.29460   0.00003   0.00000   0.02677   0.02677   4.32137
   X43      -10.35454   0.00002   0.00000  -0.02869  -0.02869 -10.38324
   Y43       -0.56695   0.00061   0.00000   0.06846   0.06846  -0.49849
   Z43        1.08114   0.00016   0.00000  -0.00519  -0.00519   1.07595
   X44       -9.69196   0.00000   0.00000   0.03636   0.03636  -9.65560
   Y44        0.91831  -0.00009   0.00000  -0.00062  -0.00062   0.91770
   Z44       -1.80857  -0.00004   0.00000  -0.03224  -0.03224  -1.84081
   X45       -9.80818  -0.00039   0.00000  -0.01861  -0.01861  -9.82679
   Y45       -2.41135   0.00007   0.00000   0.01013   0.01013  -2.40122
   Z45       -1.64766   0.00061   0.00000   0.03098   0.03098  -1.61668
   X46       -5.95796  -0.00033   0.00000  -0.03263  -0.03263  -5.99059
   Y46       -2.32365  -0.00015   0.00000  -0.01606  -0.01606  -2.33971
   Z46        1.27745   0.00055   0.00000   0.04516   0.04516   1.32260
   X47       -6.34685  -0.00006   0.00000   0.01408   0.01408  -6.33277
   Y47        3.35802  -0.00009   0.00000  -0.01768  -0.01768   3.34033
   Z47        0.61023   0.00011   0.00000  -0.00977  -0.00977   0.60046
   X48       -0.09557  -0.00003   0.00000  -0.02792  -0.02792  -0.12349
   Y48        2.71543  -0.00001   0.00000   0.00618   0.00618   2.72162
   Z48        6.76728  -0.00002   0.00000  -0.00089  -0.00089   6.76638
         Item               Value     Threshold  Converged?
 Maximum Force            0.002804     0.000450     NO 
 RMS     Force            0.000607     0.000300     NO 
 Maximum Displacement     0.080409     0.001800     NO 
 RMS     Displacement     0.025003     0.001200     NO 
 Predicted change in Energy=-1.013233D-03
 GradGradGradGradGradGradGradGradGradGradGradGradGradGradGradGradGradGrad

 Leave Link  103 at Sat Aug 13 20:46:48 2022, MaxMem=  2684354560 cpu:               1.0 elap:               0.1
 (Enter /storage/apps/GAUSSIAN/G16_RevA03/g16/l9999.exe)

 Test job not archived.
 1\1\GINC-T045\Force\RM062X\def2TZVP\C16H24N2O5S1\LV87696\13-Aug-2022\0
 \\#P M062X/Def2TZVP scf=(direct,conver=8) EmpiricalDispersion=GD3 Forc
 e Charge Prop=(Field,Read)\\Gaussian run\\0,1\C,3.598135,-3.615884,-0.
 443027\H,3.748937,-3.70997,-1.517734\H,4.3344,-4.237078,0.067488\C,1.8
 59315,-1.437343,1.243619\H,1.211118,-2.310336,1.08885\O,1.461013,-0.67
 7393,2.325194\H,0.521361,-0.36837,2.162114\C,3.31417,-1.884087,1.40998
 3\H,3.397761,-2.769559,2.04745\O,4.075985,-0.816285,1.915147\H,3.52885
 8,-0.377052,2.581752\C,1.97469,-0.658986,-0.077898\H,2.259666,0.377012
 ,0.121235\C,3.751706,-2.169799,-0.021616\H,4.779323,-1.831472,-0.15714
 5\O,2.912243,-1.336361,-0.85375\N,0.721204,-0.601439,-0.859672\C,0.207
 172,-1.763311,-1.336216\H,0.771101,-2.654957,-1.113164\C,-0.926864,-1.
 752625,-2.092368\H,-1.319109,-2.683996,-2.473359\C,-1.558856,-0.538172
 ,-2.368705\H,-2.407329,-0.510766,-3.039187\H,-2.896394,-0.744675,-0.95
 3907\C,-1.017889,0.643934,-1.863544\C,0.13936,0.5682,-1.111083\H,0.594
 959,1.464266,-0.708771\C,-1.537275,2.016292,-2.163698\O,-0.830053,2.98
 8939,-2.045727\N,-2.809975,2.063903,-2.664379\H,-3.185006,2.997125,-2.
 746571\H,-3.463555,1.364607,-2.34487\H,2.604269,-3.996206,-0.195254\C,
 0.200803,2.19962,2.846966\C,-1.66231,0.896358,1.232084\C,-2.810029,0.8
 5346,0.471073\C,-4.878835,-0.378635,-0.334473\C,-3.387993,-0.418112,-0
 .019082\O,-0.913371,-0.081977,1.51983\S,-1.213023,2.557313,1.79398\H,0
 .439492,3.129307,3.36021\H,1.066238,1.87751,2.272607\H,-5.479389,-0.30
 0017,0.572114\H,-5.128762,0.48595,-0.957053\H,-5.190267,-1.276033,-0.8
 71903\H,-3.152815,-1.229622,0.675996\H,-3.358608,1.776986,0.322919\H,-
 0.050576,1.436946,3.581088\\Version=ES64L-G16RevA.03\State=1-A\HF=-150
 7.9023433\RMSD=4.125e-09\RMSF=6.067e-04\Dipole=-0.066363,-2.2543232,-1
 .6920475\Quadrupole=1.8183425,1.2449374,-3.0632799,-3.9138023,9.564756
 2,4.7240804\PG=C01 [X(C16H24N2O5S1)]\\@


 ERWIN WITH HIS PSI CAN DO
 CALCULATIONS QUITE A FEW.
 BUT ONE THING HAS NOT BEEN SEEN
 JUST WHAT DOES PSI REALLY MEAN.
 -- WALTER HUCKEL, TRANS. BY FELIX BLOCH
 Job cpu time:       0 days  3 hours 20 minutes 10.6 seconds.
 Elapsed time:       0 days  0 hours 12 minutes 32.5 seconds.
 File lengths (MBytes):  RWF=    435 Int=      0 D2E=      0 Chk=     48 Scr=      1
 Normal termination of Gaussian 16 at Sat Aug 13 20:46:48 2022.
