 Entering Gaussian System, Link 0=g16
 Initial command:
 /storage/apps/GAUSSIAN/G16_RevA03/g16/l1.exe "/scratch/tmp/1019316/Gau-132297.inp" -scrdir="/scratch/tmp/1019316/"
 Entering Link 1 = /storage/apps/GAUSSIAN/G16_RevA03/g16/l1.exe PID=    132298.
  
 Copyright (c) 1988,1990,1992,1993,1995,1998,2003,2009,2016,
            Gaussian, Inc.  All Rights Reserved.
  
 This is part of the Gaussian(R) 16 program.  It is based on
 the Gaussian(R) 09 system (copyright 2009, Gaussian, Inc.),
 the Gaussian(R) 03 system (copyright 2003, Gaussian, Inc.),
 the Gaussian(R) 98 system (copyright 1998, Gaussian, Inc.),
 the Gaussian(R) 94 system (copyright 1995, Gaussian, Inc.),
 the Gaussian 92(TM) system (copyright 1992, Gaussian, Inc.),
 the Gaussian 90(TM) system (copyright 1990, Gaussian, Inc.),
 the Gaussian 88(TM) system (copyright 1988, Gaussian, Inc.),
 the Gaussian 86(TM) system (copyright 1986, Carnegie Mellon
 University), and the Gaussian 82(TM) system (copyright 1983,
 Carnegie Mellon University). Gaussian is a federally registered
 trademark of Gaussian, Inc.
  
 This software contains proprietary and confidential information,
 including trade secrets, belonging to Gaussian, Inc.
  
 This software is provided under written license and may be
 used, copied, transmitted, or stored only in accord with that
 written license.
  
 The following legend is applicable only to US Government
 contracts under FAR:
  
                    RESTRICTED RIGHTS LEGEND
  
 Use, reproduction and disclosure by the US Government is
 subject to restrictions as set forth in subparagraphs (a)
 and (c) of the Commercial Computer Software - Restricted
 Rights clause in FAR 52.227-19.
  
 Gaussian, Inc.
 340 Quinnipiac St., Bldg. 40, Wallingford CT 06492
  
  
 ---------------------------------------------------------------
 Warning -- This program may not be used in any manner that
 competes with the business of Gaussian, Inc. or will provide
 assistance to any competitor of Gaussian, Inc.  The licensee
 of this program is prohibited from giving any competitor of
 Gaussian, Inc. access to this program.  By using this program,
 the user acknowledges that Gaussian, Inc. is engaged in the
 business of creating and licensing software in the field of
 computational chemistry and represents and warrants to the
 licensee that it is not a competitor of Gaussian, Inc. and that
 it will not use this program in any manner prohibited above.
 ---------------------------------------------------------------
  

 Cite this work as:
 Gaussian 16, Revision A.03,
 M. J. Frisch, G. W. Trucks, H. B. Schlegel, G. E. Scuseria, 
 M. A. Robb, J. R. Cheeseman, G. Scalmani, V. Barone, 
 G. A. Petersson, H. Nakatsuji, X. Li, M. Caricato, A. V. Marenich, 
 J. Bloino, B. G. Janesko, R. Gomperts, B. Mennucci, H. P. Hratchian, 
 J. V. Ortiz, A. F. Izmaylov, J. L. Sonnenberg, D. Williams-Young, 
 F. Ding, F. Lipparini, F. Egidi, J. Goings, B. Peng, A. Petrone, 
 T. Henderson, D. Ranasinghe, V. G. Zakrzewski, J. Gao, N. Rega, 
 G. Zheng, W. Liang, M. Hada, M. Ehara, K. Toyota, R. Fukuda, 
 J. Hasegawa, M. Ishida, T. Nakajima, Y. Honda, O. Kitao, H. Nakai, 
 T. Vreven, K. Throssell, J. A. Montgomery, Jr., J. E. Peralta, 
 F. Ogliaro, M. J. Bearpark, J. J. Heyd, E. N. Brothers, K. N. Kudin, 
 V. N. Staroverov, T. A. Keith, R. Kobayashi, J. Normand, 
 K. Raghavachari, A. P. Rendell, J. C. Burant, S. S. Iyengar, 
 J. Tomasi, M. Cossi, J. M. Millam, M. Klene, C. Adamo, R. Cammi, 
 J. W. Ochterski, R. L. Martin, K. Morokuma, O. Farkas, 
 J. B. Foresman, and D. J. Fox, Gaussian, Inc., Wallingford CT, 2016.
 
 ******************************************
 Gaussian 16:  ES64L-G16RevA.03 25-Dec-2016
                13-Aug-2022 
 ******************************************
 %NProcShared=16
 Will use up to   16 processors via shared memory.
 %mem=20GB
 ----------------------------------------------------------------------
 #P M062X/Def2TZVP scf=(direct,conver=8) EmpiricalDispersion=GD3 Force 
 Charge Prop=(Field,Read)
 ----------------------------------------------------------------------
 1/10=7,18=10,28=-2,30=1,38=1,125=101/1,3;
 2/12=2,17=6,18=5,29=2,40=1/2;
 3/5=44,7=101,11=2,25=1,30=1,71=1,74=-55,124=31/1,2,3;
 4//1;
 5/5=2,6=8,38=5/2;
 6/7=2,8=2,9=2,10=2,14=2,15=1,28=1/1,2;
 7/7=1,16=-2,29=1/1,2,3,16;
 1/10=7,18=10,28=-2,30=1/3;
 99/12=1/99;
 Leave Link    1 at Sat Aug 13 20:34:15 2022, MaxMem=  2684354560 cpu:               0.7 elap:               0.1
 (Enter /storage/apps/GAUSSIAN/G16_RevA03/g16/l101.exe)
 ------------
 Gaussian run
 ------------
 Symbolic Z-matrix:
 Charge =  0 Multiplicity = 1
 C                     3.59802  -3.6159   -0.44284 
 H                     3.74888  -3.70985  -1.51755 
 H                     4.33429  -4.23713   0.06762 
 C                     1.85902  -1.43727   1.24386 
 H                     1.21079  -2.31023   1.08895 
 O                     1.46057  -0.67719   2.32521 
 H                     0.5209   -0.36792   2.16163 
 C                     3.31387  -1.88407   1.41029 
 H                     3.39744  -2.76947   2.04786 
 O                     4.07564  -0.81617   1.91532 
 H                     3.52842  -0.37682   2.58178 
 C                     1.97472  -0.65895  -0.07761 
 H                     2.25962   0.37706   0.12152 
 C                     3.75155  -2.16986  -0.02126 
 H                     4.77918  -1.83155  -0.15667 
 O                     2.91221  -1.33633  -0.85345 
 N                     0.72136  -0.60148  -0.85973 
 C                     0.20827  -1.76313  -1.33722 
 H                     0.77209  -2.65473  -1.11384 
 C                    -0.92485  -1.75229  -2.09503 
 H                    -1.31639  -2.68352  -2.47704 
 C                    -1.55618  -0.53784  -2.37192 
 H                    -2.40468  -0.51029  -3.04214 
 H                    -2.89928  -0.74913  -0.95068 
 C                    -1.01734   0.64376  -1.86415 
 C                     0.13914   0.56806  -1.11027 
 H                     0.5937    1.46391  -0.70639 
 C                    -1.53729   2.01614  -2.16365 
 O                    -0.82994   2.98867  -2.0459 
 N                    -2.81025   2.06355  -2.6636 
 H                    -3.18542   2.99675  -2.74548 
 H                    -3.4634    1.36441  -2.34305 
 H                     2.60417  -3.99631  -0.19513 
 C                     0.20056   2.19954   2.8471 
 C                    -1.66237   0.89615   1.23153 
 C                    -2.81028   0.85279   0.4713 
 C                    -4.88102  -0.37676  -0.33122 
 C                    -3.38987  -0.41947  -0.01708 
 O                    -0.9125   -0.08194   1.51855 
 S                    -1.21288   2.55731   1.79354 
 H                     0.43899   3.12922   3.36048 
 H                     1.06629   1.87749   2.27314 
 H                    -5.48005  -0.29172   0.57553 
 H                    -5.12891   0.48539  -0.95781 
 H                    -5.196    -1.27564  -0.86383 
 H                    -3.15774  -1.22945   0.68213 
 H                    -3.3595    1.77605   0.324 
 H                    -0.05108   1.43684   3.58111 
 
 ITRead=  0  0  0  0  0  0  0  0  0  0  0  0  0  0  0  0  0  0  0  0
 ITRead=  0  0  0  0  0  0  0  0  0  0  0  0  0  0  0  0  0  0  0  0
 ITRead=  0  0  0  0  0  0  0  0
 MicOpt= -1 -1 -1 -1 -1 -1 -1 -1 -1 -1 -1 -1 -1 -1 -1 -1 -1 -1 -1 -1
 MicOpt= -1 -1 -1 -1 -1 -1 -1 -1 -1 -1 -1 -1 -1 -1 -1 -1 -1 -1 -1 -1
 MicOpt= -1 -1 -1 -1 -1 -1 -1 -1
 NAtoms=     48 NQM=       48 NQMF=       0 NMMI=      0 NMMIF=      0
                NMic=       0 NMicF=      0.
                    Isotopes and Nuclear Properties:
 (Nuclear quadrupole moments (NQMom) in fm**2, nuclear magnetic moments (NMagM)
  in nuclear magnetons)

  Atom         1           2           3           4           5           6           7           8           9          10
 IAtWgt=          12           1           1          12           1          16           1          12           1          16
 AtmWgt=  12.0000000   1.0078250   1.0078250  12.0000000   1.0078250  15.9949146   1.0078250  12.0000000   1.0078250  15.9949146
 NucSpn=           0           1           1           0           1           0           1           0           1           0
 AtZEff=  -0.0000000  -0.0000000  -0.0000000  -0.0000000  -0.0000000  -0.0000000  -0.0000000  -0.0000000  -0.0000000  -0.0000000
 NQMom=    0.0000000   0.0000000   0.0000000   0.0000000   0.0000000   0.0000000   0.0000000   0.0000000   0.0000000   0.0000000
 NMagM=    0.0000000   2.7928460   2.7928460   0.0000000   2.7928460   0.0000000   2.7928460   0.0000000   2.7928460   0.0000000
 AtZNuc=   6.0000000   1.0000000   1.0000000   6.0000000   1.0000000   8.0000000   1.0000000   6.0000000   1.0000000   8.0000000

  Atom        11          12          13          14          15          16          17          18          19          20
 IAtWgt=           1          12           1          12           1          16          14          12           1          12
 AtmWgt=   1.0078250  12.0000000   1.0078250  12.0000000   1.0078250  15.9949146  14.0030740  12.0000000   1.0078250  12.0000000
 NucSpn=           1           0           1           0           1           0           2           0           1           0
 AtZEff=  -0.0000000  -0.0000000  -0.0000000  -0.0000000  -0.0000000  -0.0000000  -0.0000000  -0.0000000  -0.0000000  -0.0000000
 NQMom=    0.0000000   0.0000000   0.0000000   0.0000000   0.0000000   0.0000000   2.0440000   0.0000000   0.0000000   0.0000000
 NMagM=    2.7928460   0.0000000   2.7928460   0.0000000   2.7928460   0.0000000   0.4037610   0.0000000   2.7928460   0.0000000
 AtZNuc=   1.0000000   6.0000000   1.0000000   6.0000000   1.0000000   8.0000000   7.0000000   6.0000000   1.0000000   6.0000000

  Atom        21          22          23          24          25          26          27          28          29          30
 IAtWgt=           1          12           1           1          12          12           1          12          16          14
 AtmWgt=   1.0078250  12.0000000   1.0078250   1.0078250  12.0000000  12.0000000   1.0078250  12.0000000  15.9949146  14.0030740
 NucSpn=           1           0           1           1           0           0           1           0           0           2
 AtZEff=  -0.0000000  -0.0000000  -0.0000000  -0.0000000  -0.0000000  -0.0000000  -0.0000000  -0.0000000  -0.0000000  -0.0000000
 NQMom=    0.0000000   0.0000000   0.0000000   0.0000000   0.0000000   0.0000000   0.0000000   0.0000000   0.0000000   2.0440000
 NMagM=    2.7928460   0.0000000   2.7928460   2.7928460   0.0000000   0.0000000   2.7928460   0.0000000   0.0000000   0.4037610
 AtZNuc=   1.0000000   6.0000000   1.0000000   1.0000000   6.0000000   6.0000000   1.0000000   6.0000000   8.0000000   7.0000000

  Atom        31          32          33          34          35          36          37          38          39          40
 IAtWgt=           1           1           1          12          12          12          12          12          16          32
 AtmWgt=   1.0078250   1.0078250   1.0078250  12.0000000  12.0000000  12.0000000  12.0000000  12.0000000  15.9949146  31.9720718
 NucSpn=           1           1           1           0           0           0           0           0           0           0
 AtZEff=  -0.0000000  -0.0000000  -0.0000000  -0.0000000  -0.0000000  -0.0000000  -0.0000000  -0.0000000  -0.0000000  -0.0000000
 NQMom=    0.0000000   0.0000000   0.0000000   0.0000000   0.0000000   0.0000000   0.0000000   0.0000000   0.0000000   0.0000000
 NMagM=    2.7928460   2.7928460   2.7928460   0.0000000   0.0000000   0.0000000   0.0000000   0.0000000   0.0000000   0.0000000
 AtZNuc=   1.0000000   1.0000000   1.0000000   6.0000000   6.0000000   6.0000000   6.0000000   6.0000000   8.0000000  16.0000000

  Atom        41          42          43          44          45          46          47          48
 IAtWgt=           1           1           1           1           1           1           1           1
 AtmWgt=   1.0078250   1.0078250   1.0078250   1.0078250   1.0078250   1.0078250   1.0078250   1.0078250
 NucSpn=           1           1           1           1           1           1           1           1
 AtZEff=  -0.0000000  -0.0000000  -0.0000000  -0.0000000  -0.0000000  -0.0000000  -0.0000000  -0.0000000
 NQMom=    0.0000000   0.0000000   0.0000000   0.0000000   0.0000000   0.0000000   0.0000000   0.0000000
 NMagM=    2.7928460   2.7928460   2.7928460   2.7928460   2.7928460   2.7928460   2.7928460   2.7928460
 AtZNuc=   1.0000000   1.0000000   1.0000000   1.0000000   1.0000000   1.0000000   1.0000000   1.0000000
 Background charge distribution read from input stream:
 Leave Link  101 at Sat Aug 13 20:34:16 2022, MaxMem=  2684354560 cpu:               2.2 elap:               0.2
 (Enter /storage/apps/GAUSSIAN/G16_RevA03/g16/l103.exe)

 GradGradGradGradGradGradGradGradGradGradGradGradGradGradGradGradGradGrad
 Berny optimization.
 Initialization pass.
 Trust Radius=3.00D-01 FncErr=1.00D-07 GrdErr=1.00D-07 EigMax=2.50D+02 EigMin=1.00D-04
 Number of steps in this run=      2 maximum allowed number of steps=      2.
 GradGradGradGradGradGradGradGradGradGradGradGradGradGradGradGradGradGrad

 Leave Link  103 at Sat Aug 13 20:34:16 2022, MaxMem=  2684354560 cpu:               0.3 elap:               0.0
 (Enter /storage/apps/GAUSSIAN/G16_RevA03/g16/l202.exe)
 ---------------------------------------------------------------------------------------------------
                            Z-MATRIX (ANGSTROMS AND DEGREES)
   CD    Cent   Atom    N1       Length/X        N2       Alpha/Y        N3        Beta/Z          J
 ---------------------------------------------------------------------------------------------------
      1      1  C        0   3.598015         -3.615901         -0.442837
      2      2  H        0   3.748875         -3.709849         -1.517550
      3      3  H        0   4.334291         -4.237127          0.067620
      4      4  C        0   1.859017         -1.437270          1.243855
      5      5  H        0   1.210788         -2.310233          1.088948
      6      6  O        0   1.460571         -0.677190          2.325208
      7      7  H        0   0.520903         -0.367923          2.161627
      8      8  C        0   3.313872         -1.884071          1.410288
      9      9  H        0   3.397444         -2.769471          2.047855
     10     10  O        0   4.075636         -0.816174          1.915316
     11     11  H        0   3.528418         -0.376820          2.581777
     12     12  C        0   1.974716         -0.658954         -0.077605
     13     13  H        0   2.259616          0.377055          0.121521
     14     14  C        0   3.751549         -2.169863         -0.021261
     15     15  H        0   4.779183         -1.831546         -0.156672
     16     16  O        0   2.912212         -1.336326         -0.853447
     17     17  N        0   0.721358         -0.601479         -0.859729
     18     18  C        0   0.208269         -1.763129         -1.337215
     19     19  H        0   0.772094         -2.654732         -1.113843
     20     20  C        0  -0.924848         -1.752287         -2.095025
     21     21  H        0  -1.316394         -2.683520         -2.477041
     22     22  C        0  -1.556175         -0.537844         -2.371919
     23     23  H        0  -2.404684         -0.510292         -3.042138
     24     24  H        0  -2.899284         -0.749129         -0.950684
     25     25  C        0  -1.017336          0.643759         -1.864151
     26     26  C        0   0.139136          0.568063         -1.110272
     27     27  H        0   0.593701          1.463913         -0.706388
     28     28  C        0  -1.537285          2.016137         -2.163647
     29     29  O        0  -0.829936          2.988671         -2.045900
     30     30  N        0  -2.810249          2.063551         -2.663598
     31     31  H        0  -3.185419          2.996752         -2.745483
     32     32  H        0  -3.463404          1.364406         -2.343048
     33     33  H        0   2.604166         -3.996312         -0.195134
     34     34  C        0   0.200564          2.199542          2.847103
     35     35  C        0  -1.662373          0.896154          1.231534
     36     36  C        0  -2.810278          0.852792          0.471295
     37     37  C        0  -4.881016         -0.376756         -0.331220
     38     38  C        0  -3.389872         -0.419474         -0.017084
     39     39  O        0  -0.912497         -0.081938          1.518546
     40     40  S        0  -1.212875          2.557312          1.793542
     41     41  H        0   0.438991          3.129223          3.360484
     42     42  H        0   1.066285          1.877494          2.273139
     43     43  H        0  -5.480049         -0.291718          0.575528
     44     44  H        0  -5.128905          0.485389         -0.957813
     45     45  H        0  -5.196000         -1.275641         -0.863825
     46     46  H        0  -3.157744         -1.229448          0.682128
     47     47  H        0  -3.359503          1.776051          0.324002
     48     48  H        0  -0.051075          1.436839          3.581108
 ---------------------------------------------------------------------------------------------------
                         Z-Matrix orientation:                         
 ---------------------------------------------------------------------
 Center     Atomic      Atomic             Coordinates (Angstroms)
 Number     Number       Type             X           Y           Z
 ---------------------------------------------------------------------
      1          6           0        3.598015   -3.615901   -0.442837
      2          1           0        3.748875   -3.709849   -1.517550
      3          1           0        4.334291   -4.237127    0.067620
      4          6           0        1.859017   -1.437270    1.243855
      5          1           0        1.210788   -2.310233    1.088948
      6          8           0        1.460571   -0.677190    2.325208
      7          1           0        0.520903   -0.367923    2.161627
      8          6           0        3.313872   -1.884071    1.410288
      9          1           0        3.397444   -2.769471    2.047855
     10          8           0        4.075636   -0.816174    1.915316
     11          1           0        3.528418   -0.376820    2.581777
     12          6           0        1.974716   -0.658954   -0.077605
     13          1           0        2.259616    0.377055    0.121521
     14          6           0        3.751549   -2.169863   -0.021261
     15          1           0        4.779183   -1.831546   -0.156672
     16          8           0        2.912212   -1.336326   -0.853447
     17          7           0        0.721358   -0.601479   -0.859729
     18          6           0        0.208269   -1.763129   -1.337215
     19          1           0        0.772094   -2.654732   -1.113843
     20          6           0       -0.924848   -1.752287   -2.095025
     21          1           0       -1.316394   -2.683520   -2.477041
     22          6           0       -1.556175   -0.537844   -2.371919
     23          1           0       -2.404684   -0.510292   -3.042138
     24          1           0       -2.899284   -0.749129   -0.950684
     25          6           0       -1.017336    0.643759   -1.864151
     26          6           0        0.139136    0.568063   -1.110272
     27          1           0        0.593701    1.463913   -0.706388
     28          6           0       -1.537285    2.016137   -2.163647
     29          8           0       -0.829936    2.988671   -2.045900
     30          7           0       -2.810249    2.063551   -2.663598
     31          1           0       -3.185419    2.996752   -2.745483
     32          1           0       -3.463404    1.364406   -2.343048
     33          1           0        2.604166   -3.996312   -0.195134
     34          6           0        0.200564    2.199542    2.847103
     35          6           0       -1.662373    0.896154    1.231534
     36          6           0       -2.810278    0.852792    0.471295
     37          6           0       -4.881016   -0.376756   -0.331220
     38          6           0       -3.389872   -0.419474   -0.017084
     39          8           0       -0.912497   -0.081938    1.518546
     40         16           0       -1.212875    2.557312    1.793542
     41          1           0        0.438991    3.129223    3.360484
     42          1           0        1.066285    1.877494    2.273139
     43          1           0       -5.480049   -0.291718    0.575528
     44          1           0       -5.128905    0.485389   -0.957813
     45          1           0       -5.196000   -1.275641   -0.863825
     46          1           0       -3.157744   -1.229448    0.682128
     47          1           0       -3.359503    1.776051    0.324002
     48          1           0       -0.051075    1.436839    3.581108
 ---------------------------------------------------------------------
                    Distance matrix (angstroms):
                    1          2          3          4          5
     1  C    0.000000
     2  H    1.089308   0.000000
     3  H    1.090225   1.770169   0.000000
     4  C    3.258140   4.044940   3.917871   0.000000
     5  H    3.122497   3.898031   3.809502   1.098299   0.000000
     6  O    4.568015   5.403716   5.101776   1.380509   2.063386
     7  H    5.176989   5.926602   5.822159   1.943285   2.323607
     8  C    2.552263   3.477776   2.894976   1.530991   2.169755
     9  H    2.638223   3.704042   2.636859   2.188135   2.431433
    10  O    3.691542   4.501633   3.896640   2.397920   3.335034
    11  H    4.432243   5.287926   4.676792   2.387779   3.367200
    12  C    3.392938   3.811698   4.288590   1.537992   2.161285
    13  H    4.248942   4.648358   5.059432   2.170688   3.042609
    14  C    1.514043   2.147195   2.149667   2.391420   2.776281
    15  H    2.158928   2.538020   2.456635   3.262560   3.809745
    16  O    2.415655   2.602816   3.359363   2.349060   2.759753
    17  N    4.187564   4.388685   5.208762   2.533354   2.637560
    18  C    3.965231   4.044519   5.011815   3.081083   2.681536
    19  H    3.059399   3.183940   4.072969   2.867465   2.272316
    20  C    5.163242   5.099923   6.205643   4.358585   3.874265
    21  H    5.399883   5.256513   6.388993   5.047915   4.386601
    22  C    6.305669   6.239801   7.371135   5.054337   4.772321
    23  H    7.241103   7.101255   8.305039   6.116222   5.777309
    24  H    7.119774   7.299672   8.094917   5.284976   4.846631
    25  C    6.439433   6.464581   7.496312   4.718452   4.734068
    26  C    5.469449   5.612185   6.486648   3.538540   3.777512
    27  H    5.907611   6.113994   6.862431   3.717706   4.224714
    28  C    7.813600   7.819709   8.863254   5.922158   6.070318
    29  O    8.111531   8.131103   9.129533   6.135300   6.486155
    30  N    8.846118   8.812927   9.909720   7.023246   7.027114
    31  H    9.749068   9.724749  10.806877   7.811639   7.886291
    32  H    8.847480   8.857002   9.899118   7.003101   6.865103
    33  H    1.092614   1.772344   1.766455   3.028966   2.536382
    34  C    7.495716   8.158530   8.139038   4.306654   4.944667
    35  C    7.129785   7.619339   7.979051   4.224359   4.307703
    36  C    7.865817   8.233814   8.781520   5.257713   5.153173
    37  C    9.077361   9.326945   9.999171   7.002399   6.547159
    38  C    7.696036   8.002479   8.616516   5.493333   5.095522
    39  O    6.056454   6.641386   6.848326   3.097365   3.107763
    40  S    8.139694   8.652144   8.939478   5.069059   5.483027
    41  H    8.363096   9.029034   8.959879   5.229670   5.945017
    42  H    6.630503   7.265261   7.275491   3.560268   4.354337
    43  H    9.721034  10.061691  10.589877   7.457938   7.007518
    44  H    9.656341   9.835055  10.625712   7.574630   7.224710
    45  H    9.109816   9.293197  10.023195   7.364897   6.777214
    46  H    7.252654   7.661094   8.096564   5.052387   4.518592
    47  H    8.835624   9.165994   9.768240   6.197137   6.178221
    48  H    7.418772   8.180729   7.985607   4.167938   4.673725
                    6          7          8          9         10
     6  O    0.000000
     7  H    1.002687   0.000000
     8  C    2.393400   3.265561   0.000000
     9  H    2.864619   3.748982   1.094262   0.000000
    10  O    2.650640   3.591340   1.405611   2.071927   0.000000
    11  H    2.105241   3.036734   1.920995   2.454996   0.967807
    12  C    2.457272   2.685597   2.346929   3.316024   2.900055
    13  H    2.570242   2.782112   2.808036   3.860834   2.817698
    14  C    3.603133   4.295237   1.523998   2.183154   2.384919
    15  H    4.301796   5.064548   2.145987   2.765655   2.412280
    16  O    3.556061   3.968228   2.363441   3.272141   3.047977
    17  N    3.270473   3.036992   3.676839   4.507291   4.358687
    18  C    4.020058   3.779714   4.148273   4.758388   5.141226
    19  H    4.026381   4.002661   3.664122   4.111200   4.844532
    20  C    5.136586   4.703801   5.501939   6.072917   6.477961
    21  H    5.899025   5.500445   6.098345   6.534703   7.200956
    22  C    5.584190   4.989606   6.311480   7.003778   7.083442
    23  H    6.616378   5.971474   7.376534   8.042177   8.164831
    24  H    5.453896   4.639987   6.742818   7.260978   7.541085
    25  C    5.043378   4.426801   5.989260   6.814999   6.508006
    26  C    3.885791   3.424491   4.737629   5.632892   5.154253
    27  H    3.811346   3.403885   4.805064   5.776536   4.918943
    28  C    6.032493   5.350502   7.177629   8.061659   7.494318
    29  O    6.147483   5.549304   7.270488   8.233211   7.364286
    30  N    7.116161   6.347554   8.347762   9.170133   8.756408
    31  H    7.797114   7.009821   9.128727   9.977951   9.433153
    32  H    7.085637   6.258415   8.400691   9.134561   8.928926
    33  H    4.321632   4.802032   2.746384   2.676832   4.090538
    34  C    3.183642   2.676634   5.332262   5.962376   4.997895
    35  C    3.663920   2.688802   5.703036   6.301185   6.026970
    36  C    4.900815   3.929903   6.773281   7.358134   7.230937
    37  C    6.882049   5.949378   8.512405   8.939686   9.244546
    38  C    5.392545   4.477008   7.008753   7.473561   7.721745
    39  O    2.576137   1.596864   4.595824   5.106720   5.057470
    40  S    4.229892   3.420303   6.353283   7.049421   6.274041
    41  H    4.074825   3.697837   6.099289   6.728301   5.556965
    42  H    2.585456   2.313390   4.466042   5.203781   4.054637
    43  H    7.168136   6.207491   8.975826   9.333643   9.663395
    44  H    7.453255   6.509945   9.083101   9.608683   9.729980
    45  H    7.405269   6.531485   8.829479   9.195471   9.690096
    46  H    4.932903   4.057535   6.545270   6.870762   7.349376
    47  H    5.766830   4.799067   7.688332   8.324048   8.033256
    48  H    2.886430   2.366274   5.202285   5.651212   4.988053
                   11         12         13         14         15
    11  H    0.000000
    12  C    3.092879   0.000000
    13  H    2.868980   1.092764   0.000000
    14  C    3.168690   2.333057   2.955172   0.000000
    15  H    3.343612   3.040766   3.362072   1.090333   0.000000
    16  O    3.619548   1.392718   2.076564   1.446307   2.053368
    17  N    4.446799   1.478488   2.070415   3.513533   4.298057
    18  C    5.320126   2.434369   3.303986   3.801579   4.721400
    19  H    5.142355   2.550141   3.595911   3.210294   4.201259
    20  C    6.602724   3.697679   4.425832   5.132597   6.024904
    21  H    7.374599   4.548359   5.376569   5.654975   6.577692
    22  C    7.100572   4.212569   4.649144   6.030009   6.835038
    23  H    8.176059   5.290529   5.705420   7.055429   7.853634
    24  H    7.343858   4.952401   5.388150   6.864102   7.794930
    25  C    6.439855   3.720374   3.840890   5.835664   6.530104
    26  C    5.100124   2.437483   2.459722   4.661728   5.310133
    27  H    4.776284   2.609432   2.154522   4.862688   5.355418
    28  C    7.342114   4.882810   4.724938   7.077018   7.663575
    29  O    7.192856   5.004541   4.589508   7.190246   7.633210
    30  N    8.581845   6.082375   6.025337   8.243842   8.891341
    31  H    9.210662   6.863582   6.688119   9.068452   9.666917
    32  H    8.727620   6.228914   6.308876   8.362852   9.106843
    33  H    4.654696   3.398232   4.398332   2.163940   3.068940
    34  C    4.216948   4.457862   3.871686   6.318917   6.799712
    35  C    5.512525   4.166608   4.108965   6.346693   7.131697
    36  C    6.793022   5.048053   5.104164   7.241314   8.074647
    37  C    8.899670   6.866223   7.194570   8.822272   9.770687
    38  C    7.390442   5.370272   5.707047   7.352807   8.291375
    39  O    4.575931   3.349126   3.496377   5.337018   6.185685
    40  S    5.631190   4.899622   4.428021   7.091206   7.679204
    41  H    4.737434   5.341273   4.623850   7.105600   7.471070
    42  H    3.352505   3.575586   2.881808   5.371779   5.783301
    43  H    9.229559   7.492327   7.781760   9.439597  10.399953
    44  H    9.392622   7.248843   7.467727   9.316113  10.206871
    45  H    9.423138   7.240001   7.699904   9.031510  10.015656
    46  H    7.002885   5.219655   5.678285   7.008385   8.003806
    47  H    7.561472   5.877451   5.794194   8.139810   8.915381
    48  H    4.135310   4.677858   4.293155   6.359663   6.927101
                   16         17         18         19         20
    16  O    0.000000
    17  N    2.310818   0.000000
    18  C    2.779838   1.356718   0.000000
    19  H    2.527074   2.069540   1.078309   0.000000
    20  C    4.054327   2.358031   1.363212   2.157947   0.000000
    21  H    4.725685   3.332120   2.114455   2.494177   1.080018
    22  C    4.786420   2.734579   2.384365   3.388924   1.396465
    23  H    5.808794   3.813576   3.362125   4.290555   2.151625
    24  H    5.841895   3.624793   3.291578   4.139681   2.492838
    25  C    4.514821   2.362740   2.751886   3.826887   2.408920
    26  C    3.373812   1.330257   2.343233   3.284365   2.736023
    27  H    3.638469   2.075007   3.310634   4.142593   3.818147
    28  C    5.723081   3.695076   4.244149   5.315293   3.818482
    29  O    5.842193   4.086893   4.915253   5.939969   4.742162
    30  N    6.897998   4.777926   5.051161   6.123489   4.294023
    31  H    7.715988   5.636155   6.013053   7.089671   5.299684
    32  H    7.082467   4.855633   4.926901   5.966897   4.027351
    33  H    2.757498   3.938470   3.468685   2.449561   4.593384
    34  C    5.792190   4.675206   5.762928   6.291241   6.427140
    35  C    5.500722   3.506916   4.143617   4.902674   4.315574
    36  C    6.268498   4.044624   4.384675   5.258210   4.114278
    37  C    7.869428   5.631733   5.369812   6.144862   4.544707
    38  C    6.423113   4.200641   4.061376   4.849868   3.488635
    39  O    4.672070   2.931825   3.498270   4.048035   3.980969
    40  S    6.259657   4.556212   5.521549   6.289546   5.811760
    41  H    6.619302   5.639864   6.786510   7.320157   7.446595
    42  H    4.848879   4.009881   5.198556   5.665622   6.018370
    43  H    8.576900   6.372861   6.179045   6.893990   5.478592
    44  H    8.245550   5.951175   5.803896   6.686292   4.896380
    45  H    8.108446   5.955639   5.446822   6.130461   4.470546
    46  H    6.262091   4.221268   3.961389   4.549788   3.601634
    47  H    7.099837   4.869014   5.292866   6.226502   4.922236
    48  H    6.011389   4.946961   5.873411   6.281809   6.569055
                   21         22         23         24         25
    21  H    0.000000
    22  C    2.161590   0.000000
    23  H    2.495322   1.081628   0.000000
    24  H    2.928681   1.966848   2.162372   0.000000
    25  C    3.396447   1.394404   2.155046   2.513222   0.000000
    26  C    3.815680   2.385134   3.371346   3.315488   1.382567
    27  H    4.897436   3.376832   4.282934   4.142243   2.146744
    28  C    4.715271   2.562529   2.811934   3.312554   1.497820
    29  O    5.709315   3.615248   3.964223   4.410538   2.359399
    30  N    4.980069   2.902591   2.632953   3.294415   2.422697
    31  H    5.985884   3.909905   3.605123   4.163508   3.318721
    32  H    4.584028   2.693865   2.263649   2.593056   2.594595
    33  H    4.722427   5.831623   6.733970   6.434517   6.118100
    34  C    7.381867   6.149602   6.986679   5.720743   5.108782
    35  C    5.165975   3.879755   4.559977   2.999830   3.172230
    36  C    4.840442   3.404484   3.790345   2.143851   2.951719
    37  C    4.757335   3.904481   3.674116   2.109421   4.280111
    38  C    3.934031   2.986922   3.182734   1.104970   3.189208
    39  O    4.784985   3.969621   4.817670   3.238760   3.461252
    40  S    6.761281   5.200857   5.849308   4.615984   4.132631
    41  H    8.422948   7.091439   7.894690   6.691178   5.966174
    42  H    7.003158   5.855572   6.782427   5.746122   4.793824
    43  H    5.689896   4.913737   4.753225   3.032968   5.171359
    44  H    5.185102   3.976318   3.571718   2.548587   4.213256
    45  H    4.431245   4.008368   3.622465   2.357894   4.705952
    46  H    3.935129   3.517178   3.867097   1.721506   3.817563
    47  H    5.648709   3.984230   4.179706   2.865861   3.399389
    48  H    7.435023   6.450057   7.293708   5.781686   5.586903
                   26         27         28         29         30
    26  C    0.000000
    27  H    1.082728   0.000000
    28  C    2.452938   2.640011   0.000000
    29  O    2.770170   2.479097   1.208317   0.000000
    30  N    3.653516   3.972041   1.368443   2.271351   0.000000
    31  H    4.430024   4.559523   2.004117   2.457190   1.009119
    32  H    3.890012   4.375918   2.041292   3.108326   1.009043
    33  H    5.267577   5.841011   7.561495   8.000524   8.493006
    34  C    4.280924   3.650069   5.306729   5.062226   6.281028
    35  C    2.972732   3.027831   3.577326   3.976575   4.225221
    36  C    3.358790   3.653420   3.149095   3.849676   3.360579
    37  C    5.167352   5.788034   4.501584   5.538725   3.960197
    38  C    3.824158   4.459948   3.737915   4.720680   3.674971
    39  O    2.905016   3.099777   4.283786   4.705394   5.069015
    40  S    3.770568   3.272444   4.007176   3.882529   4.760410
    41  H    5.161115   4.397345   5.971654   5.555080   6.926960
    42  H    3.744554   3.044990   5.146151   4.846077   6.279610
    43  H    5.929282   6.451045   5.326787   6.265492   4.813217
    44  H    5.270895   5.811105   4.086191   5.092297   3.282752
    45  H    5.650102   6.407073   5.090337   6.216444   4.481205
    46  H    4.160909   4.822397   4.610656   5.536547   4.707279
    47  H    3.969490   4.097189   3.092979   3.672273   3.051244
    48  H    4.774934   4.335792   5.962098   5.888805   6.855812
                   31         32         33         34         35
    31  H    0.000000
    32  H    1.704049   0.000000
    33  H    9.430086   8.376529   0.000000
    34  C    6.586155   6.407791   7.308975   0.000000
    35  C    4.748562   4.029964   6.646425   2.789161   0.000000
    36  C    3.883936   2.934084   7.298914   4.064895   1.377508
    37  C    4.481548   3.014751   8.315507   6.523918   3.797652
    38  C    4.376821   2.932191   6.982404   5.287158   2.504831
    39  O    5.729437   4.848809   5.534071   2.865156   1.265446
    40  S    4.968580   4.857909   7.840575   1.798833   1.810345
    41  H    7.101882   7.132569   8.252494   1.088446   3.732929
    42  H    6.672053   6.487721   6.554315   1.087484   3.081159
    43  H    5.206580   3.915059   8.925944   6.605739   4.051670
    44  H    3.644152   2.337828   8.970380   6.768969   4.120535
    45  H    5.082953   3.487096   8.288051   7.414229   4.646907
    46  H    5.441512   3.996648   6.451723   5.265294   2.656344
    47  H    3.307893   2.700630   8.315950   4.384000   2.116148
    48  H    7.230712   6.837021   7.129477   1.088026   2.899848
                   36         37         38         39         40
    36  C    0.000000
    37  C    2.538459   0.000000
    38  C    1.480913   1.524473   0.000000
    39  O    2.360514   4.388359   2.934191   0.000000
    40  S    2.684292   5.155446   4.108398   2.670485   0.000000
    41  H    4.907881   7.363630   6.217830   3.940915   2.347563
    42  H    4.395952   6.872752   5.511671   2.885197   2.426260
    43  H    2.906621   1.090075   2.176316   4.668600   5.273453
    44  H    2.748339   1.094240   2.174393   4.922632   5.215181
    45  H    3.464743   1.091273   2.170735   5.044702   6.133385
    46  H    2.121534   2.173390   1.094915   2.656597   4.399694
    47  H    1.084320   2.716412   2.222069   3.296498   2.716234
    48  H    4.198244   6.474857   5.247899   2.702387   2.408450
                   41         42         43         44         45
    41  H    0.000000
    42  H    1.772750   0.000000
    43  H    7.381995   7.102243   0.000000
    44  H    7.525890   7.124422   1.754518   0.000000
    45  H    8.306668   7.681082   1.766501   1.764812   0.000000
    46  H    6.253647   5.479674   2.506751   3.084728   2.558631
    47  H    5.047757   4.837047   2.972482   2.537645   3.754528
    48  H    1.775670   1.775796   6.441675   6.876876   7.320193
                   46         47         48
    46  H    0.000000
    47  H    3.033477   0.000000
    48  H    5.016429   4.655051   0.000000
 Stoichiometry    C16H24N2O5S
 Framework group  C1[X(C16H24N2O5S)]
 Deg. of freedom   138
 Full point group                 C1      NOp   1
 Largest Abelian subgroup         C1      NOp   1
 Largest concise Abelian subgroup C1      NOp   1
                         Standard orientation:                         
 ---------------------------------------------------------------------
 Center     Atomic      Atomic             Coordinates (Angstroms)
 Number     Number       Type             X           Y           Z
 ---------------------------------------------------------------------
      1          6           0       -4.681087   -1.964178   -0.554518
      2          1           0       -4.640601   -2.907743   -0.011712
      3          1           0       -5.705132   -1.799492   -0.890377
      4          6           0       -2.513289    0.464067   -0.695070
      5          1           0       -2.320304   -0.184870   -1.559881
      6          8           0       -2.035677    1.744969   -0.887373
      7          1           0       -1.047321    1.690171   -1.047157
      8          6           0       -4.011560    0.492620   -0.381536
      9          1           0       -4.616303    0.568525   -1.290344
     10          8           0       -4.283480    1.549998    0.503763
     11          1           0       -3.741067    2.298129    0.216121
     12          6           0       -1.993913   -0.228474    0.576172
     13          1           0       -1.806269    0.512979    1.356666
     14          6           0       -4.236280   -0.829044    0.343224
     15          1           0       -4.944858   -0.675790    1.157630
     16          8           0       -2.961634   -1.161513    0.940339
     17          7           0       -0.725718   -0.965493    0.390670
     18          6           0       -0.717669   -2.027966   -0.452995
     19          1           0       -1.658825   -2.263573   -0.923596
     20          6           0        0.420150   -2.758860   -0.624777
     21          1           0        0.409320   -3.608250   -1.291754
     22          6           0        1.578228   -2.403127    0.069791
     23          1           0        2.459633   -3.026832    0.006246
     24          1           0        2.362021   -1.431303   -1.449985
     25          6           0        1.550965   -1.302321    0.925270
     26          6           0        0.364009   -0.607106    1.064196
     27          1           0        0.299680    0.247395    1.726004
     28          6           0        2.689331   -0.872405    1.798633
     29          8           0        2.498101   -0.196980    2.782127
     30          7           0        3.913669   -1.378370    1.455657
     31          1           0        4.682199   -0.985151    1.978210
     32          1           0        4.095716   -1.534480    0.475526
     33          1           0       -4.043431   -2.042097   -1.438333
     34          6           0        0.268774    3.601531    0.286622
     35          6           0        1.608389    1.387869   -0.754795
     36          6           0        2.734696    0.624933   -0.971336
     37          6           0        4.126112   -0.881469   -2.467495
     38          6           0        2.751911   -0.511056   -1.921250
     39          8           0        0.453755    1.176095   -1.227367
     40         16           0        1.867224    2.780888    0.372082
     41          1           0        0.385384    4.547786    0.811711
     42          1           0       -0.514357    3.020944    0.768543
     43          1           0        4.503355   -0.122812   -3.153346
     44          1           0        4.860400   -0.974545   -1.661567
     45          1           0        4.093764   -1.834196   -2.998665
     46          1           0        2.040684   -0.330419   -2.733878
     47          1           0        3.662527    0.942757   -0.508876
     48          1           0       -0.008580    3.795041   -0.747510
 ---------------------------------------------------------------------
 Rotational constants (GHZ):           0.3327324           0.1646653           0.1401635
 Leave Link  202 at Sat Aug 13 20:34:16 2022, MaxMem=  2684354560 cpu:               0.5 elap:               0.1
 (Enter /storage/apps/GAUSSIAN/G16_RevA03/g16/l301.exe)
 Standard basis: def2TZVP (5D, 7F)
 Ernie: Thresh=  0.10000D-02 Tol=  0.10000D-05 Strict=F.
 There are  1014 symmetry adapted cartesian basis functions of A   symmetry.
 There are   894 symmetry adapted basis functions of A   symmetry.
   894 basis functions,  1434 primitive gaussians,  1014 cartesian basis functions
    95 alpha electrons       95 beta electrons
       nuclear repulsion energy      2497.6318306271 Hartrees.
 IExCor= 4336 DFT=T Ex+Corr=M062X ExCW=0 ScaHFX=  0.540000
 ScaDFX=  1.000000  1.000000  1.000000  1.000000 ScalE2=  1.000000  1.000000
 IRadAn=      5 IRanWt=     -1 IRanGd=            0 ICorTp=0 IEmpDi=131
 NAtoms=   48 NActive=   48 NUniq=   48 SFac= 1.00D+00 NAtFMM=   60 NAOKFM=F Big=F
 Integral buffers will be    131072 words long.
 Raffenetti 2 integral format.
 Two-electron integral symmetry is turned on.
 R6Disp:  Grimme-D3 Dispersion energy=       -0.0042719747 Hartrees.
 Nuclear repulsion after empirical dispersion term =     2497.6275586524 Hartrees.
 Leave Link  301 at Sat Aug 13 20:34:16 2022, MaxMem=  2684354560 cpu:               1.6 elap:               0.1
 (Enter /storage/apps/GAUSSIAN/G16_RevA03/g16/l302.exe)
 NPDir=0 NMtPBC=     1 NCelOv=     1 NCel=       1 NClECP=     1 NCelD=      1
         NCelK=      1 NCelE2=     1 NClLst=     1 CellRange=     0.0.
 One-electron integrals computed using PRISM.
 One-electron integral symmetry used in STVInt
   1 Symmetry operations used in ECPInt.
 ECPInt:  NShTT=   65703 NPrTT=  200010 LenC2=   56962 LenP2D=  121454.
 LDataN:  DoStor=T MaxTD1= 6 Len=  172
 NBasis=   894 RedAO= T EigKep=  1.70D-05  NBF=   894
 NBsUse=   894 1.00D-06 EigRej= -1.00D+00 NBFU=   894
 Precomputing XC quadrature grid using
 IXCGrd= 4 IRadAn=           5 IRanWt=          -1 IRanGd=           0 AccXCQ= 0.00D+00.
 Generated NRdTot=       0 NPtTot=           0 NUsed=           0 NTot=          32
 NSgBfM=   998   997   997   997   998 MxSgAt=    48 MxSgA2=    48.
 Leave Link  302 at Sat Aug 13 20:34:17 2022, MaxMem=  2684354560 cpu:              19.0 elap:               1.2
 (Enter /storage/apps/GAUSSIAN/G16_RevA03/g16/l303.exe)
 DipDrv:  MaxL=1.
 Leave Link  303 at Sat Aug 13 20:34:17 2022, MaxMem=  2684354560 cpu:               2.4 elap:               0.2
 (Enter /storage/apps/GAUSSIAN/G16_RevA03/g16/l401.exe)
 ExpMin= 9.52D-02 ExpMax= 6.07D+04 ExpMxC= 2.07D+03 IAcc=3 IRadAn=         5 AccDes= 0.00D+00
 Harris functional with IExCor= 1009 and IRadAn=       5 diagonalized for initial guess.
 HarFok:  IExCor= 1009 AccDes= 0.00D+00 IRadAn=         5 IDoV= 1 UseB2=F ITyADJ=14
 ICtDFT=  3500011 ScaDFX=  1.000000  1.000000  1.000000  1.000000
 FoFCou: FMM=F IPFlag=           0 FMFlag=      100000 FMFlg1=           0
         NFxFlg=           0 DoJE=T BraDBF=F KetDBF=T FulRan=T
         wScrn=  0.000000 ICntrl=       500 IOpCl=  0 I1Cent=   200000004 NGrid=           0
         NMat0=    1 NMatS0=      1 NMatT0=    0 NMatD0=    1 NMtDS0=    0 NMtDT0=    0
 Petite list used in FoFCou.
 Harris En= -1507.24173804034    
 JPrj=0 DoOrth=F DoCkMO=F.
 Leave Link  401 at Sat Aug 13 20:34:21 2022, MaxMem=  2684354560 cpu:              61.2 elap:               3.9
 (Enter /storage/apps/GAUSSIAN/G16_RevA03/g16/l502.exe)
 Integral symmetry usage will be decided dynamically.
 Closed shell SCF:
 Using DIIS extrapolation, IDIIS=  1040.
 NGot=  2684354560 LenX=  2682272944 LenY=  2681243734
 Requested convergence on RMS density matrix=1.00D-08 within 128 cycles.
 Requested convergence on MAX density matrix=1.00D-06.
 Requested convergence on             energy=1.00D-06.
 No special actions if energy rises.
 Fock matrices will be formed incrementally for  20 cycles.
 Integral accuracy reduced to 1.0D-05 until final iterations.

 Cycle   1  Pass 0  IDiag  1:
 FoFJK:  IHMeth= 1 ICntrl=       0 DoSepK=F KAlg= 0 I1Cent=           0 FoldK=F
 IRaf= 800000000 NMat=       1 IRICut=       1 DoRegI=T DoRafI=F ISym2E= 0 IDoP0=0 IntGTp=1.
 FoFCou: FMM=F IPFlag=           0 FMFlag=      100000 FMFlg1=           0
         NFxFlg=           0 DoJE=F BraDBF=F KetDBF=F FulRan=T
         wScrn=  0.000000 ICntrl=         0 IOpCl=  0 I1Cent=           0 NGrid=           0
         NMat0=    1 NMatS0=      1 NMatT0=    0 NMatD0=    1 NMtDS0=    0 NMtDT0=    0
 Symmetry not used in FoFCou.
 E= -1507.15947125614    
 DIIS: error= 1.81D-02 at cycle   1 NSaved=   1.
 NSaved= 1 IEnMin= 1 EnMin= -1507.15947125614     IErMin= 1 ErrMin= 1.81D-02
 ErrMax= 1.81D-02  0.00D+00 EMaxC= 1.00D-01 BMatC= 9.95D-01 BMatP= 9.95D-01
 IDIUse=3 WtCom= 8.19D-01 WtEn= 1.81D-01
 Coeff-Com:  0.100D+01
 Coeff-En:   0.100D+01
 Coeff:      0.100D+01
 Gap=     0.173 Goal=   None    Shift=    0.000
 GapD=    0.173 DampG=1.000 DampE=0.500 DampFc=0.5000 IDamp=-1.
 Damping current iteration by 5.00D-01
 RMSDP=3.99D-03 MaxDP=9.75D-01              OVMax= 5.52D-01

 Cycle   2  Pass 0  IDiag  1:
 RMSU=  1.99D-03    CP:  1.01D+00
 E= -1507.46337570978     Delta-E=       -0.303904453640 Rises=F Damp=T
 DIIS: error= 7.21D-03 at cycle   2 NSaved=   2.
 NSaved= 2 IEnMin= 2 EnMin= -1507.46337570978     IErMin= 2 ErrMin= 7.21D-03
 ErrMax= 7.21D-03  0.00D+00 EMaxC= 1.00D-01 BMatC= 9.94D-02 BMatP= 9.95D-01
 IDIUse=3 WtCom= 9.28D-01 WtEn= 7.21D-02
 Coeff-Com:  0.156D-01 0.984D+00
 Coeff-En:   0.132D+00 0.868D+00
 Coeff:      0.240D-01 0.976D+00
 Gap=     0.158 Goal=   None    Shift=    0.000
 RMSDP=1.35D-03 MaxDP=2.09D-01 DE=-3.04D-01 OVMax= 4.36D-01

 Cycle   3  Pass 0  IDiag  1:
 RMSU=  1.16D-03    CP:  1.00D+00  6.59D-01
 E= -1507.82635598230     Delta-E=       -0.362980272516 Rises=F Damp=F
 DIIS: error= 7.25D-03 at cycle   3 NSaved=   3.
 NSaved= 3 IEnMin= 3 EnMin= -1507.82635598230     IErMin= 2 ErrMin= 7.21D-03
 ErrMax= 7.25D-03  0.00D+00 EMaxC= 1.00D-01 BMatC= 7.45D-02 BMatP= 9.94D-02
 IDIUse=3 WtCom= 9.28D-01 WtEn= 7.25D-02
 Coeff-Com: -0.723D-01 0.489D+00 0.583D+00
 Coeff-En:   0.000D+00 0.000D+00 0.100D+01
 Coeff:     -0.670D-01 0.454D+00 0.613D+00
 Gap=     0.129 Goal=   None    Shift=    0.000
 RMSDP=5.97D-04 MaxDP=2.86D-02 DE=-3.63D-01 OVMax= 1.66D-01

 Cycle   4  Pass 0  IDiag  1:
 RMSU=  4.84D-04    CP:  1.00D+00  8.01D-01  8.24D-01
 E= -1507.89262785152     Delta-E=       -0.066271869221 Rises=F Damp=F
 DIIS: error= 3.46D-03 at cycle   4 NSaved=   4.
 NSaved= 4 IEnMin= 4 EnMin= -1507.89262785152     IErMin= 4 ErrMin= 3.46D-03
 ErrMax= 3.46D-03  0.00D+00 EMaxC= 1.00D-01 BMatC= 9.73D-03 BMatP= 7.45D-02
 IDIUse=3 WtCom= 9.65D-01 WtEn= 3.46D-02
 Coeff-Com: -0.376D-01 0.108D+00 0.297D+00 0.633D+00
 Coeff-En:   0.000D+00 0.000D+00 0.573D-01 0.943D+00
 Coeff:     -0.363D-01 0.104D+00 0.289D+00 0.644D+00
 Gap=     0.149 Goal=   None    Shift=    0.000
 RMSDP=2.15D-04 MaxDP=2.23D-02 DE=-6.63D-02 OVMax= 6.11D-02

 Cycle   5  Pass 0  IDiag  1:
 RMSU=  1.78D-04    CP:  1.00D+00  7.85D-01  9.00D-01  8.49D-01
 E= -1507.90152358406     Delta-E=       -0.008895732541 Rises=F Damp=F
 DIIS: error= 9.42D-04 at cycle   5 NSaved=   5.
 NSaved= 5 IEnMin= 5 EnMin= -1507.90152358406     IErMin= 5 ErrMin= 9.42D-04
 ErrMax= 9.42D-04  0.00D+00 EMaxC= 1.00D-01 BMatC= 9.38D-04 BMatP= 9.73D-03
 IDIUse=3 WtCom= 9.91D-01 WtEn= 9.42D-03
 Coeff-Com: -0.121D-01 0.221D-01 0.927D-01 0.320D+00 0.577D+00
 Coeff-En:   0.000D+00 0.000D+00 0.000D+00 0.000D+00 0.100D+01
 Coeff:     -0.120D-01 0.219D-01 0.918D-01 0.317D+00 0.581D+00
 Gap=     0.148 Goal=   None    Shift=    0.000
 RMSDP=7.51D-05 MaxDP=7.84D-03 DE=-8.90D-03 OVMax= 8.54D-03

 Cycle   6  Pass 0  IDiag  1:
 RMSU=  6.45D-05    CP:  1.00D+00  7.85D-01  8.90D-01  9.23D-01  9.54D-01
 E= -1507.90240539200     Delta-E=       -0.000881807938 Rises=F Damp=F
 DIIS: error= 1.73D-04 at cycle   6 NSaved=   6.
 NSaved= 6 IEnMin= 6 EnMin= -1507.90240539200     IErMin= 6 ErrMin= 1.73D-04
 ErrMax= 1.73D-04  0.00D+00 EMaxC= 1.00D-01 BMatC= 1.01D-04 BMatP= 9.38D-04
 IDIUse=3 WtCom= 9.98D-01 WtEn= 1.73D-03
 Coeff-Com: -0.327D-03-0.379D-02-0.455D-02 0.577D-01 0.278D+00 0.673D+00
 Coeff-En:   0.000D+00 0.000D+00 0.000D+00 0.000D+00 0.000D+00 0.100D+01
 Coeff:     -0.327D-03-0.379D-02-0.454D-02 0.576D-01 0.277D+00 0.674D+00
 Gap=     0.149 Goal=   None    Shift=    0.000
 RMSDP=4.17D-05 MaxDP=4.95D-03 DE=-8.82D-04 OVMax= 6.35D-03

 Cycle   7  Pass 0  IDiag  1:
 RMSU=  2.30D-05    CP:  1.00D+00  7.86D-01  8.97D-01  9.47D-01  1.13D+00
                    CP:  1.08D+00
 E= -1507.90250592731     Delta-E=       -0.000100535319 Rises=F Damp=F
 DIIS: error= 9.11D-05 at cycle   7 NSaved=   7.
 NSaved= 7 IEnMin= 7 EnMin= -1507.90250592731     IErMin= 7 ErrMin= 9.11D-05
 ErrMax= 9.11D-05  0.00D+00 EMaxC= 1.00D-01 BMatC= 1.38D-05 BMatP= 1.01D-04
 IDIUse=1 WtCom= 1.00D+00 WtEn= 0.00D+00
 Coeff-Com:  0.142D-02-0.439D-02-0.161D-01-0.158D-01 0.493D-01 0.312D+00
 Coeff-Com:  0.673D+00
 Coeff:      0.142D-02-0.439D-02-0.161D-01-0.158D-01 0.493D-01 0.312D+00
 Coeff:      0.673D+00
 Gap=     0.149 Goal=   None    Shift=    0.000
 RMSDP=1.89D-05 MaxDP=1.98D-03 DE=-1.01D-04 OVMax= 2.85D-03

 Cycle   8  Pass 0  IDiag  1:
 RMSU=  1.25D-05    CP:  1.00D+00  7.84D-01  8.96D-01  9.59D-01  1.19D+00
                    CP:  1.17D+00  1.15D+00
 E= -1507.90251342932     Delta-E=       -0.000007502006 Rises=F Damp=F
 DIIS: error= 3.36D-05 at cycle   8 NSaved=   8.
 NSaved= 8 IEnMin= 8 EnMin= -1507.90251342932     IErMin= 8 ErrMin= 3.36D-05
 ErrMax= 3.36D-05  0.00D+00 EMaxC= 1.00D-01 BMatC= 2.61D-06 BMatP= 1.38D-05
 IDIUse=1 WtCom= 1.00D+00 WtEn= 0.00D+00
 Coeff-Com:  0.752D-03-0.147D-02-0.841D-02-0.179D-01-0.269D-01 0.400D-01
 Coeff-Com:  0.326D+00 0.688D+00
 Coeff:      0.752D-03-0.147D-02-0.841D-02-0.179D-01-0.269D-01 0.400D-01
 Coeff:      0.326D+00 0.688D+00
 Gap=     0.149 Goal=   None    Shift=    0.000
 RMSDP=1.59D-05 MaxDP=2.19D-03 DE=-7.50D-06 OVMax= 1.87D-03

 Cycle   9  Pass 0  IDiag  1:
 RMSU=  1.19D-05    CP:  1.00D+00  7.82D-01  8.95D-01  9.62D-01  1.19D+00
                    CP:  1.23D+00  1.32D+00  1.63D+00
 E= -1507.90251338990     Delta-E=        0.000000039418 Rises=F Damp=F
 DIIS: error= 1.66D-05 at cycle   9 NSaved=   9.
 NSaved= 9 IEnMin= 8 EnMin= -1507.90251342932     IErMin= 9 ErrMin= 1.66D-05
 ErrMax= 1.66D-05  0.00D+00 EMaxC= 1.00D-01 BMatC= 5.94D-07 BMatP= 2.61D-06
 IDIUse=1 WtCom= 1.00D+00 WtEn= 0.00D+00
 Coeff-Com:  0.216D-03-0.248D-03-0.314D-02-0.748D-02-0.211D-01-0.107D-01
 Coeff-Com:  0.807D-01 0.338D+00 0.623D+00
 Coeff:      0.216D-03-0.248D-03-0.314D-02-0.748D-02-0.211D-01-0.107D-01
 Coeff:      0.807D-01 0.338D+00 0.623D+00
 Gap=     0.149 Goal=   None    Shift=    0.000
 RMSDP=1.92D-05 MaxDP=2.72D-03 DE= 3.94D-08 OVMax= 8.39D-04

 Cycle  10  Pass 0  IDiag  1:
 RMSU=  1.06D-05    CP:  1.00D+00  7.82D-01  8.96D-01  9.62D-01  1.20D+00
                    CP:  1.27D+00  1.45D+00  2.20D+00  2.14D+00
 E= -1507.90251083122     Delta-E=        0.000002558682 Rises=F Damp=F
 DIIS: error= 2.63D-05 at cycle  10 NSaved=  10.
 NSaved=10 IEnMin= 8 EnMin= -1507.90251342932     IErMin= 9 ErrMin= 1.66D-05
 ErrMax= 2.63D-05  0.00D+00 EMaxC= 1.00D-01 BMatC= 4.42D-07 BMatP= 5.94D-07
 IDIUse=1 WtCom= 1.00D+00 WtEn= 0.00D+00
 Coeff-Com:  0.194D-03-0.220D-03-0.290D-02-0.680D-02-0.195D-01-0.998D-02
 Coeff-Com:  0.718D-01 0.307D+00 0.573D+00 0.874D-01
 Coeff:      0.194D-03-0.220D-03-0.290D-02-0.680D-02-0.195D-01-0.998D-02
 Coeff:      0.718D-01 0.307D+00 0.573D+00 0.874D-01
 Gap=     0.149 Goal=   None    Shift=    0.000
 RMSDP=3.89D-06 MaxDP=5.33D-04 DE= 2.56D-06 OVMax= 4.76D-05

 Initial convergence to 1.0D-05 achieved.  Increase integral accuracy.
 Cycle  11  Pass 1  IDiag  1:
 E= -1507.90243494460     Delta-E=        0.000075886620 Rises=F Damp=F
 DIIS: error= 3.32D-04 at cycle   1 NSaved=   1.
 NSaved= 1 IEnMin= 1 EnMin= -1507.90243494460     IErMin= 1 ErrMin= 3.32D-04
 ErrMax= 3.32D-04  0.00D+00 EMaxC= 1.00D-01 BMatC= 9.72D-05 BMatP= 9.72D-05
 IDIUse=3 WtCom= 9.97D-01 WtEn= 3.32D-03
 Coeff-Com:  0.100D+01
 Coeff-En:   0.100D+01
 Coeff:      0.100D+01
 Gap=     0.149 Goal=   None    Shift=    0.000
 RMSDP=3.89D-06 MaxDP=5.33D-04 DE= 7.59D-05 OVMax= 1.04D-03

 Cycle  12  Pass 1  IDiag  1:
 RMSU=  6.01D-04    CP:  9.90D-01
 E= -1507.90249687404     Delta-E=       -0.000061929438 Rises=F Damp=F
 DIIS: error= 1.28D-05 at cycle   2 NSaved=   2.
 NSaved= 2 IEnMin= 2 EnMin= -1507.90249687404     IErMin= 2 ErrMin= 1.28D-05
 ErrMax= 1.28D-05  0.00D+00 EMaxC= 1.00D-01 BMatC= 1.44D-07 BMatP= 9.72D-05
 IDIUse=1 WtCom= 1.00D+00 WtEn= 0.00D+00
 Coeff-Com: -0.150D-01 0.102D+01
 Coeff:     -0.150D-01 0.102D+01
 Gap=     0.149 Goal=   None    Shift=    0.000
 RMSDP=2.30D-05 MaxDP=2.29D-03 DE=-6.19D-05 OVMax= 5.56D-04

 Cycle  13  Pass 1  IDiag  1:
 RMSU=  8.84D-06    CP:  9.90D-01  1.04D+00
 E= -1507.90249682127     Delta-E=        0.000000052772 Rises=F Damp=F
 DIIS: error= 1.59D-05 at cycle   3 NSaved=   3.
 NSaved= 3 IEnMin= 2 EnMin= -1507.90249687404     IErMin= 2 ErrMin= 1.28D-05
 ErrMax= 1.59D-05  0.00D+00 EMaxC= 1.00D-01 BMatC= 2.64D-07 BMatP= 1.44D-07
 IDIUse=1 WtCom= 1.00D+00 WtEn= 0.00D+00
 Coeff-Com: -0.103D-01 0.611D+00 0.399D+00
 Coeff:     -0.103D-01 0.611D+00 0.399D+00
 Gap=     0.149 Goal=   None    Shift=    0.000
 RMSDP=1.06D-06 MaxDP=6.23D-05 DE= 5.28D-08 OVMax= 1.92D-04

 Cycle  14  Pass 1  IDiag  1:
 RMSU=  1.01D-06    CP:  9.90D-01  1.04D+00  1.00D+00
 E= -1507.90249709331     Delta-E=       -0.000000272039 Rises=F Damp=F
 DIIS: error= 1.45D-06 at cycle   4 NSaved=   4.
 NSaved= 4 IEnMin= 4 EnMin= -1507.90249709331     IErMin= 4 ErrMin= 1.45D-06
 ErrMax= 1.45D-06  0.00D+00 EMaxC= 1.00D-01 BMatC= 1.17D-09 BMatP= 1.44D-07
 IDIUse=1 WtCom= 1.00D+00 WtEn= 0.00D+00
 Coeff-Com:  0.231D-03-0.246D-01-0.235D-02 0.103D+01
 Coeff:      0.231D-03-0.246D-01-0.235D-02 0.103D+01
 Gap=     0.149 Goal=   None    Shift=    0.000
 RMSDP=6.61D-07 MaxDP=6.13D-05 DE=-2.72D-07 OVMax= 1.04D-04

 Cycle  15  Pass 1  IDiag  1:
 RMSU=  3.26D-07    CP:  9.90D-01  1.04D+00  1.04D+00  1.01D+00
 E= -1507.90249709921     Delta-E=       -0.000000005904 Rises=F Damp=F
 DIIS: error= 6.35D-07 at cycle   5 NSaved=   5.
 NSaved= 5 IEnMin= 5 EnMin= -1507.90249709921     IErMin= 5 ErrMin= 6.35D-07
 ErrMax= 6.35D-07  0.00D+00 EMaxC= 1.00D-01 BMatC= 1.06D-09 BMatP= 1.17D-09
 IDIUse=1 WtCom= 1.00D+00 WtEn= 0.00D+00
 Coeff-Com:  0.848D-03-0.555D-01-0.448D-01 0.496D+00 0.603D+00
 Coeff:      0.848D-03-0.555D-01-0.448D-01 0.496D+00 0.603D+00
 Gap=     0.149 Goal=   None    Shift=    0.000
 RMSDP=1.29D-07 MaxDP=1.17D-05 DE=-5.90D-09 OVMax= 3.13D-05

 Cycle  16  Pass 1  IDiag  1:
 RMSU=  7.78D-08    CP:  9.90D-01  1.04D+00  1.05D+00  1.02D+00  1.24D+00
 E= -1507.90249710102     Delta-E=       -0.000000001812 Rises=F Damp=F
 DIIS: error= 3.65D-07 at cycle   6 NSaved=   6.
 NSaved= 6 IEnMin= 6 EnMin= -1507.90249710102     IErMin= 6 ErrMin= 3.65D-07
 ErrMax= 3.65D-07  0.00D+00 EMaxC= 1.00D-01 BMatC= 1.73D-10 BMatP= 1.06D-09
 IDIUse=1 WtCom= 1.00D+00 WtEn= 0.00D+00
 Coeff-Com:  0.874D-04-0.267D-02-0.248D-01-0.210D+00 0.873D-01 0.115D+01
 Coeff:      0.874D-04-0.267D-02-0.248D-01-0.210D+00 0.873D-01 0.115D+01
 Gap=     0.149 Goal=   None    Shift=    0.000
 RMSDP=1.42D-07 MaxDP=1.62D-05 DE=-1.81D-09 OVMax= 4.10D-05

 Cycle  17  Pass 1  IDiag  1:
 RMSU=  5.25D-08    CP:  9.90D-01  1.04D+00  1.05D+00  1.02D+00  1.60D+00
                    CP:  1.56D+00
 E= -1507.90249710169     Delta-E=       -0.000000000669 Rises=F Damp=F
 DIIS: error= 1.34D-07 at cycle   7 NSaved=   7.
 NSaved= 7 IEnMin= 7 EnMin= -1507.90249710169     IErMin= 7 ErrMin= 1.34D-07
 ErrMax= 1.34D-07  0.00D+00 EMaxC= 1.00D-01 BMatC= 5.07D-11 BMatP= 1.73D-10
 IDIUse=1 WtCom= 1.00D+00 WtEn= 0.00D+00
 Coeff-Com: -0.872D-04 0.741D-02-0.907D-02-0.191D+00-0.403D-01 0.663D+00
 Coeff-Com:  0.570D+00
 Coeff:     -0.872D-04 0.741D-02-0.907D-02-0.191D+00-0.403D-01 0.663D+00
 Coeff:      0.570D+00
 Gap=     0.149 Goal=   None    Shift=    0.000
 RMSDP=3.14D-08 MaxDP=3.58D-06 DE=-6.69D-10 OVMax= 9.95D-06

 Cycle  18  Pass 1  IDiag  1:
 RMSU=  1.12D-08    CP:  9.90D-01  1.04D+00  1.05D+00  1.02D+00  1.67D+00
                    CP:  1.75D+00  1.19D+00
 E= -1507.90249710179     Delta-E=       -0.000000000096 Rises=F Damp=F
 DIIS: error= 3.40D-08 at cycle   8 NSaved=   8.
 NSaved= 8 IEnMin= 8 EnMin= -1507.90249710179     IErMin= 8 ErrMin= 3.40D-08
 ErrMax= 3.40D-08  0.00D+00 EMaxC= 1.00D-01 BMatC= 2.48D-12 BMatP= 5.07D-11
 IDIUse=1 WtCom= 1.00D+00 WtEn= 0.00D+00
 Coeff-Com: -0.417D-04 0.296D-02-0.716D-03-0.421D-01-0.266D-01 0.942D-01
 Coeff-Com:  0.196D+00 0.776D+00
 Coeff:     -0.417D-04 0.296D-02-0.716D-03-0.421D-01-0.266D-01 0.942D-01
 Coeff:      0.196D+00 0.776D+00
 Gap=     0.149 Goal=   None    Shift=    0.000
 RMSDP=1.06D-08 MaxDP=9.10D-07 DE=-9.60D-11 OVMax= 2.98D-06

 Cycle  19  Pass 1  IDiag  1:
 RMSU=  4.25D-09    CP:  9.90D-01  1.04D+00  1.05D+00  1.02D+00  1.69D+00
                    CP:  1.80D+00  1.30D+00  1.10D+00
 E= -1507.90249710182     Delta-E=       -0.000000000039 Rises=F Damp=F
 DIIS: error= 1.65D-08 at cycle   9 NSaved=   9.
 NSaved= 9 IEnMin= 9 EnMin= -1507.90249710182     IErMin= 9 ErrMin= 1.65D-08
 ErrMax= 1.65D-08  0.00D+00 EMaxC= 1.00D-01 BMatC= 4.30D-13 BMatP= 2.48D-12
 IDIUse=1 WtCom= 1.00D+00 WtEn= 0.00D+00
 Coeff-Com: -0.614D-05 0.264D-03 0.838D-03 0.817D-02-0.613D-02-0.487D-01
 Coeff-Com: -0.469D-03 0.322D+00 0.724D+00
 Coeff:     -0.614D-05 0.264D-03 0.838D-03 0.817D-02-0.613D-02-0.487D-01
 Coeff:     -0.469D-03 0.322D+00 0.724D+00
 Gap=     0.149 Goal=   None    Shift=    0.000
 RMSDP=4.02D-09 MaxDP=6.57D-07 DE=-3.91D-11 OVMax= 9.84D-07

 SCF Done:  E(RM062X) =  -1507.90249710     A.U. after   19 cycles
            NFock= 19  Conv=0.40D-08     -V/T= 2.0037
 KE= 1.502299217982D+03 PE=-8.532657641742D+03 EE= 3.024828368006D+03
 Leave Link  502 at Sat Aug 13 20:43:29 2022, MaxMem=  2684354560 cpu:            8747.7 elap:             547.6
 (Enter /storage/apps/GAUSSIAN/G16_RevA03/g16/l601.exe)
 Copying SCF densities to generalized density rwf, IOpCl= 0 IROHF=0.

 **********************************************************************

            Population analysis using the SCF density.

 **********************************************************************

 Orbital symmetries:
       Occupied  (A) (A) (A) (A) (A) (A) (A) (A) (A) (A) (A) (A)
                 (A) (A) (A) (A) (A) (A) (A) (A) (A) (A) (A) (A)
                 (A) (A) (A) (A) (A) (A) (A) (A) (A) (A) (A) (A)
                 (A) (A) (A) (A) (A) (A) (A) (A) (A) (A) (A) (A)
                 (A) (A) (A) (A) (A) (A) (A) (A) (A) (A) (A) (A)
                 (A) (A) (A) (A) (A) (A) (A) (A) (A) (A) (A) (A)
                 (A) (A) (A) (A) (A) (A) (A) (A) (A) (A) (A) (A)
                 (A) (A) (A) (A) (A) (A) (A) (A) (A) (A) (A)
       Virtual   (A) (A) (A) (A) (A) (A) (A) (A) (A) (A) (A) (A)
                 (A) (A) (A) (A) (A) (A) (A) (A) (A) (A) (A) (A)
                 (A) (A) (A) (A) (A) (A) (A) (A) (A) (A) (A) (A)
                 (A) (A) (A) (A) (A) (A) (A) (A) (A) (A) (A) (A)
                 (A) (A) (A) (A) (A) (A) (A) (A) (A) (A) (A) (A)
                 (A) (A) (A) (A) (A) (A) (A) (A) (A) (A) (A) (A)
                 (A) (A) (A) (A) (A) (A) (A) (A) (A) (A) (A) (A)
                 (A) (A) (A) (A) (A) (A) (A) (A) (A) (A) (A) (A)
                 (A) (A) (A) (A) (A) (A) (A) (A) (A) (A) (A) (A)
                 (A) (A) (A) (A) (A) (A) (A) (A) (A) (A) (A) (A)
                 (A) (A) (A) (A) (A) (A) (A) (A) (A) (A) (A) (A)
                 (A) (A) (A) (A) (A) (A) (A) (A) (A) (A) (A) (A)
                 (A) (A) (A) (A) (A) (A) (A) (A) (A) (A) (A) (A)
                 (A) (A) (A) (A) (A) (A) (A) (A) (A) (A) (A) (A)
                 (A) (A) (A) (A) (A) (A) (A) (A) (A) (A) (A) (A)
                 (A) (A) (A) (A) (A) (A) (A) (A) (A) (A) (A) (A)
                 (A) (A) (A) (A) (A) (A) (A) (A) (A) (A) (A) (A)
                 (A) (A) (A) (A) (A) (A) (A) (A) (A) (A) (A) (A)
                 (A) (A) (A) (A) (A) (A) (A) (A) (A) (A) (A) (A)
                 (A) (A) (A) (A) (A) (A) (A) (A) (A) (A) (A) (A)
                 (A) (A) (A) (A) (A) (A) (A) (A) (A) (A) (A) (A)
                 (A) (A) (A) (A) (A) (A) (A) (A) (A) (A) (A) (A)
                 (A) (A) (A) (A) (A) (A) (A) (A) (A) (A) (A) (A)
                 (A) (A) (A) (A) (A) (A) (A) (A) (A) (A) (A) (A)
                 (A) (A) (A) (A) (A) (A) (A) (A) (A) (A) (A) (A)
                 (A) (A) (A) (A) (A) (A) (A) (A) (A) (A) (A) (A)
                 (A) (A) (A) (A) (A) (A) (A) (A) (A) (A) (A) (A)
                 (A) (A) (A) (A) (A) (A) (A) (A) (A) (A) (A) (A)
                 (A) (A) (A) (A) (A) (A) (A) (A) (A) (A) (A) (A)
                 (A) (A) (A) (A) (A) (A) (A) (A) (A) (A) (A) (A)
                 (A) (A) (A) (A) (A) (A) (A) (A) (A) (A) (A) (A)
                 (A) (A) (A) (A) (A) (A) (A) (A) (A) (A) (A) (A)
                 (A) (A) (A) (A) (A) (A) (A) (A) (A) (A) (A) (A)
                 (A) (A) (A) (A) (A) (A) (A) (A) (A) (A) (A) (A)
                 (A) (A) (A) (A) (A) (A) (A) (A) (A) (A) (A) (A)
                 (A) (A) (A) (A) (A) (A) (A) (A) (A) (A) (A) (A)
                 (A) (A) (A) (A) (A) (A) (A) (A) (A) (A) (A) (A)
                 (A) (A) (A) (A) (A) (A) (A) (A) (A) (A) (A) (A)
                 (A) (A) (A) (A) (A) (A) (A) (A) (A) (A) (A) (A)
                 (A) (A) (A) (A) (A) (A) (A) (A) (A) (A) (A) (A)
                 (A) (A) (A) (A) (A) (A) (A) (A) (A) (A) (A) (A)
                 (A) (A) (A) (A) (A) (A) (A) (A) (A) (A) (A) (A)
                 (A) (A) (A) (A) (A) (A) (A) (A) (A) (A) (A) (A)
                 (A) (A) (A) (A) (A) (A) (A) (A) (A) (A) (A) (A)
                 (A) (A) (A) (A) (A) (A) (A) (A) (A) (A) (A) (A)
                 (A) (A) (A) (A) (A) (A) (A) (A) (A) (A) (A) (A)
                 (A) (A) (A) (A) (A) (A) (A) (A) (A) (A) (A) (A)
                 (A) (A) (A) (A) (A) (A) (A) (A) (A) (A) (A) (A)
                 (A) (A) (A) (A) (A) (A) (A) (A) (A) (A) (A) (A)
                 (A) (A) (A) (A) (A) (A) (A) (A) (A) (A) (A) (A)
                 (A) (A) (A) (A) (A) (A) (A) (A) (A) (A) (A) (A)
                 (A) (A) (A) (A) (A) (A) (A) (A) (A) (A) (A) (A)
                 (A) (A) (A) (A) (A) (A) (A) (A) (A) (A) (A) (A)
                 (A) (A) (A) (A) (A) (A) (A) (A) (A) (A) (A) (A)
                 (A) (A) (A) (A) (A) (A) (A) (A) (A) (A) (A) (A)
                 (A) (A) (A) (A) (A) (A) (A) (A) (A) (A) (A) (A)
                 (A) (A) (A) (A) (A) (A) (A) (A) (A) (A) (A) (A)
                 (A) (A) (A) (A) (A) (A) (A) (A) (A) (A) (A) (A)
                 (A) (A) (A) (A) (A) (A) (A) (A) (A) (A) (A) (A)
                 (A) (A) (A) (A) (A) (A) (A) (A) (A) (A) (A) (A)
                 (A) (A) (A) (A) (A) (A) (A) (A) (A) (A) (A) (A)
                 (A) (A) (A) (A) (A) (A) (A) (A) (A) (A) (A) (A)
                 (A) (A) (A) (A) (A) (A) (A) (A) (A) (A) (A) (A)
                 (A) (A) (A) (A) (A) (A) (A) (A) (A) (A) (A) (A)
                 (A) (A) (A) (A) (A) (A) (A) (A) (A) (A) (A) (A)
                 (A) (A) (A) (A) (A) (A) (A) (A) (A) (A) (A) (A)
                 (A) (A) (A) (A) (A) (A) (A)
 The electronic state is 1-A.
 Alpha  occ. eigenvalues --  -89.86933 -19.66460 -19.63262 -19.61845 -19.61108
 Alpha  occ. eigenvalues --  -19.57177 -14.87744 -14.77846 -10.66537 -10.66219
 Alpha  occ. eigenvalues --  -10.64132 -10.63237 -10.61160 -10.61112 -10.60595
 Alpha  occ. eigenvalues --  -10.60481 -10.59587 -10.59542 -10.59339 -10.55098
 Alpha  occ. eigenvalues --  -10.53775 -10.52379 -10.52329 -10.49353  -8.22836
 Alpha  occ. eigenvalues --   -6.14804  -6.14577  -6.14312  -1.22401  -1.18431
 Alpha  occ. eigenvalues --   -1.17058  -1.15521  -1.13971  -1.10694  -1.03178
 Alpha  occ. eigenvalues --   -0.97663  -0.93107  -0.90638  -0.88239  -0.87634
 Alpha  occ. eigenvalues --   -0.85568  -0.81461  -0.80552  -0.79194  -0.76805
 Alpha  occ. eigenvalues --   -0.73212  -0.71985  -0.69916  -0.69160  -0.67095
 Alpha  occ. eigenvalues --   -0.66155  -0.64066  -0.62867  -0.62251  -0.61140
 Alpha  occ. eigenvalues --   -0.60061  -0.58286  -0.57864  -0.57402  -0.56154
 Alpha  occ. eigenvalues --   -0.55832  -0.54290  -0.53129  -0.52718  -0.51956
 Alpha  occ. eigenvalues --   -0.51832  -0.51063  -0.50214  -0.50137  -0.48800
 Alpha  occ. eigenvalues --   -0.48565  -0.48187  -0.47750  -0.47199  -0.46203
 Alpha  occ. eigenvalues --   -0.45709  -0.45609  -0.44880  -0.44010  -0.43358
 Alpha  occ. eigenvalues --   -0.43078  -0.40648  -0.39676  -0.38763  -0.37911
 Alpha  occ. eigenvalues --   -0.37450  -0.37207  -0.36779  -0.36632  -0.36163
 Alpha  occ. eigenvalues --   -0.34886  -0.34345  -0.29393  -0.28103  -0.21328
 Alpha virt. eigenvalues --   -0.06453  -0.04023   0.03727   0.04667   0.05178
 Alpha virt. eigenvalues --    0.06244   0.07078   0.07273   0.08167   0.08871
 Alpha virt. eigenvalues --    0.09344   0.10063   0.10294   0.10744   0.11282
 Alpha virt. eigenvalues --    0.11454   0.11947   0.12595   0.12910   0.13253
 Alpha virt. eigenvalues --    0.13757   0.14018   0.14327   0.14561   0.15207
 Alpha virt. eigenvalues --    0.15436   0.15549   0.16252   0.16329   0.16732
 Alpha virt. eigenvalues --    0.17579   0.17684   0.18559   0.18886   0.19539
 Alpha virt. eigenvalues --    0.20697   0.20872   0.21409   0.21586   0.22188
 Alpha virt. eigenvalues --    0.22775   0.23029   0.23496   0.23676   0.24155
 Alpha virt. eigenvalues --    0.24690   0.25426   0.25660   0.25816   0.26137
 Alpha virt. eigenvalues --    0.26656   0.27174   0.27694   0.28125   0.28796
 Alpha virt. eigenvalues --    0.29093   0.29490   0.29871   0.30395   0.31473
 Alpha virt. eigenvalues --    0.31578   0.31877   0.32548   0.33060   0.33509
 Alpha virt. eigenvalues --    0.33924   0.34536   0.35115   0.35758   0.36109
 Alpha virt. eigenvalues --    0.36697   0.37003   0.37444   0.37578   0.38226
 Alpha virt. eigenvalues --    0.38679   0.39036   0.39384   0.39682   0.39767
 Alpha virt. eigenvalues --    0.40246   0.40590   0.41213   0.41780   0.42017
 Alpha virt. eigenvalues --    0.42729   0.42964   0.43135   0.43721   0.44113
 Alpha virt. eigenvalues --    0.44214   0.44544   0.44979   0.45383   0.45664
 Alpha virt. eigenvalues --    0.45860   0.46220   0.46571   0.46870   0.47570
 Alpha virt. eigenvalues --    0.47752   0.48067   0.48513   0.48818   0.49164
 Alpha virt. eigenvalues --    0.49533   0.49546   0.49927   0.50561   0.50740
 Alpha virt. eigenvalues --    0.51339   0.51527   0.52064   0.52933   0.53361
 Alpha virt. eigenvalues --    0.53663   0.54019   0.54168   0.54790   0.55287
 Alpha virt. eigenvalues --    0.55411   0.55829   0.56023   0.56547   0.57478
 Alpha virt. eigenvalues --    0.57986   0.58839   0.59311   0.59885   0.60091
 Alpha virt. eigenvalues --    0.60627   0.61236   0.61680   0.61742   0.62850
 Alpha virt. eigenvalues --    0.63136   0.63478   0.64494   0.65028   0.65259
 Alpha virt. eigenvalues --    0.65824   0.65998   0.66891   0.67032   0.67387
 Alpha virt. eigenvalues --    0.67716   0.68152   0.68644   0.69470   0.70741
 Alpha virt. eigenvalues --    0.71664   0.71776   0.72302   0.72577   0.73247
 Alpha virt. eigenvalues --    0.74113   0.74544   0.75176   0.75970   0.77046
 Alpha virt. eigenvalues --    0.77274   0.78631   0.79348   0.79936   0.81088
 Alpha virt. eigenvalues --    0.81851   0.81862   0.82202   0.82976   0.83799
 Alpha virt. eigenvalues --    0.84191   0.86008   0.86638   0.87338   0.87414
 Alpha virt. eigenvalues --    0.87588   0.88840   0.89573   0.89763   0.90221
 Alpha virt. eigenvalues --    0.90594   0.91448   0.92073   0.92427   0.92975
 Alpha virt. eigenvalues --    0.93496   0.94557   0.95172   0.95746   0.96105
 Alpha virt. eigenvalues --    0.96515   0.97322   0.98160   0.98918   0.99558
 Alpha virt. eigenvalues --    1.00115   1.01134   1.01719   1.01945   1.02869
 Alpha virt. eigenvalues --    1.03366   1.03663   1.04255   1.05571   1.06396
 Alpha virt. eigenvalues --    1.07022   1.07992   1.08664   1.08851   1.09640
 Alpha virt. eigenvalues --    1.10309   1.10814   1.12210   1.12335   1.13039
 Alpha virt. eigenvalues --    1.13999   1.15043   1.16002   1.16431   1.17385
 Alpha virt. eigenvalues --    1.17827   1.18467   1.18854   1.19177   1.19873
 Alpha virt. eigenvalues --    1.21220   1.21511   1.22847   1.23757   1.24122
 Alpha virt. eigenvalues --    1.24477   1.25943   1.26145   1.27147   1.27896
 Alpha virt. eigenvalues --    1.28566   1.28923   1.29190   1.29756   1.31184
 Alpha virt. eigenvalues --    1.31826   1.32562   1.33430   1.34044   1.34289
 Alpha virt. eigenvalues --    1.35295   1.35966   1.37579   1.39294   1.39561
 Alpha virt. eigenvalues --    1.40191   1.41262   1.42611   1.42694   1.43654
 Alpha virt. eigenvalues --    1.44998   1.45260   1.46219   1.47534   1.50083
 Alpha virt. eigenvalues --    1.50915   1.52077   1.53009   1.53059   1.53140
 Alpha virt. eigenvalues --    1.53979   1.54511   1.54749   1.55143   1.55910
 Alpha virt. eigenvalues --    1.56568   1.56956   1.57088   1.58078   1.58654
 Alpha virt. eigenvalues --    1.59236   1.59456   1.60077   1.60625   1.61118
 Alpha virt. eigenvalues --    1.61338   1.61616   1.62423   1.62933   1.63132
 Alpha virt. eigenvalues --    1.63460   1.64032   1.64530   1.64753   1.65340
 Alpha virt. eigenvalues --    1.65935   1.67146   1.67523   1.68258   1.68649
 Alpha virt. eigenvalues --    1.69413   1.69913   1.70708   1.71422   1.71659
 Alpha virt. eigenvalues --    1.72087   1.72584   1.73184   1.74357   1.74865
 Alpha virt. eigenvalues --    1.75756   1.76736   1.77091   1.77974   1.78120
 Alpha virt. eigenvalues --    1.78401   1.79123   1.79626   1.80556   1.80857
 Alpha virt. eigenvalues --    1.82740   1.83159   1.83849   1.84258   1.84858
 Alpha virt. eigenvalues --    1.86111   1.86339   1.87167   1.88088   1.89096
 Alpha virt. eigenvalues --    1.89357   1.89616   1.90367   1.91393   1.91449
 Alpha virt. eigenvalues --    1.92231   1.93131   1.94308   1.94449   1.94515
 Alpha virt. eigenvalues --    1.95143   1.96314   1.96582   1.97849   1.98200
 Alpha virt. eigenvalues --    1.99077   2.00156   2.00231   2.01391   2.02691
 Alpha virt. eigenvalues --    2.03057   2.03516   2.04195   2.04562   2.04914
 Alpha virt. eigenvalues --    2.05964   2.06661   2.07524   2.08519   2.09401
 Alpha virt. eigenvalues --    2.10199   2.10898   2.11298   2.12442   2.13441
 Alpha virt. eigenvalues --    2.14126   2.14706   2.16358   2.16514   2.17353
 Alpha virt. eigenvalues --    2.17860   2.18676   2.18903   2.19663   2.20249
 Alpha virt. eigenvalues --    2.21171   2.21480   2.22327   2.22786   2.23178
 Alpha virt. eigenvalues --    2.23437   2.24594   2.24989   2.26322   2.26646
 Alpha virt. eigenvalues --    2.27718   2.28107   2.29165   2.29392   2.30082
 Alpha virt. eigenvalues --    2.30883   2.31890   2.32437   2.33817   2.34567
 Alpha virt. eigenvalues --    2.34885   2.35124   2.36018   2.36328   2.37145
 Alpha virt. eigenvalues --    2.37698   2.37766   2.38425   2.38766   2.39718
 Alpha virt. eigenvalues --    2.40458   2.41250   2.42361   2.42579   2.43749
 Alpha virt. eigenvalues --    2.45423   2.45533   2.46077   2.46434   2.47183
 Alpha virt. eigenvalues --    2.47804   2.50037   2.50674   2.51284   2.51824
 Alpha virt. eigenvalues --    2.53557   2.53724   2.54563   2.55281   2.55952
 Alpha virt. eigenvalues --    2.56704   2.57085   2.57827   2.58214   2.58392
 Alpha virt. eigenvalues --    2.59732   2.60100   2.60332   2.61012   2.61533
 Alpha virt. eigenvalues --    2.62305   2.63300   2.63480   2.64184   2.65428
 Alpha virt. eigenvalues --    2.66079   2.66431   2.67022   2.67439   2.68415
 Alpha virt. eigenvalues --    2.69168   2.69466   2.70020   2.70314   2.71250
 Alpha virt. eigenvalues --    2.71774   2.72175   2.73273   2.73790   2.74092
 Alpha virt. eigenvalues --    2.74845   2.75942   2.76821   2.77280   2.78276
 Alpha virt. eigenvalues --    2.78983   2.79457   2.80420   2.80921   2.81934
 Alpha virt. eigenvalues --    2.82144   2.82912   2.83452   2.83990   2.84516
 Alpha virt. eigenvalues --    2.85474   2.86284   2.86488   2.86558   2.87695
 Alpha virt. eigenvalues --    2.88738   2.89679   2.90119   2.90470   2.91767
 Alpha virt. eigenvalues --    2.93288   2.93503   2.93871   2.94618   2.95362
 Alpha virt. eigenvalues --    2.96707   2.97549   2.98333   2.98841   2.99476
 Alpha virt. eigenvalues --    3.00399   3.01487   3.01889   3.02776   3.02872
 Alpha virt. eigenvalues --    3.03769   3.04459   3.05398   3.05852   3.06778
 Alpha virt. eigenvalues --    3.08198   3.08309   3.08766   3.09788   3.09935
 Alpha virt. eigenvalues --    3.10388   3.10859   3.11362   3.12316   3.12993
 Alpha virt. eigenvalues --    3.13272   3.14035   3.14446   3.14960   3.15584
 Alpha virt. eigenvalues --    3.16030   3.16602   3.17419   3.17940   3.18433
 Alpha virt. eigenvalues --    3.19835   3.20160   3.20318   3.20745   3.21038
 Alpha virt. eigenvalues --    3.21844   3.22520   3.23739   3.23898   3.25002
 Alpha virt. eigenvalues --    3.25680   3.26354   3.26675   3.27245   3.28313
 Alpha virt. eigenvalues --    3.28886   3.29777   3.30280   3.30498   3.31366
 Alpha virt. eigenvalues --    3.32100   3.32454   3.33035   3.33534   3.34206
 Alpha virt. eigenvalues --    3.34850   3.35461   3.35815   3.36453   3.37082
 Alpha virt. eigenvalues --    3.38572   3.38832   3.38938   3.40094   3.40440
 Alpha virt. eigenvalues --    3.41162   3.41461   3.41904   3.42711   3.43316
 Alpha virt. eigenvalues --    3.43978   3.44586   3.44893   3.45554   3.45980
 Alpha virt. eigenvalues --    3.46516   3.47630   3.48214   3.48853   3.49966
 Alpha virt. eigenvalues --    3.50059   3.51393   3.52667   3.53129   3.53965
 Alpha virt. eigenvalues --    3.54425   3.54986   3.55981   3.56456   3.56813
 Alpha virt. eigenvalues --    3.57567   3.58246   3.58937   3.59668   3.60046
 Alpha virt. eigenvalues --    3.60735   3.61773   3.62553   3.64006   3.64620
 Alpha virt. eigenvalues --    3.66298   3.66804   3.67225   3.68881   3.70093
 Alpha virt. eigenvalues --    3.70720   3.71349   3.72768   3.73703   3.74577
 Alpha virt. eigenvalues --    3.76202   3.76480   3.77671   3.78951   3.79621
 Alpha virt. eigenvalues --    3.80150   3.80684   3.82299   3.82889   3.85595
 Alpha virt. eigenvalues --    3.85858   3.86758   3.87728   3.88154   3.89303
 Alpha virt. eigenvalues --    3.91117   3.91625   3.93188   3.94006   3.94476
 Alpha virt. eigenvalues --    3.96677   3.97384   3.97813   3.98198   3.99601
 Alpha virt. eigenvalues --    4.00355   4.01383   4.03710   4.05978   4.07066
 Alpha virt. eigenvalues --    4.08621   4.09854   4.11140   4.12685   4.13599
 Alpha virt. eigenvalues --    4.14289   4.15727   4.16895   4.17796   4.18699
 Alpha virt. eigenvalues --    4.19352   4.20542   4.21114   4.23507   4.24494
 Alpha virt. eigenvalues --    4.26916   4.27161   4.28378   4.29650   4.31207
 Alpha virt. eigenvalues --    4.32213   4.33423   4.34947   4.36510   4.37349
 Alpha virt. eigenvalues --    4.39363   4.40021   4.41067   4.42718   4.43964
 Alpha virt. eigenvalues --    4.44675   4.45821   4.45889   4.47722   4.49767
 Alpha virt. eigenvalues --    4.50571   4.51816   4.55120   4.56942   4.57352
 Alpha virt. eigenvalues --    4.59292   4.60625   4.62831   4.64457   4.67156
 Alpha virt. eigenvalues --    4.67804   4.72442   4.73658   4.75573   4.76019
 Alpha virt. eigenvalues --    4.77808   4.80354   4.80782   4.82352   4.83524
 Alpha virt. eigenvalues --    4.85242   4.86697   4.88921   4.89869   4.90573
 Alpha virt. eigenvalues --    4.91994   4.93326   4.95157   4.97362   4.97991
 Alpha virt. eigenvalues --    4.99884   5.02674   5.04600   5.04888   5.06580
 Alpha virt. eigenvalues --    5.08866   5.13142   5.15537   5.18969   5.20452
 Alpha virt. eigenvalues --    5.21504   5.25105   5.26697   5.27155   5.28176
 Alpha virt. eigenvalues --    5.30649   5.31461   5.32062   5.34541   5.37907
 Alpha virt. eigenvalues --    5.39660   5.42378   5.43273   5.45510   5.47115
 Alpha virt. eigenvalues --    5.48861   5.49368   5.50763   5.53287   5.58247
 Alpha virt. eigenvalues --    5.64440   5.67242   5.72509   5.74561   5.77676
 Alpha virt. eigenvalues --    5.80052   5.81028   5.83481   5.84479   5.86844
 Alpha virt. eigenvalues --    5.89098   5.90598   5.91845   5.94177   5.95584
 Alpha virt. eigenvalues --    5.97409   6.03572   6.06040   6.15244   6.17462
 Alpha virt. eigenvalues --    6.20278   6.22597   6.25862   6.26841   6.38268
 Alpha virt. eigenvalues --    6.41769   6.44350   6.47929   6.49273   6.55298
 Alpha virt. eigenvalues --    6.58892   6.67645   6.73256   6.75262   6.76268
 Alpha virt. eigenvalues --    6.77723   6.80611   6.83961   6.85166   6.87173
 Alpha virt. eigenvalues --    6.89242   6.95371   6.99899   7.07801   7.08894
 Alpha virt. eigenvalues --    7.09670   7.11909   7.16866   7.19377   7.22438
 Alpha virt. eigenvalues --    7.32333   7.40726   9.06465   9.42640   9.59086
 Alpha virt. eigenvalues --   19.82214  22.36400  22.46642  22.49532  22.59888
 Alpha virt. eigenvalues --   22.64905  22.70365  22.74837  22.76232  22.82309
 Alpha virt. eigenvalues --   22.86802  22.95402  22.97445  23.07355  23.18332
 Alpha virt. eigenvalues --   23.29239  23.51994  32.18842  33.16708  44.13928
 Alpha virt. eigenvalues --   44.22781  44.26106  44.36087  44.51481
          Condensed to atoms (all electrons):
               1          2          3          4          5          6
     1  C    5.146576   0.429173   0.412915   0.006723  -0.006658  -0.000250
     2  H    0.429173   0.496426  -0.013865  -0.002283   0.000471  -0.000005
     3  H    0.412915  -0.013865   0.505323  -0.000685   0.000198  -0.000009
     4  C    0.006723  -0.002283  -0.000685   5.595624   0.543026   0.233346
     5  H   -0.006658   0.000471   0.000198   0.543026   0.528163  -0.035272
     6  O   -0.000250  -0.000005  -0.000009   0.233346  -0.035272   8.172088
     7  H   -0.000001  -0.000002  -0.000003  -0.056938  -0.006862   0.307314
     8  C   -0.006554   0.010985  -0.000906  -0.052917  -0.106795  -0.061454
     9  H    0.006968  -0.000301  -0.002013  -0.074661   0.002069   0.001274
    10  O    0.005243  -0.000190  -0.000016   0.050685   0.005641  -0.022325
[...]
 ***** Axes restored to original set *****
 -------------------------------------------------------------------
 Center     Atomic                   Forces (Hartrees/Bohr)
 Number     Number              X              Y              Z
 -------------------------------------------------------------------
      1        6          -0.000094520   -0.000012003    0.000157216
      2        1          -0.000010795    0.000015792    0.000008180
      3        1          -0.000014100   -0.000016043    0.000002986
      4        6          -0.000262534    0.000058849    0.000189154
      5        1          -0.000063918    0.000003972    0.000006222
      6        8          -0.000501779    0.000221207    0.000023454
      7        1          -0.000050719    0.000010498   -0.000017206
      8        6          -0.000273688    0.000010337    0.000270210
      9        1          -0.000029437    0.000007465    0.000040040
     10        8          -0.000404432    0.000161971    0.000175148
     11        1          -0.000039668    0.000007506    0.000027257
     12        6           0.000036118    0.000036819    0.000232921
     13        1           0.000012655    0.000015396   -0.000009337
     14        6          -0.000150572    0.000000959    0.000320505
     15        1          -0.000010089   -0.000002470    0.000029619
     16        8          -0.000018410    0.000039539    0.000324974
     17        7           0.000179798   -0.000084036   -0.000062064
     18        6           0.000895749    0.000168124   -0.000868723
     19        1           0.000057600    0.000005181   -0.000040280
     20        6           0.001737667    0.000238675   -0.002237361
     21        1           0.000196625    0.000049359   -0.000235779
     22        6           0.002251461    0.000210811   -0.002640891
     23        1           0.000130519    0.000039356   -0.000230940
     24        1          -0.000154352   -0.000377830    0.000266343
     25        6           0.000463844   -0.000075154   -0.000527932
     26        6          -0.000138985   -0.000106525    0.000676810
     27        1          -0.000077135   -0.000010330    0.000153698
     28        6          -0.000003045   -0.000129624    0.000029817
     29        8           0.000161854   -0.000279546   -0.000191200
     30        7          -0.000245789   -0.000330738    0.000721833
     31        1          -0.000010921   -0.000016123    0.000085121
     32        1          -0.000032478   -0.000028622    0.000179112
     33        1          -0.000048212   -0.000006726    0.000025836
     34        6          -0.000276953   -0.000067095    0.000089310
     35        6          -0.000018906   -0.000162224   -0.000449034
     36        6          -0.000200746   -0.000587527    0.000177873
     37        6          -0.001793061    0.001536897    0.002700277
     38        6          -0.001617607   -0.001246706    0.002046816
     39        8           0.001038224    0.000010878   -0.001482190
     40       16           0.000343976    0.000002242   -0.000950696
     41        1          -0.000033018   -0.000016935    0.000000885
     42        1          -0.000005006   -0.000000719    0.000031008
     43        1          -0.000055167    0.000624711    0.000276484
     44        1          -0.000011200   -0.000027429   -0.000071066
     45        1          -0.000402403    0.000005291    0.000573198
     46        1          -0.000352353    0.000182936    0.000091295
     47        1          -0.000072271   -0.000067382    0.000106095
     48        1          -0.000031821   -0.000012981   -0.000024997
 -------------------------------------------------------------------
 Cartesian Forces:  Max     0.002700277 RMS     0.000604702
 Leave Link  716 at Sat Aug 13 20:46:49 2022, MaxMem=  2684354560 cpu:               0.4 elap:               0.0
 (Enter /storage/apps/GAUSSIAN/G16_RevA03/g16/l103.exe)

 GradGradGradGradGradGradGradGradGradGradGradGradGradGradGradGradGradGrad
 Berny optimization.
 Search for a local minimum.
 Step number   1 out of a maximum of    2
 All quantities printed in internal units (Hartrees-Bohrs-Radians)
 Second derivative matrix not updated -- first step.
 ITU=  0
     Eigenvalues ---    0.00025   0.00089   0.00107   0.00128   0.00184
     Eigenvalues ---    0.00217   0.00318   0.00358   0.00448   0.00490
     Eigenvalues ---    0.00610   0.00617   0.00807   0.00925   0.00957
     Eigenvalues ---    0.00972   0.01116   0.01167   0.01368   0.01507
     Eigenvalues ---    0.01720   0.02155   0.02348   0.02432   0.02677
     Eigenvalues ---    0.03028   0.03128   0.03307   0.03724   0.04263
     Eigenvalues ---    0.04400   0.04603   0.04819   0.05014   0.05256
     Eigenvalues ---    0.05322   0.05529   0.05740   0.05826   0.05974
     Eigenvalues ---    0.06166   0.06301   0.06468   0.06836   0.07040
     Eigenvalues ---    0.07056   0.07129   0.07669   0.08070   0.08334
     Eigenvalues ---    0.08616   0.08781   0.09267   0.09352   0.10261
     Eigenvalues ---    0.10752   0.10834   0.11201   0.12263   0.12561
     Eigenvalues ---    0.12832   0.13078   0.13240   0.13298   0.13696
     Eigenvalues ---    0.13868   0.14048   0.15497   0.16157   0.16518
     Eigenvalues ---    0.17477   0.18140   0.18680   0.19297   0.19859
     Eigenvalues ---    0.20324   0.20674   0.21259   0.21937   0.22524
     Eigenvalues ---    0.25166   0.26028   0.27069   0.28030   0.30622
     Eigenvalues ---    0.33191   0.33586   0.34087   0.34739   0.37696
     Eigenvalues ---    0.37880   0.37880   0.37880   0.37880   0.40109
     Eigenvalues ---    0.43727   0.48158   0.48967   0.57104   0.59266
     Eigenvalues ---    0.59961   0.61748   0.69592   0.72272   0.73694
     Eigenvalues ---    0.79315   0.81278   0.82713   0.87466   0.90866
     Eigenvalues ---    0.91263   0.92128   0.92993   0.93443   0.95405
     Eigenvalues ---    0.96786   0.99996   1.00563   1.02267   1.04166
     Eigenvalues ---    1.06010   1.08559   1.11592   1.12310   1.12612
     Eigenvalues ---    1.20456   1.20803   1.27460   1.27729   1.29396
     Eigenvalues ---    1.33030   1.37215   1.43729   1.55483   1.72671
     Eigenvalues ---    1.83270   1.89277   2.35314
 Quadratic step=7.489D+00 exceeds max=3.000D-01 adjusted using Lamda=-8.495D-03.
 Angle between NR and scaled steps=  39.84 degrees.
 Angle between quadratic step and forces=  55.74 degrees.
 Linear search not attempted -- first point.
 Variable       Old X    -DE/DX   Delta X   Delta X   Delta X     New X
                                 (Linear)    (Quad)   (Total)
    X1        6.79926  -0.00009   0.00000  -0.02473  -0.02473   6.77453
    Y1       -6.83306  -0.00001   0.00000  -0.01535  -0.01535  -6.84842
    Z1       -0.83684   0.00016   0.00000   0.01521   0.01521  -0.82163
    X2        7.08435  -0.00001   0.00000  -0.02819  -0.02819   7.05616
    Y2       -7.01060   0.00002   0.00000  -0.02002  -0.02002  -7.03062
    Z2       -2.86775   0.00001   0.00000   0.01455   0.01455  -2.85320
    X3        8.19062  -0.00001   0.00000  -0.02117  -0.02117   8.16945
    Y3       -8.00701  -0.00002   0.00000  -0.01445  -0.01445  -8.02146
    Z3        0.12778   0.00000   0.00000   0.01174   0.01174   0.13952
    X4        3.51303  -0.00026   0.00000  -0.00638  -0.00638   3.50665
    Y4       -2.71605   0.00006   0.00000   0.01236   0.01236  -2.70369
    Z4        2.35055   0.00019   0.00000   0.01423   0.01423   2.36478
    X5        2.28806  -0.00006   0.00000  -0.01041  -0.01041   2.27765
    Y5       -4.36571   0.00000   0.00000   0.01441   0.01441  -4.35129
    Z5        2.05781   0.00001   0.00000   0.02143   0.02143   2.07924
    X6        2.76008  -0.00050   0.00000   0.00195   0.00195   2.76203
    Y6       -1.27970   0.00022   0.00000   0.02687   0.02687  -1.25283
    Z6        4.39401   0.00002   0.00000   0.00768   0.00768   4.40168
    X7        0.98436  -0.00005   0.00000   0.00614   0.00614   0.99050
    Y7       -0.69527   0.00001   0.00000   0.03454   0.03454  -0.66074
    Z7        4.08488  -0.00002   0.00000   0.00116   0.00116   4.08604
    X8        6.26231  -0.00027   0.00000  -0.00720  -0.00720   6.25511
    Y8       -3.56038   0.00001   0.00000   0.00496   0.00496  -3.55542
    Z8        2.66506   0.00027   0.00000   0.00778   0.00778   2.67283
    X9        6.42024  -0.00003   0.00000  -0.00242  -0.00242   6.41781
    Y9       -5.23354   0.00001   0.00000   0.01120   0.01120  -5.22234
    Z9        3.86989   0.00004   0.00000   0.01544   0.01544   3.88532
   X10        7.70184  -0.00040   0.00000   0.00225   0.00225   7.70409
   Y10       -1.54235   0.00016   0.00000   0.00864   0.00864  -1.53371
   Z10        3.61942   0.00018   0.00000  -0.01460  -0.01460   3.60482
   X11        6.66774  -0.00004   0.00000   0.01319   0.01319   6.68094
   Y11       -0.71209   0.00001   0.00000   0.02028   0.02028  -0.69180
   Z11        4.87885   0.00003   0.00000  -0.01405  -0.01405   4.86480
   X12        3.73167   0.00004   0.00000  -0.00607  -0.00607   3.72560
   Y12       -1.24524   0.00004   0.00000   0.00010   0.00010  -1.24514
   Z12       -0.14665   0.00023   0.00000   0.00773   0.00773  -0.13893
   X13        4.27006   0.00001   0.00000   0.00552   0.00552   4.27557
   Y13        0.71253   0.00002   0.00000  -0.00039  -0.00039   0.71214
   Z13        0.22964  -0.00001   0.00000  -0.00612  -0.00612   0.22352
   X14        7.08940  -0.00015   0.00000  -0.01817  -0.01817   7.07123
   Y14       -4.10045   0.00000   0.00000  -0.01309  -0.01309  -4.11354
   Z14       -0.04018   0.00032   0.00000   0.00753   0.00753  -0.03265
   X15        9.03135  -0.00001   0.00000  -0.01668  -0.01668   9.01467
   Y15       -3.46112  -0.00000   0.00000  -0.01975  -0.01975  -3.48087
   Z15       -0.29607   0.00003   0.00000  -0.00441  -0.00441  -0.30047
   X16        5.50328  -0.00002   0.00000  -0.01814  -0.01814   5.48514
   Y16       -2.52529   0.00004   0.00000  -0.01462  -0.01462  -2.53991
   Z16       -1.61278   0.00032   0.00000   0.00774   0.00774  -1.60505
   X17        1.36317   0.00018   0.00000  -0.00176  -0.00176   1.36141
   Y17       -1.13663  -0.00008   0.00000  -0.00072  -0.00072  -1.13735
   Z17       -1.62465  -0.00006   0.00000   0.00364   0.00364  -1.62101
   X18        0.39357   0.00090   0.00000   0.02305   0.02305   0.41663
   Y18       -3.33183   0.00017   0.00000   0.00219   0.00219  -3.32965
   Z18       -2.52697  -0.00087   0.00000  -0.02906  -0.02906  -2.55603
   X19        1.45905   0.00006   0.00000   0.02358   0.02358   1.48263
   Y19       -5.01672   0.00001   0.00000   0.00343   0.00343  -5.01329
   Z19       -2.10486  -0.00004   0.00000  -0.02472  -0.02472  -2.12958
   X20       -1.74771   0.00174   0.00000   0.04791   0.04791  -1.69980
   Y20       -3.31134   0.00024   0.00000   0.00457   0.00457  -3.30677
   Z20       -3.95902  -0.00224   0.00000  -0.06555  -0.06555  -4.02458
   X21       -2.48762   0.00020   0.00000   0.06031   0.06031  -2.42732
   Y21       -5.07112   0.00005   0.00000   0.00594   0.00594  -5.06518
   Z21       -4.68093  -0.00024   0.00000  -0.08114  -0.08114  -4.76207
   X22       -2.94074   0.00225   0.00000   0.04308   0.04308  -2.89767
   Y22       -1.01638   0.00021   0.00000   0.00301   0.00301  -1.01337
   Z22       -4.48228  -0.00264   0.00000  -0.05978  -0.05978  -4.54206
   X23       -4.54419   0.00013   0.00000   0.05383   0.05383  -4.49037
   Y23       -0.96431   0.00004   0.00000   0.00630   0.00630  -0.95801
   Z23       -5.74881  -0.00023   0.00000  -0.07299  -0.07299  -5.82180
   X24       -5.47885  -0.00015   0.00000  -0.01510  -0.01510  -5.49395
   Y24       -1.41565  -0.00038   0.00000  -0.04302  -0.04302  -1.45867
   Z24       -1.79653   0.00027   0.00000   0.04188   0.04188  -1.75465
   X25       -1.92249   0.00046   0.00000   0.00447   0.00447  -1.91802
   Y25        1.21653  -0.00008   0.00000  -0.00291  -0.00291   1.21361
   Z25       -3.52273  -0.00053   0.00000  -0.00587  -0.00587  -3.52861
   X26        0.26293  -0.00014   0.00000  -0.01026  -0.01026   0.25267
   Y26        1.07348  -0.00011   0.00000  -0.00288  -0.00288   1.07060
   Z26       -2.09811   0.00068   0.00000   0.01638   0.01638  -2.08173
   X27        1.12193  -0.00008   0.00000  -0.02210  -0.02210   1.09984
   Y27        2.76639  -0.00001   0.00000  -0.00504  -0.00504   2.76135
   Z27       -1.33488   0.00015   0.00000   0.03479   0.03479  -1.30009
   X28       -2.90505  -0.00000   0.00000  -0.01855  -0.01855  -2.92360
   Y28        3.80995  -0.00013   0.00000  -0.00475  -0.00475   3.80519
   Z28       -4.08870   0.00003   0.00000   0.03006   0.03006  -4.05864
   X29       -1.56835   0.00016   0.00000  -0.02663  -0.02663  -1.59498
   Y29        5.64777  -0.00028   0.00000   0.00015   0.00015   5.64792
   Z29       -3.86619  -0.00019   0.00000   0.03444   0.03444  -3.83175
   X30       -5.31060  -0.00025   0.00000  -0.02548  -0.02548  -5.33608
   Y30        3.89955  -0.00033   0.00000  -0.00790  -0.00790   3.89164
   Z30       -5.03347   0.00072   0.00000   0.04878   0.04878  -4.98469
   X31       -6.01957  -0.00001   0.00000  -0.02576  -0.02576  -6.04533
   Y31        5.66304  -0.00002   0.00000  -0.00831  -0.00831   5.65473
   Z31       -5.18821   0.00009   0.00000   0.04665   0.04665  -5.14156
   X32       -6.54489  -0.00003   0.00000  -0.01945  -0.01945  -6.56433
   Y32        2.57835  -0.00003   0.00000  -0.01309  -0.01309   2.56526
   Z32       -4.42772   0.00018   0.00000   0.04677   0.04677  -4.38095
   X33        4.92116  -0.00005   0.00000  -0.02342  -0.02342   4.89774
   Y33       -7.55194  -0.00001   0.00000  -0.01358  -0.01358  -7.56552
   Z33       -0.36875   0.00003   0.00000   0.02060   0.02060  -0.34815
   X34        0.37901  -0.00028   0.00000  -0.01012  -0.01012   0.36889
   Y34        4.15653  -0.00007   0.00000   0.00567   0.00567   4.16220
   Z34        5.38024   0.00009   0.00000   0.00489   0.00489   5.38514
   X35       -3.14143  -0.00002   0.00000   0.02726   0.02726  -3.11417
   Y35        1.69349  -0.00016   0.00000  -0.00596  -0.00596   1.68753
   Z35        2.32726  -0.00045   0.00000  -0.02534  -0.02534   2.30192
   X36       -5.31066  -0.00020   0.00000   0.00707   0.00707  -5.30359
   Y36        1.61154  -0.00059   0.00000  -0.01902  -0.01902   1.59253
   Z36        0.89062   0.00018   0.00000   0.00548   0.00548   0.89610
   X37       -9.22378  -0.00179   0.00000  -0.01123  -0.01123  -9.23501
   Y37       -0.71197   0.00154   0.00000   0.01862   0.01862  -0.69334
   Z37       -0.62592   0.00270   0.00000   0.01488   0.01488  -0.61103
   X38       -6.40593  -0.00162   0.00000  -0.01679  -0.01679  -6.42272
   Y38       -0.79269  -0.00125   0.00000  -0.02005  -0.02005  -0.81274
   Z38       -0.03228   0.00205   0.00000   0.03648   0.03648   0.00419
   X39       -1.72437   0.00104   0.00000   0.05493   0.05493  -1.66944
   Y39       -0.15484   0.00001   0.00000   0.00640   0.00640  -0.14844
   Z39        2.86964  -0.00148   0.00000  -0.05475  -0.05475   2.81489
   X40       -2.29200   0.00034   0.00000   0.01837   0.01837  -2.27363
   Y40        4.83262   0.00000   0.00000   0.00059   0.00059   4.83321
   Z40        3.38930  -0.00095   0.00000  -0.03386  -0.03386   3.35544
   X41        0.82957  -0.00003   0.00000  -0.02435  -0.02435   0.80522
   Y41        5.91337  -0.00002   0.00000   0.00748   0.00748   5.92086
   Z41        6.35039   0.00000   0.00000   0.00756   0.00756   6.35796
   X42        2.01499  -0.00001   0.00000   0.00458   0.00458   2.01956
   Y42        3.54795  -0.00000   0.00000   0.00505   0.00505   3.55300
   Z42        4.29561   0.00003   0.00000   0.02698   0.02698   4.32259
   X43      -10.35579  -0.00006   0.00000  -0.02870  -0.02870 -10.38449
   Y43       -0.55127   0.00062   0.00000   0.06888   0.06888  -0.48239
   Z43        1.08759   0.00028   0.00000  -0.00514  -0.00514   1.08245
   X44       -9.69223  -0.00001   0.00000   0.03663   0.03663  -9.65559
   Y44        0.91725  -0.00003   0.00000  -0.00071  -0.00071   0.91654
   Z44       -1.81000  -0.00007   0.00000  -0.03225  -0.03225  -1.84226
   X45       -9.81902  -0.00040   0.00000  -0.01857  -0.01857  -9.83758
   Y45       -2.41061   0.00001   0.00000   0.01005   0.01005  -2.40056
   Z45       -1.63239   0.00057   0.00000   0.03106   0.03106  -1.60133
   X46       -5.96727  -0.00035   0.00000  -0.03201  -0.03201  -5.99928
   Y46       -2.32332   0.00018   0.00000  -0.01535  -0.01535  -2.33867
   Z46        1.28904   0.00009   0.00000   0.04363   0.04363   1.33267
   X47       -6.34854  -0.00007   0.00000   0.01388   0.01388  -6.33466
   Y47        3.35625  -0.00007   0.00000  -0.01750  -0.01750   3.33875
   Z47        0.61228   0.00011   0.00000  -0.00917  -0.00917   0.60310
   X48       -0.09652  -0.00003   0.00000  -0.02850  -0.02850  -0.12502
   Y48        2.71523  -0.00001   0.00000   0.00623   0.00623   2.72146
   Z48        6.76731  -0.00002   0.00000  -0.00116  -0.00116   6.76615
         Item               Value     Threshold  Converged?
 Maximum Force            0.002700     0.000450     NO 
 RMS     Force            0.000605     0.000300     NO 
 Maximum Displacement     0.081144     0.001800     NO 
 RMS     Displacement     0.025002     0.001200     NO 
 Predicted change in Energy=-9.952132D-04
 GradGradGradGradGradGradGradGradGradGradGradGradGradGradGradGradGradGrad

 Leave Link  103 at Sat Aug 13 20:46:49 2022, MaxMem=  2684354560 cpu:               0.9 elap:               0.1
 (Enter /storage/apps/GAUSSIAN/G16_RevA03/g16/l9999.exe)

 Test job not archived.
 1\1\GINC-T045\Force\RM062X\def2TZVP\C16H24N2O5S1\LV87696\13-Aug-2022\0
 \\#P M062X/Def2TZVP scf=(direct,conver=8) EmpiricalDispersion=GD3 Forc
 e Charge Prop=(Field,Read)\\Gaussian run\\0,1\C,3.598015,-3.615901,-0.
 442837\H,3.748875,-3.709849,-1.51755\H,4.334291,-4.237127,0.06762\C,1.
 859017,-1.43727,1.243855\H,1.210788,-2.310233,1.088948\O,1.460571,-0.6
 7719,2.325208\H,0.520903,-0.367923,2.161627\C,3.313872,-1.884071,1.410
 288\H,3.397444,-2.769471,2.047855\O,4.075636,-0.816174,1.915316\H,3.52
 8418,-0.37682,2.581777\C,1.974716,-0.658954,-0.077605\H,2.259616,0.377
 055,0.121521\C,3.751549,-2.169863,-0.021261\H,4.779183,-1.831546,-0.15
 6672\O,2.912212,-1.336326,-0.853447\N,0.721358,-0.601479,-0.859729\C,0
 .208269,-1.763129,-1.337215\H,0.772094,-2.654732,-1.113843\C,-0.924848
 ,-1.752287,-2.095025\H,-1.316394,-2.68352,-2.477041\C,-1.556175,-0.537
 844,-2.371919\H,-2.404684,-0.510292,-3.042138\H,-2.899284,-0.749129,-0
 .950684\C,-1.017336,0.643759,-1.864151\C,0.139136,0.568063,-1.110272\H
 ,0.593701,1.463913,-0.706388\C,-1.537285,2.016137,-2.163647\O,-0.82993
 6,2.988671,-2.0459\N,-2.810249,2.063551,-2.663598\H,-3.185419,2.996752
 ,-2.745483\H,-3.463404,1.364406,-2.343048\H,2.604166,-3.996312,-0.1951
 34\C,0.200564,2.199542,2.847103\C,-1.662373,0.896154,1.231534\C,-2.810
 278,0.852792,0.471295\C,-4.881016,-0.376756,-0.33122\C,-3.389872,-0.41
 9474,-0.017084\O,-0.912497,-0.081938,1.518546\S,-1.212875,2.557312,1.7
 93542\H,0.438991,3.129223,3.360484\H,1.066285,1.877494,2.273139\H,-5.4
 80049,-0.291718,0.575528\H,-5.128905,0.485389,-0.957813\H,-5.196,-1.27
 5641,-0.863825\H,-3.157744,-1.229448,0.682128\H,-3.359503,1.776051,0.3
 24002\H,-0.051075,1.436839,3.581108\\Version=ES64L-G16RevA.03\State=1-
 A\HF=-1507.9024971\RMSD=4.017e-09\RMSF=6.047e-04\Dipole=-0.060292,-2.2
 572554,-1.698868\Quadrupole=1.7874064,1.2489804,-3.0363869,-3.9235694,
 9.562888,4.7237966\PG=C01 [X(C16H24N2O5S1)]\\@


 WE ARE REACHING THE STAGE WHERE THE PROBLEMS WE MUST SOLVE ARE 
 GOING TO BECOME INSOLUBLE WITHOUT COMPUTERS.
 I DO NOT FEAR COMPUTERS.  I FEAR THE LACK OF THEM.

                                   -- ISSAC ASIMOV
 Job cpu time:       0 days  3 hours 20 minutes 32.8 seconds.
 Elapsed time:       0 days  0 hours 12 minutes 33.9 seconds.
 File lengths (MBytes):  RWF=    435 Int=      0 D2E=      0 Chk=     48 Scr=      1
 Normal termination of Gaussian 16 at Sat Aug 13 20:46:50 2022.
