 Entering Gaussian System, Link 0=g16
 Initial command:
 /storage/apps/GAUSSIAN/G16_RevA03/g16/l1.exe "/scratch/tmp/1019329/Gau-153415.inp" -scrdir="/scratch/tmp/1019329/"
 Entering Link 1 = /storage/apps/GAUSSIAN/G16_RevA03/g16/l1.exe PID=    153416.
  
 Copyright (c) 1988,1990,1992,1993,1995,1998,2003,2009,2016,
            Gaussian, Inc.  All Rights Reserved.
  
 This is part of the Gaussian(R) 16 program.  It is based on
 the Gaussian(R) 09 system (copyright 2009, Gaussian, Inc.),
 the Gaussian(R) 03 system (copyright 2003, Gaussian, Inc.),
 the Gaussian(R) 98 system (copyright 1998, Gaussian, Inc.),
 the Gaussian(R) 94 system (copyright 1995, Gaussian, Inc.),
 the Gaussian 92(TM) system (copyright 1992, Gaussian, Inc.),
 the Gaussian 90(TM) system (copyright 1990, Gaussian, Inc.),
 the Gaussian 88(TM) system (copyright 1988, Gaussian, Inc.),
 the Gaussian 86(TM) system (copyright 1986, Carnegie Mellon
 University), and the Gaussian 82(TM) system (copyright 1983,
 Carnegie Mellon University). Gaussian is a federally registered
 trademark of Gaussian, Inc.
  
 This software contains proprietary and confidential information,
 including trade secrets, belonging to Gaussian, Inc.
  
 This software is provided under written license and may be
 used, copied, transmitted, or stored only in accord with that
 written license.
  
 The following legend is applicable only to US Government
 contracts under FAR:
  
                    RESTRICTED RIGHTS LEGEND
  
 Use, reproduction and disclosure by the US Government is
 subject to restrictions as set forth in subparagraphs (a)
 and (c) of the Commercial Computer Software - Restricted
 Rights clause in FAR 52.227-19.
  
 Gaussian, Inc.
 340 Quinnipiac St., Bldg. 40, Wallingford CT 06492
  
  
 ---------------------------------------------------------------
 Warning -- This program may not be used in any manner that
 competes with the business of Gaussian, Inc. or will provide
 assistance to any competitor of Gaussian, Inc.  The licensee
 of this program is prohibited from giving any competitor of
 Gaussian, Inc. access to this program.  By using this program,
 the user acknowledges that Gaussian, Inc. is engaged in the
 business of creating and licensing software in the field of
 computational chemistry and represents and warrants to the
 licensee that it is not a competitor of Gaussian, Inc. and that
 it will not use this program in any manner prohibited above.
 ---------------------------------------------------------------
  

 Cite this work as:
 Gaussian 16, Revision A.03,
 M. J. Frisch, G. W. Trucks, H. B. Schlegel, G. E. Scuseria, 
 M. A. Robb, J. R. Cheeseman, G. Scalmani, V. Barone, 
 G. A. Petersson, H. Nakatsuji, X. Li, M. Caricato, A. V. Marenich, 
 J. Bloino, B. G. Janesko, R. Gomperts, B. Mennucci, H. P. Hratchian, 
 J. V. Ortiz, A. F. Izmaylov, J. L. Sonnenberg, D. Williams-Young, 
 F. Ding, F. Lipparini, F. Egidi, J. Goings, B. Peng, A. Petrone, 
 T. Henderson, D. Ranasinghe, V. G. Zakrzewski, J. Gao, N. Rega, 
 G. Zheng, W. Liang, M. Hada, M. Ehara, K. Toyota, R. Fukuda, 
 J. Hasegawa, M. Ishida, T. Nakajima, Y. Honda, O. Kitao, H. Nakai, 
 T. Vreven, K. Throssell, J. A. Montgomery, Jr., J. E. Peralta, 
 F. Ogliaro, M. J. Bearpark, J. J. Heyd, E. N. Brothers, K. N. Kudin, 
 V. N. Staroverov, T. A. Keith, R. Kobayashi, J. Normand, 
 K. Raghavachari, A. P. Rendell, J. C. Burant, S. S. Iyengar, 
 J. Tomasi, M. Cossi, J. M. Millam, M. Klene, C. Adamo, R. Cammi, 
 J. W. Ochterski, R. L. Martin, K. Morokuma, O. Farkas, 
 J. B. Foresman, and D. J. Fox, Gaussian, Inc., Wallingford CT, 2016.
 
 ******************************************
 Gaussian 16:  ES64L-G16RevA.03 25-Dec-2016
                13-Aug-2022 
 ******************************************
 %NProcShared=16
 Will use up to   16 processors via shared memory.
 %mem=20GB
 ----------------------------------------------------------------------
 #P M062X/Def2TZVP scf=(direct,conver=8) EmpiricalDispersion=GD3 Force 
 Charge Prop=(Field,Read)
 ----------------------------------------------------------------------
 1/10=7,18=10,28=-2,30=1,38=1,125=101/1,3;
 2/12=2,17=6,18=5,29=2,40=1/2;
 3/5=44,7=101,11=2,25=1,30=1,71=1,74=-55,124=31/1,2,3;
 4//1;
 5/5=2,6=8,38=5/2;
 6/7=2,8=2,9=2,10=2,14=2,15=1,28=1/1,2;
 7/7=1,16=-2,29=1/1,2,3,16;
 1/10=7,18=10,28=-2,30=1/3;
 99/12=1/99;
 Leave Link    1 at Sat Aug 13 20:35:15 2022, MaxMem=  2684354560 cpu:               0.6 elap:               0.0
 (Enter /storage/apps/GAUSSIAN/G16_RevA03/g16/l101.exe)
 ------------
 Gaussian run
 ------------
 Symbolic Z-matrix:
 Charge =  0 Multiplicity = 1
 C                     3.59592  -3.61618  -0.43907 
 H                     3.74779  -3.70842  -1.51383 
 H                     4.33175  -4.23837   0.07082 
 C                     1.85484  -1.43675   1.24715 
 H                     1.20602  -2.30916   1.0902 
 O                     1.45503  -0.67543   2.32638 
 H                     0.51558  -0.363     2.15641 
 C                     3.3097   -1.88403   1.41524 
 H                     3.39277  -2.76841   2.05426 
 O                     4.07044  -0.81475   1.91883 
 H                     3.52168  -0.37394   2.58318 
 C                     1.97491  -0.65867  -0.07379 
 H                     2.25823   0.37758   0.12581 
 C                     3.74984  -2.17084  -0.0153 
 H                     4.778    -1.8334   -0.14866 
 O                     2.91325  -1.33535  -0.84834 
 N                     0.72459  -0.60204  -0.86245 
 C                     0.22498  -1.76027  -1.35564 
 H                     0.78988  -2.65113  -1.13181 
 C                    -0.89807  -1.74745  -2.13143 
 H                    -1.27922  -2.67672  -2.52836 
 C                    -1.52632  -0.53384  -2.40818 
 H                    -2.37627  -0.50366  -3.07686 
 H                    -2.93406  -0.80039  -0.91064 
 C                    -1.01054   0.64202  -1.87132 
 C                     0.13648   0.56624  -1.10129 
 H                     0.57772   1.4593   -0.67693 
 C                    -1.53727   2.01433  -2.16269 
 O                    -0.82875   2.98602  -2.04902 
 N                    -2.81416   2.0587   -2.65201 
 H                    -3.19173   2.99141  -2.72961 
 H                    -3.46171   1.36109  -2.31639 
 H                     2.60194  -3.99704  -0.19256 
 C                     0.1961    2.19816   2.84828 
 C                    -1.66239   0.89289   1.22393 
 C                    -2.81471   0.84439   0.4766 
 C                    -4.90803  -0.35232  -0.28702 
 C                    -3.4145   -0.43411   0.01169 
 O                    -0.90112  -0.0823    1.50005 
 S                    -1.21079   2.55637   1.78538 
 H                     0.43077   3.12789   3.36338 
 H                     1.06612   1.87649   2.28062 
 H                    -5.48609  -0.1786    0.62131 
 H                    -5.13109   0.47497  -0.96823 
 H                    -5.26999  -1.27079  -0.75199 
 H                    -3.20709  -1.22644   0.7373 
 H                    -3.37313   1.76436   0.34283 
 H                    -0.06      1.43547   3.58079 
 
 ITRead=  0  0  0  0  0  0  0  0  0  0  0  0  0  0  0  0  0  0  0  0
 ITRead=  0  0  0  0  0  0  0  0  0  0  0  0  0  0  0  0  0  0  0  0
 ITRead=  0  0  0  0  0  0  0  0
 MicOpt= -1 -1 -1 -1 -1 -1 -1 -1 -1 -1 -1 -1 -1 -1 -1 -1 -1 -1 -1 -1
 MicOpt= -1 -1 -1 -1 -1 -1 -1 -1 -1 -1 -1 -1 -1 -1 -1 -1 -1 -1 -1 -1
 MicOpt= -1 -1 -1 -1 -1 -1 -1 -1
 NAtoms=     48 NQM=       48 NQMF=       0 NMMI=      0 NMMIF=      0
                NMic=       0 NMicF=      0.
                    Isotopes and Nuclear Properties:
 (Nuclear quadrupole moments (NQMom) in fm**2, nuclear magnetic moments (NMagM)
  in nuclear magnetons)

  Atom         1           2           3           4           5           6           7           8           9          10
 IAtWgt=          12           1           1          12           1          16           1          12           1          16
 AtmWgt=  12.0000000   1.0078250   1.0078250  12.0000000   1.0078250  15.9949146   1.0078250  12.0000000   1.0078250  15.9949146
 NucSpn=           0           1           1           0           1           0           1           0           1           0
 AtZEff=  -0.0000000  -0.0000000  -0.0000000  -0.0000000  -0.0000000  -0.0000000  -0.0000000  -0.0000000  -0.0000000  -0.0000000
 NQMom=    0.0000000   0.0000000   0.0000000   0.0000000   0.0000000   0.0000000   0.0000000   0.0000000   0.0000000   0.0000000
 NMagM=    0.0000000   2.7928460   2.7928460   0.0000000   2.7928460   0.0000000   2.7928460   0.0000000   2.7928460   0.0000000
 AtZNuc=   6.0000000   1.0000000   1.0000000   6.0000000   1.0000000   8.0000000   1.0000000   6.0000000   1.0000000   8.0000000

  Atom        11          12          13          14          15          16          17          18          19          20
 IAtWgt=           1          12           1          12           1          16          14          12           1          12
 AtmWgt=   1.0078250  12.0000000   1.0078250  12.0000000   1.0078250  15.9949146  14.0030740  12.0000000   1.0078250  12.0000000
 NucSpn=           1           0           1           0           1           0           2           0           1           0
 AtZEff=  -0.0000000  -0.0000000  -0.0000000  -0.0000000  -0.0000000  -0.0000000  -0.0000000  -0.0000000  -0.0000000  -0.0000000
 NQMom=    0.0000000   0.0000000   0.0000000   0.0000000   0.0000000   0.0000000   2.0440000   0.0000000   0.0000000   0.0000000
 NMagM=    2.7928460   0.0000000   2.7928460   0.0000000   2.7928460   0.0000000   0.4037610   0.0000000   2.7928460   0.0000000
 AtZNuc=   1.0000000   6.0000000   1.0000000   6.0000000   1.0000000   8.0000000   7.0000000   6.0000000   1.0000000   6.0000000

  Atom        21          22          23          24          25          26          27          28          29          30
 IAtWgt=           1          12           1           1          12          12           1          12          16          14
 AtmWgt=   1.0078250  12.0000000   1.0078250   1.0078250  12.0000000  12.0000000   1.0078250  12.0000000  15.9949146  14.0030740
 NucSpn=           1           0           1           1           0           0           1           0           0           2
 AtZEff=  -0.0000000  -0.0000000  -0.0000000  -0.0000000  -0.0000000  -0.0000000  -0.0000000  -0.0000000  -0.0000000  -0.0000000
 NQMom=    0.0000000   0.0000000   0.0000000   0.0000000   0.0000000   0.0000000   0.0000000   0.0000000   0.0000000   2.0440000
 NMagM=    2.7928460   0.0000000   2.7928460   2.7928460   0.0000000   0.0000000   2.7928460   0.0000000   0.0000000   0.4037610
 AtZNuc=   1.0000000   6.0000000   1.0000000   1.0000000   6.0000000   6.0000000   1.0000000   6.0000000   8.0000000   7.0000000

  Atom        31          32          33          34          35          36          37          38          39          40
 IAtWgt=           1           1           1          12          12          12          12          12          16          32
 AtmWgt=   1.0078250   1.0078250   1.0078250  12.0000000  12.0000000  12.0000000  12.0000000  12.0000000  15.9949146  31.9720718
 NucSpn=           1           1           1           0           0           0           0           0           0           0
 AtZEff=  -0.0000000  -0.0000000  -0.0000000  -0.0000000  -0.0000000  -0.0000000  -0.0000000  -0.0000000  -0.0000000  -0.0000000
 NQMom=    0.0000000   0.0000000   0.0000000   0.0000000   0.0000000   0.0000000   0.0000000   0.0000000   0.0000000   0.0000000
 NMagM=    2.7928460   2.7928460   2.7928460   0.0000000   0.0000000   0.0000000   0.0000000   0.0000000   0.0000000   0.0000000
 AtZNuc=   1.0000000   1.0000000   1.0000000   6.0000000   6.0000000   6.0000000   6.0000000   6.0000000   8.0000000  16.0000000

  Atom        41          42          43          44          45          46          47          48
 IAtWgt=           1           1           1           1           1           1           1           1
 AtmWgt=   1.0078250   1.0078250   1.0078250   1.0078250   1.0078250   1.0078250   1.0078250   1.0078250
 NucSpn=           1           1           1           1           1           1           1           1
 AtZEff=  -0.0000000  -0.0000000  -0.0000000  -0.0000000  -0.0000000  -0.0000000  -0.0000000  -0.0000000
 NQMom=    0.0000000   0.0000000   0.0000000   0.0000000   0.0000000   0.0000000   0.0000000   0.0000000
 NMagM=    2.7928460   2.7928460   2.7928460   2.7928460   2.7928460   2.7928460   2.7928460   2.7928460
 AtZNuc=   1.0000000   1.0000000   1.0000000   1.0000000   1.0000000   1.0000000   1.0000000   1.0000000
 Background charge distribution read from input stream:
 Leave Link  101 at Sat Aug 13 20:35:16 2022, MaxMem=  2684354560 cpu:               1.5 elap:               0.1
 (Enter /storage/apps/GAUSSIAN/G16_RevA03/g16/l103.exe)

 GradGradGradGradGradGradGradGradGradGradGradGradGradGradGradGradGradGrad
 Berny optimization.
 Initialization pass.
 Trust Radius=3.00D-01 FncErr=1.00D-07 GrdErr=1.00D-07 EigMax=2.50D+02 EigMin=1.00D-04
 Number of steps in this run=      2 maximum allowed number of steps=      2.
 GradGradGradGradGradGradGradGradGradGradGradGradGradGradGradGradGradGrad

 Leave Link  103 at Sat Aug 13 20:35:16 2022, MaxMem=  2684354560 cpu:               0.3 elap:               0.0
 (Enter /storage/apps/GAUSSIAN/G16_RevA03/g16/l202.exe)
 ---------------------------------------------------------------------------------------------------
                            Z-MATRIX (ANGSTROMS AND DEGREES)
   CD    Cent   Atom    N1       Length/X        N2       Alpha/Y        N3        Beta/Z          J
 ---------------------------------------------------------------------------------------------------
      1      1  C        0   3.595919         -3.616175         -0.439073
      2      2  H        0   3.747788         -3.708420         -1.513826
      3      3  H        0   4.331748         -4.238370          0.070818
      4      4  C        0   1.854842         -1.436750          1.247145
      5      5  H        0   1.206019         -2.309158          1.090201
      6      6  O        0   1.455026         -0.675431          2.326375
      7      7  H        0   0.515576         -0.363003          2.156406
      8      8  C        0   3.309695         -1.884029          1.415236
      9      9  H        0   3.392768         -2.768411          2.054258
     10     10  O        0   4.070436         -0.814745          1.918828
     11     11  H        0   3.521679         -0.373938          2.583176
     12     12  C        0   1.974911         -0.658674         -0.073789
     13     13  H        0   2.258231          0.377575          0.125807
     14     14  C        0   3.749837         -2.170841         -0.015295
     15     15  H        0   4.778001         -1.833396         -0.148662
     16     16  O        0   2.913251         -1.335345         -0.848343
     17     17  N        0   0.724585         -0.602035         -0.862445
     18     18  C        0   0.224978         -1.760268         -1.355644
     19     19  H        0   0.789883         -2.651129         -1.131809
     20     20  C        0  -0.898071         -1.747454         -2.131426
     21     21  H        0  -1.279218         -2.676724         -2.528355
     22     22  C        0  -1.526317         -0.533843         -2.408181
     23     23  H        0  -2.376265         -0.503658         -3.076861
     24     24  H        0  -2.934062         -0.800393         -0.910642
     25     25  C        0  -1.010541          0.642015         -1.871319
     26     26  C        0   0.136478          0.566241         -1.101289
     27     27  H        0   0.577716          1.459301         -0.676928
     28     28  C        0  -1.537268          2.014329         -2.162685
     29     29  O        0  -0.828750          2.986016         -2.049019
     30     30  N        0  -2.814159          2.058700         -2.652005
     31     31  H        0  -3.191726          2.991412         -2.729606
     32     32  H        0  -3.461708          1.361088         -2.316394
     33     33  H        0   2.601937         -3.997044         -0.192557
     34     34  C        0   0.196101          2.198163          2.848275
     35     35  C        0  -1.662386          0.892892          1.223926
     36     36  C        0  -2.814711          0.844393          0.476600
     37     37  C        0  -4.908033         -0.352315         -0.287021
     38     38  C        0  -3.414501         -0.434110          0.011692
     39     39  O        0  -0.901116         -0.082299          1.500046
     40     40  S        0  -1.210786          2.556370          1.785381
     41     41  H        0   0.430770          3.127891          3.363380
     42     42  H        0   1.066120          1.876488          2.280623
     43     43  H        0  -5.486085         -0.178600          0.621309
     44     44  H        0  -5.131088          0.474965         -0.968226
     45     45  H        0  -5.269988         -1.270793         -0.751989
     46     46  H        0  -3.207091         -1.226435          0.737297
     47     47  H        0  -3.373133          1.764355          0.342828
     48     48  H        0  -0.059995          1.435472          3.580787
 ---------------------------------------------------------------------------------------------------
                         Z-Matrix orientation:                         
 ---------------------------------------------------------------------
 Center     Atomic      Atomic             Coordinates (Angstroms)
 Number     Number       Type             X           Y           Z
 ---------------------------------------------------------------------
      1          6           0        3.595919   -3.616175   -0.439073
      2          1           0        3.747788   -3.708420   -1.513826
      3          1           0        4.331748   -4.238370    0.070818
      4          6           0        1.854842   -1.436750    1.247145
      5          1           0        1.206019   -2.309158    1.090201
      6          8           0        1.455026   -0.675431    2.326375
      7          1           0        0.515576   -0.363003    2.156406
      8          6           0        3.309695   -1.884029    1.415236
      9          1           0        3.392768   -2.768411    2.054258
     10          8           0        4.070436   -0.814745    1.918828
     11          1           0        3.521679   -0.373938    2.583176
     12          6           0        1.974911   -0.658674   -0.073789
     13          1           0        2.258231    0.377575    0.125807
     14          6           0        3.749837   -2.170841   -0.015295
     15          1           0        4.778001   -1.833396   -0.148662
     16          8           0        2.913251   -1.335345   -0.848343
     17          7           0        0.724585   -0.602035   -0.862445
     18          6           0        0.224978   -1.760268   -1.355644
     19          1           0        0.789883   -2.651129   -1.131809
     20          6           0       -0.898071   -1.747454   -2.131426
     21          1           0       -1.279218   -2.676724   -2.528355
     22          6           0       -1.526317   -0.533843   -2.408181
     23          1           0       -2.376265   -0.503658   -3.076861
     24          1           0       -2.934062   -0.800393   -0.910642
     25          6           0       -1.010541    0.642015   -1.871319
     26          6           0        0.136478    0.566241   -1.101289
     27          1           0        0.577716    1.459301   -0.676928
     28          6           0       -1.537268    2.014329   -2.162685
     29          8           0       -0.828750    2.986016   -2.049019
     30          7           0       -2.814159    2.058700   -2.652005
     31          1           0       -3.191726    2.991412   -2.729606
     32          1           0       -3.461708    1.361088   -2.316394
     33          1           0        2.601937   -3.997044   -0.192557
     34          6           0        0.196101    2.198163    2.848275
     35          6           0       -1.662386    0.892892    1.223926
     36          6           0       -2.814711    0.844393    0.476600
     37          6           0       -4.908033   -0.352315   -0.287021
     38          6           0       -3.414501   -0.434110    0.011692
     39          8           0       -0.901116   -0.082299    1.500046
     40         16           0       -1.210786    2.556370    1.785381
     41          1           0        0.430770    3.127891    3.363380
     42          1           0        1.066120    1.876488    2.280623
     43          1           0       -5.486085   -0.178600    0.621309
     44          1           0       -5.131088    0.474965   -0.968226
     45          1           0       -5.269988   -1.270793   -0.751989
     46          1           0       -3.207091   -1.226435    0.737297
     47          1           0       -3.373133    1.764355    0.342828
     48          1           0       -0.059995    1.435472    3.580787
 ---------------------------------------------------------------------
                    Distance matrix (angstroms):
                    1          2          3          4          5
     1  C    0.000000
     2  H    1.089343   0.000000
     3  H    1.090211   1.770015   0.000000
     4  C    3.259536   4.045577   3.920189   0.000000
     5  H    3.123875   3.898651   3.811979   1.098498   0.000000
     6  O    4.569365   5.403973   5.104665   1.379926   2.063782
     7  H    5.177659   5.925336   5.825059   1.942504   2.324010
     8  C    2.553569   3.478467   2.897408   1.531310   2.170676
     9  H    2.641339   3.706869   2.641306   2.188600   2.433555
    10  O    3.692272   4.501174   3.899312   2.397270   3.335383
    11  H    4.433013   5.287279   4.679956   2.385979   3.366947
    12  C    3.392331   3.810217   4.288335   1.537753   2.161056
    13  H    4.249534   4.647852   5.060578   2.170690   3.042325
    14  C    1.514024   2.147032   2.149584   2.392415   2.777096
    15  H    2.158693   2.537859   2.455853   3.263505   3.810536
    16  O    2.415724   2.602077   3.359248   2.349805   2.760599
    17  N    4.184357   4.383341   5.206298   2.534679   2.637968
    18  C    3.955722   4.028710   5.004133   3.087982   2.691817
    19  H    3.047136   3.164333   4.063306   2.875461   2.286360
    20  C    5.152875   5.080435   6.197221   4.369189   3.888648
    21  H    5.386523   5.231105   6.377882   5.061054   4.405162
    22  C    6.294081   6.220450   7.361106   5.060522   4.780803
    23  H    7.232750   7.086438   8.297795   6.121271   5.784202
    24  H    7.126827   7.312152   8.097836   5.290992   4.839423
    25  C    6.434515   6.457227   7.492003   4.717680   4.732141
    26  C    5.467986   5.611103   6.485246   3.532689   3.770208
    27  H    5.909871   6.120057   6.864061   3.704081   4.209370
    28  C    7.811723   7.816821   8.861723   5.919738   6.066253
    29  O    8.109164   8.126906   9.127771   6.134103   6.483352
    30  N    8.842532   8.809896   9.906101   7.015776   7.017416
    31  H    9.745710   9.722280  10.803462   7.803270   7.875730
    32  H    8.837849   8.849907   9.888916   6.985157   6.845675
    33  H    1.092626   1.772577   1.766310   3.030841   2.538309
    34  C    7.494795   8.156600   8.139214   4.304374   4.942338
    35  C    7.123694   7.611658   7.974281   4.218846   4.301018
    36  C    7.863288   8.231421   8.779010   5.253768   5.146616
    37  C    9.110055   9.364386  10.030106   7.018984   6.565638
    38  C    7.711985   8.021639   8.630195   5.504326   5.101783
    39  O    6.039188   6.621517   6.833629   3.081201   3.093039
    40  S    8.133445   8.644063   8.934646   5.062883   5.477005
    41  H    8.364164   9.029114   8.962165   5.228994   5.943892
    42  H    6.630684   7.265011   7.275923   3.559172   4.353884
    43  H    9.768527  10.113498  10.638356   7.474210   7.038707
    44  H    9.652879   9.830200  10.622636   7.574017   7.221315
    45  H    9.176221   9.372444  10.083494   7.401843   6.812528
    46  H    7.305864   7.719984   8.145553   5.091890   4.557672
    47  H    8.839070   9.170929   9.770972   6.196498   6.174197
    48  H    7.419172   8.180093   7.987476   4.166791   4.672051
                    6          7          8          9         10
     6  O    0.000000
     7  H    1.004523   0.000000
     8  C    2.393884   3.266490   0.000000
     9  H    2.865215   3.751620   1.094249   0.000000
    10  O    2.650636   3.591315   1.405596   2.072290   0.000000
    11  H    2.104257   3.036265   1.920780   2.455580   0.967886
    12  C    2.455880   2.681576   2.345280   3.315101   2.895877
    13  H    2.568357   2.776443   2.807678   3.860483   2.814363
    14  C    3.603585   4.294765   1.523944   2.183492   2.383823
    15  H    4.302192   5.063957   2.145755   2.765137   2.410978
    16  O    3.555382   3.965200   2.362628   3.272416   3.044230
    17  N    3.272232   3.035504   3.676157   4.507720   4.356081
    18  C    4.030776   3.790949   4.148322   4.762214   5.138456
    19  H    4.037925   4.015361   3.664060   4.115797   4.841562
    20  C    5.153473   4.722352   5.504794   6.080592   6.477698
    21  H    5.920276   5.524634   6.102327   6.544937   7.201611
    22  C    5.596827   5.003396   6.310985   7.007428   7.079940
    23  H    6.625953   5.980770   7.376619   8.046069   8.161718
    24  H    5.455088   4.636604   6.750443   7.258960   7.554409
    25  C    5.043344   4.422857   5.987218   6.813978   6.504129
    26  C    3.876751   3.408781   4.733501   5.628570   5.148228
    27  H    3.787688   3.369337   4.797782   5.766927   4.910023
    28  C    6.028291   5.340452   7.175776   8.059930   7.490578
    29  O    6.145397   5.541547   7.269465   8.232346   7.361496
    30  N    7.105328   6.330292   8.342011   9.163834   8.749106
    31  H    7.784663   6.990658   9.122396   9.970781   9.425167
    32  H    7.062364   6.228741   8.384971   9.118070   8.910923
    33  H    4.323602   4.803830   2.747863   2.680136   4.091633
    34  C    3.180380   2.672137   5.330325   5.959530   4.995193
    35  C    3.659684   2.681475   5.698200   6.296759   6.021973
    36  C    4.895119   3.920506   6.770057   7.353513   7.227587
    37  C    6.886419   5.948612   8.530819   8.956696   9.257025
    38  C    5.397063   4.477763   7.020471   7.480638   7.733455
    39  O    2.566326   1.586386   4.580868   5.095075   5.042637
    40  S    4.224188   3.411851   6.347354   7.044026   6.266860
    41  H    4.073050   3.694634   6.099411   6.727080   5.556823
    42  H    2.581788   2.309513   4.463632   5.199963   4.049635
    43  H    7.164713   6.197617   8.994696   9.359193   9.665161
    44  H    7.453503   6.507713   9.082542   9.607862   9.729670
    45  H    7.420013   6.538776   8.870394   9.228284   9.725470
    46  H    4.956219   4.076473   6.584871   6.904362   7.384301
    47  H    5.761782   4.789235   7.689015   8.321801   8.033819
    48  H    2.885264   2.365302   5.202260   5.650177   4.988591
                   11         12         13         14         15
    11  H    0.000000
    12  C    3.087560   0.000000
    13  H    2.863518   1.092667   0.000000
    14  C    3.167486   2.332474   2.956218   0.000000
    15  H    3.342350   3.040212   3.363475   1.090311   0.000000
    16  O    3.615219   1.392228   2.076563   1.446340   2.053022
    17  N    4.443880   1.479358   2.070833   3.511547   4.296035
    18  C    5.320193   2.432885   3.301392   3.793381   4.710857
    19  H    5.142900   2.548249   3.593145   3.199782   4.188120
    20  C    6.606679   3.697748   4.424149   5.124482   6.013030
    21  H    7.381002   4.548272   5.374650   5.644713   6.562320
    22  C    7.100808   4.209937   4.644845   6.020255   6.821927
    23  H    8.175487   5.289159   5.701948   7.048533   7.843856
    24  H    7.352906   4.981809   5.424181   6.881445   7.818160
    25  C    6.435503   3.719655   3.839702   5.832511   6.527053
    26  C    5.091051   2.436393   2.458291   4.661262   5.311261
    27  H    4.759828   2.608016   2.153751   4.866009   5.363144
    28  C    7.336209   4.883015   4.724613   7.076751   7.664457
    29  O    7.188376   5.004579   4.589475   7.189761   7.633724
    30  N    8.571330   6.080009   6.022588   8.241802   8.891346
    31  H    9.198970   6.860804   6.684875   9.066512   9.667295
    32  H    8.705389   6.218162   6.296773   8.353201   9.099263
    33  H    4.655912   3.398821   4.399634   2.164281   3.068966
    34  C    4.212535   4.456921   3.870239   6.318011   6.799184
    35  C    5.506991   4.161893   4.103980   6.341474   7.127077
    36  C    6.787623   5.050012   5.106439   7.240641   8.075319
    37  C    8.904973   6.893058   7.215158   8.850965   9.799592
    38  C    7.397753   5.394766   5.731644   7.371886   8.312689
    39  O    4.562821   3.328768   3.475844   5.318800   6.167410
    40  S    5.623114   4.893024   4.419888   7.084966   7.673079
    41  H    4.735530   5.341964   4.624471   7.106913   7.473100
    42  H    3.344507   3.577178   2.882898   5.371634   5.782969
    43  H    9.221003   7.508668   7.780057   9.469770  10.425098
    44  H    9.391670   7.251233   7.470504   9.315535  10.207363
    45  H    9.445691   7.302274   7.756399   9.094506  10.081796
    46  H    7.029251   5.275733   5.728570   7.060959   8.056986
    47  H    7.558432   5.886103   5.803664   8.145595   8.923360
    48  H    4.134922   4.677843   4.293041   6.360198   6.928239
                   16         17         18         19         20
    16  O    0.000000
    17  N    2.308290   0.000000
    18  C    2.768524   1.354384   0.000000
    19  H    2.514027   2.067754   1.078357   0.000000
    20  C    4.042562   2.356971   1.365006   2.159873   0.000000
    21  H    4.711532   3.330888   2.116069   2.496432   1.079985
    22  C    4.773391   2.731393   2.383062   3.387744   1.394324
    23  H    5.799739   3.811638   3.362755   4.291777   2.150798
    24  H    5.872063   3.664337   3.331504   4.164361   2.555875
    25  C    4.511383   2.361387   2.750162   3.825336   2.406214
    26  C    3.374978   1.329581   2.342045   3.283190   2.735810
    27  H    3.646115   2.074872   3.309185   4.140962   3.817956
    28  C    5.723192   3.694856   4.243160   5.314587   3.815830
    29  O    5.841092   4.085941   4.911041   5.936215   4.734695
    30  N    6.897533   4.775431   5.049893   6.122304   4.292925
    31  H    7.715615   5.633529   6.011664   7.088331   5.298634
    32  H    7.075735   4.846944   4.925196   5.964659   4.033544
    33  H    2.758915   3.936913   3.464949   2.444836   4.590199
    34  C    5.790818   4.678659   5.774335   6.301530   6.446901
    35  C    5.495070   3.505051   4.153984   4.911537   4.337510
    36  C    6.270270   4.051149   4.402396   5.272452   4.146442
    37  C    7.902779   5.667438   5.428820   6.201972   4.629043
    38  C    6.449212   4.233716   4.107811   4.888723   3.556719
    39  O    4.651285   2.914514   3.498376   4.047842   3.995039
    40  S    6.252170   4.553259   5.528184   6.295293   5.827698
    41  H    6.619803   5.644136   6.797473   7.330263   7.465099
    42  H    4.849556   4.017288   5.211137   5.676294   6.037978
    43  H    8.605044   6.399472   6.247100   6.969548   5.575726
    44  H    8.246392   5.954832   5.816683   6.697546   4.920428
    45  H    8.184061   6.032772   5.549652   6.226687   4.609090
    46  H    6.323346   4.290353   4.055179   4.636713   3.719221
    47  H    7.109547   4.883009   5.315466   6.245139   4.957889
    48  H    6.011224   4.950688   5.887471   6.295329   6.592630
                   21         22         23         24         25
    21  H    0.000000
    22  C    2.160426   0.000000
    23  H    2.495313   1.081876   0.000000
    24  H    2.979282   2.072539   2.256478   0.000000
    25  C    3.393805   1.391721   2.151999   2.589088   0.000000
    26  C    3.815434   2.383912   3.370674   3.366341   1.383597
    27  H    4.897212   3.375917   4.282393   4.182514   2.148741
    28  C    4.712354   2.559994   2.807115   3.382500   1.498526
    29  O    5.700816   3.606245   3.953364   4.479412   2.357746
    30  N    4.979515   2.905042   2.633996   3.349796   2.422706
    31  H    5.985479   3.912074   3.605701   4.213408   3.318718
    32  H    4.594792   2.710153   2.287744   2.631834   2.592948
    33  H    4.718322   5.826254   6.730932   6.432846   6.114663
    34  C    7.406027   6.169352   7.001724   5.737483   5.113917
    35  C    5.193129   3.904650   4.577854   3.006785   3.173072
    36  C    4.877065   3.446949   3.825776   2.154996   2.967947
    37  C    4.857443   3.996032   3.770406   2.118074   4.323093
    38  C    4.005071   3.070989   3.259130   1.102581   3.237715
    39  O    4.806456   3.983592   4.827182   3.234184   3.450030
    40  S    6.782203   5.218710   5.862040   4.637465   4.132349
    41  H    8.445718   7.109810   7.908495   6.709752   5.971518
    42  H    7.025569   5.874973   6.798363   5.775060   4.803651
    43  H    5.818826   4.998377   4.842841   3.040777   5.188169
    44  H    5.215750   4.010678   3.604594   2.541019   4.221657
    45  H    4.588939   4.159464   3.790404   2.388095   4.801523
    46  H    4.060113   3.633004   3.969947   1.723879   3.888549
    47  H    5.687825   4.032430   4.222784   2.888235   3.426943
    48  H    7.464468   6.472715   7.310924   5.782066   5.590937
                   26         27         28         29         30
    26  C    0.000000
    27  H    1.082742   0.000000
    28  C    2.454577   2.643613   0.000000
    29  O    2.772214   2.488300   1.207929   0.000000
    30  N    3.652179   3.970519   1.368157   2.272742   0.000000
    31  H    4.428297   4.557362   2.003328   2.459041   1.009223
    32  H    3.880104   4.360555   2.038092   3.105535   1.009266
    33  H    5.265724   5.839845   7.559830   7.998699   8.488523
    34  C    4.273848   3.621961   5.305477   5.065029   6.271698
    35  C    2.957911   2.992010   3.569651   3.973448   4.208150
    36  C    3.358068   3.635560   3.156966   3.861262   3.355996
    37  C    5.191712   5.790287   4.525613   5.557845   3.973720
    38  C    3.853425   4.471800   3.774490   4.757089   3.697268
    39  O    2.874743   3.050031   4.268037   4.692084   5.048083
    40  S    3.756141   3.235006   3.998453   3.877263   4.744352
    41  H    5.155766   4.373771   5.970811   5.558829   6.917918
    42  H    3.744103   3.026498   5.151661   4.854625   6.278581
    43  H    5.927508   6.413877   5.305913   6.231871   4.781138
    44  H    5.270037   5.800363   4.088021   5.097411   3.272841
    45  H    5.720715   6.454044   5.168683   6.287074   4.552656
    46  H    4.215868   4.851595   4.658407   5.582545   4.736441
    47  H    3.979739   4.091719   3.116165   3.699631   3.060738
    48  H    4.766130   4.305274   5.958597   5.889812   6.842626
                   31         32         33         34         35
    31  H    0.000000
    32  H    1.703406   0.000000
    33  H    9.425586   8.365886   0.000000
    34  C    6.574144   6.383891   7.308577   0.000000
    35  C    4.730019   3.998829   6.640960   2.792170   0.000000
    36  C    3.877059   2.913142   7.295708   4.064791   1.374300
    37  C    4.482459   3.024229   8.348211   6.510546   3.790478
    38  C    4.393011   2.940229   6.995266   5.292590   2.510050
    39  O    5.708288   4.817179   5.519195   2.867423   1.267585
    40  S    4.949595   4.829069   7.835581   1.799274   1.812825
    41  H    7.089822   7.108643   8.253687   1.088484   3.735477
    42  H    6.668936   6.472977   6.555435   1.087491   3.086878
    43  H    5.151863   3.885723   8.981035   6.549475   4.016456
    44  H    3.632642   2.321551   8.966616   6.775990   4.124571
    45  H    5.137756   3.555845   8.349408   7.407677   4.647641
    46  H    5.459843   4.010628   6.502746   5.269328   2.667296
    47  H    3.313371   2.691084   8.317561   4.382338   2.112448
    48  H    7.214551   6.808372   7.129954   1.088052   2.901180
                   36         37         38         39         40
    36  C    0.000000
    37  C    2.529273   0.000000
    38  C    1.486761   1.525306   0.000000
    39  O    2.359671   4.395668   2.942120   0.000000
    40  S    2.686326   5.140519   4.116467   2.672056   0.000000
    41  H    4.907240   7.344391   6.221557   3.943508   2.347642
    42  H    4.402337   6.873926   5.528370   2.883776   2.427304
    43  H    2.864209   1.090589   2.174484   4.669410   5.207044
    44  H    2.754923   1.094617   2.175621   4.929054   5.223348
    45  H    3.465808   1.091242   2.173955   5.056800   6.128829
    46  H    2.123736   2.169451   1.094212   2.684838   4.403786
    47  H    1.084463   2.689409   2.223648   3.295475   2.717350
    48  H    4.192113   6.454424   5.242756   2.709354   2.409194
                   41         42         43         44         45
    41  H    0.000000
    42  H    1.772581   0.000000
    43  H    7.311704   7.064567   0.000000
    44  H    7.532270   7.136153   1.754934   0.000000
    45  H    8.293571   7.697297   1.767917   1.764574   0.000000
    46  H    6.252240   5.501847   2.511021   3.083072   2.544697
    47  H    5.045061   4.845058   2.883954   2.543972   3.742834
    48  H    1.775499   1.775685   6.387972   6.879831   7.296632
                   46         47         48
    46  H    0.000000
    47  H    3.021258   0.000000
    48  H    5.007534   4.644290   0.000000
 Stoichiometry    C16H24N2O5S
 Framework group  C1[X(C16H24N2O5S)]
 Deg. of freedom   138
 Full point group                 C1      NOp   1
 Largest Abelian subgroup         C1      NOp   1
 Largest concise Abelian subgroup C1      NOp   1
                         Standard orientation:                         
 ---------------------------------------------------------------------
 Center     Atomic      Atomic             Coordinates (Angstroms)
 Number     Number       Type             X           Y           Z
 ---------------------------------------------------------------------
      1          6           0        4.683941   -1.947436    0.578402
      2          1           0        4.646479   -2.894023    0.040594
      3          1           0        5.707042   -1.779077    0.915268
      4          6           0        2.508272    0.476742    0.698395
      5          1           0        2.314227   -0.167879    1.566444
      6          8           0        2.025342    1.756656    0.879490
      7          1           0        1.034351    1.697056    1.032629
      8          6           0        4.007500    0.507545    0.388114
      9          1           0        4.610058    0.593057    1.297506
     10          8           0        4.276629    1.558561   -0.505551
     11          1           0        3.729694    2.306366   -0.225454
     12          6           0        1.996403   -0.225389   -0.570340
     13          1           0        1.806927    0.510404   -1.355596
     14          6           0        4.239084   -0.818251   -0.326756
     15          1           0        4.949835   -0.667950   -1.139787
     16          8           0        2.967422   -1.157325   -0.926594
     17          7           0        0.731293   -0.969609   -0.385587
     18          6           0        0.731341   -2.036401    0.448867
     19          1           0        1.672979   -2.265643    0.921751
     20          6           0       -0.400821   -2.781937    0.608946
     21          1           0       -0.383946   -3.637223    1.268166
     22          6           0       -1.555535   -2.433855   -0.090776
     23          1           0       -2.437797   -3.056494   -0.024520
     24          1           0       -2.359568   -1.422594    1.529811
     25          6           0       -1.541046   -1.319457   -0.924320
     26          6           0       -0.360410   -0.609751   -1.053772
     27          1           0       -0.303212    0.254886   -1.702971
     28          6           0       -2.683264   -0.892088   -1.795108
     29          8           0       -2.491422   -0.227128   -2.785118
     30          7           0       -3.906923   -1.391224   -1.441022
     31          1           0       -4.676531   -1.000316   -1.963922
     32          1           0       -4.083013   -1.526650   -0.456507
     33          1           0        4.044957   -2.021684    1.461589
     34          6           0       -0.279044    3.598026   -0.309618
     35          6           0       -1.612342    1.380863    0.740485
     36          6           0       -2.736223    0.624870    0.973009
     37          6           0       -4.153556   -0.825580    2.484494
     38          6           0       -2.762416   -0.489370    1.957001
     39          8           0       -0.451561    1.168319    1.203285
     40         16           0       -1.871884    2.766088   -0.399745
     41          1           0       -0.399889    4.541389   -0.839014
     42          1           0        0.510917    3.021652   -0.785423
     43          1           0       -4.555637   -0.013307    3.091064
     44          1           0       -4.859639   -0.988550    1.664083
     45          1           0       -4.138363   -1.731273    3.093014
     46          1           0       -2.077168   -0.271773    2.781857
     47          1           0       -3.667850    0.946246    0.520406
     48          1           0       -0.007881    3.797949    0.724963
 ---------------------------------------------------------------------
 Rotational constants (GHZ):           0.3322387           0.1645171           0.1400883
 Leave Link  202 at Sat Aug 13 20:35:16 2022, MaxMem=  2684354560 cpu:               0.3 elap:               0.0
 (Enter /storage/apps/GAUSSIAN/G16_RevA03/g16/l301.exe)
 Standard basis: def2TZVP (5D, 7F)
 Ernie: Thresh=  0.10000D-02 Tol=  0.10000D-05 Strict=F.
 There are  1014 symmetry adapted cartesian basis functions of A   symmetry.
 There are   894 symmetry adapted basis functions of A   symmetry.
   894 basis functions,  1434 primitive gaussians,  1014 cartesian basis functions
    95 alpha electrons       95 beta electrons
       nuclear repulsion energy      2496.5505628830 Hartrees.
 IExCor= 4336 DFT=T Ex+Corr=M062X ExCW=0 ScaHFX=  0.540000
 ScaDFX=  1.000000  1.000000  1.000000  1.000000 ScalE2=  1.000000  1.000000
 IRadAn=      5 IRanWt=     -1 IRanGd=            0 ICorTp=0 IEmpDi=131
 NAtoms=   48 NActive=   48 NUniq=   48 SFac= 1.00D+00 NAtFMM=   60 NAOKFM=F Big=F
 Integral buffers will be    131072 words long.
 Raffenetti 2 integral format.
 Two-electron integral symmetry is turned on.
 R6Disp:  Grimme-D3 Dispersion energy=       -0.0042745495 Hartrees.
 Nuclear repulsion after empirical dispersion term =     2496.5462883335 Hartrees.
 Leave Link  301 at Sat Aug 13 20:35:16 2022, MaxMem=  2684354560 cpu:               1.0 elap:               0.1
 (Enter /storage/apps/GAUSSIAN/G16_RevA03/g16/l302.exe)
 NPDir=0 NMtPBC=     1 NCelOv=     1 NCel=       1 NClECP=     1 NCelD=      1
         NCelK=      1 NCelE2=     1 NClLst=     1 CellRange=     0.0.
 One-electron integrals computed using PRISM.
 One-electron integral symmetry used in STVInt
   1 Symmetry operations used in ECPInt.
 ECPInt:  NShTT=   65703 NPrTT=  200010 LenC2=   56950 LenP2D=  121364.
 LDataN:  DoStor=T MaxTD1= 6 Len=  172
 NBasis=   894 RedAO= T EigKep=  1.77D-05  NBF=   894
 NBsUse=   894 1.00D-06 EigRej= -1.00D+00 NBFU=   894
 Precomputing XC quadrature grid using
 IXCGrd= 4 IRadAn=           5 IRanWt=          -1 IRanGd=           0 AccXCQ= 0.00D+00.
 Generated NRdTot=       0 NPtTot=           0 NUsed=           0 NTot=          32
 NSgBfM=   998   997   997   998   998 MxSgAt=    48 MxSgA2=    48.
 Leave Link  302 at Sat Aug 13 20:35:17 2022, MaxMem=  2684354560 cpu:              19.1 elap:               1.2
 (Enter /storage/apps/GAUSSIAN/G16_RevA03/g16/l303.exe)
 DipDrv:  MaxL=1.
 Leave Link  303 at Sat Aug 13 20:35:17 2022, MaxMem=  2684354560 cpu:               2.1 elap:               0.2
 (Enter /storage/apps/GAUSSIAN/G16_RevA03/g16/l401.exe)
 ExpMin= 9.52D-02 ExpMax= 6.07D+04 ExpMxC= 2.07D+03 IAcc=3 IRadAn=         5 AccDes= 0.00D+00
 Harris functional with IExCor= 1009 and IRadAn=       5 diagonalized for initial guess.
 HarFok:  IExCor= 1009 AccDes= 0.00D+00 IRadAn=         5 IDoV= 1 UseB2=F ITyADJ=14
 ICtDFT=  3500011 ScaDFX=  1.000000  1.000000  1.000000  1.000000
 FoFCou: FMM=F IPFlag=           0 FMFlag=      100000 FMFlg1=           0
         NFxFlg=           0 DoJE=T BraDBF=F KetDBF=T FulRan=T
         wScrn=  0.000000 ICntrl=       500 IOpCl=  0 I1Cent=   200000004 NGrid=           0
         NMat0=    1 NMatS0=      1 NMatT0=    0 NMatD0=    1 NMtDS0=    0 NMtDT0=    0
 Petite list used in FoFCou.
 Harris En= -1507.24339941559    
 JPrj=0 DoOrth=F DoCkMO=F.
 Leave Link  401 at Sat Aug 13 20:35:21 2022, MaxMem=  2684354560 cpu:              62.3 elap:               3.9
 (Enter /storage/apps/GAUSSIAN/G16_RevA03/g16/l502.exe)
 Integral symmetry usage will be decided dynamically.
 Closed shell SCF:
 Using DIIS extrapolation, IDIIS=  1040.
 NGot=  2684354560 LenX=  2682272944 LenY=  2681243734
 Requested convergence on RMS density matrix=1.00D-08 within 128 cycles.
 Requested convergence on MAX density matrix=1.00D-06.
 Requested convergence on             energy=1.00D-06.
 No special actions if energy rises.
 Fock matrices will be formed incrementally for  20 cycles.
 Integral accuracy reduced to 1.0D-05 until final iterations.

 Cycle   1  Pass 0  IDiag  1:
 FoFJK:  IHMeth= 1 ICntrl=       0 DoSepK=F KAlg= 0 I1Cent=           0 FoldK=F
 IRaf= 790000000 NMat=       1 IRICut=       1 DoRegI=T DoRafI=F ISym2E= 0 IDoP0=0 IntGTp=1.
 FoFCou: FMM=F IPFlag=           0 FMFlag=      100000 FMFlg1=           0
         NFxFlg=           0 DoJE=F BraDBF=F KetDBF=F FulRan=T
         wScrn=  0.000000 ICntrl=         0 IOpCl=  0 I1Cent=           0 NGrid=           0
         NMat0=    1 NMatS0=      1 NMatT0=    0 NMatD0=    1 NMtDS0=    0 NMtDT0=    0
 Symmetry not used in FoFCou.
 E= -1507.16231441716    
 DIIS: error= 1.82D-02 at cycle   1 NSaved=   1.
 NSaved= 1 IEnMin= 1 EnMin= -1507.16231441716     IErMin= 1 ErrMin= 1.82D-02
 ErrMax= 1.82D-02  0.00D+00 EMaxC= 1.00D-01 BMatC= 9.94D-01 BMatP= 9.94D-01
 IDIUse=3 WtCom= 8.18D-01 WtEn= 1.82D-01
 Coeff-Com:  0.100D+01
 Coeff-En:   0.100D+01
 Coeff:      0.100D+01
 Gap=     0.171 Goal=   None    Shift=    0.000
 GapD=    0.171 DampG=1.000 DampE=0.500 DampFc=0.5000 IDamp=-1.
 Damping current iteration by 5.00D-01
 RMSDP=3.98D-03 MaxDP=8.91D-01              OVMax= 5.58D-01

 Cycle   2  Pass 0  IDiag  1:
 RMSU=  1.99D-03    CP:  1.01D+00
 E= -1507.46568627508     Delta-E=       -0.303371857922 Rises=F Damp=T
 DIIS: error= 5.93D-03 at cycle   2 NSaved=   2.
 NSaved= 2 IEnMin= 2 EnMin= -1507.46568627508     IErMin= 2 ErrMin= 5.93D-03
 ErrMax= 5.93D-03  0.00D+00 EMaxC= 1.00D-01 BMatC= 9.89D-02 BMatP= 9.94D-01
 IDIUse=3 WtCom= 9.41D-01 WtEn= 5.93D-02
 Coeff-Com:  0.143D-01 0.986D+00
 Coeff-En:   0.131D+00 0.869D+00
 Coeff:      0.212D-01 0.979D+00
 Gap=     0.154 Goal=   None    Shift=    0.000
 RMSDP=1.35D-03 MaxDP=1.80D-01 DE=-3.03D-01 OVMax= 4.34D-01

 Cycle   3  Pass 0  IDiag  1:
 RMSU=  1.16D-03    CP:  1.00D+00  6.51D-01
 E= -1507.82889236814     Delta-E=       -0.363206093054 Rises=F Damp=F
 DIIS: error= 6.10D-03 at cycle   3 NSaved=   3.
 NSaved= 3 IEnMin= 3 EnMin= -1507.82889236814     IErMin= 2 ErrMin= 5.93D-03
 ErrMax= 6.10D-03  0.00D+00 EMaxC= 1.00D-01 BMatC= 7.41D-02 BMatP= 9.89D-02
 IDIUse=3 WtCom= 9.39D-01 WtEn= 6.10D-02
 Coeff-Com: -0.736D-01 0.490D+00 0.584D+00
 Coeff-En:   0.000D+00 0.000D+00 0.100D+01
 Coeff:     -0.691D-01 0.460D+00 0.609D+00
 Gap=     0.129 Goal=   None    Shift=    0.000
 RMSDP=5.85D-04 MaxDP=2.69D-02 DE=-3.63D-01 OVMax= 1.55D-01

 Cycle   4  Pass 0  IDiag  1:
 RMSU=  4.70D-04    CP:  1.00D+00  7.95D-01  8.28D-01
 E= -1507.89556362857     Delta-E=       -0.066671260434 Rises=F Damp=F
 DIIS: error= 2.50D-03 at cycle   4 NSaved=   4.
 NSaved= 4 IEnMin= 4 EnMin= -1507.89556362857     IErMin= 4 ErrMin= 2.50D-03
 ErrMax= 2.50D-03  0.00D+00 EMaxC= 1.00D-01 BMatC= 8.62D-03 BMatP= 7.41D-02
 IDIUse=3 WtCom= 9.75D-01 WtEn= 2.50D-02
 Coeff-Com: -0.392D-01 0.111D+00 0.286D+00 0.643D+00
 Coeff-En:   0.000D+00 0.000D+00 0.255D-01 0.974D+00
 Coeff:     -0.382D-01 0.108D+00 0.279D+00 0.651D+00
 Gap=     0.146 Goal=   None    Shift=    0.000
 RMSDP=2.13D-04 MaxDP=2.84D-02 DE=-6.67D-02 OVMax= 5.41D-02

 Cycle   5  Pass 0  IDiag  1:
 RMSU=  1.85D-04    CP:  1.00D+00  7.83D-01  9.00D-01  8.76D-01
 E= -1507.90331356257     Delta-E=       -0.007749933997 Rises=F Damp=F
 DIIS: error= 8.62D-04 at cycle   5 NSaved=   5.
 NSaved= 5 IEnMin= 5 EnMin= -1507.90331356257     IErMin= 5 ErrMin= 8.62D-04
 ErrMax= 8.62D-04  0.00D+00 EMaxC= 1.00D-01 BMatC= 8.61D-04 BMatP= 8.62D-03
 IDIUse=3 WtCom= 9.91D-01 WtEn= 8.62D-03
 Coeff-Com: -0.127D-01 0.231D-01 0.853D-01 0.318D+00 0.587D+00
 Coeff-En:   0.000D+00 0.000D+00 0.000D+00 0.000D+00 0.100D+01
 Coeff:     -0.126D-01 0.229D-01 0.845D-01 0.315D+00 0.590D+00
 Gap=     0.146 Goal=   None    Shift=    0.000
 RMSDP=7.33D-05 MaxDP=7.17D-03 DE=-7.75D-03 OVMax= 8.51D-03

 Cycle   6  Pass 0  IDiag  1:
 RMSU=  6.42D-05    CP:  1.00D+00  7.84D-01  8.89D-01  9.45D-01  9.61D-01
 E= -1507.90413458495     Delta-E=       -0.000821022381 Rises=F Damp=F
 DIIS: error= 1.53D-04 at cycle   6 NSaved=   6.
 NSaved= 6 IEnMin= 6 EnMin= -1507.90413458495     IErMin= 6 ErrMin= 1.53D-04
 ErrMax= 1.53D-04  0.00D+00 EMaxC= 1.00D-01 BMatC= 9.61D-05 BMatP= 8.61D-04
 IDIUse=3 WtCom= 9.98D-01 WtEn= 1.53D-03
 Coeff-Com: -0.407D-03-0.356D-02-0.662D-02 0.541D-01 0.279D+00 0.678D+00
 Coeff-En:   0.000D+00 0.000D+00 0.000D+00 0.000D+00 0.000D+00 0.100D+01
 Coeff:     -0.406D-03-0.355D-02-0.661D-02 0.540D-01 0.278D+00 0.678D+00
 Gap=     0.147 Goal=   None    Shift=    0.000
 RMSDP=4.23D-05 MaxDP=5.08D-03 DE=-8.21D-04 OVMax= 6.62D-03

 Cycle   7  Pass 0  IDiag  1:
 RMSU=  2.26D-05    CP:  1.00D+00  7.85D-01  8.95D-01  9.69D-01  1.14D+00
                    CP:  1.07D+00
 E= -1507.90423580607     Delta-E=       -0.000101221122 Rises=F Damp=F
 DIIS: error= 8.72D-05 at cycle   7 NSaved=   7.
 NSaved= 7 IEnMin= 7 EnMin= -1507.90423580607     IErMin= 7 ErrMin= 8.72D-05
 ErrMax= 8.72D-05  0.00D+00 EMaxC= 1.00D-01 BMatC= 1.32D-05 BMatP= 9.61D-05
 IDIUse=1 WtCom= 1.00D+00 WtEn= 0.00D+00
 Coeff-Com:  0.152D-02-0.454D-02-0.164D-01-0.181D-01 0.470D-01 0.309D+00
 Coeff-Com:  0.682D+00
 Coeff:      0.152D-02-0.454D-02-0.164D-01-0.181D-01 0.470D-01 0.309D+00
 Coeff:      0.682D+00
 Gap=     0.147 Goal=   None    Shift=    0.000
 RMSDP=1.95D-05 MaxDP=1.91D-03 DE=-1.01D-04 OVMax= 3.21D-03

 Cycle   8  Pass 0  IDiag  1:
 RMSU=  1.22D-05    CP:  1.00D+00  7.83D-01  8.95D-01  9.83D-01  1.20D+00
                    CP:  1.17D+00  1.19D+00
 E= -1507.90424547054     Delta-E=       -0.000009664471 Rises=F Damp=F
 DIIS: error= 3.41D-05 at cycle   8 NSaved=   8.
 NSaved= 8 IEnMin= 8 EnMin= -1507.90424547054     IErMin= 8 ErrMin= 3.41D-05
 ErrMax= 3.41D-05  0.00D+00 EMaxC= 1.00D-01 BMatC= 2.74D-06 BMatP= 1.32D-05
 IDIUse=1 WtCom= 1.00D+00 WtEn= 0.00D+00
 Coeff-Com:  0.822D-03-0.159D-02-0.833D-02-0.187D-01-0.285D-01 0.359D-01
 Coeff-Com:  0.336D+00 0.684D+00
 Coeff:      0.822D-03-0.159D-02-0.833D-02-0.187D-01-0.285D-01 0.359D-01
 Coeff:      0.336D+00 0.684D+00
 Gap=     0.147 Goal=   None    Shift=    0.000
 RMSDP=1.76D-05 MaxDP=1.93D-03 DE=-9.66D-06 OVMax= 2.17D-03

 Cycle   9  Pass 0  IDiag  1:
 RMSU=  1.31D-05    CP:  1.00D+00  7.81D-01  8.93D-01  9.85D-01  1.21D+00
                    CP:  1.24D+00  1.38D+00  1.63D+00
 E= -1507.90424636336     Delta-E=       -0.000000892819 Rises=F Damp=F
 DIIS: error= 1.69D-05 at cycle   9 NSaved=   9.
 NSaved= 9 IEnMin= 9 EnMin= -1507.90424636336     IErMin= 9 ErrMin= 1.69D-05
 ErrMax= 1.69D-05  0.00D+00 EMaxC= 1.00D-01 BMatC= 6.39D-07 BMatP= 2.74D-06
 IDIUse=1 WtCom= 1.00D+00 WtEn= 0.00D+00
 Coeff-Com:  0.243D-03-0.298D-03-0.304D-02-0.767D-02-0.219D-01-0.147D-01
 Coeff-Com:  0.793D-01 0.338D+00 0.630D+00
 Coeff:      0.243D-03-0.298D-03-0.304D-02-0.767D-02-0.219D-01-0.147D-01
 Coeff:      0.793D-01 0.338D+00 0.630D+00
 Gap=     0.147 Goal=   None    Shift=    0.000
 RMSDP=2.00D-05 MaxDP=2.40D-03 DE=-8.93D-07 OVMax= 9.87D-04

 Cycle  10  Pass 0  IDiag  1:
 RMSU=  1.11D-05    CP:  1.00D+00  7.80D-01  8.92D-01  9.86D-01  1.22D+00
                    CP:  1.31D+00  1.53D+00  2.17D+00  2.06D+00
 E= -1507.90424631739     Delta-E=        0.000000045969 Rises=F Damp=F
 DIIS: error= 2.79D-05 at cycle  10 NSaved=  10.
 NSaved=10 IEnMin= 9 EnMin= -1507.90424636336     IErMin= 9 ErrMin= 1.69D-05
 ErrMax= 2.79D-05  0.00D+00 EMaxC= 1.00D-01 BMatC= 4.78D-07 BMatP= 6.39D-07
 IDIUse=1 WtCom= 1.00D+00 WtEn= 0.00D+00
 Coeff-Com:  0.216D-03-0.263D-03-0.279D-02-0.690D-02-0.200D-01-0.135D-01
 Coeff-Com:  0.695D-01 0.304D+00 0.571D+00 0.986D-01
 Coeff:      0.216D-03-0.263D-03-0.279D-02-0.690D-02-0.200D-01-0.135D-01
 Coeff:      0.695D-01 0.304D+00 0.571D+00 0.986D-01
 Gap=     0.147 Goal=   None    Shift=    0.000
 RMSDP=4.61D-06 MaxDP=6.05D-04 DE= 4.60D-08 OVMax= 6.37D-05

 Initial convergence to 1.0D-05 achieved.  Increase integral accuracy.
 Cycle  11  Pass 1  IDiag  1:
 E= -1507.90415538373     Delta-E=        0.000090933660 Rises=F Damp=F
 DIIS: error= 3.19D-04 at cycle   1 NSaved=   1.
 NSaved= 1 IEnMin= 1 EnMin= -1507.90415538373     IErMin= 1 ErrMin= 3.19D-04
 ErrMax= 3.19D-04  0.00D+00 EMaxC= 1.00D-01 BMatC= 9.76D-05 BMatP= 9.76D-05
 IDIUse=3 WtCom= 9.97D-01 WtEn= 3.19D-03
 Coeff-Com:  0.100D+01
 Coeff-En:   0.100D+01
 Coeff:      0.100D+01
 Gap=     0.146 Goal=   None    Shift=    0.000
 RMSDP=4.61D-06 MaxDP=6.05D-04 DE= 9.09D-05 OVMax= 1.06D-03

 Cycle  12  Pass 1  IDiag  1:
 RMSU=  5.95D-04    CP:  9.91D-01
 E= -1507.90421781445     Delta-E=       -0.000062430719 Rises=F Damp=F
 DIIS: error= 1.03D-05 at cycle   2 NSaved=   2.
 NSaved= 2 IEnMin= 2 EnMin= -1507.90421781445     IErMin= 2 ErrMin= 1.03D-05
 ErrMax= 1.03D-05  0.00D+00 EMaxC= 1.00D-01 BMatC= 1.29D-07 BMatP= 9.76D-05
 IDIUse=1 WtCom= 1.00D+00 WtEn= 0.00D+00
 Coeff-Com: -0.154D-01 0.102D+01
 Coeff:     -0.154D-01 0.102D+01
 Gap=     0.147 Goal=   None    Shift=    0.000
 RMSDP=2.29D-05 MaxDP=2.31D-03 DE=-6.24D-05 OVMax= 5.55D-04

 Cycle  13  Pass 1  IDiag  1:
 RMSU=  8.87D-06    CP:  9.91D-01  1.04D+00
 E= -1507.90421781418     Delta-E=        0.000000000276 Rises=F Damp=F
 DIIS: error= 1.28D-05 at cycle   3 NSaved=   3.
 NSaved= 3 IEnMin= 2 EnMin= -1507.90421781445     IErMin= 2 ErrMin= 1.03D-05
 ErrMax= 1.28D-05  0.00D+00 EMaxC= 1.00D-01 BMatC= 2.14D-07 BMatP= 1.29D-07
 IDIUse=1 WtCom= 1.00D+00 WtEn= 0.00D+00
 Coeff-Com: -0.102D-01 0.605D+00 0.406D+00
 Coeff:     -0.102D-01 0.605D+00 0.406D+00
 Gap=     0.147 Goal=   None    Shift=    0.000
 RMSDP=9.56D-07 MaxDP=5.38D-05 DE= 2.76D-10 OVMax= 1.49D-04

 Cycle  14  Pass 1  IDiag  1:
 RMSU=  9.04D-07    CP:  9.91D-01  1.04D+00  1.01D+00
 E= -1507.90421803288     Delta-E=       -0.000000218701 Rises=F Damp=F
 DIIS: error= 1.60D-06 at cycle   4 NSaved=   4.
 NSaved= 4 IEnMin= 4 EnMin= -1507.90421803288     IErMin= 4 ErrMin= 1.60D-06
 ErrMax= 1.60D-06  0.00D+00 EMaxC= 1.00D-01 BMatC= 1.41D-09 BMatP= 1.29D-07
 IDIUse=1 WtCom= 1.00D+00 WtEn= 0.00D+00
 Coeff-Com:  0.330D-03-0.310D-01-0.165D-02 0.103D+01
 Coeff:      0.330D-03-0.310D-01-0.165D-02 0.103D+01
 Gap=     0.147 Goal=   None    Shift=    0.000
 RMSDP=7.25D-07 MaxDP=8.70D-05 DE=-2.19D-07 OVMax= 1.27D-04

 Cycle  15  Pass 1  IDiag  1:
 RMSU=  3.96D-07    CP:  9.91D-01  1.04D+00  1.06D+00  9.84D-01
 E= -1507.90421804138     Delta-E=       -0.000000008500 Rises=F Damp=F
 DIIS: error= 6.81D-07 at cycle   5 NSaved=   5.
 NSaved= 5 IEnMin= 5 EnMin= -1507.90421804138     IErMin= 5 ErrMin= 6.81D-07
 ErrMax= 6.81D-07  0.00D+00 EMaxC= 1.00D-01 BMatC= 1.20D-09 BMatP= 1.41D-09
 IDIUse=1 WtCom= 1.00D+00 WtEn= 0.00D+00
 Coeff-Com:  0.981D-03-0.631D-01-0.529D-01 0.484D+00 0.631D+00
 Coeff:      0.981D-03-0.631D-01-0.529D-01 0.484D+00 0.631D+00
 Gap=     0.147 Goal=   None    Shift=    0.000
 RMSDP=1.50D-07 MaxDP=1.48D-05 DE=-8.50D-09 OVMax= 4.31D-05

 Cycle  16  Pass 1  IDiag  1:
 RMSU=  8.12D-08    CP:  9.91D-01  1.04D+00  1.06D+00  1.00D+00  1.25D+00
 E= -1507.90421804380     Delta-E=       -0.000000002417 Rises=F Damp=F
 DIIS: error= 4.03D-07 at cycle   6 NSaved=   6.
 NSaved= 6 IEnMin= 6 EnMin= -1507.90421804380     IErMin= 6 ErrMin= 4.03D-07
 ErrMax= 4.03D-07  0.00D+00 EMaxC= 1.00D-01 BMatC= 1.91D-10 BMatP= 1.20D-09
 IDIUse=1 WtCom= 1.00D+00 WtEn= 0.00D+00
 Coeff-Com:  0.526D-04-0.159D-03-0.287D-01-0.233D+00 0.802D-01 0.118D+01
 Coeff:      0.526D-04-0.159D-03-0.287D-01-0.233D+00 0.802D-01 0.118D+01
 Gap=     0.147 Goal=   None    Shift=    0.000
 RMSDP=1.70D-07 MaxDP=2.04D-05 DE=-2.42D-09 OVMax= 5.26D-05

 Cycle  17  Pass 1  IDiag  1:
 RMSU=  5.31D-08    CP:  9.91D-01  1.04D+00  1.07D+00  1.01D+00  1.63D+00
                    CP:  1.47D+00
 E= -1507.90421804472     Delta-E=       -0.000000000927 Rises=F Damp=F
 DIIS: error= 1.18D-07 at cycle   7 NSaved=   7.
 NSaved= 7 IEnMin= 7 EnMin= -1507.90421804472     IErMin= 7 ErrMin= 1.18D-07
 ErrMax= 1.18D-07  0.00D+00 EMaxC= 1.00D-01 BMatC= 4.62D-11 BMatP= 1.91D-10
 IDIUse=1 WtCom= 1.00D+00 WtEn= 0.00D+00
 Coeff-Com: -0.909D-04 0.759D-02-0.113D-01-0.182D+00-0.276D-01 0.659D+00
 Coeff-Com:  0.554D+00
 Coeff:     -0.909D-04 0.759D-02-0.113D-01-0.182D+00-0.276D-01 0.659D+00
 Coeff:      0.554D+00
 Gap=     0.147 Goal=   None    Shift=    0.000
 RMSDP=2.93D-08 MaxDP=2.91D-06 DE=-9.27D-10 OVMax= 9.39D-06

 Cycle  18  Pass 1  IDiag  1:
 RMSU=  9.25D-09    CP:  9.91D-01  1.04D+00  1.07D+00  1.01D+00  1.69D+00
                    CP:  1.63D+00  1.15D+00
 E= -1507.90421804476     Delta-E=       -0.000000000042 Rises=F Damp=F
 DIIS: error= 3.40D-08 at cycle   8 NSaved=   8.
 NSaved= 8 IEnMin= 8 EnMin= -1507.90421804476     IErMin= 8 ErrMin= 3.40D-08
 ErrMax= 3.40D-08  0.00D+00 EMaxC= 1.00D-01 BMatC= 2.40D-12 BMatP= 4.62D-11
 IDIUse=1 WtCom= 1.00D+00 WtEn= 0.00D+00
 Coeff-Com: -0.414D-04 0.288D-02-0.784D-03-0.374D-01-0.225D-01 0.909D-01
 Coeff-Com:  0.194D+00 0.773D+00
 Coeff:     -0.414D-04 0.288D-02-0.784D-03-0.374D-01-0.225D-01 0.909D-01
 Coeff:      0.194D+00 0.773D+00
 Gap=     0.147 Goal=   None    Shift=    0.000
 RMSDP=1.05D-08 MaxDP=9.25D-07 DE=-4.18D-11 OVMax= 3.22D-06

 Cycle  19  Pass 1  IDiag  1:
 RMSU=  4.31D-09    CP:  9.91D-01  1.04D+00  1.07D+00  1.01D+00  1.70D+00
                    CP:  1.67D+00  1.25D+00  1.10D+00
 E= -1507.90421804478     Delta-E=       -0.000000000016 Rises=F Damp=F
 DIIS: error= 1.43D-08 at cycle   9 NSaved=   9.
 NSaved= 9 IEnMin= 9 EnMin= -1507.90421804478     IErMin= 9 ErrMin= 1.43D-08
 ErrMax= 1.43D-08  0.00D+00 EMaxC= 1.00D-01 BMatC= 5.10D-13 BMatP= 2.40D-12
 IDIUse=1 WtCom= 1.00D+00 WtEn= 0.00D+00
 Coeff-Com: -0.643D-05 0.265D-03 0.119D-02 0.873D-02-0.645D-02-0.505D-01
 Coeff-Com:  0.312D-02 0.349D+00 0.694D+00
 Coeff:     -0.643D-05 0.265D-03 0.119D-02 0.873D-02-0.645D-02-0.505D-01
 Coeff:      0.312D-02 0.349D+00 0.694D+00
 Gap=     0.147 Goal=   None    Shift=    0.000
 RMSDP=3.49D-09 MaxDP=4.36D-07 DE=-1.59D-11 OVMax= 1.04D-06

 SCF Done:  E(RM062X) =  -1507.90421804     A.U. after   19 cycles
            NFock= 19  Conv=0.35D-08     -V/T= 2.0037
 KE= 1.502295200882D+03 PE=-8.530495815175D+03 EE= 3.023750107915D+03
 Leave Link  502 at Sat Aug 13 20:44:53 2022, MaxMem=  2684354560 cpu:            9139.2 elap:             572.1
 (Enter /storage/apps/GAUSSIAN/G16_RevA03/g16/l601.exe)
 Copying SCF densities to generalized density rwf, IOpCl= 0 IROHF=0.

 **********************************************************************

            Population analysis using the SCF density.

 **********************************************************************

 Orbital symmetries:
       Occupied  (A) (A) (A) (A) (A) (A) (A) (A) (A) (A) (A) (A)
                 (A) (A) (A) (A) (A) (A) (A) (A) (A) (A) (A) (A)
                 (A) (A) (A) (A) (A) (A) (A) (A) (A) (A) (A) (A)
                 (A) (A) (A) (A) (A) (A) (A) (A) (A) (A) (A) (A)
                 (A) (A) (A) (A) (A) (A) (A) (A) (A) (A) (A) (A)
                 (A) (A) (A) (A) (A) (A) (A) (A) (A) (A) (A) (A)
                 (A) (A) (A) (A) (A) (A) (A) (A) (A) (A) (A) (A)
                 (A) (A) (A) (A) (A) (A) (A) (A) (A) (A) (A)
       Virtual   (A) (A) (A) (A) (A) (A) (A) (A) (A) (A) (A) (A)
                 (A) (A) (A) (A) (A) (A) (A) (A) (A) (A) (A) (A)
                 (A) (A) (A) (A) (A) (A) (A) (A) (A) (A) (A) (A)
                 (A) (A) (A) (A) (A) (A) (A) (A) (A) (A) (A) (A)
                 (A) (A) (A) (A) (A) (A) (A) (A) (A) (A) (A) (A)
                 (A) (A) (A) (A) (A) (A) (A) (A) (A) (A) (A) (A)
                 (A) (A) (A) (A) (A) (A) (A) (A) (A) (A) (A) (A)
                 (A) (A) (A) (A) (A) (A) (A) (A) (A) (A) (A) (A)
                 (A) (A) (A) (A) (A) (A) (A) (A) (A) (A) (A) (A)
                 (A) (A) (A) (A) (A) (A) (A) (A) (A) (A) (A) (A)
                 (A) (A) (A) (A) (A) (A) (A) (A) (A) (A) (A) (A)
                 (A) (A) (A) (A) (A) (A) (A) (A) (A) (A) (A) (A)
                 (A) (A) (A) (A) (A) (A) (A) (A) (A) (A) (A) (A)
                 (A) (A) (A) (A) (A) (A) (A) (A) (A) (A) (A) (A)
                 (A) (A) (A) (A) (A) (A) (A) (A) (A) (A) (A) (A)
                 (A) (A) (A) (A) (A) (A) (A) (A) (A) (A) (A) (A)
                 (A) (A) (A) (A) (A) (A) (A) (A) (A) (A) (A) (A)
                 (A) (A) (A) (A) (A) (A) (A) (A) (A) (A) (A) (A)
                 (A) (A) (A) (A) (A) (A) (A) (A) (A) (A) (A) (A)
                 (A) (A) (A) (A) (A) (A) (A) (A) (A) (A) (A) (A)
                 (A) (A) (A) (A) (A) (A) (A) (A) (A) (A) (A) (A)
                 (A) (A) (A) (A) (A) (A) (A) (A) (A) (A) (A) (A)
                 (A) (A) (A) (A) (A) (A) (A) (A) (A) (A) (A) (A)
                 (A) (A) (A) (A) (A) (A) (A) (A) (A) (A) (A) (A)
                 (A) (A) (A) (A) (A) (A) (A) (A) (A) (A) (A) (A)
                 (A) (A) (A) (A) (A) (A) (A) (A) (A) (A) (A) (A)
                 (A) (A) (A) (A) (A) (A) (A) (A) (A) (A) (A) (A)
                 (A) (A) (A) (A) (A) (A) (A) (A) (A) (A) (A) (A)
                 (A) (A) (A) (A) (A) (A) (A) (A) (A) (A) (A) (A)
                 (A) (A) (A) (A) (A) (A) (A) (A) (A) (A) (A) (A)
                 (A) (A) (A) (A) (A) (A) (A) (A) (A) (A) (A) (A)
                 (A) (A) (A) (A) (A) (A) (A) (A) (A) (A) (A) (A)
                 (A) (A) (A) (A) (A) (A) (A) (A) (A) (A) (A) (A)
                 (A) (A) (A) (A) (A) (A) (A) (A) (A) (A) (A) (A)
                 (A) (A) (A) (A) (A) (A) (A) (A) (A) (A) (A) (A)
                 (A) (A) (A) (A) (A) (A) (A) (A) (A) (A) (A) (A)
                 (A) (A) (A) (A) (A) (A) (A) (A) (A) (A) (A) (A)
                 (A) (A) (A) (A) (A) (A) (A) (A) (A) (A) (A) (A)
                 (A) (A) (A) (A) (A) (A) (A) (A) (A) (A) (A) (A)
                 (A) (A) (A) (A) (A) (A) (A) (A) (A) (A) (A) (A)
                 (A) (A) (A) (A) (A) (A) (A) (A) (A) (A) (A) (A)
                 (A) (A) (A) (A) (A) (A) (A) (A) (A) (A) (A) (A)
                 (A) (A) (A) (A) (A) (A) (A) (A) (A) (A) (A) (A)
                 (A) (A) (A) (A) (A) (A) (A) (A) (A) (A) (A) (A)
                 (A) (A) (A) (A) (A) (A) (A) (A) (A) (A) (A) (A)
                 (A) (A) (A) (A) (A) (A) (A) (A) (A) (A) (A) (A)
                 (A) (A) (A) (A) (A) (A) (A) (A) (A) (A) (A) (A)
                 (A) (A) (A) (A) (A) (A) (A) (A) (A) (A) (A) (A)
                 (A) (A) (A) (A) (A) (A) (A) (A) (A) (A) (A) (A)
                 (A) (A) (A) (A) (A) (A) (A) (A) (A) (A) (A) (A)
                 (A) (A) (A) (A) (A) (A) (A) (A) (A) (A) (A) (A)
                 (A) (A) (A) (A) (A) (A) (A) (A) (A) (A) (A) (A)
                 (A) (A) (A) (A) (A) (A) (A) (A) (A) (A) (A) (A)
                 (A) (A) (A) (A) (A) (A) (A) (A) (A) (A) (A) (A)
                 (A) (A) (A) (A) (A) (A) (A) (A) (A) (A) (A) (A)
                 (A) (A) (A) (A) (A) (A) (A) (A) (A) (A) (A) (A)
                 (A) (A) (A) (A) (A) (A) (A) (A) (A) (A) (A) (A)
                 (A) (A) (A) (A) (A) (A) (A) (A) (A) (A) (A) (A)
                 (A) (A) (A) (A) (A) (A) (A) (A) (A) (A) (A) (A)
                 (A) (A) (A) (A) (A) (A) (A) (A) (A) (A) (A) (A)
                 (A) (A) (A) (A) (A) (A) (A) (A) (A) (A) (A) (A)
                 (A) (A) (A) (A) (A) (A) (A) (A) (A) (A) (A) (A)
                 (A) (A) (A) (A) (A) (A) (A) (A) (A) (A) (A) (A)
                 (A) (A) (A) (A) (A) (A) (A) (A) (A) (A) (A) (A)
                 (A) (A) (A) (A) (A) (A) (A) (A) (A) (A) (A) (A)
                 (A) (A) (A) (A) (A) (A) (A) (A) (A) (A) (A) (A)
                 (A) (A) (A) (A) (A) (A) (A)
 The electronic state is 1-A.
 Alpha  occ. eigenvalues --  -89.86797 -19.66540 -19.63274 -19.61755 -19.61232
 Alpha  occ. eigenvalues --  -19.57000 -14.87985 -14.77870 -10.66619 -10.66290
 Alpha  occ. eigenvalues --  -10.64262 -10.63459 -10.61209 -10.61130 -10.60683
 Alpha  occ. eigenvalues --  -10.60508 -10.59768 -10.59744 -10.59090 -10.55153
 Alpha  occ. eigenvalues --  -10.53694 -10.52242 -10.52199 -10.49107  -8.22697
 Alpha  occ. eigenvalues --   -6.14666  -6.14440  -6.14172  -1.22521  -1.18548
 Alpha  occ. eigenvalues --   -1.17083  -1.15679  -1.13962  -1.10451  -1.03243
 Alpha  occ. eigenvalues --   -0.97808  -0.93274  -0.90688  -0.88154  -0.87549
 Alpha  occ. eigenvalues --   -0.85414  -0.81528  -0.80716  -0.79034  -0.76884
 Alpha  occ. eigenvalues --   -0.73267  -0.71788  -0.69978  -0.69202  -0.67158
 Alpha  occ. eigenvalues --   -0.66067  -0.64084  -0.62900  -0.62403  -0.61225
 Alpha  occ. eigenvalues --   -0.60088  -0.58317  -0.57927  -0.57400  -0.56164
 Alpha  occ. eigenvalues --   -0.55946  -0.54317  -0.53244  -0.52665  -0.51893
 Alpha  occ. eigenvalues --   -0.51818  -0.50990  -0.50208  -0.50084  -0.48872
 Alpha  occ. eigenvalues --   -0.48627  -0.48136  -0.47782  -0.47231  -0.46099
 Alpha  occ. eigenvalues --   -0.45731  -0.45623  -0.44797  -0.43804  -0.43284
 Alpha  occ. eigenvalues --   -0.42848  -0.40488  -0.39640  -0.38619  -0.37948
 Alpha  occ. eigenvalues --   -0.37598  -0.37314  -0.36777  -0.36735  -0.36220
 Alpha  occ. eigenvalues --   -0.34945  -0.34444  -0.29261  -0.27990  -0.21230
 Alpha virt. eigenvalues --   -0.06579  -0.04134   0.03746   0.04641   0.05118
 Alpha virt. eigenvalues --    0.06264   0.07087   0.07264   0.08185   0.08881
 Alpha virt. eigenvalues --    0.09340   0.10046   0.10309   0.10779   0.11250
 Alpha virt. eigenvalues --    0.11430   0.11927   0.12580   0.12969   0.13257
 Alpha virt. eigenvalues --    0.13710   0.14020   0.14303   0.14590   0.15236
 Alpha virt. eigenvalues --    0.15412   0.15512   0.16247   0.16354   0.16719
 Alpha virt. eigenvalues --    0.17530   0.17688   0.18587   0.18834   0.19542
 Alpha virt. eigenvalues --    0.20638   0.20725   0.21441   0.21522   0.22264
 Alpha virt. eigenvalues --    0.22721   0.22940   0.23393   0.23715   0.24185
 Alpha virt. eigenvalues --    0.24640   0.25390   0.25590   0.25852   0.26055
 Alpha virt. eigenvalues --    0.26687   0.27237   0.27622   0.28066   0.28776
 Alpha virt. eigenvalues --    0.29105   0.29520   0.29827   0.30346   0.31306
 Alpha virt. eigenvalues --    0.31527   0.31925   0.32557   0.33082   0.33599
 Alpha virt. eigenvalues --    0.33980   0.34551   0.35114   0.35794   0.36040
 Alpha virt. eigenvalues --    0.36638   0.37061   0.37490   0.37564   0.38301
 Alpha virt. eigenvalues --    0.38634   0.38868   0.39269   0.39675   0.39778
 Alpha virt. eigenvalues --    0.40259   0.40619   0.41199   0.41821   0.42039
 Alpha virt. eigenvalues --    0.42799   0.42961   0.43089   0.43752   0.44082
 Alpha virt. eigenvalues --    0.44235   0.44635   0.44915   0.45456   0.45671
 Alpha virt. eigenvalues --    0.45931   0.46145   0.46633   0.46783   0.47586
 Alpha virt. eigenvalues --    0.47775   0.48030   0.48550   0.48773   0.49140
 Alpha virt. eigenvalues --    0.49452   0.49594   0.49981   0.50491   0.50710
 Alpha virt. eigenvalues --    0.51310   0.51720   0.52037   0.52882   0.53290
 Alpha virt. eigenvalues --    0.53593   0.53975   0.54186   0.54602   0.55279
 Alpha virt. eigenvalues --    0.55441   0.55774   0.56068   0.56509   0.57341
 Alpha virt. eigenvalues --    0.57801   0.58903   0.59259   0.59802   0.60203
 Alpha virt. eigenvalues --    0.60601   0.61037   0.61615   0.61825   0.62585
 Alpha virt. eigenvalues --    0.62886   0.63496   0.64363   0.64992   0.65168
 Alpha virt. eigenvalues --    0.65651   0.66021   0.66653   0.66886   0.67277
 Alpha virt. eigenvalues --    0.67558   0.68145   0.68470   0.69599   0.70662
 Alpha virt. eigenvalues --    0.71314   0.71746   0.72103   0.72511   0.72882
 Alpha virt. eigenvalues --    0.74084   0.74701   0.75238   0.76067   0.76591
 Alpha virt. eigenvalues --    0.77191   0.78673   0.79171   0.79832   0.80952
 Alpha virt. eigenvalues --    0.81506   0.81705   0.82244   0.83049   0.83565
 Alpha virt. eigenvalues --    0.84095   0.86061   0.86662   0.87255   0.87437
 Alpha virt. eigenvalues --    0.87474   0.88761   0.89749   0.89824   0.90263
 Alpha virt. eigenvalues --    0.90571   0.91552   0.91948   0.92501   0.92919
 Alpha virt. eigenvalues --    0.93525   0.94400   0.95167   0.95783   0.96211
 Alpha virt. eigenvalues --    0.96509   0.97161   0.97966   0.98945   0.99427
 Alpha virt. eigenvalues --    1.00412   1.01073   1.01509   1.01958   1.02967
 Alpha virt. eigenvalues --    1.03321   1.03778   1.04285   1.05596   1.06375
 Alpha virt. eigenvalues --    1.06881   1.08055   1.08565   1.08737   1.09895
 Alpha virt. eigenvalues --    1.10635   1.10730   1.12279   1.12448   1.13167
 Alpha virt. eigenvalues --    1.14000   1.15109   1.15800   1.16206   1.17396
 Alpha virt. eigenvalues --    1.17742   1.18566   1.18902   1.19200   1.19870
 Alpha virt. eigenvalues --    1.21094   1.21373   1.22983   1.23534   1.24468
 Alpha virt. eigenvalues --    1.24516   1.25864   1.26054   1.27146   1.27735
 Alpha virt. eigenvalues --    1.28620   1.28672   1.29217   1.29643   1.30980
 Alpha virt. eigenvalues --    1.31870   1.32474   1.33424   1.33928   1.34184
 Alpha virt. eigenvalues --    1.35069   1.35879   1.37269   1.39249   1.39471
 Alpha virt. eigenvalues --    1.40087   1.41310   1.42538   1.42659   1.43444
 Alpha virt. eigenvalues --    1.44987   1.45318   1.46483   1.47437   1.49934
 Alpha virt. eigenvalues --    1.50871   1.51628   1.52782   1.52994   1.53234
 Alpha virt. eigenvalues --    1.53915   1.54524   1.54808   1.55102   1.55870
 Alpha virt. eigenvalues --    1.56536   1.56817   1.57120   1.58146   1.58514
 Alpha virt. eigenvalues --    1.59076   1.59352   1.60046   1.60608   1.60939
 Alpha virt. eigenvalues --    1.61297   1.61538   1.62444   1.62855   1.63131
 Alpha virt. eigenvalues --    1.63463   1.63887   1.64497   1.64703   1.65168
 Alpha virt. eigenvalues --    1.65874   1.67019   1.67470   1.68223   1.68637
 Alpha virt. eigenvalues --    1.69136   1.69824   1.70875   1.71514   1.71764
 Alpha virt. eigenvalues --    1.72091   1.72559   1.73256   1.74314   1.74610
 Alpha virt. eigenvalues --    1.75719   1.76685   1.77067   1.77837   1.78082
 Alpha virt. eigenvalues --    1.78280   1.79109   1.79260   1.80615   1.80810
 Alpha virt. eigenvalues --    1.82704   1.82976   1.83629   1.84214   1.84908
 Alpha virt. eigenvalues --    1.85991   1.86144   1.87229   1.87869   1.89041
 Alpha virt. eigenvalues --    1.89348   1.89778   1.90400   1.91284   1.91528
 Alpha virt. eigenvalues --    1.91936   1.93066   1.94301   1.94439   1.94510
 Alpha virt. eigenvalues --    1.95298   1.95719   1.96582   1.97662   1.98192
 Alpha virt. eigenvalues --    1.99035   2.00024   2.00097   2.01390   2.02599
 Alpha virt. eigenvalues --    2.02952   2.03388   2.04380   2.04535   2.05020
 Alpha virt. eigenvalues --    2.05909   2.06719   2.07285   2.07929   2.09263
 Alpha virt. eigenvalues --    2.10009   2.10848   2.11127   2.12262   2.13536
 Alpha virt. eigenvalues --    2.14274   2.14690   2.16016   2.16311   2.17306
 Alpha virt. eigenvalues --    2.17832   2.18469   2.18572   2.19410   2.20076
 Alpha virt. eigenvalues --    2.21183   2.21472   2.21690   2.22752   2.23206
 Alpha virt. eigenvalues --    2.23330   2.24307   2.25057   2.25982   2.26321
 Alpha virt. eigenvalues --    2.27528   2.27606   2.28758   2.29258   2.30010
 Alpha virt. eigenvalues --    2.30717   2.31751   2.32277   2.33853   2.34357
 Alpha virt. eigenvalues --    2.34632   2.35086   2.35869   2.36400   2.37099
 Alpha virt. eigenvalues --    2.37437   2.37795   2.38243   2.38684   2.39679
 Alpha virt. eigenvalues --    2.40486   2.40879   2.42221   2.42586   2.43759
 Alpha virt. eigenvalues --    2.45185   2.45379   2.46160   2.46678   2.47262
 Alpha virt. eigenvalues --    2.47666   2.49999   2.50452   2.50786   2.51828
 Alpha virt. eigenvalues --    2.52977   2.53501   2.54567   2.54785   2.55989
 Alpha virt. eigenvalues --    2.56443   2.57255   2.57905   2.58220   2.58365
 Alpha virt. eigenvalues --    2.59675   2.60124   2.60378   2.60747   2.61606
 Alpha virt. eigenvalues --    2.62435   2.62784   2.63302   2.64146   2.65186
 Alpha virt. eigenvalues --    2.65903   2.66469   2.66681   2.67553   2.68214
 Alpha virt. eigenvalues --    2.68891   2.69112   2.69975   2.70092   2.71340
 Alpha virt. eigenvalues --    2.71496   2.72098   2.73242   2.73423   2.73912
 Alpha virt. eigenvalues --    2.74717   2.75531   2.76640   2.77029   2.77969
 Alpha virt. eigenvalues --    2.79146   2.79411   2.80226   2.80907   2.81727
 Alpha virt. eigenvalues --    2.82069   2.82832   2.83125   2.83892   2.84412
 Alpha virt. eigenvalues --    2.85205   2.85951   2.86216   2.86884   2.87586
 Alpha virt. eigenvalues --    2.88833   2.89503   2.89863   2.90419   2.91802
 Alpha virt. eigenvalues --    2.92899   2.93484   2.93880   2.94314   2.95120
 Alpha virt. eigenvalues --    2.96428   2.97463   2.98134   2.98451   2.99496
 Alpha virt. eigenvalues --    3.00239   3.01372   3.01746   3.02269   3.02827
 Alpha virt. eigenvalues --    3.03625   3.04400   3.05221   3.05956   3.06733
 Alpha virt. eigenvalues --    3.07889   3.08034   3.08808   3.09777   3.09820
 Alpha virt. eigenvalues --    3.10347   3.11004   3.11297   3.12134   3.12788
 Alpha virt. eigenvalues --    3.13111   3.13801   3.14289   3.14874   3.15439
 Alpha virt. eigenvalues --    3.15964   3.16606   3.17640   3.18036   3.18102
 Alpha virt. eigenvalues --    3.19626   3.19832   3.20006   3.20738   3.21171
 Alpha virt. eigenvalues --    3.21784   3.22541   3.23531   3.23698   3.24729
 Alpha virt. eigenvalues --    3.25847   3.26009   3.26531   3.27042   3.28059
 Alpha virt. eigenvalues --    3.28684   3.29587   3.30318   3.30451   3.31113
 Alpha virt. eigenvalues --    3.32001   3.32136   3.33067   3.33255   3.33715
 Alpha virt. eigenvalues --    3.34700   3.35392   3.35572   3.36399   3.36995
 Alpha virt. eigenvalues --    3.38177   3.38479   3.39078   3.39975   3.40273
 Alpha virt. eigenvalues --    3.41225   3.41366   3.41934   3.42359   3.43201
 Alpha virt. eigenvalues --    3.43529   3.44641   3.44807   3.45511   3.46002
 Alpha virt. eigenvalues --    3.46479   3.47484   3.48116   3.48847   3.49825
 Alpha virt. eigenvalues --    3.50147   3.51420   3.51884   3.53116   3.53663
 Alpha virt. eigenvalues --    3.54376   3.54796   3.55827   3.56466   3.56930
 Alpha virt. eigenvalues --    3.57460   3.58341   3.58430   3.59391   3.60022
 Alpha virt. eigenvalues --    3.60612   3.61772   3.62618   3.64073   3.64624
 Alpha virt. eigenvalues --    3.66289   3.66904   3.67293   3.69281   3.70082
 Alpha virt. eigenvalues --    3.70633   3.71513   3.72724   3.73631   3.74811
 Alpha virt. eigenvalues --    3.76024   3.76657   3.77595   3.78846   3.79690
 Alpha virt. eigenvalues --    3.79870   3.80490   3.82404   3.83030   3.85552
 Alpha virt. eigenvalues --    3.85792   3.86644   3.87293   3.87835   3.89164
 Alpha virt. eigenvalues --    3.90770   3.91313   3.92928   3.93510   3.94481
 Alpha virt. eigenvalues --    3.96434   3.97231   3.97788   3.98082   3.99569
 Alpha virt. eigenvalues --    3.99846   4.01417   4.03077   4.05861   4.06761
 Alpha virt. eigenvalues --    4.08302   4.10389   4.10844   4.12432   4.13521
 Alpha virt. eigenvalues --    4.14334   4.15689   4.16905   4.17445   4.18092
 Alpha virt. eigenvalues --    4.18784   4.20131   4.21221   4.23404   4.23826
 Alpha virt. eigenvalues --    4.27026   4.27120   4.28579   4.29629   4.31271
 Alpha virt. eigenvalues --    4.32234   4.33784   4.34972   4.36626   4.37633
 Alpha virt. eigenvalues --    4.39408   4.39873   4.40954   4.42476   4.43992
 Alpha virt. eigenvalues --    4.44510   4.45120   4.45673   4.47641   4.49437
 Alpha virt. eigenvalues --    4.50429   4.51647   4.54806   4.56970   4.57461
 Alpha virt. eigenvalues --    4.59135   4.60238   4.62433   4.64106   4.66935
 Alpha virt. eigenvalues --    4.67761   4.71999   4.73612   4.75591   4.76242
 Alpha virt. eigenvalues --    4.77540   4.80323   4.80653   4.81743   4.83503
 Alpha virt. eigenvalues --    4.85270   4.86488   4.88859   4.89406   4.90179
 Alpha virt. eigenvalues --    4.91588   4.93278   4.95166   4.96896   4.97873
 Alpha virt. eigenvalues --    4.99917   5.02362   5.04277   5.04651   5.06148
 Alpha virt. eigenvalues --    5.08719   5.13094   5.15176   5.18700   5.20293
 Alpha virt. eigenvalues --    5.21390   5.24939   5.26890   5.27166   5.28523
 Alpha virt. eigenvalues --    5.30651   5.31251   5.32122   5.34131   5.37798
 Alpha virt. eigenvalues --    5.39582   5.42326   5.43295   5.45431   5.46907
 Alpha virt. eigenvalues --    5.48834   5.49351   5.50570   5.53254   5.58395
 Alpha virt. eigenvalues --    5.64509   5.67270   5.72371   5.74496   5.77578
 Alpha virt. eigenvalues --    5.80096   5.81063   5.83468   5.84594   5.86864
 Alpha virt. eigenvalues --    5.88781   5.90579   5.91831   5.94191   5.95439
 Alpha virt. eigenvalues --    5.97401   6.03393   6.05971   6.15225   6.17666
 Alpha virt. eigenvalues --    6.20312   6.22419   6.25849   6.26792   6.38152
 Alpha virt. eigenvalues --    6.41809   6.44534   6.47941   6.49570   6.55448
 Alpha virt. eigenvalues --    6.58543   6.68187   6.73391   6.75360   6.76285
 Alpha virt. eigenvalues --    6.77488   6.80586   6.83908   6.85134   6.87301
 Alpha virt. eigenvalues --    6.89545   6.95267   6.99910   7.07962   7.08713
 Alpha virt. eigenvalues --    7.09750   7.11631   7.16882   7.19334   7.22916
 Alpha virt. eigenvalues --    7.32357   7.41132   9.06575   9.42607   9.59095
 Alpha virt. eigenvalues --   19.81447  22.36472  22.46412  22.49496  22.58963
 Alpha virt. eigenvalues --   22.64819  22.69432  22.74707  22.75798  22.82362
 Alpha virt. eigenvalues --   22.86867  22.95211  22.97311  23.07304  23.18494
 Alpha virt. eigenvalues --   23.29061  23.51828  32.18705  33.16538  44.13658
 Alpha virt. eigenvalues --   44.22930  44.26182  44.36681  44.51441
          Condensed to atoms (all electrons):
               1          2          3          4          5          6
     1  C    5.147700   0.429541   0.412756   0.005796  -0.006683  -0.000245
     2  H    0.429541   0.496309  -0.013701  -0.002295   0.000472  -0.000005
     3  H    0.412756  -0.013701   0.504580  -0.000610   0.000196  -0.000008
     4  C    0.005796  -0.002295  -0.000610   5.588383   0.542461   0.235390
     5  H   -0.006683   0.000472   0.000196   0.542461   0.528424  -0.035242
     6  O   -0.000245  -0.000005  -0.000008   0.235390  -0.035242   8.175174
     7  H   -0.000004  -0.000002  -0.000003  -0.057785  -0.006828   0.306202
     8  C   -0.006015   0.011012  -0.001000  -0.050254  -0.106878  -0.061344
     9  H    0.007049  -0.000307  -0.001989  -0.074961   0.002080   0.001260
    10  O    0.005238  -0.000191  -0.000016   0.050668   0.005648  -0.022545
[...]
 (Enter /storage/apps/GAUSSIAN/G16_RevA03/g16/l716.exe)
 Dipole        = 6.96954431D-01-2.69055760D+00 7.78546773D-01
 ***** Axes restored to original set *****
 -------------------------------------------------------------------
 Center     Atomic                   Forces (Hartrees/Bohr)
 Number     Number              X              Y              Z
 -------------------------------------------------------------------
      1        6          -0.000122528   -0.000017741    0.000236974
      2        1          -0.000011705    0.000011285    0.000015784
      3        1          -0.000021316   -0.000019756    0.000012621
      4        6          -0.000224827    0.000005708    0.000148157
      5        1          -0.000064673    0.000001829    0.000000609
      6        8          -0.000373641    0.000049195    0.000122077
      7        1          -0.000041662   -0.000001423   -0.000009438
      8        6          -0.000239940   -0.000009196    0.000289147
      9        1          -0.000032647    0.000006099    0.000044838
     10        8          -0.000389463    0.000116555    0.000292961
     11        1          -0.000042917    0.000006232    0.000037269
     12        6           0.000033478    0.000028279    0.000158151
     13        1           0.000011107    0.000012728   -0.000012728
     14        6          -0.000081391   -0.000000898    0.000365916
     15        1          -0.000003841   -0.000009720    0.000036576
     16        8           0.000180646    0.000094076    0.000376890
     17        7           0.000285882   -0.000087016   -0.000288333
     18        6           0.000889385    0.000165711   -0.001119866
     19        1           0.000073495    0.000018236   -0.000105424
     20        6           0.001337361    0.000202533   -0.001800196
     21        1           0.000164880    0.000054394   -0.000200872
     22        6           0.001153803    0.000148586   -0.001584788
     23        1           0.000160166    0.000026015   -0.000094480
     24        1          -0.000151471   -0.000176047    0.000180473
     25        6           0.000277701   -0.000014351   -0.000312617
     26        6          -0.000021248   -0.000049525    0.000361253
     27        1          -0.000056380   -0.000007026    0.000074626
     28        6          -0.000019140   -0.000088258    0.000070129
     29        8           0.000078817   -0.000124385   -0.000234937
     30        7          -0.000213055   -0.000235534    0.000698913
     31        1          -0.000014486   -0.000013698    0.000079454
     32        1          -0.000041835   -0.000036451    0.000141036
     33        1          -0.000052693    0.000003825    0.000032549
     34        6          -0.000333229   -0.000076825    0.000014470
     35        6           0.000070472   -0.000179266   -0.000368584
     36        6          -0.000291580   -0.000383846    0.000390920
     37        6          -0.001379222    0.001212006    0.002236075
     38        6          -0.001120113   -0.000512630    0.001291321
     39        8           0.000729465   -0.000111146   -0.001285712
     40       16           0.000369605   -0.000175783   -0.001290158
     41        1          -0.000036549   -0.000017623   -0.000006700
     42        1          -0.000010746   -0.000002561    0.000030271
     43        1           0.000118222    0.000384634   -0.000009526
     44        1          -0.000013903   -0.000167437    0.000078006
     45        1          -0.000255204    0.000116126    0.000507931
     46        1          -0.000179906   -0.000089078    0.000322346
     47        1          -0.000049577   -0.000045454    0.000104440
     48        1          -0.000043597   -0.000011375   -0.000027826
 -------------------------------------------------------------------
 Cartesian Forces:  Max     0.002236075 RMS     0.000459760
 Leave Link  716 at Sat Aug 13 20:48:16 2022, MaxMem=  2684354560 cpu:               0.4 elap:               0.0
 (Enter /storage/apps/GAUSSIAN/G16_RevA03/g16/l103.exe)

 GradGradGradGradGradGradGradGradGradGradGradGradGradGradGradGradGradGrad
 Berny optimization.
 Search for a local minimum.
 Step number   1 out of a maximum of    2
 All quantities printed in internal units (Hartrees-Bohrs-Radians)
 Second derivative matrix not updated -- first step.
 ITU=  0
     Eigenvalues ---    0.00024   0.00088   0.00106   0.00128   0.00182
     Eigenvalues ---    0.00215   0.00311   0.00350   0.00446   0.00484
     Eigenvalues ---    0.00604   0.00621   0.00808   0.00923   0.00955
     Eigenvalues ---    0.00970   0.01119   0.01169   0.01361   0.01505
     Eigenvalues ---    0.01720   0.02155   0.02334   0.02427   0.02677
     Eigenvalues ---    0.03010   0.03127   0.03304   0.03712   0.04252
     Eigenvalues ---    0.04396   0.04600   0.04804   0.05010   0.05250
     Eigenvalues ---    0.05313   0.05490   0.05740   0.05825   0.05972
     Eigenvalues ---    0.06162   0.06301   0.06462   0.06799   0.07044
     Eigenvalues ---    0.07061   0.07125   0.07670   0.08082   0.08338
     Eigenvalues ---    0.08643   0.08798   0.09225   0.09344   0.10331
     Eigenvalues ---    0.10746   0.10831   0.11205   0.12234   0.12554
     Eigenvalues ---    0.12834   0.13071   0.13231   0.13300   0.13676
     Eigenvalues ---    0.13883   0.14043   0.15537   0.16191   0.16496
     Eigenvalues ---    0.17513   0.18137   0.18670   0.19270   0.19880
     Eigenvalues ---    0.20335   0.20658   0.21214   0.21939   0.22546
     Eigenvalues ---    0.25176   0.25773   0.27143   0.28074   0.30624
     Eigenvalues ---    0.33203   0.33632   0.34280   0.34703   0.37706
     Eigenvalues ---    0.37875   0.37875   0.37875   0.37875   0.39984
     Eigenvalues ---    0.43777   0.48137   0.49115   0.57114   0.58935
     Eigenvalues ---    0.59985   0.61740   0.69588   0.72255   0.73770
     Eigenvalues ---    0.79301   0.81599   0.82688   0.87453   0.90843
     Eigenvalues ---    0.91237   0.92051   0.92784   0.93401   0.95366
     Eigenvalues ---    0.96832   0.99963   1.00206   1.02223   1.04208
     Eigenvalues ---    1.06038   1.08570   1.11600   1.11872   1.12638
     Eigenvalues ---    1.20272   1.20769   1.27483   1.27816   1.28995
     Eigenvalues ---    1.33331   1.37312   1.43568   1.56004   1.72610
     Eigenvalues ---    1.83840   1.88430   2.35646
 Quadratic step=6.177D+00 exceeds max=3.000D-01 adjusted using Lamda=-6.112D-03.
 Angle between NR and scaled steps=  33.88 degrees.
 Angle between quadratic step and forces=  57.15 degrees.
 Linear search not attempted -- first point.
 Variable       Old X    -DE/DX   Delta X   Delta X   Delta X     New X
                                 (Linear)    (Quad)   (Total)
    X1        6.79530  -0.00012   0.00000  -0.02509  -0.02509   6.77021
    Y1       -6.83358  -0.00002   0.00000  -0.01836  -0.01836  -6.85194
    Z1       -0.82973   0.00024   0.00000   0.02178   0.02178  -0.80794
    X2        7.08229  -0.00001   0.00000  -0.02718  -0.02718   7.05511
    Y2       -7.00790   0.00001   0.00000  -0.02488  -0.02488  -7.03278
    Z2       -2.86072   0.00002   0.00000   0.02140   0.02140  -2.83932
    X3        8.18582  -0.00002   0.00000  -0.02432  -0.02432   8.16150
    Y3       -8.00936  -0.00002   0.00000  -0.01935  -0.01935  -8.02870
    Z3        0.13383   0.00001   0.00000   0.01996   0.01996   0.15378
    X4        3.50514  -0.00022   0.00000  -0.00615  -0.00615   3.49899
    Y4       -2.71506   0.00001   0.00000   0.01357   0.01357  -2.70150
    Z4        2.35676   0.00015   0.00000   0.01033   0.01033   2.36709
    X5        2.27905  -0.00006   0.00000  -0.01075  -0.01075   2.26830
    Y5       -4.36368   0.00000   0.00000   0.01624   0.01624  -4.34744
    Z5        2.06018   0.00000   0.00000   0.01642   0.01642   2.07661
    X6        2.74960  -0.00037   0.00000   0.00061   0.00061   2.75021
    Y6       -1.27638   0.00005   0.00000   0.02778   0.02778  -1.24859
    Z6        4.39621   0.00012   0.00000   0.00343   0.00343   4.39965
    X7        0.97430  -0.00004   0.00000   0.00624   0.00624   0.98054
    Y7       -0.68598  -0.00000   0.00000   0.03814   0.03814  -0.64783
    Z7        4.07502  -0.00001   0.00000  -0.00567  -0.00567   4.06934
    X8        6.25442  -0.00024   0.00000  -0.00826  -0.00826   6.24615
    Y8       -3.56030  -0.00001   0.00000   0.00466   0.00466  -3.55564
    Z8        2.67441   0.00029   0.00000   0.01070   0.01070   2.68511
    X9        6.41140  -0.00003   0.00000  -0.00742  -0.00742   6.40398
    Y9       -5.23154   0.00001   0.00000   0.01142   0.01142  -5.22012
    Z9        3.88199   0.00004   0.00000   0.01949   0.01949   3.90148
   X10        7.69201  -0.00039   0.00000   0.00081   0.00081   7.69282
   Y10       -1.53964   0.00012   0.00000   0.00741   0.00741  -1.53223
   Z10        3.62606   0.00029   0.00000  -0.00885  -0.00885   3.61721
   X11        6.65501  -0.00004   0.00000   0.00932   0.00932   6.66433
   Y11       -0.70664   0.00001   0.00000   0.02205   0.02205  -0.68459
   Z11        4.88150   0.00004   0.00000  -0.01240  -0.01240   4.86910
   X12        3.73204   0.00003   0.00000  -0.00101  -0.00101   3.73104
   Y12       -1.24471   0.00003   0.00000  -0.00002  -0.00002  -1.24473
   Z12       -0.13944   0.00016   0.00000   0.00220   0.00220  -0.13724
   X13        4.26744   0.00001   0.00000   0.01030   0.01030   4.27773
   Y13        0.71351   0.00001   0.00000  -0.00051  -0.00051   0.71300
   Z13        0.23774  -0.00001   0.00000  -0.01128  -0.01128   0.22646
   X14        7.08616  -0.00008   0.00000  -0.01466  -0.01466   7.07150
   Y14       -4.10229  -0.00000   0.00000  -0.01592  -0.01592  -4.11821
   Z14       -0.02890   0.00037   0.00000   0.01251   0.01251  -0.01639
   X15        9.02911  -0.00000   0.00000  -0.01174  -0.01174   9.01738
   Y15       -3.46462  -0.00001   0.00000  -0.02613  -0.02613  -3.49075
   Z15       -0.28093   0.00004   0.00000   0.00318   0.00318  -0.27775
   X16        5.50525   0.00018   0.00000  -0.00877  -0.00877   5.49648
   Y16       -2.52344   0.00009   0.00000  -0.01578  -0.01578  -2.53921
   Z16       -1.60314   0.00038   0.00000   0.00816   0.00816  -1.59498
   X17        1.36927   0.00029   0.00000   0.00484   0.00484   1.37411
   Y17       -1.13768  -0.00009   0.00000   0.00005   0.00005  -1.13763
   Z17       -1.62978  -0.00029   0.00000  -0.00654  -0.00654  -1.63632
   X18        0.42515   0.00089   0.00000   0.03058   0.03058   0.45572
   Y18       -3.32642   0.00017   0.00000   0.00470   0.00470  -3.32173
   Z18       -2.56180  -0.00112   0.00000  -0.04320  -0.04320  -2.60499
   X19        1.49266   0.00007   0.00000   0.03733   0.03733   1.52999
   Y19       -5.00991   0.00002   0.00000   0.00686   0.00686  -5.00305
   Z19       -2.13881  -0.00011   0.00000  -0.05069  -0.05069  -2.18950
   X20       -1.69711   0.00134   0.00000   0.04690   0.04690  -1.65021
   Y20       -3.30221   0.00020   0.00000   0.00749   0.00749  -3.29472
   Z20       -4.02781  -0.00180   0.00000  -0.06652  -0.06652  -4.09434
   X21       -2.41737   0.00016   0.00000   0.06386   0.06386  -2.35351
   Y21       -5.05828   0.00005   0.00000   0.01030   0.01030  -5.04798
   Z21       -4.77790  -0.00020   0.00000  -0.08916  -0.08916  -4.86706
   X22       -2.88432   0.00115   0.00000   0.03208   0.03208  -2.85224
   Y22       -1.00882   0.00015   0.00000   0.00464   0.00464  -1.00418
   Z22       -4.55080  -0.00158   0.00000  -0.04500  -0.04500  -4.59581
   X23       -4.49049   0.00016   0.00000   0.04116   0.04116  -4.44933
   Y23       -0.95178   0.00003   0.00000   0.00788   0.00788  -0.94390
   Z23       -5.81442  -0.00009   0.00000  -0.05574  -0.05574  -5.87016
   X24       -5.54457  -0.00015   0.00000  -0.01302  -0.01302  -5.55759
   Y24       -1.51252  -0.00018   0.00000  -0.03485  -0.03485  -1.54738
   Z24       -1.72086   0.00018   0.00000   0.04102   0.04102  -1.67985
   X25       -1.90965   0.00028   0.00000  -0.00070  -0.00070  -1.91034
   Y25        1.21323  -0.00001   0.00000  -0.00208  -0.00208   1.21115
   Z25       -3.53628  -0.00031   0.00000   0.00141   0.00141  -3.53487
   X26        0.25791  -0.00002   0.00000  -0.00754  -0.00754   0.25037
   Y26        1.07004  -0.00005   0.00000  -0.00269  -0.00269   1.06735
   Z26       -2.08113   0.00036   0.00000   0.01173   0.01173  -2.06940
   X27        1.09173  -0.00006   0.00000  -0.01803  -0.01803   1.07370
   Y27        2.75768  -0.00001   0.00000  -0.00542  -0.00542   2.75226
   Z27       -1.27921   0.00007   0.00000   0.02839   0.02839  -1.25082
   X28       -2.90502  -0.00002   0.00000  -0.02351  -0.02351  -2.92852
   Y28        3.80653  -0.00009   0.00000  -0.00379  -0.00379   3.80274
   Z28       -4.08688   0.00007   0.00000   0.03651   0.03651  -4.05037
   X29       -1.56611   0.00008   0.00000  -0.03317  -0.03317  -1.59928
   Y29        5.64275  -0.00012   0.00000   0.00239   0.00239   5.64514
   Z29       -3.87208  -0.00023   0.00000   0.04106   0.04106  -3.83103
   X30       -5.31799  -0.00021   0.00000  -0.02826  -0.02826  -5.34625
   Y30        3.89038  -0.00024   0.00000  -0.00861  -0.00861   3.88177
   Z30       -5.01156   0.00070   0.00000   0.05027   0.05027  -4.96129
   X31       -6.03149  -0.00001   0.00000  -0.02976  -0.02976  -6.06124
   Y31        5.65295  -0.00001   0.00000  -0.00965  -0.00965   5.64330
   Z31       -5.15821   0.00008   0.00000   0.04718   0.04718  -5.11103
   X32       -6.54168  -0.00004   0.00000  -0.02224  -0.02224  -6.56392
   Y32        2.57208  -0.00004   0.00000  -0.01543  -0.01543   2.55666
   Z32       -4.37735   0.00014   0.00000   0.04493   0.04493  -4.33242
   X33        4.91695  -0.00005   0.00000  -0.02541  -0.02541   4.89154
   Y33       -7.55332   0.00000   0.00000  -0.01348  -0.01348  -7.56679
   Z33       -0.36388   0.00003   0.00000   0.02564   0.02564  -0.33824
   X34        0.37058  -0.00033   0.00000  -0.01065  -0.01065   0.35993
   Y34        4.15393  -0.00008   0.00000   0.00424   0.00424   4.15817
   Z34        5.38246   0.00001   0.00000   0.00170   0.00170   5.38416
   X35       -3.14145   0.00007   0.00000   0.02404   0.02404  -3.11741
   Y35        1.68732  -0.00018   0.00000  -0.00733  -0.00733   1.67999
   Z35        2.31288  -0.00037   0.00000  -0.02265  -0.02265   2.29024
   X36       -5.31903  -0.00029   0.00000   0.00455   0.00455  -5.31449
   Y36        1.59567  -0.00038   0.00000  -0.01614  -0.01614   1.57953
   Z36        0.90064   0.00039   0.00000   0.00881   0.00881   0.90945
   X37       -9.27484  -0.00138   0.00000  -0.00801  -0.00801  -9.28285
   Y37       -0.66578   0.00121   0.00000   0.01672   0.01672  -0.64906
   Z37       -0.54239   0.00224   0.00000   0.01372   0.01372  -0.52868
   X38       -6.45247  -0.00112   0.00000  -0.01462  -0.01462  -6.46709
   Y38       -0.82035  -0.00051   0.00000  -0.01584  -0.01584  -0.83619
   Z38        0.02209   0.00129   0.00000   0.03552   0.03552   0.05761
   X39       -1.70286   0.00073   0.00000   0.04342   0.04342  -1.65944
   Y39       -0.15552  -0.00011   0.00000   0.00090   0.00090  -0.15462
   Z39        2.83468  -0.00129   0.00000  -0.04632  -0.04632   2.78836
   X40       -2.28805   0.00037   0.00000   0.02622   0.02622  -2.26183
   Y40        4.83084  -0.00018   0.00000   0.00012   0.00012   4.83096
   Z40        3.37388  -0.00129   0.00000  -0.04692  -0.04692   3.32696
   X41        0.81404  -0.00004   0.00000  -0.02583  -0.02583   0.78821
   Y41        5.91086  -0.00002   0.00000   0.00664   0.00664   5.91750
   Z41        6.35587  -0.00001   0.00000   0.00370   0.00370   6.35957
   X42        2.01467  -0.00001   0.00000   0.00682   0.00682   2.02150
   Y42        3.54605  -0.00000   0.00000   0.00050   0.00050   3.54654
   Z42        4.30975   0.00003   0.00000   0.03016   0.03016   4.33991
   X43      -10.36720   0.00012   0.00000  -0.02190  -0.02190 -10.38910
   Y43       -0.33751   0.00038   0.00000   0.06343   0.06343  -0.27408
   Z43        1.17410  -0.00001   0.00000  -0.00805  -0.00805   1.16605
   X44       -9.69635  -0.00001   0.00000   0.03486   0.03486  -9.66149
   Y44        0.89755  -0.00017   0.00000  -0.00499  -0.00499   0.89256
   Z44       -1.82968   0.00008   0.00000  -0.02750  -0.02750  -1.85718
   X45       -9.95883  -0.00026   0.00000  -0.01616  -0.01616  -9.97499
   Y45       -2.40145   0.00012   0.00000   0.01137   0.01137  -2.39008
   Z45       -1.42105   0.00051   0.00000   0.02941   0.02941  -1.39164
   X46       -6.06052  -0.00018   0.00000  -0.02838  -0.02838  -6.08890
   Y46       -2.31763  -0.00009   0.00000  -0.01140  -0.01140  -2.32903
   Z46        1.39329   0.00032   0.00000   0.04324   0.04324   1.43653
   X47       -6.37430  -0.00005   0.00000   0.01230   0.01230  -6.36200
   Y47        3.33415  -0.00005   0.00000  -0.01372  -0.01372   3.32043
   Z47        0.64785   0.00010   0.00000  -0.00460  -0.00460   0.64325
   X48       -0.11337  -0.00004   0.00000  -0.03515  -0.03515  -0.14853
   Y48        2.71265  -0.00001   0.00000   0.00703   0.00703   2.71968
   Z48        6.76671  -0.00003   0.00000  -0.00431  -0.00431   6.76240
         Item               Value     Threshold  Converged?
 Maximum Force            0.002236     0.000450     NO 
 RMS     Force            0.000460     0.000300     NO 
 Maximum Displacement     0.089158     0.001800     NO 
 RMS     Displacement     0.025005     0.001200     NO 
 Predicted change in Energy=-7.241329D-04
 GradGradGradGradGradGradGradGradGradGradGradGradGradGradGradGradGradGrad

 Leave Link  103 at Sat Aug 13 20:48:16 2022, MaxMem=  2684354560 cpu:               1.0 elap:               0.1
 (Enter /storage/apps/GAUSSIAN/G16_RevA03/g16/l9999.exe)

 Test job not archived.
 1\1\GINC-T001\Force\RM062X\def2TZVP\C16H24N2O5S1\LV87696\13-Aug-2022\0
 \\#P M062X/Def2TZVP scf=(direct,conver=8) EmpiricalDispersion=GD3 Forc
 e Charge Prop=(Field,Read)\\Gaussian run\\0,1\C,3.595919,-3.616175,-0.
 439073\H,3.747788,-3.70842,-1.513826\H,4.331748,-4.23837,0.070818\C,1.
 854842,-1.43675,1.247145\H,1.206019,-2.309158,1.090201\O,1.455026,-0.6
 75431,2.326375\H,0.515576,-0.363003,2.156406\C,3.309695,-1.884029,1.41
 5236\H,3.392768,-2.768411,2.054258\O,4.070436,-0.814745,1.918828\H,3.5
 21679,-0.373938,2.583176\C,1.974911,-0.658674,-0.073789\H,2.258231,0.3
 77575,0.125807\C,3.749837,-2.170841,-0.015295\H,4.778001,-1.833396,-0.
 148662\O,2.913251,-1.335345,-0.848343\N,0.724585,-0.602035,-0.862445\C
 ,0.224978,-1.760268,-1.355644\H,0.789883,-2.651129,-1.131809\C,-0.8980
 71,-1.747454,-2.131426\H,-1.279218,-2.676724,-2.528355\C,-1.526317,-0.
 533843,-2.408181\H,-2.376265,-0.503658,-3.076861\H,-2.934062,-0.800393
 ,-0.910642\C,-1.010541,0.642015,-1.871319\C,0.136478,0.566241,-1.10128
 9\H,0.577716,1.459301,-0.676928\C,-1.537268,2.014329,-2.162685\O,-0.82
 875,2.986016,-2.049019\N,-2.814159,2.0587,-2.652005\H,-3.191726,2.9914
 12,-2.729606\H,-3.461708,1.361088,-2.316394\H,2.601937,-3.997044,-0.19
 2557\C,0.196101,2.198163,2.848275\C,-1.662386,0.892892,1.223926\C,-2.8
 14711,0.844393,0.4766\C,-4.908033,-0.352315,-0.287021\C,-3.414501,-0.4
 3411,0.011692\O,-0.901116,-0.082299,1.500046\S,-1.210786,2.55637,1.785
 381\H,0.43077,3.127891,3.36338\H,1.06612,1.876488,2.280623\H,-5.486085
 ,-0.1786,0.621309\H,-5.131088,0.474965,-0.968226\H,-5.269988,-1.270793
 ,-0.751989\H,-3.207091,-1.226435,0.737297\H,-3.373133,1.764355,0.34282
 8\H,-0.059995,1.435472,3.580787\\Version=ES64L-G16RevA.03\State=1-A\HF
 =-1507.904218\RMSD=3.486e-09\RMSF=4.598e-04\Dipole=-0.0047106,-2.28753
 49,-1.7601541\Quadrupole=1.4771412,1.2802132,-2.7573545,-4.0434901,9.4
 727137,4.7978357\PG=C01 [X(C16H24N2O5S1)]\\@


  THE LARGE PRINT GIVETH,
  AND THE SMALL PRINT TAKETH AWAY.

                     -- TOM WAITS
 Job cpu time:       0 days  3 hours 27 minutes 40.0 seconds.
 Elapsed time:       0 days  0 hours 13 minutes  0.3 seconds.
 File lengths (MBytes):  RWF=    435 Int=      0 D2E=      0 Chk=     48 Scr=      1
 Normal termination of Gaussian 16 at Sat Aug 13 20:48:16 2022.
