 Entering Gaussian System, Link 0=g16
 Initial command:
 /storage/apps/GAUSSIAN/G16_RevA03/g16/l1.exe "/scratch/tmp/1019258/Gau-187319.inp" -scrdir="/scratch/tmp/1019258/"
 Entering Link 1 = /storage/apps/GAUSSIAN/G16_RevA03/g16/l1.exe PID=    187320.
  
 Copyright (c) 1988,1990,1992,1993,1995,1998,2003,2009,2016,
            Gaussian, Inc.  All Rights Reserved.
  
 This is part of the Gaussian(R) 16 program.  It is based on
 the Gaussian(R) 09 system (copyright 2009, Gaussian, Inc.),
 the Gaussian(R) 03 system (copyright 2003, Gaussian, Inc.),
 the Gaussian(R) 98 system (copyright 1998, Gaussian, Inc.),
 the Gaussian(R) 94 system (copyright 1995, Gaussian, Inc.),
 the Gaussian 92(TM) system (copyright 1992, Gaussian, Inc.),
 the Gaussian 90(TM) system (copyright 1990, Gaussian, Inc.),
 the Gaussian 88(TM) system (copyright 1988, Gaussian, Inc.),
 the Gaussian 86(TM) system (copyright 1986, Carnegie Mellon
 University), and the Gaussian 82(TM) system (copyright 1983,
 Carnegie Mellon University). Gaussian is a federally registered
 trademark of Gaussian, Inc.
  
 This software contains proprietary and confidential information,
 including trade secrets, belonging to Gaussian, Inc.
  
 This software is provided under written license and may be
 used, copied, transmitted, or stored only in accord with that
 written license.
  
 The following legend is applicable only to US Government
 contracts under FAR:
  
                    RESTRICTED RIGHTS LEGEND
  
 Use, reproduction and disclosure by the US Government is
 subject to restrictions as set forth in subparagraphs (a)
 and (c) of the Commercial Computer Software - Restricted
 Rights clause in FAR 52.227-19.
  
 Gaussian, Inc.
 340 Quinnipiac St., Bldg. 40, Wallingford CT 06492
  
  
 ---------------------------------------------------------------
 Warning -- This program may not be used in any manner that
 competes with the business of Gaussian, Inc. or will provide
 assistance to any competitor of Gaussian, Inc.  The licensee
 of this program is prohibited from giving any competitor of
 Gaussian, Inc. access to this program.  By using this program,
 the user acknowledges that Gaussian, Inc. is engaged in the
 business of creating and licensing software in the field of
 computational chemistry and represents and warrants to the
 licensee that it is not a competitor of Gaussian, Inc. and that
 it will not use this program in any manner prohibited above.
 ---------------------------------------------------------------
  

 Cite this work as:
 Gaussian 16, Revision A.03,
 M. J. Frisch, G. W. Trucks, H. B. Schlegel, G. E. Scuseria, 
 M. A. Robb, J. R. Cheeseman, G. Scalmani, V. Barone, 
 G. A. Petersson, H. Nakatsuji, X. Li, M. Caricato, A. V. Marenich, 
 J. Bloino, B. G. Janesko, R. Gomperts, B. Mennucci, H. P. Hratchian, 
 J. V. Ortiz, A. F. Izmaylov, J. L. Sonnenberg, D. Williams-Young, 
 F. Ding, F. Lipparini, F. Egidi, J. Goings, B. Peng, A. Petrone, 
 T. Henderson, D. Ranasinghe, V. G. Zakrzewski, J. Gao, N. Rega, 
 G. Zheng, W. Liang, M. Hada, M. Ehara, K. Toyota, R. Fukuda, 
 J. Hasegawa, M. Ishida, T. Nakajima, Y. Honda, O. Kitao, H. Nakai, 
 T. Vreven, K. Throssell, J. A. Montgomery, Jr., J. E. Peralta, 
 F. Ogliaro, M. J. Bearpark, J. J. Heyd, E. N. Brothers, K. N. Kudin, 
 V. N. Staroverov, T. A. Keith, R. Kobayashi, J. Normand, 
 K. Raghavachari, A. P. Rendell, J. C. Burant, S. S. Iyengar, 
 J. Tomasi, M. Cossi, J. M. Millam, M. Klene, C. Adamo, R. Cammi, 
 J. W. Ochterski, R. L. Martin, K. Morokuma, O. Farkas, 
 J. B. Foresman, and D. J. Fox, Gaussian, Inc., Wallingford CT, 2016.
 
 ******************************************
 Gaussian 16:  ES64L-G16RevA.03 25-Dec-2016
                13-Aug-2022 
 ******************************************
 %NProcShared=16
 Will use up to   16 processors via shared memory.
 %mem=20GB
 ----------------------------------------------------------------------
 #P M062X/Def2TZVP scf=(direct,conver=8) EmpiricalDispersion=GD3 Force 
 Charge Prop=(Field,Read)
 ----------------------------------------------------------------------
 1/10=7,18=10,28=-2,30=1,38=1,125=101/1,3;
 2/12=2,17=6,18=5,29=2,40=1/2;
 3/5=44,7=101,11=2,25=1,30=1,71=1,74=-55,124=31/1,2,3;
 4//1;
 5/5=2,6=8,38=5/2;
 6/7=2,8=2,9=2,10=2,14=2,15=1,28=1/1,2;
 7/7=1,16=-2,29=1/1,2,3,16;
 1/10=7,18=10,28=-2,30=1/3;
 99/12=1/99;
 Leave Link    1 at Sat Aug 13 20:22:12 2022, MaxMem=  2684354560 cpu:               0.6 elap:               0.0
 (Enter /storage/apps/GAUSSIAN/G16_RevA03/g16/l101.exe)
 ------------
 Gaussian run
 ------------
 Symbolic Z-matrix:
 Charge =  0 Multiplicity = 1
 C                     3.67214  -3.62877  -0.44049 
 H                     3.84018  -3.73153  -1.51171 
 H                     4.39801  -4.24656   0.08953 
 C                     1.91437  -1.47087   1.20245 
 H                     1.28039  -2.3537    1.0625 
 O                     1.49069  -0.70728   2.29305 
 H                     0.55159  -0.47159   2.17746 
 C                     3.36605  -1.89236   1.39628 
 H                     3.46254  -2.7744    2.03703 
 O                     4.11255  -0.81276   1.90797 
 H                     3.56594  -0.38778   2.58168 
 C                     2.0019   -0.689    -0.11748 
 H                     2.30419   0.34042   0.10057 
 C                     3.81436  -2.17503  -0.03451 
 H                     4.84565  -1.83908  -0.15569 
 O                     2.98118  -1.36255  -0.87546 
 N                     0.77642  -0.62039  -0.87036 
 C                     0.18973  -1.79536  -1.33944 
 H                     0.73267  -2.69984  -1.10551 
 C                    -0.92786  -1.80778  -2.05767 
 H                    -1.30984  -2.76135  -2.39608 
 C                    -1.66869  -0.55688  -2.43903 
 H                    -1.7781   -0.51482  -3.53183 
 H                    -2.6915   -0.5871   -2.03909 
 C                    -0.93867   0.66069  -1.92666 
 C                     0.19568   0.5654   -1.21128 
 H                     0.68331   1.46833  -0.86233 
 C                    -1.46308   2.02048  -2.16099 
 O                    -0.90178   3.04196  -1.80527 
 N                    -2.69092   2.0731   -2.77534 
 H                    -2.99677   2.98609  -3.06924 
 H                    -3.06111   1.27643  -3.26247 
 H                     2.67139  -4.00295  -0.21263 
 C                     0.23036   2.2239    2.71791 
 C                    -1.72926   0.92477   1.34226 
 C                    -2.98933   0.88066   0.57321 
 C                    -4.90874  -0.41006  -0.36865 
 C                    -3.61513  -0.27251   0.35975 
 O                    -1.1144   -0.06532   1.69131 
 S                    -1.23663   2.56055   1.73678 
 H                     0.53727   3.17336   3.14983 
 H                     1.02883   1.82811   2.09492 
 H                    -5.69143  -0.75528   0.31129 
 H                    -5.22126   0.53617  -0.80861 
 H                    -4.8309   -1.16055  -1.15833 
 H                    -3.1538   -1.17558   0.75064 
 H                    -3.38301   1.82353   0.20856 
 H                    -0.00243   1.51432   3.50887 
 
 ITRead=  0  0  0  0  0  0  0  0  0  0  0  0  0  0  0  0  0  0  0  0
 ITRead=  0  0  0  0  0  0  0  0  0  0  0  0  0  0  0  0  0  0  0  0
 ITRead=  0  0  0  0  0  0  0  0
 MicOpt= -1 -1 -1 -1 -1 -1 -1 -1 -1 -1 -1 -1 -1 -1 -1 -1 -1 -1 -1 -1
 MicOpt= -1 -1 -1 -1 -1 -1 -1 -1 -1 -1 -1 -1 -1 -1 -1 -1 -1 -1 -1 -1
 MicOpt= -1 -1 -1 -1 -1 -1 -1 -1
 NAtoms=     48 NQM=       48 NQMF=       0 NMMI=      0 NMMIF=      0
                NMic=       0 NMicF=      0.
                    Isotopes and Nuclear Properties:
 (Nuclear quadrupole moments (NQMom) in fm**2, nuclear magnetic moments (NMagM)
  in nuclear magnetons)

  Atom         1           2           3           4           5           6           7           8           9          10
 IAtWgt=          12           1           1          12           1          16           1          12           1          16
 AtmWgt=  12.0000000   1.0078250   1.0078250  12.0000000   1.0078250  15.9949146   1.0078250  12.0000000   1.0078250  15.9949146
 NucSpn=           0           1           1           0           1           0           1           0           1           0
 AtZEff=  -0.0000000  -0.0000000  -0.0000000  -0.0000000  -0.0000000  -0.0000000  -0.0000000  -0.0000000  -0.0000000  -0.0000000
 NQMom=    0.0000000   0.0000000   0.0000000   0.0000000   0.0000000   0.0000000   0.0000000   0.0000000   0.0000000   0.0000000
 NMagM=    0.0000000   2.7928460   2.7928460   0.0000000   2.7928460   0.0000000   2.7928460   0.0000000   2.7928460   0.0000000
 AtZNuc=   6.0000000   1.0000000   1.0000000   6.0000000   1.0000000   8.0000000   1.0000000   6.0000000   1.0000000   8.0000000

  Atom        11          12          13          14          15          16          17          18          19          20
 IAtWgt=           1          12           1          12           1          16          14          12           1          12
 AtmWgt=   1.0078250  12.0000000   1.0078250  12.0000000   1.0078250  15.9949146  14.0030740  12.0000000   1.0078250  12.0000000
 NucSpn=           1           0           1           0           1           0           2           0           1           0
 AtZEff=  -0.0000000  -0.0000000  -0.0000000  -0.0000000  -0.0000000  -0.0000000  -0.0000000  -0.0000000  -0.0000000  -0.0000000
 NQMom=    0.0000000   0.0000000   0.0000000   0.0000000   0.0000000   0.0000000   2.0440000   0.0000000   0.0000000   0.0000000
 NMagM=    2.7928460   0.0000000   2.7928460   0.0000000   2.7928460   0.0000000   0.4037610   0.0000000   2.7928460   0.0000000
 AtZNuc=   1.0000000   6.0000000   1.0000000   6.0000000   1.0000000   8.0000000   7.0000000   6.0000000   1.0000000   6.0000000

  Atom        21          22          23          24          25          26          27          28          29          30
 IAtWgt=           1          12           1           1          12          12           1          12          16          14
 AtmWgt=   1.0078250  12.0000000   1.0078250   1.0078250  12.0000000  12.0000000   1.0078250  12.0000000  15.9949146  14.0030740
 NucSpn=           1           0           1           1           0           0           1           0           0           2
 AtZEff=  -0.0000000  -0.0000000  -0.0000000  -0.0000000  -0.0000000  -0.0000000  -0.0000000  -0.0000000  -0.0000000  -0.0000000
 NQMom=    0.0000000   0.0000000   0.0000000   0.0000000   0.0000000   0.0000000   0.0000000   0.0000000   0.0000000   2.0440000
 NMagM=    2.7928460   0.0000000   2.7928460   2.7928460   0.0000000   0.0000000   2.7928460   0.0000000   0.0000000   0.4037610
 AtZNuc=   1.0000000   6.0000000   1.0000000   1.0000000   6.0000000   6.0000000   1.0000000   6.0000000   8.0000000   7.0000000

  Atom        31          32          33          34          35          36          37          38          39          40
 IAtWgt=           1           1           1          12          12          12          12          12          16          32
 AtmWgt=   1.0078250   1.0078250   1.0078250  12.0000000  12.0000000  12.0000000  12.0000000  12.0000000  15.9949146  31.9720718
 NucSpn=           1           1           1           0           0           0           0           0           0           0
 AtZEff=  -0.0000000  -0.0000000  -0.0000000  -0.0000000  -0.0000000  -0.0000000  -0.0000000  -0.0000000  -0.0000000  -0.0000000
 NQMom=    0.0000000   0.0000000   0.0000000   0.0000000   0.0000000   0.0000000   0.0000000   0.0000000   0.0000000   0.0000000
 NMagM=    2.7928460   2.7928460   2.7928460   0.0000000   0.0000000   0.0000000   0.0000000   0.0000000   0.0000000   0.0000000
 AtZNuc=   1.0000000   1.0000000   1.0000000   6.0000000   6.0000000   6.0000000   6.0000000   6.0000000   8.0000000  16.0000000

  Atom        41          42          43          44          45          46          47          48
 IAtWgt=           1           1           1           1           1           1           1           1
 AtmWgt=   1.0078250   1.0078250   1.0078250   1.0078250   1.0078250   1.0078250   1.0078250   1.0078250
 NucSpn=           1           1           1           1           1           1           1           1
 AtZEff=  -0.0000000  -0.0000000  -0.0000000  -0.0000000  -0.0000000  -0.0000000  -0.0000000  -0.0000000
 NQMom=    0.0000000   0.0000000   0.0000000   0.0000000   0.0000000   0.0000000   0.0000000   0.0000000
 NMagM=    2.7928460   2.7928460   2.7928460   2.7928460   2.7928460   2.7928460   2.7928460   2.7928460
 AtZNuc=   1.0000000   1.0000000   1.0000000   1.0000000   1.0000000   1.0000000   1.0000000   1.0000000
 Background charge distribution read from input stream:
 Leave Link  101 at Sat Aug 13 20:22:12 2022, MaxMem=  2684354560 cpu:               1.4 elap:               0.1
 (Enter /storage/apps/GAUSSIAN/G16_RevA03/g16/l103.exe)

 GradGradGradGradGradGradGradGradGradGradGradGradGradGradGradGradGradGrad
 Berny optimization.
 Initialization pass.
 Trust Radius=3.00D-01 FncErr=1.00D-07 GrdErr=1.00D-07 EigMax=2.50D+02 EigMin=1.00D-04
 Number of steps in this run=      2 maximum allowed number of steps=      2.
 GradGradGradGradGradGradGradGradGradGradGradGradGradGradGradGradGradGrad

 Leave Link  103 at Sat Aug 13 20:22:12 2022, MaxMem=  2684354560 cpu:               0.3 elap:               0.0
 (Enter /storage/apps/GAUSSIAN/G16_RevA03/g16/l202.exe)
 ---------------------------------------------------------------------------------------------------
                            Z-MATRIX (ANGSTROMS AND DEGREES)
   CD    Cent   Atom    N1       Length/X        N2       Alpha/Y        N3        Beta/Z          J
 ---------------------------------------------------------------------------------------------------
      1      1  C        0   3.672144         -3.628771         -0.440493
      2      2  H        0   3.840181         -3.731533         -1.511707
      3      3  H        0   4.398007         -4.246557          0.089530
      4      4  C        0   1.914367         -1.470869          1.202453
      5      5  H        0   1.280394         -2.353704          1.062503
      6      6  O        0   1.490687         -0.707281          2.293051
      7      7  H        0   0.551593         -0.471589          2.177456
      8      8  C        0   3.366051         -1.892360          1.396279
      9      9  H        0   3.462536         -2.774396          2.037035
     10     10  O        0   4.112547         -0.812762          1.907972
     11     11  H        0   3.565938         -0.387775          2.581677
     12     12  C        0   2.001897         -0.689001         -0.117478
     13     13  H        0   2.304189          0.340419          0.100567
     14     14  C        0   3.814358         -2.175027         -0.034507
     15     15  H        0   4.845654         -1.839078         -0.155685
     16     16  O        0   2.981184         -1.362553         -0.875463
     17     17  N        0   0.776421         -0.620392         -0.870364
     18     18  C        0   0.189728         -1.795355         -1.339442
     19     19  H        0   0.732670         -2.699842         -1.105512
     20     20  C        0  -0.927860         -1.807777         -2.057666
     21     21  H        0  -1.309841         -2.761353         -2.396078
     22     22  C        0  -1.668693         -0.556881         -2.439031
     23     23  H        0  -1.778103         -0.514817         -3.531829
     24     24  H        0  -2.691498         -0.587102         -2.039087
     25     25  C        0  -0.938672          0.660691         -1.926655
     26     26  C        0   0.195680          0.565400         -1.211275
     27     27  H        0   0.683312          1.468331         -0.862328
     28     28  C        0  -1.463075          2.020476         -2.160986
     29     29  O        0  -0.901776          3.041964         -1.805266
     30     30  N        0  -2.690921          2.073096         -2.775342
     31     31  H        0  -2.996773          2.986094         -3.069240
     32     32  H        0  -3.061112          1.276433         -3.262467
     33     33  H        0   2.671387         -4.002947         -0.212628
     34     34  C        0   0.230358          2.223896          2.717908
     35     35  C        0  -1.729263          0.924771          1.342262
     36     36  C        0  -2.989327          0.880663          0.573214
     37     37  C        0  -4.908740         -0.410058         -0.368647
     38     38  C        0  -3.615132         -0.272511          0.359754
     39     39  O        0  -1.114400         -0.065317          1.691309
     40     40  S        0  -1.236627          2.560545          1.736780
     41     41  H        0   0.537269          3.173362          3.149835
     42     42  H        0   1.028831          1.828114          2.094921
     43     43  H        0  -5.691430         -0.755278          0.311291
     44     44  H        0  -5.221256          0.536171         -0.808614
     45     45  H        0  -4.830903         -1.160550         -1.158328
     46     46  H        0  -3.153798         -1.175583          0.750635
     47     47  H        0  -3.383009          1.823532          0.208564
     48     48  H        0  -0.002431          1.514315          3.508866
 ---------------------------------------------------------------------------------------------------
                         Z-Matrix orientation:                         
 ---------------------------------------------------------------------
 Center     Atomic      Atomic             Coordinates (Angstroms)
 Number     Number       Type             X           Y           Z
 ---------------------------------------------------------------------
      1          6           0        3.672144   -3.628771   -0.440493
      2          1           0        3.840181   -3.731533   -1.511707
      3          1           0        4.398007   -4.246557    0.089530
      4          6           0        1.914367   -1.470869    1.202453
      5          1           0        1.280394   -2.353704    1.062503
      6          8           0        1.490687   -0.707281    2.293051
      7          1           0        0.551593   -0.471589    2.177456
      8          6           0        3.366051   -1.892360    1.396279
      9          1           0        3.462536   -2.774396    2.037035
     10          8           0        4.112547   -0.812762    1.907972
     11          1           0        3.565938   -0.387775    2.581677
     12          6           0        2.001897   -0.689001   -0.117478
     13          1           0        2.304189    0.340419    0.100567
     14          6           0        3.814358   -2.175027   -0.034507
     15          1           0        4.845654   -1.839078   -0.155685
     16          8           0        2.981184   -1.362553   -0.875463
     17          7           0        0.776421   -0.620392   -0.870364
     18          6           0        0.189728   -1.795355   -1.339442
     19          1           0        0.732670   -2.699842   -1.105512
     20          6           0       -0.927860   -1.807777   -2.057666
     21          1           0       -1.309841   -2.761353   -2.396078
     22          6           0       -1.668693   -0.556881   -2.439031
     23          1           0       -1.778103   -0.514817   -3.531829
     24          1           0       -2.691498   -0.587102   -2.039087
     25          6           0       -0.938672    0.660691   -1.926655
     26          6           0        0.195680    0.565400   -1.211275
     27          1           0        0.683312    1.468331   -0.862328
     28          6           0       -1.463075    2.020476   -2.160986
     29          8           0       -0.901776    3.041964   -1.805266
     30          7           0       -2.690921    2.073096   -2.775342
     31          1           0       -2.996773    2.986094   -3.069240
     32          1           0       -3.061112    1.276433   -3.262467
     33          1           0        2.671387   -4.002947   -0.212628
     34          6           0        0.230358    2.223896    2.717908
     35          6           0       -1.729263    0.924771    1.342262
     36          6           0       -2.989327    0.880663    0.573214
     37          6           0       -4.908740   -0.410058   -0.368647
     38          6           0       -3.615132   -0.272511    0.359754
     39          8           0       -1.114400   -0.065317    1.691309
     40         16           0       -1.236627    2.560545    1.736780
     41          1           0        0.537269    3.173362    3.149835
     42          1           0        1.028831    1.828114    2.094921
     43          1           0       -5.691430   -0.755278    0.311291
     44          1           0       -5.221256    0.536171   -0.808614
     45          1           0       -4.830903   -1.160550   -1.158328
     46          1           0       -3.153798   -1.175583    0.750635
     47          1           0       -3.383009    1.823532    0.208564
     48          1           0       -0.002431    1.514315    3.508866
 ---------------------------------------------------------------------
                    Distance matrix (angstroms):
                    1          2          3          4          5
     1  C    0.000000
     2  H    1.089172   0.000000
     3  H    1.090624   1.772112   0.000000
     4  C    3.231964   4.023186   3.887352   0.000000
     5  H    3.099236   3.882973   3.774795   1.095858   0.000000
     6  O    4.556986   5.398371   5.082764   1.397131   2.066199
     7  H    5.153571   5.920470   5.779682   1.950985   2.305781
     8  C    2.546085   3.473289   2.883534   1.524011   2.161992
     9  H    2.629075   3.694901   2.614410   2.189186   2.426610
    10  O    3.693122   4.504177   3.896045   2.400595   3.333228
    11  H    4.432702   5.292610   4.668333   2.408950   3.375867
    12  C    3.396515   3.818398   4.294229   1.536619   2.164292
    13  H    4.233027   4.641066   5.042276   2.155662   3.038384
    14  C    1.516054   2.146042   2.155752   2.374000   2.767007
    15  H    2.158991   2.535973   2.460990   3.251547   3.802618
    16  O    2.408811   2.598990   3.355008   2.338283   2.762386
    17  N    4.197659   4.413292   5.214054   2.512927   2.644680
    18  C    4.036923   4.135731   5.075428   3.088835   2.696413
    19  H    3.153675   3.299395   4.153932   2.869405   2.262764
    20  C    5.204931   5.170408   6.238827   4.338218   3.861331
    21  H    5.421891   5.314705   6.400282   5.001029   4.340193
    22  C    6.477284   6.425421   7.537385   5.189807   4.917970
    23  H    6.997018   6.781834   8.073689   6.079621   5.817542
    24  H    7.232095   7.268315   8.257342   5.701107   5.340100
    25  C    6.470532   6.503941   7.525040   4.740749   4.790188
    26  C    5.501907   5.642365   6.519707   3.595325   3.855884
    27  H    5.923809   6.117688   6.882219   3.797066   4.320814
    28  C    7.825890   7.850586   8.870897   5.908411   6.086949
    29  O    8.202564   8.273608   9.208718   6.110867   6.488389
    30  N    8.857280   8.828691   9.919597   7.042103   7.077920
    31  H    9.754035   9.710631  10.815352   7.888674   7.992428
    32  H    8.795527   8.704753   9.868017   7.227625   7.122635
    33  H    1.092449   1.768432   1.769707   2.997825   2.506157
    34  C    7.488331   8.147859   8.132923   4.334026   4.979695
    35  C    7.286162   7.800321   8.115135   4.362875   4.459226
    36  C    8.107885   8.500672   9.005278   5.474656   5.378759
    37  C    9.164979   9.427746  10.076914   7.081558   6.643142
    38  C    8.062833   8.429050   8.948545   5.720276   5.365761
    39  O    6.336702   6.946101   7.101767   3.374609   3.371520
    40  S    8.194155   8.713030   8.988836   5.144567   5.562363
    41  H    8.305836   8.961963   8.906512   5.220879   5.954633
    42  H    6.572140   7.198689   7.230115   3.530434   4.314716
    43  H    9.823373  10.150518  10.678715   7.691189   7.192052
    44  H    9.827249  10.040781  10.780138   7.680476   7.356895
    45  H    8.883086   9.051106   9.810880   7.153199   6.610874
    46  H    7.350537   7.782468   8.179101   5.096825   4.598618
    47  H    8.940026   9.273217   9.869365   6.316889   6.318690
    48  H    7.453273   8.215275   8.015196   4.231428   4.753094
                    6          7          8          9         10
     6  O    0.000000
     7  H    0.975095   0.000000
     8  C    2.392823   3.248077   0.000000
     9  H    2.868222   3.714327   1.094470   0.000000
    10  O    2.652086   3.587397   1.408765   2.070551   0.000000
    11  H    2.119447   3.042482   1.925850   2.450161   0.966061
    12  C    2.464208   2.723485   2.366527   3.335306   2.927902
    13  H    2.562508   2.836268   2.791366   3.846264   2.804763
    14  C    3.601562   4.294196   1.525788   2.185019   2.391215
    15  H    4.305006   5.074695   2.144914   2.756058   2.418564
    16  O    3.562365   4.002130   2.364240   3.272254   3.054466
    17  N    3.244213   3.059722   3.669027   4.506431   4.345790
    18  C    4.008916   3.775165   4.193162   4.803165   5.186492
    19  H    4.011872   3.971874   3.720978   4.163331   4.905683
    20  C    5.097960   4.680859   5.511312   6.080831   6.490150
    21  H    5.835246   5.442901   6.082852   6.513697   7.191950
    22  C    5.691828   5.123368   6.468520   7.161149   7.237724
    23  H    6.682160   6.166465   7.255770   7.973847   8.023713
    24  H    6.022668   5.320735   7.085149   7.698777   7.869258
    25  C    5.057574   4.510729   6.007545   6.846992   6.510779
    26  C    3.946779   3.561673   4.784472   5.690176   5.193350
    27  H    3.916830   3.608452   4.857225   5.842185   4.963628
    28  C    6.000318   5.393640   7.161346   8.054553   7.461315
    29  O    6.047886   5.506306   7.267172   8.224387   7.334200
    30  N    7.134770   6.443565   8.355488   9.193595   8.749216
    31  H    7.907748   7.216252   9.177456  10.048879   9.473456
    32  H    7.451025   6.760176   8.547139   9.330162   9.086229
    33  H    4.305101   4.761987   2.743304   2.682580   4.092819
    34  C    3.218809   2.767837   5.340678   5.991117   4.994865
    35  C    3.733051   2.801727   5.822488   6.412591   6.120931
    36  C    5.054694   4.115859   6.982687   7.558357   7.421986
    37  C    6.937265   6.025086   8.589782   9.025279   9.312829
    38  C    5.476865   4.550304   7.241216   7.691949   7.899739
    39  O    2.749671   1.782394   4.847636   5.329820   5.284562
    40  S    4.292594   3.547642   6.413186   7.115749   6.326308
    41  H    4.086866   3.772452   6.061230   6.720962   5.496728
    42  H    2.584723   2.350149   4.448890   5.206666   4.064293
    43  H    7.450670   6.522146   9.192830   9.531533   9.933311
    44  H    7.497778   6.577080   9.192451   9.719353   9.814242
    45  H    7.216645   6.369724   8.616938   9.033049   9.460891
    46  H    4.916258   4.032536   6.590831   6.927258   7.366874
    47  H    5.873927   4.962379   7.795404   8.446640   8.125355
    48  H    2.939914   2.454264   5.235946   5.706604   4.991111
                   11         12         13         14         15
    11  H    0.000000
    12  C    3.134071   0.000000
    13  H    2.877183   1.094819   0.000000
    14  C    3.178113   2.345245   2.937060   0.000000
    15  H    3.352179   3.067750   3.357814   1.091383   0.000000
    16  O    3.639223   1.409687   2.076312   1.435792   2.054606
    17  N    4.444334   1.439908   2.049375   3.513489   4.307507
    18  C    5.362392   2.449729   3.332582   3.871040   4.804252
    19  H    5.193113   2.575001   3.628703   3.304434   4.308100
    20  C    6.613178   3.687745   4.440592   5.168818   6.078814
    21  H    7.361056   4.522640   5.377308   5.672584   6.615140
    22  C    7.255168   4.345146   4.799843   6.201934   7.020998
    23  H    8.120952   5.096718   5.530898   6.801704   7.551568
    24  H    7.781176   5.072566   5.513194   6.990423   7.869136
    25  C    6.458781   3.706985   3.837753   5.849172   6.545503
    26  C    5.162719   2.456081   2.493463   4.689302   5.340229
    27  H    4.859612   2.635820   2.196951   4.874710   5.363151
    28  C    7.320075   4.850074   4.704199   7.069332   7.662731
    29  O    7.139247   5.019965   4.605297   7.252207   7.718720
    30  N    8.596617   6.059370   6.018650   8.238773   8.886376
    31  H    9.294355   6.870657   6.719187   9.068532   9.657885
    32  H    8.991185   6.275982   6.400982   8.342925   9.048505
    33  H    4.655946   3.382234   4.370098   2.163192   3.068063
    34  C    4.238570   4.434268   3.833893   6.306454   6.787212
    35  C    5.594469   4.319335   4.260517   6.498921   7.287814
    36  C    6.972400   5.277615   5.341963   7.483094   8.325576
    37  C    8.973577   6.920824   7.267030   8.906133   9.860814
    38  C    7.517845   5.652630   5.956612   7.679344   8.620018
    39  O    4.775175   3.656774   3.792339   5.632226   6.486899
    40  S    5.698339   4.948319   4.488154   7.146716   7.741592
    41  H    4.709282   5.266718   4.521682   7.034530   7.390074
    42  H    3.403529   3.489618   2.795930   5.321538   5.751666
    43  H    9.538793   7.705551   8.073096   9.617446  10.602963
    44  H    9.463748   7.358849   7.582694   9.465313  10.363918
    45  H    9.224519   6.927690   7.399139   8.776826   9.751997
    46  H    7.009152   5.250864   5.701796   7.083116   8.077925
    47  H    7.668729   5.951163   5.878393   8.237090   9.014338
    48  H    4.148600   4.692793   4.279606   6.382367   6.941045
                   16         17         18         19         20
    16  O    0.000000
    17  N    2.326329   0.000000
    18  C    2.862660   1.394554   0.000000
    19  H    2.626229   2.093161   1.080558   0.000000
    20  C    4.108096   2.392518   1.328534   2.111809   0.000000
    21  H    4.762542   3.356189   2.073244   2.416857   1.081545
    22  C    4.971439   2.905741   2.489306   3.483834   1.503002
    23  H    5.515954   3.690547   3.212273   4.118899   2.137245
    24  H    5.842488   3.659711   3.201694   4.130395   2.144950
    25  C    4.534732   2.387146   2.765912   3.841984   2.471966
    26  C    3.404233   1.363665   2.364239   3.310793   2.758748
    27  H    3.646134   2.090813   3.335103   4.175553   3.841561
    28  C    5.731395   3.695299   4.238780   5.311942   3.866866
    29  O    5.944887   4.135606   4.980766   6.010774   4.856375
    30  N    6.898261   4.786050   5.032381   6.106574   4.322571
    31  H    7.710989   5.663814   6.000687   7.077771   5.318353
    32  H    7.012230   4.903750   4.868456   5.903897   3.938865
    33  H    2.739891   3.932581   3.507393   2.500789   4.601903
    34  C    5.774251   4.611275   5.711227   6.254123   6.356254
    35  C    5.686692   3.682621   4.274710   5.019017   4.434927
    36  C    6.540465   4.303248   4.574463   5.430598   4.289392
    37  C    7.963354   5.711131   5.371766   6.132829   4.544646
    38  C    6.798922   4.573833   4.436584   5.190599   3.927135
    39  O    5.004493   3.231947   3.725484   4.263168   4.138330
    40  S    6.324906   4.579074   5.520099   6.295111   5.794428
    41  H    6.538369   5.532790   6.705411   7.255390   7.353667
    42  H    4.776528   3.853804   5.062457   5.552735   5.855965
    43  H    8.774474   6.576291   6.196346   6.859863   5.423220
    44  H    8.419599   6.108484   5.915787   6.783005   5.048512
    45  H    7.819816   5.640636   5.063844   5.772829   4.057272
    46  H    6.349579   4.287481   3.991454   4.568729   3.638822
    47  H    7.199250   4.943451   5.315742   6.255120   4.934568
    48  H    6.033297   4.933684   5.873409   6.292216   6.548205
                   21         22         23         24         25
    21  H    0.000000
    22  C    2.233902   0.000000
    23  H    2.560493   1.099067   0.000000
    24  H    2.600728   1.098635   1.751512   0.000000
    25  C    3.473976   1.509285   2.159409   2.154536   0.000000
    26  C    3.838963   2.498557   3.232284   3.217038   1.344471
    27  H    4.920902   3.481293   4.137351   4.122973   2.101406
    28  C    4.790056   2.600453   2.899339   2.885021   1.476118
    29  O    5.847569   3.733832   4.049649   4.053134   2.384650
    30  N    5.042134   2.841625   2.846542   2.760204   2.405314
    31  H    6.027606   3.835835   3.735709   3.731238   3.308894
    32  H    4.485677   2.444978   2.219740   2.259654   2.582302
    33  H    4.707354   5.972314   6.556074   6.615473   6.141656
    34  C    7.306009   6.158988   7.112923   6.250436   5.038076
    35  C    5.266746   4.061667   5.082476   3.826902   3.373513
    36  C    4.990155   3.589461   4.501756   3.011171   3.240821
    37  C    4.753014   3.847850   4.451694   2.781704   4.397196
    38  C    4.370733   3.420919   4.310198   2.589692   3.641699
    39  O    4.900361   4.196258   5.284290   4.083546   3.694270
    40  S    6.738581   5.228998   6.124483   5.126549   4.137509
    41  H    8.330055   7.072228   7.975478   7.175719   5.853432
    42  H    6.833862   5.789780   6.710329   6.063344   4.626772
    43  H    5.527432   4.877094   5.490129   3.814728   5.440779
    44  H    5.356573   4.058784   4.513954   3.029106   4.427872
    45  H    4.061093   3.464706   3.920468   2.383618   4.365399
    46  H    3.977015   3.572436   4.546278   2.888352   3.930212
    47  H    5.665982   3.951583   4.694054   3.367682   3.447629
    48  H    7.406688   6.514888   7.539348   6.513587   5.581228
                   26         27         28         29         30
    26  C    0.000000
    27  H    1.083897   0.000000
    28  C    2.402221   2.568726   0.000000
    29  O    2.773194   2.424450   1.218618   0.000000
    30  N    3.612744   3.925661   1.373975   2.254061   0.000000
    31  H    4.416282   4.551603   2.027208   2.447399   1.006721
    32  H    3.914033   4.451764   2.078601   3.146946   1.004492
    33  H    5.291145   5.857426   7.561184   8.058211   8.499420
    34  C    4.265008   3.687023   5.168433   4.733927   6.223537
    35  C    3.217935   3.313034   3.680241   3.882547   4.381564
    36  C    3.664432   3.986780   3.332337   3.832265   3.567039
    37  C    5.264660   5.919722   4.581766   5.480519   4.108157
    38  C    4.206247   4.795898   4.030294   4.799516   4.023042
    39  O    3.246399   3.479211   4.394574   4.682568   5.197038
    40  S    3.837074   3.410932   3.941514   3.590262   4.765692
    41  H    5.092880   4.361870   5.790971   5.161506   6.836631
    42  H    3.635866   2.999025   4.935519   4.517979   6.133191
    43  H    6.222577   6.852675   5.629916   6.468357   5.150734
    44  H    5.431960   5.977937   4.260985   5.092173   3.554258
    45  H    5.314908   6.115979   4.739886   5.789447   4.201276
    46  H    4.254306   4.931059   4.642292   5.421433   4.816709
    47  H    4.050414   4.219946   3.056092   3.420030   3.073266
    48  H    4.818653   4.424895   5.876810   5.602011   6.857950
                   31         32         33         34         35
    31  H    0.000000
    32  H    1.721748   0.000000
    33  H    9.441132   8.368687   0.000000
    34  C    6.669813   6.891759   7.302071   0.000000
    35  C    5.031599   4.806352   6.787180   2.724012   0.000000
    36  C    4.207180   3.856713   7.517372   4.095163   1.476869
    37  C    4.741589   3.825203   8.389965   6.547890   3.849422
    38  C    4.770626   3.978272   7.332400   5.155650   2.440350
    39  O    5.959636   5.489069   5.784643   2.846538   1.216620
    40  S    5.135858   5.474501   7.883666   1.796661   1.753309
    41  H    7.155516   7.593701   8.207316   1.087309   3.668876
    42  H    6.649433   6.762662   6.482596   1.087343   2.998267
    43  H    5.717257   4.880386   8.986576   7.052294   4.425408
    44  H    4.007602   3.351955   9.124287   6.708567   4.119623
    45  H    4.920394   3.674023   8.078238   7.217759   4.496853
    46  H    5.651164   4.703824   6.546346   5.184509   2.605918
    47  H    3.499247   3.528596   8.413143   4.417411   2.197252
    48  H    7.375886   7.433913   7.172099   1.087801   2.832611
                   36         37         38         39         40
    36  C    0.000000
    37  C    2.497441   0.000000
    38  C    1.329288   1.490942   0.000000
    39  O    2.379152   4.331199   2.840709   0.000000
    40  S    2.692183   5.171240   3.947112   2.629098   0.000000
    41  H    4.932781   7.408079   6.074622   3.917187   2.349250
    42  H    4.399869   6.806859   5.384220   2.888152   2.407700
    43  H    3.169585   1.092747   2.132235   4.830083   5.733408
    44  H    2.647571   1.089306   2.144454   4.845376   5.143383
    45  H    3.249029   1.092196   2.138056   4.809611   5.928492
    46  H    2.070429   2.217801   1.086810   2.505335   4.313546
    47  H    1.084877   2.765855   2.114270   3.303463   2.735980
    48  H    4.235695   6.542949   5.114808   2.652400   2.399610
                   41         42         43         44         45
    41  H    0.000000
    42  H    1.778811   0.000000
    43  H    7.892290   7.417355   0.000000
    44  H    7.468916   7.011649   1.772877   0.000000
    45  H    8.133900   7.338407   1.750581   1.775820   0.000000
    46  H    6.188171   5.322000   2.609455   3.104149   2.541072
    47  H    5.083473   4.798197   3.462603   2.463961   3.587414
    48  H    1.781184   1.777980   6.909432   6.843503   7.228537
                   46         47         48
    46  H    0.000000
    47  H    3.056316   0.000000
    48  H    4.977399   4.734545   0.000000
 Stoichiometry    C16H24N2O5S
 Framework group  C1[X(C16H24N2O5S)]
 Deg. of freedom   138
 Full point group                 C1      NOp   1
 Largest Abelian subgroup         C1      NOp   1
 Largest concise Abelian subgroup C1      NOp   1
                         Standard orientation:                         
 ---------------------------------------------------------------------
 Center     Atomic      Atomic             Coordinates (Angstroms)
 Number     Number       Type             X           Y           Z
 ---------------------------------------------------------------------
      1          6           0        4.765608   -1.887244    0.611570
      2          1           0        4.759600   -2.842264    0.087931
      3          1           0        5.778136   -1.686259    0.963498
      4          6           0        2.554410    0.468650    0.688779
      5          1           0        2.381912   -0.155448    1.572890
      6          8           0        2.039009    1.755214    0.865099
      7          1           0        1.093284    1.695983    1.095114
      8          6           0        4.045347    0.544037    0.382127
      9          1           0        4.652515    0.651228    1.286407
     10          8           0        4.294593    1.596301   -0.520775
     11          1           0        3.750002    2.342858   -0.239091
     12          6           0        2.026817   -0.255261   -0.559739
     13          1           0        1.858377    0.482009   -1.351377
     14          6           0        4.298531   -0.786503   -0.320432
     15          1           0        5.018429   -0.630688   -1.125781
     16          8           0        3.045713   -1.163618   -0.911812
     17          7           0        0.790262   -0.969743   -0.375934
     18          6           0        0.731534   -2.020452    0.539130
     19          1           0        1.661403   -2.234744    1.046109
     20          6           0       -0.367672   -2.737327    0.746107
     21          1           0       -0.325627   -3.545802    1.463282
     22          6           0       -1.655690   -2.489619    0.012170
     23          1           0       -1.973224   -3.413052   -0.492204
     24          1           0       -2.456478   -2.250227    0.725212
     25          6           0       -1.483861   -1.367852   -0.982845
     26          6           0       -0.321254   -0.706881   -1.120928
     27          1           0       -0.246305    0.093844   -1.847602
     28          6           0       -2.606326   -0.920237   -1.830570
     29          8           0       -2.520416   -0.046974   -2.676183
     30          7           0       -3.811860   -1.524482   -1.567158
     31          1           0       -4.550706   -1.336886   -2.224730
     32          1           0       -3.859118   -2.379272   -1.041702
     33          1           0        4.109606   -1.968599    1.481333
     34          6           0       -0.320622    3.505102   -0.450485
     35          6           0       -1.684302    1.497462    0.786447
     36          6           0       -2.902273    0.708727    1.061377
     37          6           0       -4.154211   -0.919839    2.481812
     38          6           0       -2.957459   -0.115400    2.102903
     39          8           0       -0.631294    1.344242    1.376245
     40         16           0       -1.932348    2.711178   -0.454302
     41          1           0       -0.408647    4.385108   -1.083005
     42          1           0        0.438928    2.838416   -0.851644
     43          1           0       -4.549900   -0.580757    3.442307
     44          1           0       -4.941233   -0.840919    1.732843
     45          1           0       -3.889463   -1.971738    2.609523
     46          1           0       -2.069990   -0.201598    2.724293
     47          1           0       -3.744301    0.843460    0.390711
     48          1           0       -0.050750    3.800586    0.561033
 ---------------------------------------------------------------------
 Rotational constants (GHZ):           0.3253614           0.1600492           0.1374909
 Leave Link  202 at Sat Aug 13 20:22:12 2022, MaxMem=  2684354560 cpu:               0.2 elap:               0.0
 (Enter /storage/apps/GAUSSIAN/G16_RevA03/g16/l301.exe)
 Standard basis: def2TZVP (5D, 7F)
 Ernie: Thresh=  0.10000D-02 Tol=  0.10000D-05 Strict=F.
 There are  1014 symmetry adapted cartesian basis functions of A   symmetry.
 There are   894 symmetry adapted basis functions of A   symmetry.
   894 basis functions,  1434 primitive gaussians,  1014 cartesian basis functions
    95 alpha electrons       95 beta electrons
       nuclear repulsion energy      2471.2408571811 Hartrees.
 IExCor= 4336 DFT=T Ex+Corr=M062X ExCW=0 ScaHFX=  0.540000
 ScaDFX=  1.000000  1.000000  1.000000  1.000000 ScalE2=  1.000000  1.000000
 IRadAn=      5 IRanWt=     -1 IRanGd=            0 ICorTp=0 IEmpDi=131
 NAtoms=   48 NActive=   48 NUniq=   48 SFac= 1.00D+00 NAtFMM=   60 NAOKFM=F Big=F
 Integral buffers will be    131072 words long.
 Raffenetti 2 integral format.
 Two-electron integral symmetry is turned on.
 R6Disp:  Grimme-D3 Dispersion energy=       -0.0043457221 Hartrees.
 Nuclear repulsion after empirical dispersion term =     2471.2365114590 Hartrees.
 Leave Link  301 at Sat Aug 13 20:22:12 2022, MaxMem=  2684354560 cpu:               0.8 elap:               0.1
 (Enter /storage/apps/GAUSSIAN/G16_RevA03/g16/l302.exe)
 NPDir=0 NMtPBC=     1 NCelOv=     1 NCel=       1 NClECP=     1 NCelD=      1
         NCelK=      1 NCelE2=     1 NClLst=     1 CellRange=     0.0.
 One-electron integrals computed using PRISM.
 One-electron integral symmetry used in STVInt
   1 Symmetry operations used in ECPInt.
 ECPInt:  NShTT=   65703 NPrTT=  200010 LenC2=   56717 LenP2D=  120431.
 LDataN:  DoStor=T MaxTD1= 6 Len=  172
 NBasis=   894 RedAO= T EigKep=  3.16D-05  NBF=   894
 NBsUse=   894 1.00D-06 EigRej= -1.00D+00 NBFU=   894
 Precomputing XC quadrature grid using
 IXCGrd= 4 IRadAn=           5 IRanWt=          -1 IRanGd=           0 AccXCQ= 0.00D+00.
 Generated NRdTot=       0 NPtTot=           0 NUsed=           0 NTot=          32
 NSgBfM=   998   998   998   998   998 MxSgAt=    48 MxSgA2=    48.
 Leave Link  302 at Sat Aug 13 20:22:14 2022, MaxMem=  2684354560 cpu:              18.9 elap:               1.2
 (Enter /storage/apps/GAUSSIAN/G16_RevA03/g16/l303.exe)
 DipDrv:  MaxL=1.
 Leave Link  303 at Sat Aug 13 20:22:14 2022, MaxMem=  2684354560 cpu:               2.0 elap:               0.2
 (Enter /storage/apps/GAUSSIAN/G16_RevA03/g16/l401.exe)
 ExpMin= 9.52D-02 ExpMax= 6.07D+04 ExpMxC= 2.07D+03 IAcc=3 IRadAn=         5 AccDes= 0.00D+00
 Harris functional with IExCor= 1009 and IRadAn=       5 diagonalized for initial guess.
 HarFok:  IExCor= 1009 AccDes= 0.00D+00 IRadAn=         5 IDoV= 1 UseB2=F ITyADJ=14
 ICtDFT=  3500011 ScaDFX=  1.000000  1.000000  1.000000  1.000000
 FoFCou: FMM=F IPFlag=           0 FMFlag=      100000 FMFlg1=           0
         NFxFlg=           0 DoJE=T BraDBF=F KetDBF=T FulRan=T
         wScrn=  0.000000 ICntrl=       500 IOpCl=  0 I1Cent=   200000004 NGrid=           0
         NMat0=    1 NMatS0=      1 NMatT0=    0 NMatD0=    1 NMtDS0=    0 NMtDT0=    0
 Petite list used in FoFCou.
 Harris En= -1507.25832779012    
 JPrj=0 DoOrth=F DoCkMO=F.
 Leave Link  401 at Sat Aug 13 20:22:18 2022, MaxMem=  2684354560 cpu:              60.3 elap:               3.8
 (Enter /storage/apps/GAUSSIAN/G16_RevA03/g16/l502.exe)
 Integral symmetry usage will be decided dynamically.
 Closed shell SCF:
 Using DIIS extrapolation, IDIIS=  1040.
 NGot=  2684354560 LenX=  2682272944 LenY=  2681243734
 Requested convergence on RMS density matrix=1.00D-08 within 128 cycles.
 Requested convergence on MAX density matrix=1.00D-06.
 Requested convergence on             energy=1.00D-06.
 No special actions if energy rises.
 Fock matrices will be formed incrementally for  20 cycles.
 Integral accuracy reduced to 1.0D-05 until final iterations.

 Cycle   1  Pass 0  IDiag  1:
 FoFJK:  IHMeth= 1 ICntrl=       0 DoSepK=F KAlg= 0 I1Cent=           0 FoldK=F
 IRaf= 790000000 NMat=       1 IRICut=       1 DoRegI=T DoRafI=F ISym2E= 0 IDoP0=0 IntGTp=1.
 FoFCou: FMM=F IPFlag=           0 FMFlag=      100000 FMFlg1=           0
         NFxFlg=           0 DoJE=F BraDBF=F KetDBF=F FulRan=T
         wScrn=  0.000000 ICntrl=         0 IOpCl=  0 I1Cent=           0 NGrid=           0
         NMat0=    1 NMatS0=      1 NMatT0=    0 NMatD0=    1 NMtDS0=    0 NMtDT0=    0
 Symmetry not used in FoFCou.
 E= -1507.18913226954    
 DIIS: error= 1.40D-02 at cycle   1 NSaved=   1.
 NSaved= 1 IEnMin= 1 EnMin= -1507.18913226954     IErMin= 1 ErrMin= 1.40D-02
 ErrMax= 1.40D-02  0.00D+00 EMaxC= 1.00D-01 BMatC= 1.00D+00 BMatP= 1.00D+00
 IDIUse=3 WtCom= 8.60D-01 WtEn= 1.40D-01
 Coeff-Com:  0.100D+01
 Coeff-En:   0.100D+01
 Coeff:      0.100D+01
 Gap=     0.308 Goal=   None    Shift=    0.000
 GapD=    0.308 DampG=1.000 DampE=0.500 DampFc=0.5000 IDamp=-1.
 Damping current iteration by 5.00D-01
 RMSDP=4.42D-03 MaxDP=1.73D+00              OVMax= 2.66D-01

 Cycle   2  Pass 0  IDiag  1:
 RMSU=  2.21D-03    CP:  1.02D+00
 E= -1507.53415327349     Delta-E=       -0.345021003947 Rises=F Damp=T
 DIIS: error= 3.60D-03 at cycle   2 NSaved=   2.
 NSaved= 2 IEnMin= 2 EnMin= -1507.53415327349     IErMin= 2 ErrMin= 3.60D-03
 ErrMax= 3.60D-03  0.00D+00 EMaxC= 1.00D-01 BMatC= 8.62D-02 BMatP= 1.00D+00
 IDIUse=3 WtCom= 9.64D-01 WtEn= 3.60D-02
 Coeff-Com: -0.171D-01 0.102D+01
 Coeff-En:   0.142D-01 0.986D+00
 Coeff:     -0.159D-01 0.102D+01
 Gap=     0.306 Goal=   None    Shift=    0.000
 RMSDP=1.30D-03 MaxDP=4.89D-01 DE=-3.45D-01 OVMax= 1.71D-01

 Cycle   3  Pass 0  IDiag  1:
 RMSU=  1.03D-03    CP:  1.00D+00  6.45D-01
 E= -1507.89283648700     Delta-E=       -0.358683213510 Rises=F Damp=F
 DIIS: error= 5.58D-03 at cycle   3 NSaved=   3.
 NSaved= 3 IEnMin= 3 EnMin= -1507.89283648700     IErMin= 2 ErrMin= 3.60D-03
 ErrMax= 5.58D-03  0.00D+00 EMaxC= 1.00D-01 BMatC= 5.09D-02 BMatP= 8.62D-02
 IDIUse=3 WtCom= 9.44D-01 WtEn= 5.58D-02
 Coeff-Com: -0.836D-01 0.457D+00 0.627D+00
 Coeff-En:   0.000D+00 0.000D+00 0.100D+01
 Coeff:     -0.789D-01 0.431D+00 0.648D+00
 Gap=     0.213 Goal=   None    Shift=    0.000
 RMSDP=3.65D-04 MaxDP=6.56D-02 DE=-3.59D-01 OVMax= 6.87D-02

 Cycle   4  Pass 0  IDiag  1:
 RMSU=  3.06D-04    CP:  1.01D+00  7.26D-01  9.15D-01
 E= -1507.92507448556     Delta-E=       -0.032237998560 Rises=F Damp=F
 DIIS: error= 2.06D-03 at cycle   4 NSaved=   4.
 NSaved= 4 IEnMin= 4 EnMin= -1507.92507448556     IErMin= 4 ErrMin= 2.06D-03
 ErrMax= 2.06D-03  0.00D+00 EMaxC= 1.00D-01 BMatC= 1.09D-02 BMatP= 5.09D-02
 IDIUse=3 WtCom= 9.79D-01 WtEn= 2.06D-02
 Coeff-Com: -0.357D-01 0.965D-01 0.353D+00 0.586D+00
 Coeff-En:   0.000D+00 0.000D+00 0.151D+00 0.849D+00
 Coeff:     -0.350D-01 0.945D-01 0.349D+00 0.591D+00
 Gap=     0.212 Goal=   None    Shift=    0.000
 RMSDP=1.26D-04 MaxDP=1.52D-02 DE=-3.22D-02 OVMax= 1.85D-02

 Cycle   5  Pass 0  IDiag  1:
 RMSU=  7.95D-05    CP:  1.01D+00  7.11D-01  9.43D-01  7.17D-01
 E= -1507.93309284484     Delta-E=       -0.008018359284 Rises=F Damp=F
 DIIS: error= 3.99D-04 at cycle   5 NSaved=   5.
 NSaved= 5 IEnMin= 5 EnMin= -1507.93309284484     IErMin= 5 ErrMin= 3.99D-04
 ErrMax= 3.99D-04  0.00D+00 EMaxC= 1.00D-01 BMatC= 3.92D-04 BMatP= 1.09D-02
 IDIUse=3 WtCom= 9.96D-01 WtEn= 3.99D-03
 Coeff-Com: -0.984D-02 0.168D-01 0.122D+00 0.260D+00 0.611D+00
 Coeff-En:   0.000D+00 0.000D+00 0.000D+00 0.000D+00 0.100D+01
 Coeff:     -0.980D-02 0.167D-01 0.121D+00 0.259D+00 0.613D+00
 Gap=     0.212 Goal=   None    Shift=    0.000
 RMSDP=4.93D-05 MaxDP=1.75D-02 DE=-8.02D-03 OVMax= 3.89D-03

 Cycle   6  Pass 0  IDiag  1:
 RMSU=  3.13D-05    CP:  1.01D+00  6.95D-01  9.56D-01  7.34D-01  8.85D-01
 E= -1507.93340499309     Delta-E=       -0.000312148248 Rises=F Damp=F
 DIIS: error= 1.77D-04 at cycle   6 NSaved=   6.
 NSaved= 6 IEnMin= 6 EnMin= -1507.93340499309     IErMin= 6 ErrMin= 1.77D-04
 ErrMax= 1.77D-04  0.00D+00 EMaxC= 1.00D-01 BMatC= 5.13D-05 BMatP= 3.92D-04
 IDIUse=3 WtCom= 9.98D-01 WtEn= 1.77D-03
 Coeff-Com:  0.331D-03-0.449D-02 0.125D-01 0.413D-01 0.274D+00 0.676D+00
 Coeff-En:   0.000D+00 0.000D+00 0.000D+00 0.000D+00 0.000D+00 0.100D+01
 Coeff:      0.331D-03-0.449D-02 0.125D-01 0.412D-01 0.273D+00 0.677D+00
 Gap=     0.213 Goal=   None    Shift=    0.000
 RMSDP=1.84D-05 MaxDP=2.86D-03 DE=-3.12D-04 OVMax= 3.20D-03

 Cycle   7  Pass 0  IDiag  1:
 RMSU=  1.59D-05    CP:  1.00D+00  6.93D-01  9.60D-01  7.39D-01  9.52D-01
                    CP:  1.02D+00
 E= -1507.93346522443     Delta-E=       -0.000060231337 Rises=F Damp=F
 DIIS: error= 6.37D-05 at cycle   7 NSaved=   7.
 NSaved= 7 IEnMin= 7 EnMin= -1507.93346522443     IErMin= 7 ErrMin= 6.37D-05
 ErrMax= 6.37D-05  0.00D+00 EMaxC= 1.00D-01 BMatC= 8.74D-06 BMatP= 5.13D-05
 IDIUse=1 WtCom= 1.00D+00 WtEn= 0.00D+00
 Coeff-Com:  0.178D-02-0.484D-02-0.122D-01-0.246D-01 0.120D-01 0.288D+00
 Coeff-Com:  0.740D+00
 Coeff:      0.178D-02-0.484D-02-0.122D-01-0.246D-01 0.120D-01 0.288D+00
 Coeff:      0.740D+00
 Gap=     0.213 Goal=   None    Shift=    0.000
 RMSDP=1.65D-05 MaxDP=5.40D-03 DE=-6.02D-05 OVMax= 2.06D-03

 Cycle   8  Pass 0  IDiag  1:
 RMSU=  9.58D-06    CP:  1.00D+00  6.88D-01  9.61D-01  7.42D-01  1.01D+00
                    CP:  1.20D+00  1.25D+00
 E= -1507.93347292175     Delta-E=       -0.000007697322 Rises=F Damp=F
 DIIS: error= 3.11D-05 at cycle   8 NSaved=   8.
 NSaved= 8 IEnMin= 8 EnMin= -1507.93347292175     IErMin= 8 ErrMin= 3.11D-05
 ErrMax= 3.11D-05  0.00D+00 EMaxC= 1.00D-01 BMatC= 1.94D-06 BMatP= 8.74D-06
 IDIUse=1 WtCom= 1.00D+00 WtEn= 0.00D+00
 Coeff-Com:  0.892D-03-0.161D-02-0.806D-02-0.218D-01-0.471D-01 0.874D-02
 Coeff-Com:  0.358D+00 0.711D+00
 Coeff:      0.892D-03-0.161D-02-0.806D-02-0.218D-01-0.471D-01 0.874D-02
 Coeff:      0.358D+00 0.711D+00
 Gap=     0.213 Goal=   None    Shift=    0.000
 RMSDP=1.42D-05 MaxDP=1.82D-03 DE=-7.70D-06 OVMax= 7.06D-04

 Cycle   9  Pass 0  IDiag  1:
 RMSU=  8.64D-06    CP:  1.00D+00  6.86D-01  9.61D-01  7.41D-01  1.04D+00
                    CP:  1.30D+00  1.63D+00  1.80D+00
 E= -1507.93346241759     Delta-E=        0.000010504159 Rises=F Damp=F
 DIIS: error= 2.23D-05 at cycle   9 NSaved=   9.
 NSaved= 9 IEnMin= 8 EnMin= -1507.93347292175     IErMin= 9 ErrMin= 2.23D-05
 ErrMax= 2.23D-05  0.00D+00 EMaxC= 1.00D-01 BMatC= 3.42D-07 BMatP= 1.94D-06
 IDIUse=1 WtCom= 1.00D+00 WtEn= 0.00D+00
 Coeff-Com:  0.213D-03-0.257D-03-0.191D-02-0.721D-02-0.203D-01-0.249D-01
 Coeff-Com:  0.822D-01 0.310D+00 0.663D+00
 Coeff:      0.213D-03-0.257D-03-0.191D-02-0.721D-02-0.203D-01-0.249D-01
 Coeff:      0.822D-01 0.310D+00 0.663D+00
 Gap=     0.213 Goal=   None    Shift=    0.000
 RMSDP=1.69D-05 MaxDP=1.55D-03 DE= 1.05D-05 OVMax= 2.33D-04

 Cycle  10  Pass 0  IDiag  1:
 RMSU=  5.78D-06    CP:  1.00D+00  6.85D-01  9.60D-01  7.42D-01  1.06D+00
                    CP:  1.38D+00  1.96D+00  2.80D+00  2.26D+00
 E= -1507.93344756929     Delta-E=        0.000014848299 Rises=F Damp=F
 DIIS: error= 3.57D-05 at cycle  10 NSaved=  10.
 NSaved=10 IEnMin= 8 EnMin= -1507.93347292175     IErMin= 9 ErrMin= 2.23D-05
 ErrMax= 3.57D-05  0.00D+00 EMaxC= 1.00D-01 BMatC= 5.08D-07 BMatP= 3.42D-07
 IDIUse=1 WtCom= 1.00D+00 WtEn= 0.00D+00
 Coeff-Com:  0.230D-03-0.246D-03-0.213D-02-0.827D-02-0.242D-01-0.326D-01
 Coeff-Com:  0.895D-01 0.369D+00 0.856D+00-0.247D+00
 Coeff:      0.230D-03-0.246D-03-0.213D-02-0.827D-02-0.242D-01-0.326D-01
 Coeff:      0.895D-01 0.369D+00 0.856D+00-0.247D+00
 Gap=     0.213 Goal=   None    Shift=    0.000
 RMSDP=9.26D-06 MaxDP=1.08D-03 DE= 1.48D-05 OVMax= 2.25D-05

 Cycle  11  Pass 0  IDiag  1:
 RMSU=  1.68D-06    CP:  1.00D+00  6.86D-01  9.60D-01  7.41D-01  1.05D+00
                    CP:  1.34D+00  1.82D+00  2.34D+00  1.52D+00  3.26D-01
 E= -1507.93344993281     Delta-E=       -0.000002363519 Rises=F Damp=F
 DIIS: error= 2.83D-05 at cycle  11 NSaved=  11.
 NSaved=11 IEnMin= 8 EnMin= -1507.93347292175     IErMin= 9 ErrMin= 2.23D-05
 ErrMax= 2.83D-05  0.00D+00 EMaxC= 1.00D-01 BMatC= 3.30D-07 BMatP= 3.42D-07
 IDIUse=1 WtCom= 1.00D+00 WtEn= 0.00D+00
 Coeff-Com: -0.518D-04 0.250D-03 0.571D-03-0.116D-02-0.835D-02-0.331D-01
 Coeff-Com: -0.237D-01 0.125D+00 0.795D+00-0.185D+01 0.199D+01
 Coeff:     -0.518D-04 0.250D-03 0.571D-03-0.116D-02-0.835D-02-0.331D-01
 Coeff:     -0.237D-01 0.125D+00 0.795D+00-0.185D+01 0.199D+01
 Gap=     0.213 Goal=   None    Shift=    0.000
 RMSDP=1.84D-05 MaxDP=2.36D-03 DE=-2.36D-06 OVMax= 1.12D-04

 Cycle  12  Pass 0  IDiag  1:
 RMSU=  7.32D-06    CP:  1.00D+00  6.84D-01  9.61D-01  7.39D-01  1.04D+00
                    CP:  1.33D+00  1.63D+00  1.78D+00  3.39D-01 -1.46D+00
                    CP:  3.00D+00
 E= -1507.93344883211     Delta-E=        0.000001100706 Rises=F Damp=F
 DIIS: error= 1.54D-05 at cycle  12 NSaved=  12.
 NSaved=12 IEnMin= 8 EnMin= -1507.93347292175     IErMin=12 ErrMin= 1.54D-05
 ErrMax= 1.54D-05  0.00D+00 EMaxC= 1.00D-01 BMatC= 9.86D-08 BMatP= 3.30D-07
 IDIUse=1 WtCom= 1.00D+00 WtEn= 0.00D+00
 Coeff-Com: -0.477D-04 0.186D-03 0.569D-03-0.301D-03-0.427D-02-0.214D-01
 Coeff-Com: -0.228D-01 0.617D-01 0.506D+00-0.129D+01 0.138D+01 0.392D+00
 Coeff:     -0.477D-04 0.186D-03 0.569D-03-0.301D-03-0.427D-02-0.214D-01
 Coeff:     -0.228D-01 0.617D-01 0.506D+00-0.129D+01 0.138D+01 0.392D+00
 Gap=     0.213 Goal=   None    Shift=    0.000
 RMSDP=6.05D-06 MaxDP=1.13D-03 DE= 1.10D-06 OVMax= 2.24D-05

 Cycle  13  Pass 0  IDiag  1:
 RMSU=  4.04D-06    CP:  1.00D+00  6.83D-01  9.61D-01  7.39D-01  1.04D+00
                    CP:  1.35D+00  1.68D+00  2.03D+00  4.58D-01 -1.36D+00
                    CP:  3.00D+00  1.39D+00
 E= -1507.93343872218     Delta-E=        0.000010109923 Rises=F Damp=F
 DIIS: error= 2.18D-05 at cycle  13 NSaved=  13.
 NSaved=13 IEnMin= 8 EnMin= -1507.93347292175     IErMin=12 ErrMin= 1.54D-05
 ErrMax= 2.18D-05  0.00D+00 EMaxC= 1.00D-01 BMatC= 1.35D-07 BMatP= 9.86D-08
 IDIUse=1 WtCom= 1.00D+00 WtEn= 0.00D+00
 Coeff-Com: -0.118D-03 0.332D-03 0.127D-02 0.113D-02-0.196D-02-0.264D-01
 Coeff-Com: -0.517D-01 0.245D-01 0.606D+00-0.184D+01 0.208D+01 0.102D+01
 Coeff-Com: -0.822D+00
 Coeff:     -0.118D-03 0.332D-03 0.127D-02 0.113D-02-0.196D-02-0.264D-01
 Coeff:     -0.517D-01 0.245D-01 0.606D+00-0.184D+01 0.208D+01 0.102D+01
 Coeff:     -0.822D+00
 Gap=     0.213 Goal=   None    Shift=    0.000
 RMSDP=1.28D-05 MaxDP=2.94D-03 DE= 1.01D-05 OVMax= 2.33D-05

 Cycle  14  Pass 0  IDiag  1:
 RMSU=  6.70D-06    CP:  1.00D+00  6.85D-01  9.61D-01  7.42D-01  1.02D+00
                    CP:  1.29D+00  1.57D+00  1.57D+00 -4.70D-02 -1.47D+00
                    CP:  3.00D+00  6.20D-01  1.85D-01
 E= -1507.93344837650     Delta-E=       -0.000009654315 Rises=F Damp=F
 DIIS: error= 1.46D-05 at cycle  14 NSaved=  14.
 NSaved=14 IEnMin= 8 EnMin= -1507.93347292175     IErMin=14 ErrMin= 1.46D-05
 ErrMax= 1.46D-05  0.00D+00 EMaxC= 1.00D-01 BMatC= 8.93D-08 BMatP= 9.86D-08
 IDIUse=1 WtCom= 1.00D+00 WtEn= 0.00D+00
 Coeff-Com: -0.103D-03 0.233D-03 0.120D-02 0.201D-02 0.268D-02-0.114D-01
 Coeff-Com: -0.463D-01-0.478D-01 0.243D+00-0.117D+01 0.136D+01 0.132D+01
 Coeff-Com: -0.164D+01 0.986D+00
 Coeff:     -0.103D-03 0.233D-03 0.120D-02 0.201D-02 0.268D-02-0.114D-01
 Coeff:     -0.463D-01-0.478D-01 0.243D+00-0.117D+01 0.136D+01 0.132D+01
 Coeff:     -0.164D+01 0.986D+00
 Gap=     0.213 Goal=   None    Shift=    0.000
 RMSDP=1.47D-05 MaxDP=2.29D-03 DE=-9.65D-06 OVMax= 3.01D-05

 Cycle  15  Pass 0  IDiag  1:
 RMSU=  6.12D-06    CP:  1.00D+00  6.86D-01  9.60D-01  7.43D-01  1.00D+00
                    CP:  1.28D+00  1.52D+00  1.19D+00 -6.28D-01 -2.28D+00
                    CP:  3.00D+00  7.44D-02 -1.45D+00  2.03D+00
 E= -1507.93345615878     Delta-E=       -0.000007782280 Rises=F Damp=F
 DIIS: error= 9.53D-06 at cycle  15 NSaved=  15.
 NSaved=15 IEnMin= 8 EnMin= -1507.93347292175     IErMin=15 ErrMin= 9.53D-06
 ErrMax= 9.53D-06  0.00D+00 EMaxC= 1.00D-01 BMatC= 3.31D-08 BMatP= 8.93D-08
 IDIUse=1 WtCom= 1.00D+00 WtEn= 0.00D+00
 Coeff-Com: -0.559D-04 0.122D-03 0.702D-03 0.126D-02 0.205D-02-0.516D-02
 Coeff-Com: -0.258D-01-0.364D-01 0.930D-01-0.588D+00 0.686D+00 0.778D+00
 Coeff-Com: -0.102D+01 0.696D+00 0.421D+00
 Coeff:     -0.559D-04 0.122D-03 0.702D-03 0.126D-02 0.205D-02-0.516D-02
 Coeff:     -0.258D-01-0.364D-01 0.930D-01-0.588D+00 0.686D+00 0.778D+00
 Coeff:     -0.102D+01 0.696D+00 0.421D+00
 Gap=     0.213 Goal=   None    Shift=    0.000
 RMSDP=6.46D-06 MaxDP=1.05D-03 DE=-7.78D-06 OVMax= 1.54D-05

 Cycle  16  Pass 0  IDiag  1:
 RMSU=  2.13D-06    CP:  1.00D+00  6.86D-01  9.60D-01  7.44D-01  9.98D-01
                    CP:  1.30D+00  1.59D+00  1.33D+00 -7.44D-01 -2.61D+00
                    CP:  3.00D+00 -9.27D-02 -1.42D+00  2.47D+00  1.70D+00
 E= -1507.93344180183     Delta-E=        0.000014356950 Rises=F Damp=F
 DIIS: error= 1.10D-05 at cycle  16 NSaved=  16.
 NSaved=16 IEnMin= 8 EnMin= -1507.93347292175     IErMin=15 ErrMin= 9.53D-06
 ErrMax= 1.10D-05  0.00D+00 EMaxC= 1.00D-01 BMatC= 4.33D-08 BMatP= 3.31D-08
 IDIUse=1 WtCom= 1.00D+00 WtEn= 0.00D+00
 Coeff-Com: -0.690D-04 0.143D-03 0.892D-03 0.169D-02 0.298D-02-0.504D-02
 Coeff-Com: -0.321D-01-0.545D-01 0.793D-01-0.676D+00 0.789D+00 0.104D+01
 Coeff-Com: -0.155D+01 0.123D+01 0.967D+00-0.792D+00
 Coeff:     -0.690D-04 0.143D-03 0.892D-03 0.169D-02 0.298D-02-0.504D-02
 Coeff:     -0.321D-01-0.545D-01 0.793D-01-0.676D+00 0.789D+00 0.104D+01
 Coeff:     -0.155D+01 0.123D+01 0.967D+00-0.792D+00
 Gap=     0.213 Goal=   None    Shift=    0.000
 RMSDP=1.09D-05 MaxDP=1.45D-03 DE= 1.44D-05 OVMax= 1.66D-05

 Cycle  17  Pass 0  IDiag  1:
 RMSU=  2.95D-06    CP:  1.00D+00  6.87D-01  9.61D-01  7.44D-01  9.93D-01
                    CP:  1.26D+00  1.47D+00  8.89D-01 -7.76D-01 -1.95D+00
                    CP:  3.00D+00 -9.66D-02 -1.24D+00  2.04D+00  6.41D-01
                    CP: -7.90D-01
 E= -1507.93345940194     Delta-E=       -0.000017600118 Rises=F Damp=F
 DIIS: error= 8.00D-06 at cycle  17 NSaved=  17.
 NSaved=17 IEnMin= 8 EnMin= -1507.93347292175     IErMin=17 ErrMin= 8.00D-06
 ErrMax= 8.00D-06  0.00D+00 EMaxC= 1.00D-01 BMatC= 2.11D-08 BMatP= 3.31D-08
 IDIUse=1 WtCom= 1.00D+00 WtEn= 0.00D+00
 Coeff-Com: -0.362D-04 0.804D-04 0.502D-03 0.870D-03 0.151D-02-0.380D-02
 Coeff-Com: -0.182D-01-0.273D-01 0.612D-01-0.460D+00 0.508D+00 0.450D+00
 Coeff-Com: -0.753D+00 0.664D+00 0.692D+00-0.128D+01 0.116D+01
 Coeff:     -0.362D-04 0.804D-04 0.502D-03 0.870D-03 0.151D-02-0.380D-02
 Coeff:     -0.182D-01-0.273D-01 0.612D-01-0.460D+00 0.508D+00 0.450D+00
 Coeff:     -0.753D+00 0.664D+00 0.692D+00-0.128D+01 0.116D+01
 Gap=     0.213 Goal=   None    Shift=    0.000
 RMSDP=9.24D-06 MaxDP=1.50D-03 DE=-1.76D-05 OVMax= 1.59D-05

 Cycle  18  Pass 0  IDiag  1:
 RMSU=  4.21D-06    CP:  1.00D+00  6.86D-01  9.63D-01  7.44D-01  9.77D-01
                    CP:  1.27D+00  1.40D+00  5.45D-01 -9.97D-01 -1.72D+00
                    CP:  3.00D+00 -1.12D-01 -1.08D+00  1.50D+00  1.80D-01
                    CP: -1.44D+00  2.45D+00
 E= -1507.93347107201     Delta-E=       -0.000011670068 Rises=F Damp=F
 DIIS: error= 7.47D-06 at cycle  18 NSaved=  18.
 NSaved=18 IEnMin= 8 EnMin= -1507.93347292175     IErMin=18 ErrMin= 7.47D-06
 ErrMax= 7.47D-06  0.00D+00 EMaxC= 1.00D-01 BMatC= 1.50D-08 BMatP= 2.11D-08
 IDIUse=1 WtCom= 1.00D+00 WtEn= 0.00D+00
 Coeff-Com: -0.311D-04 0.688D-04 0.406D-03 0.709D-03 0.119D-02-0.297D-02
 Coeff-Com: -0.143D-01-0.201D-01 0.549D-01-0.407D+00 0.422D+00 0.348D+00
 Coeff-Com: -0.415D+00 0.285D+00 0.421D+00-0.102D+01 0.577D+00 0.765D+00
 Coeff:     -0.311D-04 0.688D-04 0.406D-03 0.709D-03 0.119D-02-0.297D-02
 Coeff:     -0.143D-01-0.201D-01 0.549D-01-0.407D+00 0.422D+00 0.348D+00
 Coeff:     -0.415D+00 0.285D+00 0.421D+00-0.102D+01 0.577D+00 0.765D+00
 Gap=     0.213 Goal=   None    Shift=    0.000
 RMSDP=7.36D-06 MaxDP=2.02D-03 DE=-1.17D-05 OVMax= 1.39D-05

 Cycle  19  Pass 0  IDiag  1:
 RMSU=  2.62D-06    CP:  1.00D+00  6.85D-01  9.63D-01  7.43D-01  9.68D-01
                    CP:  1.29D+00  1.37D+00  4.28D-01 -1.17D+00 -1.69D+00
                    CP:  3.00D+00 -1.38D-04 -8.83D-01  1.11D+00 -1.91D-01
                    CP: -1.92D+00  3.00D+00  1.93D+00
 E= -1507.93348663163     Delta-E=       -0.000015559615 Rises=F Damp=F
 DIIS: error= 4.78D-06 at cycle  19 NSaved=  19.
 NSaved=19 IEnMin=19 EnMin= -1507.93348663163     IErMin=19 ErrMin= 4.78D-06
 ErrMax= 4.78D-06  0.00D+00 EMaxC= 1.00D-01 BMatC= 8.90D-09 BMatP= 1.50D-08
 IDIUse=1 WtCom= 1.00D+00 WtEn= 0.00D+00
 Coeff-Com: -0.237D-04 0.521D-04 0.305D-03 0.560D-03 0.994D-03-0.195D-02
 Coeff-Com: -0.109D-01-0.178D-01 0.317D-01-0.300D+00 0.301D+00 0.295D+00
 Coeff-Com: -0.324D+00 0.229D+00 0.387D+00-0.645D+00 0.210D+00 0.313D-01
 Coeff-Com:  0.812D+00
 Coeff:     -0.237D-04 0.521D-04 0.305D-03 0.560D-03 0.994D-03-0.195D-02
 Coeff:     -0.109D-01-0.178D-01 0.317D-01-0.300D+00 0.301D+00 0.295D+00
 Coeff:     -0.324D+00 0.229D+00 0.387D+00-0.645D+00 0.210D+00 0.313D-01
 Coeff:      0.812D+00
 Gap=     0.213 Goal=   None    Shift=    0.000
 RMSDP=3.94D-06 MaxDP=5.81D-04 DE=-1.56D-05 OVMax= 8.68D-06

 Initial convergence to 1.0D-05 achieved.  Increase integral accuracy.
 Cycle  20  Pass 1  IDiag  1:
 E= -1507.93348525791     Delta-E=        0.000001373718 Rises=F Damp=F
 DIIS: error= 2.74D-04 at cycle   1 NSaved=   1.
 NSaved= 1 IEnMin= 1 EnMin= -1507.93348525791     IErMin= 1 ErrMin= 2.74D-04
 ErrMax= 2.74D-04  0.00D+00 EMaxC= 1.00D-01 BMatC= 8.52D-05 BMatP= 8.52D-05
 IDIUse=3 WtCom= 9.97D-01 WtEn= 2.74D-03
 Coeff-Com:  0.100D+01
 Coeff-En:   0.100D+01
 Coeff:      0.100D+01
 Gap=     0.213 Goal=   None    Shift=    0.000
 RMSDP=3.94D-06 MaxDP=5.81D-04 DE= 1.37D-06 OVMax= 1.02D-03

 Cycle  21  Pass 1  IDiag  1:
 RMSU=  3.93D-04    CP:  9.95D-01
 E= -1507.93353847551     Delta-E=       -0.000053217597 Rises=F Damp=F
 DIIS: error= 7.15D-06 at cycle   2 NSaved=   2.
 NSaved= 2 IEnMin= 2 EnMin= -1507.93353847551     IErMin= 2 ErrMin= 7.15D-06
 ErrMax= 7.15D-06  0.00D+00 EMaxC= 1.00D-01 BMatC= 7.12D-08 BMatP= 8.52D-05
 IDIUse=1 WtCom= 1.00D+00 WtEn= 0.00D+00
 Coeff-Com: -0.164D-01 0.102D+01
 Coeff:     -0.164D-01 0.102D+01
 Gap=     0.213 Goal=   None    Shift=    0.000
 RMSDP=1.43D-05 MaxDP=9.58D-04 DE=-5.32D-05 OVMax= 1.11D-04

 Cycle  22  Pass 1  IDiag  1:
 RMSU=  4.68D-06    CP:  9.95D-01  1.03D+00
 E= -1507.93353853664     Delta-E=       -0.000000061135 Rises=F Damp=F
 DIIS: error= 4.88D-06 at cycle   3 NSaved=   3.
 NSaved= 3 IEnMin= 3 EnMin= -1507.93353853664     IErMin= 3 ErrMin= 4.88D-06
 ErrMax= 4.88D-06  0.00D+00 EMaxC= 1.00D-01 BMatC= 4.53D-08 BMatP= 7.12D-08
 IDIUse=1 WtCom= 1.00D+00 WtEn= 0.00D+00
 Coeff-Com: -0.843D-02 0.496D+00 0.513D+00
 Coeff:     -0.843D-02 0.496D+00 0.513D+00
 Gap=     0.213 Goal=   None    Shift=    0.000
 RMSDP=4.21D-07 MaxDP=4.32D-05 DE=-6.11D-08 OVMax= 6.03D-05

 Cycle  23  Pass 1  IDiag  1:
 RMSU=  3.56D-07    CP:  9.95D-01  1.03D+00  1.02D+00
 E= -1507.93353856930     Delta-E=       -0.000000032655 Rises=F Damp=F
 DIIS: error= 1.70D-06 at cycle   4 NSaved=   4.
 NSaved= 4 IEnMin= 4 EnMin= -1507.93353856930     IErMin= 4 ErrMin= 1.70D-06
 ErrMax= 1.70D-06  0.00D+00 EMaxC= 1.00D-01 BMatC= 4.19D-09 BMatP= 4.53D-08
 IDIUse=1 WtCom= 1.00D+00 WtEn= 0.00D+00
 Coeff-Com: -0.222D-03 0.167D-02 0.220D+00 0.779D+00
 Coeff:     -0.222D-03 0.167D-02 0.220D+00 0.779D+00
 Gap=     0.213 Goal=   None    Shift=    0.000
 RMSDP=2.83D-07 MaxDP=1.73D-05 DE=-3.27D-08 OVMax= 1.82D-05

 Cycle  24  Pass 1  IDiag  1:
 RMSU=  1.25D-07    CP:  9.95D-01  1.04D+00  1.05D+00  9.64D-01
 E= -1507.93353857229     Delta-E=       -0.000000002989 Rises=F Damp=F
 DIIS: error= 6.67D-07 at cycle   5 NSaved=   5.
 NSaved= 5 IEnMin= 5 EnMin= -1507.93353857229     IErMin= 5 ErrMin= 6.67D-07
 ErrMax= 6.67D-07  0.00D+00 EMaxC= 1.00D-01 BMatC= 5.79D-10 BMatP= 4.19D-09
 IDIUse=1 WtCom= 1.00D+00 WtEn= 0.00D+00
 Coeff-Com:  0.424D-03-0.307D-01 0.769D-01 0.398D+00 0.555D+00
 Coeff:      0.424D-03-0.307D-01 0.769D-01 0.398D+00 0.555D+00
 Gap=     0.213 Goal=   None    Shift=    0.000
 RMSDP=5.02D-08 MaxDP=3.48D-06 DE=-2.99D-09 OVMax= 4.72D-06

 Cycle  25  Pass 1  IDiag  1:
 RMSU=  3.80D-08    CP:  9.95D-01  1.04D+00  1.06D+00  9.84D-01  1.06D+00
 E= -1507.93353857277     Delta-E=       -0.000000000483 Rises=F Damp=F
 DIIS: error= 1.37D-07 at cycle   6 NSaved=   6.
 NSaved= 6 IEnMin= 6 EnMin= -1507.93353857277     IErMin= 6 ErrMin= 1.37D-07
 ErrMax= 1.37D-07  0.00D+00 EMaxC= 1.00D-01 BMatC= 3.75D-11 BMatP= 5.79D-10
 IDIUse=1 WtCom= 1.00D+00 WtEn= 0.00D+00
 Coeff-Com:  0.212D-03-0.140D-01 0.129D-01 0.103D+00 0.243D+00 0.655D+00
 Coeff:      0.212D-03-0.140D-01 0.129D-01 0.103D+00 0.243D+00 0.655D+00
 Gap=     0.213 Goal=   None    Shift=    0.000
 RMSDP=1.18D-08 MaxDP=7.79D-07 DE=-4.83D-10 OVMax= 1.60D-06

 Cycle  26  Pass 1  IDiag  1:
 RMSU=  1.04D-08    CP:  9.95D-01  1.04D+00  1.06D+00  9.90D-01  1.10D+00
                    CP:  1.04D+00
 E= -1507.93353857278     Delta-E=       -0.000000000010 Rises=F Damp=F
 DIIS: error= 4.75D-08 at cycle   7 NSaved=   7.
 NSaved= 7 IEnMin= 7 EnMin= -1507.93353857278     IErMin= 7 ErrMin= 4.75D-08
 ErrMax= 4.75D-08  0.00D+00 EMaxC= 1.00D-01 BMatC= 4.57D-12 BMatP= 3.75D-11
 IDIUse=1 WtCom= 1.00D+00 WtEn= 0.00D+00
 Coeff-Com:  0.184D-04-0.723D-03-0.769D-02-0.239D-01 0.101D-01 0.270D+00
 Coeff-Com:  0.752D+00
 Coeff:      0.184D-04-0.723D-03-0.769D-02-0.239D-01 0.101D-01 0.270D+00
 Coeff:      0.752D+00
 Gap=     0.213 Goal=   None    Shift=    0.000
 RMSDP=7.10D-09 MaxDP=1.12D-06 DE=-1.05D-11 OVMax= 9.17D-07

 Cycle  27  Pass 1  IDiag  1:
 RMSU=  4.43D-09    CP:  9.95D-01  1.04D+00  1.06D+00  9.93D-01  1.12D+00
                    CP:  1.11D+00  9.46D-01
 E= -1507.93353857279     Delta-E=       -0.000000000015 Rises=F Damp=F
 DIIS: error= 1.98D-08 at cycle   8 NSaved=   8.
 NSaved= 8 IEnMin= 8 EnMin= -1507.93353857279     IErMin= 8 ErrMin= 1.98D-08
 ErrMax= 1.98D-08  0.00D+00 EMaxC= 1.00D-01 BMatC= 6.94D-13 BMatP= 4.57D-12
 IDIUse=1 WtCom= 1.00D+00 WtEn= 0.00D+00
 Coeff-Com: -0.102D-04 0.914D-03-0.515D-02-0.211D-01-0.169D-01 0.661D-01
 Coeff-Com:  0.363D+00 0.613D+00
 Coeff:     -0.102D-04 0.914D-03-0.515D-02-0.211D-01-0.169D-01 0.661D-01
 Coeff:      0.363D+00 0.613D+00
 Gap=     0.213 Goal=   None    Shift=    0.000
 RMSDP=1.80D-09 MaxDP=1.29D-07 DE=-1.50D-11 OVMax= 2.67D-07

 SCF Done:  E(RM062X) =  -1507.93353857     A.U. after   27 cycles
            NFock= 27  Conv=0.18D-08     -V/T= 2.0037
 KE= 1.502328831776D+03 PE=-8.481068327367D+03 EE= 2.999569445558D+03
 Leave Link  502 at Sat Aug 13 20:32:43 2022, MaxMem=  2684354560 cpu:            9986.9 elap:             625.1
 (Enter /storage/apps/GAUSSIAN/G16_RevA03/g16/l601.exe)
 Copying SCF densities to generalized density rwf, IOpCl= 0 IROHF=0.

 **********************************************************************

            Population analysis using the SCF density.

 **********************************************************************

 Orbital symmetries:
       Occupied  (A) (A) (A) (A) (A) (A) (A) (A) (A) (A) (A) (A)
                 (A) (A) (A) (A) (A) (A) (A) (A) (A) (A) (A) (A)
                 (A) (A) (A) (A) (A) (A) (A) (A) (A) (A) (A) (A)
                 (A) (A) (A) (A) (A) (A) (A) (A) (A) (A) (A) (A)
                 (A) (A) (A) (A) (A) (A) (A) (A) (A) (A) (A) (A)
                 (A) (A) (A) (A) (A) (A) (A) (A) (A) (A) (A) (A)
                 (A) (A) (A) (A) (A) (A) (A) (A) (A) (A) (A) (A)
                 (A) (A) (A) (A) (A) (A) (A) (A) (A) (A) (A)
       Virtual   (A) (A) (A) (A) (A) (A) (A) (A) (A) (A) (A) (A)
                 (A) (A) (A) (A) (A) (A) (A) (A) (A) (A) (A) (A)
                 (A) (A) (A) (A) (A) (A) (A) (A) (A) (A) (A) (A)
                 (A) (A) (A) (A) (A) (A) (A) (A) (A) (A) (A) (A)
                 (A) (A) (A) (A) (A) (A) (A) (A) (A) (A) (A) (A)
                 (A) (A) (A) (A) (A) (A) (A) (A) (A) (A) (A) (A)
                 (A) (A) (A) (A) (A) (A) (A) (A) (A) (A) (A) (A)
                 (A) (A) (A) (A) (A) (A) (A) (A) (A) (A) (A) (A)
                 (A) (A) (A) (A) (A) (A) (A) (A) (A) (A) (A) (A)
                 (A) (A) (A) (A) (A) (A) (A) (A) (A) (A) (A) (A)
                 (A) (A) (A) (A) (A) (A) (A) (A) (A) (A) (A) (A)
                 (A) (A) (A) (A) (A) (A) (A) (A) (A) (A) (A) (A)
                 (A) (A) (A) (A) (A) (A) (A) (A) (A) (A) (A) (A)
                 (A) (A) (A) (A) (A) (A) (A) (A) (A) (A) (A) (A)
                 (A) (A) (A) (A) (A) (A) (A) (A) (A) (A) (A) (A)
                 (A) (A) (A) (A) (A) (A) (A) (A) (A) (A) (A) (A)
                 (A) (A) (A) (A) (A) (A) (A) (A) (A) (A) (A) (A)
                 (A) (A) (A) (A) (A) (A) (A) (A) (A) (A) (A) (A)
                 (A) (A) (A) (A) (A) (A) (A) (A) (A) (A) (A) (A)
                 (A) (A) (A) (A) (A) (A) (A) (A) (A) (A) (A) (A)
                 (A) (A) (A) (A) (A) (A) (A) (A) (A) (A) (A) (A)
                 (A) (A) (A) (A) (A) (A) (A) (A) (A) (A) (A) (A)
                 (A) (A) (A) (A) (A) (A) (A) (A) (A) (A) (A) (A)
                 (A) (A) (A) (A) (A) (A) (A) (A) (A) (A) (A) (A)
                 (A) (A) (A) (A) (A) (A) (A) (A) (A) (A) (A) (A)
                 (A) (A) (A) (A) (A) (A) (A) (A) (A) (A) (A) (A)
                 (A) (A) (A) (A) (A) (A) (A) (A) (A) (A) (A) (A)
                 (A) (A) (A) (A) (A) (A) (A) (A) (A) (A) (A) (A)
                 (A) (A) (A) (A) (A) (A) (A) (A) (A) (A) (A) (A)
                 (A) (A) (A) (A) (A) (A) (A) (A) (A) (A) (A) (A)
                 (A) (A) (A) (A) (A) (A) (A) (A) (A) (A) (A) (A)
                 (A) (A) (A) (A) (A) (A) (A) (A) (A) (A) (A) (A)
                 (A) (A) (A) (A) (A) (A) (A) (A) (A) (A) (A) (A)
                 (A) (A) (A) (A) (A) (A) (A) (A) (A) (A) (A) (A)
                 (A) (A) (A) (A) (A) (A) (A) (A) (A) (A) (A) (A)
                 (A) (A) (A) (A) (A) (A) (A) (A) (A) (A) (A) (A)
                 (A) (A) (A) (A) (A) (A) (A) (A) (A) (A) (A) (A)
                 (A) (A) (A) (A) (A) (A) (A) (A) (A) (A) (A) (A)
                 (A) (A) (A) (A) (A) (A) (A) (A) (A) (A) (A) (A)
                 (A) (A) (A) (A) (A) (A) (A) (A) (A) (A) (A) (A)
                 (A) (A) (A) (A) (A) (A) (A) (A) (A) (A) (A) (A)
                 (A) (A) (A) (A) (A) (A) (A) (A) (A) (A) (A) (A)
                 (A) (A) (A) (A) (A) (A) (A) (A) (A) (A) (A) (A)
                 (A) (A) (A) (A) (A) (A) (A) (A) (A) (A) (A) (A)
                 (A) (A) (A) (A) (A) (A) (A) (A) (A) (A) (A) (A)
                 (A) (A) (A) (A) (A) (A) (A) (A) (A) (A) (A) (A)
                 (A) (A) (A) (A) (A) (A) (A) (A) (A) (A) (A) (A)
                 (A) (A) (A) (A) (A) (A) (A) (A) (A) (A) (A) (A)
                 (A) (A) (A) (A) (A) (A) (A) (A) (A) (A) (A) (A)
                 (A) (A) (A) (A) (A) (A) (A) (A) (A) (A) (A) (A)
                 (A) (A) (A) (A) (A) (A) (A) (A) (A) (A) (A) (A)
                 (A) (A) (A) (A) (A) (A) (A) (A) (A) (A) (A) (A)
                 (A) (A) (A) (A) (A) (A) (A) (A) (A) (A) (A) (A)
                 (A) (A) (A) (A) (A) (A) (A) (A) (A) (A) (A) (A)
                 (A) (A) (A) (A) (A) (A) (A) (A) (A) (A) (A) (A)
                 (A) (A) (A) (A) (A) (A) (A) (A) (A) (A) (A) (A)
                 (A) (A) (A) (A) (A) (A) (A) (A) (A) (A) (A) (A)
                 (A) (A) (A) (A) (A) (A) (A) (A) (A) (A) (A) (A)
                 (A) (A) (A) (A) (A) (A) (A) (A) (A) (A) (A) (A)
                 (A) (A) (A) (A) (A) (A) (A) (A) (A) (A) (A) (A)
                 (A) (A) (A) (A) (A) (A) (A) (A) (A) (A) (A) (A)
                 (A) (A) (A) (A) (A) (A) (A) (A) (A) (A) (A) (A)
                 (A) (A) (A) (A) (A) (A) (A) (A) (A) (A) (A) (A)
                 (A) (A) (A) (A) (A) (A) (A) (A) (A) (A) (A) (A)
                 (A) (A) (A) (A) (A) (A) (A) (A) (A) (A) (A) (A)
                 (A) (A) (A) (A) (A) (A) (A) (A) (A) (A) (A) (A)
                 (A) (A) (A) (A) (A) (A) (A)
 The electronic state is 1-A.
 Alpha  occ. eigenvalues --  -89.91849 -19.63374 -19.63324 -19.62754 -19.62282
 Alpha  occ. eigenvalues --  -19.57727 -14.79012 -14.76088 -10.66035 -10.63443
 Alpha  occ. eigenvalues --  -10.62911 -10.59498 -10.59119 -10.59053 -10.58380
 Alpha  occ. eigenvalues --  -10.57602 -10.56831 -10.56763 -10.55310 -10.55251
 Alpha  occ. eigenvalues --  -10.55018 -10.53853 -10.53429 -10.53263  -8.27781
 Alpha  occ. eigenvalues --   -6.19718  -6.19483  -6.19290  -1.19250  -1.18670
 Alpha  occ. eigenvalues --   -1.15921  -1.14961  -1.13788  -1.08370  -1.00689
 Alpha  occ. eigenvalues --   -0.92615  -0.91830  -0.90070  -0.88525  -0.87520
 Alpha  occ. eigenvalues --   -0.85603  -0.82771  -0.78886  -0.76501  -0.75534
 Alpha  occ. eigenvalues --   -0.73465  -0.70783  -0.67676  -0.67281  -0.66366
 Alpha  occ. eigenvalues --   -0.63435  -0.63211  -0.61672  -0.60453  -0.58745
 Alpha  occ. eigenvalues --   -0.58122  -0.57025  -0.56544  -0.56013  -0.54972
 Alpha  occ. eigenvalues --   -0.53897  -0.52968  -0.52396  -0.51659  -0.51204
 Alpha  occ. eigenvalues --   -0.50585  -0.50388  -0.49928  -0.49283  -0.48867
 Alpha  occ. eigenvalues --   -0.48404  -0.48131  -0.47834  -0.47145  -0.46568
 Alpha  occ. eigenvalues --   -0.45903  -0.44741  -0.44284  -0.43845  -0.43651
 Alpha  occ. eigenvalues --   -0.43424  -0.43217  -0.41352  -0.41278  -0.37819
 Alpha  occ. eigenvalues --   -0.36190  -0.35646  -0.34400  -0.34346  -0.33771
 Alpha  occ. eigenvalues --   -0.33451  -0.32929  -0.32494  -0.30779  -0.24398
 Alpha virt. eigenvalues --   -0.03096   0.00300   0.04400   0.04734   0.06062
 Alpha virt. eigenvalues --    0.07187   0.07420   0.08087   0.08582   0.09157
 Alpha virt. eigenvalues --    0.09259   0.09595   0.10379   0.10807   0.11226
 Alpha virt. eigenvalues --    0.11725   0.12199   0.12587   0.12955   0.13002
 Alpha virt. eigenvalues --    0.13635   0.13879   0.13928   0.14162   0.14727
 Alpha virt. eigenvalues --    0.15297   0.16019   0.16294   0.17104   0.17286
 Alpha virt. eigenvalues --    0.17934   0.18277   0.18714   0.18945   0.19556
 Alpha virt. eigenvalues --    0.20333   0.20616   0.21210   0.21770   0.22386
 Alpha virt. eigenvalues --    0.22959   0.23310   0.23506   0.24261   0.24812
 Alpha virt. eigenvalues --    0.24982   0.25566   0.25811   0.26265   0.26911
 Alpha virt. eigenvalues --    0.27314   0.27563   0.28131   0.28820   0.28947
 Alpha virt. eigenvalues --    0.29329   0.30147   0.30190   0.30670   0.31101
 Alpha virt. eigenvalues --    0.31498   0.31920   0.32970   0.33308   0.33809
 Alpha virt. eigenvalues --    0.34208   0.35007   0.35236   0.35552   0.36107
 Alpha virt. eigenvalues --    0.36578   0.37069   0.37353   0.37725   0.38390
 Alpha virt. eigenvalues --    0.38454   0.39107   0.39949   0.40151   0.40224
 Alpha virt. eigenvalues --    0.40827   0.41093   0.41619   0.41878   0.42513
 Alpha virt. eigenvalues --    0.42639   0.42976   0.43586   0.43833   0.44105
 Alpha virt. eigenvalues --    0.44481   0.44854   0.45217   0.45464   0.45904
 Alpha virt. eigenvalues --    0.46620   0.46804   0.47290   0.47517   0.47650
 Alpha virt. eigenvalues --    0.47751   0.47992   0.48733   0.49190   0.49302
 Alpha virt. eigenvalues --    0.50125   0.50392   0.50691   0.50871   0.51326
 Alpha virt. eigenvalues --    0.51876   0.51953   0.52339   0.52519   0.52743
 Alpha virt. eigenvalues --    0.53153   0.53455   0.54302   0.54558   0.54998
 Alpha virt. eigenvalues --    0.55363   0.55590   0.56269   0.56932   0.57735
 Alpha virt. eigenvalues --    0.58015   0.58476   0.58642   0.59230   0.59948
 Alpha virt. eigenvalues --    0.60497   0.61256   0.61762   0.62162   0.62471
 Alpha virt. eigenvalues --    0.62924   0.63676   0.64696   0.65262   0.65648
 Alpha virt. eigenvalues --    0.65972   0.66083   0.66833   0.67565   0.67828
 Alpha virt. eigenvalues --    0.68484   0.68693   0.69387   0.70561   0.71165
 Alpha virt. eigenvalues --    0.71270   0.72546   0.72729   0.73594   0.74109
 Alpha virt. eigenvalues --    0.74590   0.74961   0.75319   0.76350   0.76403
 Alpha virt. eigenvalues --    0.76848   0.77774   0.79246   0.80478   0.81145
 Alpha virt. eigenvalues --    0.81434   0.81855   0.82422   0.83175   0.84068
 Alpha virt. eigenvalues --    0.84250   0.84854   0.85921   0.86645   0.87400
 Alpha virt. eigenvalues --    0.87592   0.88062   0.88523   0.89502   0.90021
 Alpha virt. eigenvalues --    0.90992   0.91294   0.91586   0.92488   0.92982
 Alpha virt. eigenvalues --    0.93334   0.93914   0.94951   0.95356   0.95998
 Alpha virt. eigenvalues --    0.96372   0.97223   0.98236   0.98602   0.99308
 Alpha virt. eigenvalues --    0.99847   1.00291   1.00894   1.01965   1.03012
 Alpha virt. eigenvalues --    1.03666   1.04577   1.05128   1.06034   1.06445
 Alpha virt. eigenvalues --    1.07175   1.07438   1.08760   1.09145   1.09735
 Alpha virt. eigenvalues --    1.10551   1.11385   1.11601   1.11810   1.12593
 Alpha virt. eigenvalues --    1.13205   1.13849   1.15117   1.15718   1.15912
 Alpha virt. eigenvalues --    1.16737   1.17930   1.18226   1.19009   1.20195
 Alpha virt. eigenvalues --    1.21090   1.21890   1.22828   1.22907   1.23373
 Alpha virt. eigenvalues --    1.24995   1.25606   1.26269   1.26852   1.28638
 Alpha virt. eigenvalues --    1.29271   1.30102   1.30535   1.31464   1.31656
 Alpha virt. eigenvalues --    1.32717   1.33934   1.34109   1.35399   1.36081
 Alpha virt. eigenvalues --    1.37319   1.37478   1.38198   1.38731   1.39438
 Alpha virt. eigenvalues --    1.40886   1.41769   1.42319   1.43393   1.44709
 Alpha virt. eigenvalues --    1.45727   1.46934   1.47980   1.48465   1.49685
 Alpha virt. eigenvalues --    1.50144   1.50959   1.51301   1.52120   1.52609
 Alpha virt. eigenvalues --    1.53368   1.53724   1.54749   1.54986   1.55158
 Alpha virt. eigenvalues --    1.55907   1.56479   1.57361   1.57938   1.58284
 Alpha virt. eigenvalues --    1.58674   1.59169   1.59904   1.60030   1.60185
 Alpha virt. eigenvalues --    1.60983   1.61262   1.61774   1.61949   1.62213
 Alpha virt. eigenvalues --    1.62957   1.63348   1.63771   1.64422   1.65460
 Alpha virt. eigenvalues --    1.65967   1.67150   1.67795   1.68367   1.68604
 Alpha virt. eigenvalues --    1.69079   1.69421   1.70076   1.70618   1.70726
 Alpha virt. eigenvalues --    1.71526   1.72631   1.73149   1.73767   1.73931
 Alpha virt. eigenvalues --    1.75210   1.75418   1.76051   1.76393   1.77479
[...]
 Dipole        =-8.99126540D-01-8.25383825D-01 1.58404220D+00
 ***** Axes restored to original set *****
 -------------------------------------------------------------------
 Center     Atomic                   Forces (Hartrees/Bohr)
 Number     Number              X              Y              Z
 -------------------------------------------------------------------
      1        6           0.000278021   -0.000026057    0.000041437
      2        1           0.000015352   -0.000004014   -0.000001304
      3        1           0.000009227   -0.000012257    0.000002950
      4        6           0.000011012   -0.000067040   -0.000064307
      5        1          -0.000004657   -0.000024066    0.000011925
      6        8          -0.000077351   -0.000088473   -0.000148946
      7        1          -0.000037238   -0.000010849   -0.000000408
      8        6           0.000015375    0.000011476    0.000000785
      9        1          -0.000010298    0.000006069    0.000017157
     10        8          -0.000042705    0.000097222   -0.000017831
     11        1          -0.000014569   -0.000011296    0.000022897
     12        6           0.000078612   -0.000075486   -0.000077751
     13        1           0.000018188   -0.000006395   -0.000028001
     14        6           0.000099584    0.000036977    0.000021759
     15        1          -0.000006091    0.000010965   -0.000007776
     16        8           0.000043145   -0.000159484   -0.000066838
     17        7           0.000027598   -0.000017705   -0.000071597
     18        6           0.000063836   -0.000069558   -0.000100154
     19        1          -0.000012863    0.000020083   -0.000036696
     20        6           0.000033581   -0.000005469   -0.000119938
     21        1           0.000010060    0.000014660    0.000015457
     22        6           0.000134045    0.000028651   -0.000058452
     23        1           0.000008390   -0.000015360    0.000013857
     24        1           0.000045127   -0.000044180   -0.000030857
     25        6           0.000062042    0.000068341    0.000045904
     26        6           0.000015558   -0.000032862    0.000064971
     27        1          -0.000000937    0.000013455    0.000000953
     28        6           0.000400571    0.000920327    0.000799478
     29        8          -0.000696703   -0.001017506    0.000323924
     30        7           0.000352511   -0.000115001   -0.000313798
     31        1          -0.000020414    0.000063369   -0.000037945
     32        1           0.000082293    0.000166393   -0.000078733
     33        1          -0.000018439    0.000002290    0.000013858
     34        6           0.000019161    0.000055450   -0.000290103
     35        6          -0.000114290    0.000046634    0.000083337
     36        6          -0.000119200    0.000032468    0.000049548
     37        6          -0.000118295    0.000003617    0.000187754
     38        6          -0.000281885    0.000007475    0.000202150
     39        8          -0.000302617   -0.000006157    0.000274424
     40       16          -0.000010832    0.000128410   -0.000611043
     41        1           0.000037139    0.000056990   -0.000018728
     42        1           0.000013707   -0.000016106   -0.000056907
     43        1          -0.000012973   -0.000001301    0.000058344
     44        1           0.000014918    0.000077035   -0.000008695
     45        1          -0.000020699   -0.000034808    0.000005926
     46        1           0.000031630    0.000019877   -0.000000841
     47        1           0.000010506   -0.000013414    0.000011269
     48        1          -0.000008129   -0.000013391   -0.000022416
 -------------------------------------------------------------------
 Cartesian Forces:  Max     0.001017506 RMS     0.000181094
 Leave Link  716 at Sat Aug 13 20:35:52 2022, MaxMem=  2684354560 cpu:               0.4 elap:               0.0
 (Enter /storage/apps/GAUSSIAN/G16_RevA03/g16/l103.exe)

 GradGradGradGradGradGradGradGradGradGradGradGradGradGradGradGradGradGrad
 Berny optimization.
 Search for a local minimum.
 Step number   1 out of a maximum of    2
 All quantities printed in internal units (Hartrees-Bohrs-Radians)
 Second derivative matrix not updated -- first step.
 ITU=  0
     Eigenvalues ---    0.00039   0.00092   0.00104   0.00126   0.00187
     Eigenvalues ---    0.00235   0.00307   0.00393   0.00420   0.00458
     Eigenvalues ---    0.00522   0.00728   0.00839   0.00908   0.00938
     Eigenvalues ---    0.00995   0.01085   0.01176   0.01381   0.01527
     Eigenvalues ---    0.01697   0.01884   0.02359   0.02498   0.02634
     Eigenvalues ---    0.02944   0.03211   0.03354   0.03759   0.03893
     Eigenvalues ---    0.04365   0.04630   0.04916   0.05080   0.05239
     Eigenvalues ---    0.05321   0.05547   0.05737   0.05834   0.05894
     Eigenvalues ---    0.06074   0.06177   0.06313   0.06394   0.06664
     Eigenvalues ---    0.06949   0.07348   0.07634   0.07820   0.08084
     Eigenvalues ---    0.08476   0.08780   0.09016   0.09660   0.10295
     Eigenvalues ---    0.10525   0.11555   0.12119   0.12203   0.12503
     Eigenvalues ---    0.12951   0.13124   0.13214   0.13546   0.13658
     Eigenvalues ---    0.14028   0.14083   0.15376   0.15986   0.16575
     Eigenvalues ---    0.16948   0.18166   0.18892   0.19638   0.19855
     Eigenvalues ---    0.19938   0.20377   0.21717   0.21852   0.22216
     Eigenvalues ---    0.24220   0.26823   0.27404   0.27700   0.31866
     Eigenvalues ---    0.32971   0.34214   0.34750   0.35358   0.37096
     Eigenvalues ---    0.38070   0.38070   0.38070   0.38070   0.40179
     Eigenvalues ---    0.43163   0.45152   0.48065   0.56602   0.56747
     Eigenvalues ---    0.61578   0.66439   0.69450   0.70060   0.74180
     Eigenvalues ---    0.79014   0.82506   0.87507   0.89151   0.91153
     Eigenvalues ---    0.91304   0.91970   0.93892   0.94472   0.94910
     Eigenvalues ---    0.95551   0.97137   0.99583   1.01434   1.02976
     Eigenvalues ---    1.05438   1.06773   1.09650   1.11383   1.14072
     Eigenvalues ---    1.19498   1.19977   1.24657   1.25999   1.29952
     Eigenvalues ---    1.33983   1.42406   1.51670   1.63663   1.70026
     Eigenvalues ---    1.79465   2.17822   2.26444
 Quadratic step=1.137D+00 exceeds max=3.000D-01 adjusted using Lamda=-1.574D-03.
 Angle between NR and scaled steps=  24.57 degrees.
 Angle between quadratic step and forces=  64.63 degrees.
 Linear search not attempted -- first point.
 Variable       Old X    -DE/DX   Delta X   Delta X   Delta X     New X
                                 (Linear)    (Quad)   (Total)
    X1        6.93935   0.00028   0.00000   0.00484   0.00484   6.94418
    Y1       -6.85738  -0.00003   0.00000  -0.01115  -0.01115  -6.86854
    Z1       -0.83241   0.00004   0.00000   0.02425   0.02425  -0.80816
    X2        7.25689   0.00002   0.00000   0.00521   0.00521   7.26210
    Y2       -7.05158  -0.00000   0.00000  -0.02929  -0.02929  -7.08087
    Z2       -2.85671  -0.00000   0.00000   0.02627   0.02627  -2.83044
    X3        8.31103   0.00001   0.00000   0.00131   0.00131   8.31234
    Y3       -8.02483  -0.00001   0.00000  -0.00482  -0.00482  -8.02965
    Z3        0.16919   0.00000   0.00000   0.03637   0.03637   0.20556
    X4        3.61763   0.00001   0.00000   0.00099   0.00099   3.61862
    Y4       -2.77954  -0.00007   0.00000  -0.00007  -0.00007  -2.77961
    Z4        2.27231  -0.00006   0.00000  -0.01237  -0.01237   2.25994
    X5        2.41959  -0.00000   0.00000   0.00623   0.00623   2.42582
    Y5       -4.44786  -0.00002   0.00000  -0.00504  -0.00504  -4.45290
    Z5        2.00784   0.00001   0.00000  -0.00627  -0.00627   2.00157
    X6        2.81699  -0.00008   0.00000  -0.00891  -0.00891   2.80808
    Y6       -1.33657  -0.00009   0.00000   0.00754   0.00754  -1.32903
    Z6        4.33324  -0.00015   0.00000  -0.02177  -0.02177   4.31147
    X7        1.04236  -0.00004   0.00000  -0.01093  -0.01093   1.03143
    Y7       -0.89117  -0.00001   0.00000  -0.00148  -0.00148  -0.89266
    Z7        4.11480  -0.00000   0.00000  -0.02541  -0.02541   4.08939
    X8        6.36091   0.00002   0.00000   0.00284   0.00284   6.36375
    Y8       -3.57604   0.00001   0.00000   0.01332   0.01332  -3.56272
    Z8        2.63858   0.00000   0.00000  -0.00272  -0.00272   2.63586
    X9        6.54324  -0.00001   0.00000   0.00565   0.00565   6.54889
    Y9       -5.24285   0.00001   0.00000   0.02344   0.02344  -5.21941
    Z9        3.84944   0.00002   0.00000   0.01112   0.01112   3.86056
   X10        7.77159  -0.00004   0.00000  -0.00659  -0.00659   7.76500
   Y10       -1.53590   0.00010   0.00000   0.02687   0.02687  -1.50903
   Z10        3.60554  -0.00002   0.00000  -0.01721  -0.01721   3.58833
   X11        6.73865  -0.00001   0.00000  -0.01105  -0.01105   6.72760
   Y11       -0.73279  -0.00001   0.00000   0.02910   0.02910  -0.70369
   Z11        4.87866   0.00002   0.00000  -0.02194  -0.02194   4.85672
   X12        3.78304   0.00008   0.00000   0.00481   0.00481   3.78785
   Y12       -1.30202  -0.00008   0.00000  -0.00995  -0.00995  -1.31198
   Z12       -0.22200  -0.00008   0.00000  -0.01693  -0.01693  -0.23893
   X13        4.35429   0.00002   0.00000   0.00456   0.00456   4.35884
   Y13        0.64330  -0.00001   0.00000  -0.00932  -0.00932   0.63398
   Z13        0.19004  -0.00003   0.00000  -0.01993  -0.01993   0.17011
   X14        7.20809   0.00010   0.00000   0.00576   0.00576   7.21385
   Y14       -4.11021   0.00004   0.00000  -0.00499  -0.00499  -4.11520
   Z14       -0.06521   0.00002   0.00000   0.00179   0.00179  -0.06341
   X15        9.15696  -0.00001   0.00000   0.00570   0.00570   9.16266
   Y15       -3.47535   0.00001   0.00000  -0.00662  -0.00662  -3.48197
   Z15       -0.29420  -0.00001   0.00000  -0.00014  -0.00014  -0.29435
   X16        5.63362   0.00004   0.00000   0.00625   0.00625   5.63987
   Y16       -2.57485  -0.00016   0.00000  -0.01614  -0.01614  -2.59099
   Z16       -1.65439  -0.00007   0.00000  -0.01030  -0.01030  -1.66469
   X17        1.46722   0.00003   0.00000   0.00399   0.00399   1.47122
   Y17       -1.17237  -0.00002   0.00000  -0.00868  -0.00868  -1.18105
   Z17       -1.64475  -0.00007   0.00000  -0.01459  -0.01459  -1.65934
   X18        0.35853   0.00006   0.00000   0.00709   0.00709   0.36562
   Y18       -3.39273  -0.00007   0.00000  -0.00514  -0.00514  -3.39787
   Z18       -2.53118  -0.00010   0.00000  -0.02745  -0.02745  -2.55862
   X19        1.38455  -0.00001   0.00000   0.00780   0.00780   1.39235
   Y19       -5.10196   0.00002   0.00000  -0.00678  -0.00678  -5.10874
   Z19       -2.08911  -0.00004   0.00000  -0.03594  -0.03594  -2.12506
   X20       -1.75340   0.00003   0.00000   0.00652   0.00652  -1.74688
   Y20       -3.41620  -0.00001   0.00000   0.00041   0.00041  -3.41580
   Z20       -3.88843  -0.00012   0.00000  -0.02669  -0.02669  -3.91511
   X21       -2.47524   0.00001   0.00000   0.00658   0.00658  -2.46866
   Y21       -5.21820   0.00001   0.00000   0.00296   0.00296  -5.21524
   Z21       -4.52793   0.00002   0.00000  -0.03406  -0.03406  -4.56200
   X22       -3.15337   0.00013   0.00000   0.00256   0.00256  -3.15082
   Y22       -1.05235   0.00003   0.00000   0.00293   0.00293  -1.04942
   Z22       -4.60910  -0.00006   0.00000  -0.01103  -0.01103  -4.62013
   X23       -3.36013   0.00001   0.00000   0.00504   0.00504  -3.35509
   Y23       -0.97286  -0.00002   0.00000   0.01959   0.01959  -0.95328
   Z23       -6.67419   0.00001   0.00000  -0.01045  -0.01045  -6.68464
   X24       -5.08619   0.00005   0.00000   0.00139   0.00139  -5.08480
   Y24       -1.10946  -0.00004   0.00000  -0.01103  -0.01103  -1.12049
   Z24       -3.85332  -0.00003   0.00000  -0.01471  -0.01471  -3.86803
   X25       -1.77383   0.00006   0.00000  -0.00859  -0.00859  -1.78242
   Y25        1.24853   0.00007   0.00000  -0.00135  -0.00135   1.24718
   Z25       -3.64085   0.00005   0.00000   0.01606   0.01606  -3.62479
   X26        0.36978   0.00002   0.00000  -0.00594  -0.00594   0.36384
   Y26        1.06845  -0.00003   0.00000  -0.00684  -0.00684   1.06161
   Z26       -2.28898   0.00006   0.00000   0.01019   0.01019  -2.27879
   X27        1.29127  -0.00000   0.00000  -0.01333  -0.01333   1.27794
   Y27        2.77474   0.00001   0.00000  -0.00974  -0.00974   2.76500
   Z27       -1.62956   0.00000   0.00000   0.02776   0.02776  -1.60180
   X28       -2.76481   0.00040   0.00000  -0.02372  -0.02372  -2.78853
   Y28        3.81815   0.00092   0.00000  -0.00048  -0.00048   3.81767
   Z28       -4.08367   0.00080   0.00000   0.05665   0.05665  -4.02703
   X29       -1.70411  -0.00070   0.00000  -0.06440  -0.06440  -1.76851
   Y29        5.74848  -0.00102   0.00000  -0.00862  -0.00862   5.73986
   Z29       -3.41146   0.00032   0.00000   0.14038   0.14038  -3.27108
   X30       -5.08510   0.00035   0.00000   0.00967   0.00967  -5.07543
   Y30        3.91758  -0.00012   0.00000   0.00566   0.00566   3.92325
   Z30       -5.24464  -0.00031   0.00000  -0.00960  -0.00960  -5.25423
   X31       -5.66308  -0.00002   0.00000   0.00752   0.00752  -5.65556
   Y31        5.64290   0.00006   0.00000   0.01382   0.01382   5.65672
   Z31       -5.80002  -0.00004   0.00000   0.01760   0.01760  -5.78242
   X32       -5.78466   0.00008   0.00000   0.05202   0.05202  -5.73264
   Y32        2.41211   0.00017   0.00000   0.02274   0.02274   2.43485
   Z32       -6.16517  -0.00008   0.00000  -0.06942  -0.06942  -6.23459
   X33        5.04819  -0.00002   0.00000   0.00316   0.00316   5.05135
   Y33       -7.56447   0.00000   0.00000  -0.00472  -0.00472  -7.56920
   Z33       -0.40181   0.00001   0.00000   0.02939   0.02939  -0.37242
   X34        0.43531   0.00002   0.00000   0.00053   0.00053   0.43584
   Y34        4.20255   0.00006   0.00000   0.00047   0.00047   4.20303
   Z34        5.13610  -0.00029   0.00000  -0.00786  -0.00786   5.12824
   X35       -3.26783  -0.00011   0.00000  -0.00026  -0.00026  -3.26810
   Y35        1.74756   0.00005   0.00000  -0.00064  -0.00064   1.74692
   Z35        2.53651   0.00008   0.00000   0.00448   0.00448   2.54099
   X36       -5.64901  -0.00012   0.00000   0.00852   0.00852  -5.64049
   Y36        1.66421   0.00003   0.00000  -0.00193  -0.00193   1.66229
   Z36        1.08322   0.00005   0.00000  -0.00947  -0.00947   1.07375
   X37       -9.27617  -0.00012   0.00000   0.00240   0.00240  -9.27377
   Y37       -0.77490   0.00000   0.00000   0.00118   0.00118  -0.77372
   Z37       -0.69664   0.00019   0.00000  -0.00085  -0.00085  -0.69750
   X38       -6.83161  -0.00028   0.00000  -0.00750  -0.00750  -6.83911
   Y38       -0.51497   0.00001   0.00000   0.00196   0.00196  -0.51301
   Z38        0.67984   0.00020   0.00000   0.01621   0.01621   0.69605
   X39       -2.10591  -0.00030   0.00000  -0.04478  -0.04478  -2.15069
   Y39       -0.12343  -0.00001   0.00000  -0.00218  -0.00218  -0.12561
   Z39        3.19611   0.00027   0.00000   0.07855   0.07855   3.27466
   X40       -2.33689  -0.00001   0.00000   0.05816   0.05816  -2.27873
   Y40        4.83873   0.00013   0.00000   0.00504   0.00504   4.84377
   Z40        3.28204  -0.00061   0.00000  -0.09272  -0.09272   3.18932
   X41        1.01529   0.00004   0.00000  -0.00397  -0.00397   1.01132
   Y41        5.99679   0.00006   0.00000   0.00394   0.00394   6.00072
   Z41        5.95233  -0.00002   0.00000  -0.01202  -0.01202   5.94030
   X42        1.94421   0.00001   0.00000   0.02496   0.02496   1.96917
   Y42        3.45463  -0.00002   0.00000  -0.03040  -0.03040   3.42424
   Z42        3.95883  -0.00006   0.00000   0.04343   0.04343   4.00226
   X43      -10.75524  -0.00001   0.00000  -0.01163  -0.01163 -10.76688
   Y43       -1.42727  -0.00000   0.00000   0.02032   0.02032  -1.40695
   Z43        0.58825   0.00006   0.00000  -0.00736  -0.00736   0.58089
   X44       -9.86674   0.00001   0.00000   0.01911   0.01911  -9.84764
   Y44        1.01322   0.00008   0.00000  -0.00347  -0.00347   1.00975
   Z44       -1.52806  -0.00001   0.00000  -0.02319  -0.02319  -1.55125
   X45       -9.12908  -0.00002   0.00000   0.00794   0.00794  -9.12115
   Y45       -2.19312  -0.00003   0.00000  -0.01349  -0.01349  -2.20661
   Z45       -2.18892   0.00001   0.00000   0.01327   0.01327  -2.17565
   X46       -5.95981   0.00003   0.00000  -0.02449  -0.02449  -5.98430
   Y46       -2.22153   0.00002   0.00000   0.00523   0.00523  -2.21630
   Z46        1.41849  -0.00000   0.00000   0.04391   0.04391   1.46240
   X47       -6.39296   0.00001   0.00000   0.03041   0.03041  -6.36255
   Y47        3.44598  -0.00001   0.00000  -0.00654  -0.00654   3.43944
   Z47        0.39413   0.00001   0.00000  -0.04465  -0.04465   0.34948
   X48       -0.00459  -0.00001   0.00000  -0.05506  -0.05506  -0.05966
   Y48        2.86164  -0.00001   0.00000   0.02285   0.02285   2.88449
   Z48        6.63080  -0.00002   0.00000  -0.00350  -0.00350   6.62729
         Item               Value     Threshold  Converged?
 Maximum Force            0.001018     0.000450     NO 
 RMS     Force            0.000181     0.000300     YES
 Maximum Displacement     0.140380     0.001800     NO 
 RMS     Displacement     0.025004     0.001200     NO 
 Predicted change in Energy=-2.105227D-04
 GradGradGradGradGradGradGradGradGradGradGradGradGradGradGradGradGradGrad

 Leave Link  103 at Sat Aug 13 20:35:52 2022, MaxMem=  2684354560 cpu:               1.0 elap:               0.1
 (Enter /storage/apps/GAUSSIAN/G16_RevA03/g16/l9999.exe)

 Test job not archived.
 1\1\GINC-T083\Force\RM062X\def2TZVP\C16H24N2O5S1\LV87696\13-Aug-2022\0
 \\#P M062X/Def2TZVP scf=(direct,conver=8) EmpiricalDispersion=GD3 Forc
 e Charge Prop=(Field,Read)\\Gaussian run\\0,1\C,3.672144,-3.628771,-0.
 440493\H,3.840181,-3.731533,-1.511707\H,4.398007,-4.246557,0.08953\C,1
 .914367,-1.470869,1.202453\H,1.280394,-2.353704,1.062503\O,1.490687,-0
 .707281,2.293051\H,0.551593,-0.471589,2.177456\C,3.366051,-1.89236,1.3
 96279\H,3.462536,-2.774396,2.037035\O,4.112547,-0.812762,1.907972\H,3.
 565938,-0.387775,2.581677\C,2.001897,-0.689001,-0.117478\H,2.304189,0.
 340419,0.100567\C,3.814358,-2.175027,-0.034507\H,4.845654,-1.839078,-0
 .155685\O,2.981184,-1.362553,-0.875463\N,0.776421,-0.620392,-0.870364\
 C,0.189728,-1.795355,-1.339442\H,0.73267,-2.699842,-1.105512\C,-0.9278
 6,-1.807777,-2.057666\H,-1.309841,-2.761353,-2.396078\C,-1.668693,-0.5
 56881,-2.439031\H,-1.778103,-0.514817,-3.531829\H,-2.691498,-0.587102,
 -2.039087\C,-0.938672,0.660691,-1.926655\C,0.19568,0.5654,-1.211275\H,
 0.683312,1.468331,-0.862328\C,-1.463075,2.020476,-2.160986\O,-0.901776
 ,3.041964,-1.805266\N,-2.690921,2.073096,-2.775342\H,-2.996773,2.98609
 4,-3.06924\H,-3.061112,1.276433,-3.262467\H,2.671387,-4.002947,-0.2126
 28\C,0.230358,2.223896,2.717908\C,-1.729263,0.924771,1.342262\C,-2.989
 327,0.880663,0.573214\C,-4.90874,-0.410058,-0.368647\C,-3.615132,-0.27
 2511,0.359754\O,-1.1144,-0.065317,1.691309\S,-1.236627,2.560545,1.7367
 8\H,0.537269,3.173362,3.149835\H,1.028831,1.828114,2.094921\H,-5.69143
 ,-0.755278,0.311291\H,-5.221256,0.536171,-0.808614\H,-4.830903,-1.1605
 5,-1.158328\H,-3.153798,-1.175583,0.750635\H,-3.383009,1.823532,0.2085
 64\H,-0.002431,1.514315,3.508866\\Version=ES64L-G16RevA.03\State=1-A\H
 F=-1507.9335386\RMSD=1.803e-09\RMSF=1.811e-04\Dipole=-1.6236696,-1.162
 1187,-0.1097901\Quadrupole=3.9505821,-3.0359712,-0.9146109,-2.0640426,
 8.1572917,4.9466998\PG=C01 [X(C16H24N2O5S1)]\\@


 BE CAREFUL NOT TO BECOME TOO GOOD OF A SONGBIRD OR 
 THEY'LL THROW YOU INTO A CAGE.

                                    -- SNOOPY TO WOODSTOCK
 Job cpu time:       0 days  3 hours 38 minutes 17.2 seconds.
 Elapsed time:       0 days  0 hours 13 minutes 40.1 seconds.
 File lengths (MBytes):  RWF=    435 Int=      0 D2E=      0 Chk=     48 Scr=      1
 Normal termination of Gaussian 16 at Sat Aug 13 20:35:52 2022.
