 Entering Gaussian System, Link 0=g16
 Initial command:
 /storage/apps/GAUSSIAN/G16_RevA03/g16/l1.exe "/scratch/tmp/1019336/Gau-67306.inp" -scrdir="/scratch/tmp/1019336/"
 Entering Link 1 = /storage/apps/GAUSSIAN/G16_RevA03/g16/l1.exe PID=     67307.
  
 Copyright (c) 1988,1990,1992,1993,1995,1998,2003,2009,2016,
            Gaussian, Inc.  All Rights Reserved.
  
 This is part of the Gaussian(R) 16 program.  It is based on
 the Gaussian(R) 09 system (copyright 2009, Gaussian, Inc.),
 the Gaussian(R) 03 system (copyright 2003, Gaussian, Inc.),
 the Gaussian(R) 98 system (copyright 1998, Gaussian, Inc.),
 the Gaussian(R) 94 system (copyright 1995, Gaussian, Inc.),
 the Gaussian 92(TM) system (copyright 1992, Gaussian, Inc.),
 the Gaussian 90(TM) system (copyright 1990, Gaussian, Inc.),
 the Gaussian 88(TM) system (copyright 1988, Gaussian, Inc.),
 the Gaussian 86(TM) system (copyright 1986, Carnegie Mellon
 University), and the Gaussian 82(TM) system (copyright 1983,
 Carnegie Mellon University). Gaussian is a federally registered
 trademark of Gaussian, Inc.
  
 This software contains proprietary and confidential information,
 including trade secrets, belonging to Gaussian, Inc.
  
 This software is provided under written license and may be
 used, copied, transmitted, or stored only in accord with that
 written license.
  
 The following legend is applicable only to US Government
 contracts under FAR:
  
                    RESTRICTED RIGHTS LEGEND
  
 Use, reproduction and disclosure by the US Government is
 subject to restrictions as set forth in subparagraphs (a)
 and (c) of the Commercial Computer Software - Restricted
 Rights clause in FAR 52.227-19.
  
 Gaussian, Inc.
 340 Quinnipiac St., Bldg. 40, Wallingford CT 06492
  
  
 ---------------------------------------------------------------
 Warning -- This program may not be used in any manner that
 competes with the business of Gaussian, Inc. or will provide
 assistance to any competitor of Gaussian, Inc.  The licensee
 of this program is prohibited from giving any competitor of
 Gaussian, Inc. access to this program.  By using this program,
 the user acknowledges that Gaussian, Inc. is engaged in the
 business of creating and licensing software in the field of
 computational chemistry and represents and warrants to the
 licensee that it is not a competitor of Gaussian, Inc. and that
 it will not use this program in any manner prohibited above.
 ---------------------------------------------------------------
  

 Cite this work as:
 Gaussian 16, Revision A.03,
 M. J. Frisch, G. W. Trucks, H. B. Schlegel, G. E. Scuseria, 
 M. A. Robb, J. R. Cheeseman, G. Scalmani, V. Barone, 
 G. A. Petersson, H. Nakatsuji, X. Li, M. Caricato, A. V. Marenich, 
 J. Bloino, B. G. Janesko, R. Gomperts, B. Mennucci, H. P. Hratchian, 
 J. V. Ortiz, A. F. Izmaylov, J. L. Sonnenberg, D. Williams-Young, 
 F. Ding, F. Lipparini, F. Egidi, J. Goings, B. Peng, A. Petrone, 
 T. Henderson, D. Ranasinghe, V. G. Zakrzewski, J. Gao, N. Rega, 
 G. Zheng, W. Liang, M. Hada, M. Ehara, K. Toyota, R. Fukuda, 
 J. Hasegawa, M. Ishida, T. Nakajima, Y. Honda, O. Kitao, H. Nakai, 
 T. Vreven, K. Throssell, J. A. Montgomery, Jr., J. E. Peralta, 
 F. Ogliaro, M. J. Bearpark, J. J. Heyd, E. N. Brothers, K. N. Kudin, 
 V. N. Staroverov, T. A. Keith, R. Kobayashi, J. Normand, 
 K. Raghavachari, A. P. Rendell, J. C. Burant, S. S. Iyengar, 
 J. Tomasi, M. Cossi, J. M. Millam, M. Klene, C. Adamo, R. Cammi, 
 J. W. Ochterski, R. L. Martin, K. Morokuma, O. Farkas, 
 J. B. Foresman, and D. J. Fox, Gaussian, Inc., Wallingford CT, 2016.
 
 ******************************************
 Gaussian 16:  ES64L-G16RevA.03 25-Dec-2016
                13-Aug-2022 
 ******************************************
 %NProcShared=16
 Will use up to   16 processors via shared memory.
 %mem=20GB
 ----------------------------------------------------------------------
 #P M062X/Def2TZVP scf=(direct,conver=8) EmpiricalDispersion=GD3 Force 
 Charge Prop=(Field,Read)
 ----------------------------------------------------------------------
 1/10=7,18=10,28=-2,30=1,38=1,125=101/1,3;
 2/12=2,17=6,18=5,29=2,40=1/2;
 3/5=44,7=101,11=2,25=1,30=1,71=1,74=-55,124=31/1,2,3;
 4//1;
 5/5=2,6=8,38=5/2;
 6/7=2,8=2,9=2,10=2,14=2,15=1,28=1/1,2;
 7/7=1,16=-2,29=1/1,2,3,16;
 1/10=7,18=10,28=-2,30=1/3;
 99/12=1/99;
 Leave Link    1 at Sat Aug 13 20:44:47 2022, MaxMem=  2684354560 cpu:               0.6 elap:               0.0
 (Enter /storage/apps/GAUSSIAN/G16_RevA03/g16/l101.exe)
 ------------
 Gaussian run
 ------------
 Symbolic Z-matrix:
 Charge =  0 Multiplicity = 1
 C                     3.59429  -3.61645  -0.43587 
 H                     3.74704  -3.70797  -1.51058 
 H                     4.3292   -4.23968   0.07404 
 C                     1.85229  -1.43675   1.24875 
 H                     1.20309  -2.30873   1.09023 
 O                     1.45178  -0.67531   2.32736 
 H                     0.51269  -0.36112   2.1539 
 C                     3.30707  -1.88418   1.41866 
 H                     3.3894   -2.76796   2.0586 
 O                     4.06693  -0.81413   1.92197 
 H                     3.51695  -0.37269   2.58494 
 C                     1.97526  -0.65851  -0.07199 
 H                     2.25722   0.37794   0.12831 
 C                     3.74929  -2.17157  -0.01094 
 H                     4.77806  -1.83536  -0.14259 
 O                     2.91533  -1.33432  -0.84481 
 N                     0.72744  -0.60226  -0.86567 
 C                     0.2359   -1.75825  -1.36938 
 H                     0.80348  -2.64825  -1.14868 
 C                    -0.8835   -1.74448  -2.15186 
 H                    -1.25791  -2.67234  -2.55833 
 C                    -1.51368  -0.53179  -2.42386 
 H                    -2.36384  -0.49992  -3.09253 
 H                    -2.95229  -0.8212   -0.89151 
 C                    -1.00754   0.64134  -1.87426 
 C                     0.13537   0.56523  -1.09757 
 H                     0.56981   1.4568   -0.66291 
 C                    -1.53754   2.0135   -2.16165 
 O                    -0.82848   2.98499  -2.05137 
 N                    -2.81692   2.05609  -2.64432 
 H                    -3.19585   2.98848  -2.71969 
 H                    -3.46129   1.35935  -2.30011 
 H                     2.59986  -3.99681  -0.19033 
 C                     0.19288   2.19718   2.84872 
 C                    -1.66206   0.89089   1.21972 
 C                    -2.8182    0.84051   0.48141 
 C                    -4.92186  -0.33984  -0.26195 
 C                    -3.42727  -0.43987   0.02734 
 O                    -0.89504  -0.08305   1.48873 
 S                    -1.20896   2.55544   1.77898 
 H                     0.42535   3.12707   3.36455 
 H                     1.06567   1.87496   2.28565 
 H                    -5.486    -0.1247    0.64497 
 H                    -5.13619   0.46773  -0.96822 
 H                    -5.30681  -1.26544  -0.69175 
 H                    -3.22902  -1.22496   0.76312 
 H                    -3.38116   1.75896   0.35588 
 H                    -0.06687   1.43501   3.58053 
 
 ITRead=  0  0  0  0  0  0  0  0  0  0  0  0  0  0  0  0  0  0  0  0
 ITRead=  0  0  0  0  0  0  0  0  0  0  0  0  0  0  0  0  0  0  0  0
 ITRead=  0  0  0  0  0  0  0  0
 MicOpt= -1 -1 -1 -1 -1 -1 -1 -1 -1 -1 -1 -1 -1 -1 -1 -1 -1 -1 -1 -1
 MicOpt= -1 -1 -1 -1 -1 -1 -1 -1 -1 -1 -1 -1 -1 -1 -1 -1 -1 -1 -1 -1
 MicOpt= -1 -1 -1 -1 -1 -1 -1 -1
 NAtoms=     48 NQM=       48 NQMF=       0 NMMI=      0 NMMIF=      0
                NMic=       0 NMicF=      0.
                    Isotopes and Nuclear Properties:
 (Nuclear quadrupole moments (NQMom) in fm**2, nuclear magnetic moments (NMagM)
  in nuclear magnetons)

  Atom         1           2           3           4           5           6           7           8           9          10
 IAtWgt=          12           1           1          12           1          16           1          12           1          16
 AtmWgt=  12.0000000   1.0078250   1.0078250  12.0000000   1.0078250  15.9949146   1.0078250  12.0000000   1.0078250  15.9949146
 NucSpn=           0           1           1           0           1           0           1           0           1           0
 AtZEff=  -0.0000000  -0.0000000  -0.0000000  -0.0000000  -0.0000000  -0.0000000  -0.0000000  -0.0000000  -0.0000000  -0.0000000
 NQMom=    0.0000000   0.0000000   0.0000000   0.0000000   0.0000000   0.0000000   0.0000000   0.0000000   0.0000000   0.0000000
 NMagM=    0.0000000   2.7928460   2.7928460   0.0000000   2.7928460   0.0000000   2.7928460   0.0000000   2.7928460   0.0000000
 AtZNuc=   6.0000000   1.0000000   1.0000000   6.0000000   1.0000000   8.0000000   1.0000000   6.0000000   1.0000000   8.0000000

  Atom        11          12          13          14          15          16          17          18          19          20
 IAtWgt=           1          12           1          12           1          16          14          12           1          12
 AtmWgt=   1.0078250  12.0000000   1.0078250  12.0000000   1.0078250  15.9949146  14.0030740  12.0000000   1.0078250  12.0000000
 NucSpn=           1           0           1           0           1           0           2           0           1           0
 AtZEff=  -0.0000000  -0.0000000  -0.0000000  -0.0000000  -0.0000000  -0.0000000  -0.0000000  -0.0000000  -0.0000000  -0.0000000
 NQMom=    0.0000000   0.0000000   0.0000000   0.0000000   0.0000000   0.0000000   2.0440000   0.0000000   0.0000000   0.0000000
 NMagM=    2.7928460   0.0000000   2.7928460   0.0000000   2.7928460   0.0000000   0.4037610   0.0000000   2.7928460   0.0000000
 AtZNuc=   1.0000000   6.0000000   1.0000000   6.0000000   1.0000000   8.0000000   7.0000000   6.0000000   1.0000000   6.0000000

  Atom        21          22          23          24          25          26          27          28          29          30
 IAtWgt=           1          12           1           1          12          12           1          12          16          14
 AtmWgt=   1.0078250  12.0000000   1.0078250   1.0078250  12.0000000  12.0000000   1.0078250  12.0000000  15.9949146  14.0030740
 NucSpn=           1           0           1           1           0           0           1           0           0           2
 AtZEff=  -0.0000000  -0.0000000  -0.0000000  -0.0000000  -0.0000000  -0.0000000  -0.0000000  -0.0000000  -0.0000000  -0.0000000
 NQMom=    0.0000000   0.0000000   0.0000000   0.0000000   0.0000000   0.0000000   0.0000000   0.0000000   0.0000000   2.0440000
 NMagM=    2.7928460   0.0000000   2.7928460   2.7928460   0.0000000   0.0000000   2.7928460   0.0000000   0.0000000   0.4037610
 AtZNuc=   1.0000000   6.0000000   1.0000000   1.0000000   6.0000000   6.0000000   1.0000000   6.0000000   8.0000000   7.0000000

  Atom        31          32          33          34          35          36          37          38          39          40
 IAtWgt=           1           1           1          12          12          12          12          12          16          32
 AtmWgt=   1.0078250   1.0078250   1.0078250  12.0000000  12.0000000  12.0000000  12.0000000  12.0000000  15.9949146  31.9720718
 NucSpn=           1           1           1           0           0           0           0           0           0           0
 AtZEff=  -0.0000000  -0.0000000  -0.0000000  -0.0000000  -0.0000000  -0.0000000  -0.0000000  -0.0000000  -0.0000000  -0.0000000
 NQMom=    0.0000000   0.0000000   0.0000000   0.0000000   0.0000000   0.0000000   0.0000000   0.0000000   0.0000000   0.0000000
 NMagM=    2.7928460   2.7928460   2.7928460   0.0000000   0.0000000   0.0000000   0.0000000   0.0000000   0.0000000   0.0000000
 AtZNuc=   1.0000000   1.0000000   1.0000000   6.0000000   6.0000000   6.0000000   6.0000000   6.0000000   8.0000000  16.0000000

  Atom        41          42          43          44          45          46          47          48
 IAtWgt=           1           1           1           1           1           1           1           1
 AtmWgt=   1.0078250   1.0078250   1.0078250   1.0078250   1.0078250   1.0078250   1.0078250   1.0078250
 NucSpn=           1           1           1           1           1           1           1           1
 AtZEff=  -0.0000000  -0.0000000  -0.0000000  -0.0000000  -0.0000000  -0.0000000  -0.0000000  -0.0000000
 NQMom=    0.0000000   0.0000000   0.0000000   0.0000000   0.0000000   0.0000000   0.0000000   0.0000000
 NMagM=    2.7928460   2.7928460   2.7928460   2.7928460   2.7928460   2.7928460   2.7928460   2.7928460
 AtZNuc=   1.0000000   1.0000000   1.0000000   1.0000000   1.0000000   1.0000000   1.0000000   1.0000000
 Background charge distribution read from input stream:
 Leave Link  101 at Sat Aug 13 20:44:47 2022, MaxMem=  2684354560 cpu:               1.5 elap:               0.1
 (Enter /storage/apps/GAUSSIAN/G16_RevA03/g16/l103.exe)

 GradGradGradGradGradGradGradGradGradGradGradGradGradGradGradGradGradGrad
 Berny optimization.
 Initialization pass.
 Trust Radius=3.00D-01 FncErr=1.00D-07 GrdErr=1.00D-07 EigMax=2.50D+02 EigMin=1.00D-04
 Number of steps in this run=      2 maximum allowed number of steps=      2.
 GradGradGradGradGradGradGradGradGradGradGradGradGradGradGradGradGradGrad

 Leave Link  103 at Sat Aug 13 20:44:47 2022, MaxMem=  2684354560 cpu:               0.3 elap:               0.0
 (Enter /storage/apps/GAUSSIAN/G16_RevA03/g16/l202.exe)
 ---------------------------------------------------------------------------------------------------
                            Z-MATRIX (ANGSTROMS AND DEGREES)
   CD    Cent   Atom    N1       Length/X        N2       Alpha/Y        N3        Beta/Z          J
 ---------------------------------------------------------------------------------------------------
      1      1  C        0   3.594289         -3.616446         -0.435874
      2      2  H        0   3.747044         -3.707972         -1.510581
      3      3  H        0   4.329205         -4.239684          0.074043
      4      4  C        0   1.852294         -1.436753          1.248752
      5      5  H        0   1.203092         -2.308734          1.090233
      6      6  O        0   1.451779         -0.675305          2.327357
      7      7  H        0   0.512687         -0.361115          2.153902
      8      8  C        0   3.307068         -1.884179          1.418657
      9      9  H        0   3.389404         -2.767963          2.058599
     10     10  O        0   4.066933         -0.814129          1.921965
     11     11  H        0   3.516954         -0.372692          2.584944
     12     12  C        0   1.975257         -0.658508         -0.071993
     13     13  H        0   2.257221          0.377936          0.128309
     14     14  C        0   3.749292         -2.171566         -0.010935
     15     15  H        0   4.778063         -1.835360         -0.142586
     16     16  O        0   2.915333         -1.334324         -0.844805
     17     17  N        0   0.727444         -0.602255         -0.865666
     18     18  C        0   0.235897         -1.758248         -1.369377
     19     19  H        0   0.803483         -2.648248         -1.148683
     20     20  C        0  -0.883498         -1.744482         -2.151856
     21     21  H        0  -1.257910         -2.672338         -2.558334
     22     22  C        0  -1.513683         -0.531787         -2.423862
     23     23  H        0  -2.363840         -0.499922         -3.092528
     24     24  H        0  -2.952293         -0.821200         -0.891505
     25     25  C        0  -1.007536          0.641343         -1.874255
     26     26  C        0   0.135372          0.565231         -1.097569
     27     27  H        0   0.569808          1.456798         -0.662908
     28     28  C        0  -1.537544          2.013501         -2.161647
     29     29  O        0  -0.828476          2.984991         -2.051370
     30     30  N        0  -2.816917          2.056092         -2.644315
     31     31  H        0  -3.195854          2.988484         -2.719693
     32     32  H        0  -3.461294          1.359349         -2.300107
     33     33  H        0   2.599860         -3.996805         -0.190325
     34     34  C        0   0.192877          2.197182          2.848722
     35     35  C        0  -1.662055          0.890891          1.219724
     36     36  C        0  -2.818198          0.840509          0.481408
     37     37  C        0  -4.921861         -0.339841         -0.261949
     38     38  C        0  -3.427274         -0.439866          0.027338
     39     39  O        0  -0.895037         -0.083050          1.488734
     40     40  S        0  -1.208957          2.555441          1.778975
     41     41  H        0   0.425349          3.127072          3.364554
     42     42  H        0   1.065665          1.874964          2.285649
     43     43  H        0  -5.485998         -0.124699          0.644974
     44     44  H        0  -5.136195          0.467725         -0.968217
     45     45  H        0  -5.306812         -1.265442         -0.691747
     46     46  H        0  -3.229018         -1.224961          0.763120
     47     47  H        0  -3.381162          1.758962          0.355878
     48     48  H        0  -0.066873          1.435008          3.580526
 ---------------------------------------------------------------------------------------------------
                         Z-Matrix orientation:                         
 ---------------------------------------------------------------------
 Center     Atomic      Atomic             Coordinates (Angstroms)
 Number     Number       Type             X           Y           Z
 ---------------------------------------------------------------------
      1          6           0        3.594289   -3.616446   -0.435874
      2          1           0        3.747044   -3.707972   -1.510581
      3          1           0        4.329205   -4.239684    0.074043
      4          6           0        1.852294   -1.436753    1.248752
      5          1           0        1.203092   -2.308734    1.090233
      6          8           0        1.451779   -0.675305    2.327357
      7          1           0        0.512687   -0.361115    2.153902
      8          6           0        3.307068   -1.884179    1.418657
      9          1           0        3.389404   -2.767963    2.058599
     10          8           0        4.066933   -0.814129    1.921965
     11          1           0        3.516954   -0.372692    2.584944
     12          6           0        1.975257   -0.658508   -0.071993
     13          1           0        2.257221    0.377936    0.128309
     14          6           0        3.749292   -2.171566   -0.010935
     15          1           0        4.778063   -1.835360   -0.142586
     16          8           0        2.915333   -1.334324   -0.844805
     17          7           0        0.727444   -0.602255   -0.865666
     18          6           0        0.235897   -1.758248   -1.369377
     19          1           0        0.803483   -2.648248   -1.148683
     20          6           0       -0.883498   -1.744482   -2.151856
     21          1           0       -1.257910   -2.672338   -2.558334
     22          6           0       -1.513683   -0.531787   -2.423862
     23          1           0       -2.363840   -0.499922   -3.092528
     24          1           0       -2.952293   -0.821200   -0.891505
     25          6           0       -1.007536    0.641343   -1.874255
     26          6           0        0.135372    0.565231   -1.097569
     27          1           0        0.569808    1.456798   -0.662908
     28          6           0       -1.537544    2.013501   -2.161647
     29          8           0       -0.828476    2.984991   -2.051370
     30          7           0       -2.816917    2.056092   -2.644315
     31          1           0       -3.195854    2.988484   -2.719693
     32          1           0       -3.461294    1.359349   -2.300107
     33          1           0        2.599860   -3.996805   -0.190325
     34          6           0        0.192877    2.197182    2.848722
     35          6           0       -1.662055    0.890891    1.219724
     36          6           0       -2.818198    0.840509    0.481408
     37          6           0       -4.921861   -0.339841   -0.261949
     38          6           0       -3.427274   -0.439866    0.027338
     39          8           0       -0.895037   -0.083050    1.488734
     40         16           0       -1.208957    2.555441    1.778975
     41          1           0        0.425349    3.127072    3.364554
     42          1           0        1.065665    1.874964    2.285649
     43          1           0       -5.485998   -0.124699    0.644974
     44          1           0       -5.136195    0.467725   -0.968217
     45          1           0       -5.306812   -1.265442   -0.691747
     46          1           0       -3.229018   -1.224961    0.763120
     47          1           0       -3.381162    1.758962    0.355878
     48          1           0       -0.066873    1.435008    3.580526
 ---------------------------------------------------------------------
                    Distance matrix (angstroms):
                    1          2          3          4          5
     1  C    0.000000
     2  H    1.089360   0.000000
     3  H    1.090203   1.769933   0.000000
     4  C    3.259382   4.045050   3.920644   0.000000
     5  H    3.123610   3.897922   3.812321   1.098609   0.000000
     6  O    4.569038   5.403247   5.105076   1.379712   2.064076
     7  H    5.176909   5.923762   5.825369   1.941865   2.324063
     8  C    2.553924   3.478539   2.898475   1.531478   2.171365
     9  H    2.642782   3.708176   2.643417   2.188762   2.434868
    10  O    3.692665   4.501003   3.901029   2.396978   3.335747
    11  H    4.433200   5.286810   4.681667   2.385105   3.366954
    12  C    3.391618   3.808936   4.288032   1.537905   2.161077
    13  H    4.249840   4.647599   5.061470   2.170819   3.042151
    14  C    1.514027   2.146971   2.149566   2.392773   2.777503
    15  H    2.158612   2.537930   2.455438   3.264174   3.811082
    16  O    2.415841   2.601770   3.359231   2.350218   2.761452
    17  N    4.181969   4.379427   5.204481   2.536225   2.638911
    18  C    3.950079   4.018646   4.999616   3.093654   2.699663
    19  H    3.038767   3.149371   4.056901   2.883647   2.299500
    20  C    5.147759   5.070350   6.192974   4.375316   3.896586
    21  H    5.379592   5.217268   6.371957   5.068919   4.415969
    22  C    6.289562   6.212687   7.357131   5.063285   4.784064
    23  H    7.229788   7.080752   8.295170   6.123737   5.787080
    24  H    7.132933   7.321053   8.101761   5.295627   4.838106
    25  C    6.432301   6.454055   7.490066   4.717021   4.730541
    26  C    5.467026   5.610260   6.484452   3.530012   3.766454
    27  H    5.910739   6.122763   6.864843   3.697547   4.201641
    28  C    7.810909   7.815754   8.861116   5.918283   6.063623
    29  O    8.108616   8.125490   9.127704   6.134261   6.482319
    30  N    8.840727   8.808823   9.904207   7.011239   7.011350
    31  H    9.744074   9.721538  10.801754   7.798402   7.869357
    32  H    8.832619   8.846538   9.883200   6.974726   6.834159
    33  H    1.092637   1.772719   1.766215   3.030456   2.537789
    34  C    7.493760   8.155150   8.138876   4.303377   4.941265
    35  C    7.119427   7.606738   7.970607   4.215379   4.296910
    36  C    7.862941   8.231592   8.778364   5.252450   5.143848
    37  C    9.126401   9.383672  10.045093   7.026707   6.574191
    38  C    7.720594   8.032220   8.637347   5.509943   5.105164
    39  O    6.028520   6.609453   6.824343   3.072122   3.084577
    40  S    8.128279   8.637909   8.930384   5.058657   5.472892
    41  H    8.364237   9.028755   8.963071   5.228890   5.943518
    42  H    6.629948   7.264319   7.275357   3.558288   4.353302
    43  H    9.788368  10.135844  10.658202   7.479075   7.050687
    44  H    9.653248   9.830694  10.622608   7.575023   7.220284
    45  H    9.209902   9.413222  10.113623   7.419413   6.829551
    46  H    7.329004   7.745999   8.166402   5.108858   4.574403
    47  H    8.841878   9.175094   9.773072   6.196683   6.172586
    48  H    7.419755   8.180194   7.988933   4.167419   4.672256
                    6          7          8          9         10
     6  O    0.000000
     7  H    1.005334   0.000000
     8  C    2.393577   3.266324   0.000000
     9  H    2.864584   3.752000   1.094248   0.000000
    10  O    2.650027   3.590499   1.405603   2.072482   0.000000
    11  H    2.103063   3.035054   1.920643   2.455734   0.967928
    12  C    2.455848   2.679956   2.344787   3.314971   2.893993
    13  H    2.567852   2.773558   2.807907   3.860640   2.813055
    14  C    3.603467   4.294166   1.523774   2.183616   2.383198
    15  H    4.302384   5.063663   2.145621   2.764659   2.410599
    16  O    3.555124   3.963848   2.362003   3.272586   3.041677
    17  N    3.274965   3.036784   3.676401   4.508619   4.355223
    18  C    4.039428   3.800275   4.149829   4.766041   5.138203
    19  H    4.049154   4.027730   3.666466   4.121647   4.841795
    20  C    5.163333   4.733137   5.507170   6.085486   6.478298
    21  H    5.933004   5.539128   6.105463   6.551545   7.202775
    22  C    5.602557   5.009114   6.311383   7.009508   7.078786
    23  H    6.630600   5.984873   7.377408   8.048474   8.160803
    24  H    5.456941   4.635975   6.756210   7.260174   7.562089
    25  C    5.043346   4.420639   5.986430   6.813501   6.502301
    26  C    3.873238   3.401845   4.731877   5.626749   5.145619
    27  H    3.776959   3.352982   4.794542   5.762406   4.905972
    28  C    6.026349   5.335374   7.175009   8.059013   7.488761
    29  O    6.145777   5.538904   7.269981   8.232790   7.361096
    30  N    7.099283   6.320763   8.338865   9.160094   8.745083
    31  H    7.777953   6.980331   9.119034   9.966663   9.420877
    32  H    7.049222   6.212143   8.376181   9.108517   8.900792
    33  H    4.323098   4.803117   2.748118   2.681621   4.091882
    34  C    3.179283   2.670194   5.329238   5.957747   4.993514
    35  C    3.657292   2.677631   5.694978   6.293502   6.018433
    36  C    4.892640   3.916112   6.769139   7.351389   7.226206
    37  C    6.887694   5.947361   8.539595   8.964254   9.262443
    38  C    5.399137   4.477920   7.026604   7.484194   7.739045
    39  O    2.561562   1.581599   4.572380   5.088216   5.034214
    40  S    4.221132   3.407481   6.343070   7.040010   6.261746
    41  H    4.072764   3.693339   6.099464   6.726260   5.556551
    42  H    2.579670   2.307204   4.461695   5.196930   4.046121
    43  H    7.160051   6.190071   9.000687   9.367921   9.662531
    44  H    7.454443   6.507263   9.083904   9.608180   9.731077
    45  H    7.425753   6.540802   8.890195   9.243708   9.741780
    46  H    4.965765   4.084221   6.601872   6.918282   7.398825
    47  H    5.759315   4.784316   7.689889   8.320629   8.034149
    48  H    2.886201   2.365841   5.203283   5.650405   4.989769
                   11         12         13         14         15
    11  H    0.000000
    12  C    3.085099   0.000000
    13  H    2.861018   1.092630   0.000000
    14  C    3.166783   2.332439   2.957300   0.000000
    15  H    3.342037   3.040672   3.365517   1.090292   0.000000
    16  O    3.612459   1.392016   2.076511   1.446306   2.052781
    17  N    4.443059   1.479905   2.070985   3.510679   4.295452
    18  C    5.321819   2.432695   3.300318   3.789478   4.705554
    19  H    5.145974   2.547819   3.591915   3.193664   4.179749
    20  C    6.609316   3.698331   4.423565   5.121395   6.008219
    21  H    7.385188   4.548711   5.373860   5.640220   6.555100
    22  C    7.100758   4.209519   4.643371   6.017474   6.818328
    23  H    8.175183   5.289286   5.700757   7.047056   7.841705
    24  H    7.357854   4.997881   5.442149   6.892759   7.832484
    25  C    6.433019   3.719518   3.839047   5.831966   6.527319
    26  C    5.086816   2.436087   2.457661   4.661679   5.313136
    27  H    4.751973   2.607487   2.153446   4.868184   5.368282
    28  C    7.332939   4.883242   4.724321   7.077498   7.666631
    29  O    7.186947   5.005391   4.590127   7.190926   7.636263
    30  N    8.565166   6.078719   6.020841   8.241534   8.893018
    31  H    9.192305   6.859392   6.682971   9.066341   9.669245
    32  H    8.692504   6.212272   6.289816   8.348666   9.096596
    33  H    4.655897   3.398288   4.399692   2.164457   3.068989
    34  C    4.209907   4.456727   3.869343   6.317570   6.799504
    35  C    5.502963   4.159232   4.100614   6.338442   7.124848
    36  C    6.784605   5.052773   5.108672   7.242025   8.077922
    37  C    8.906148   6.907088   7.225422   8.866066   9.815261
    38  C    7.400552   5.407866   5.743908   7.382638   8.324892
    39  O    4.555352   3.317470   3.464101   5.308550   6.157585
    40  S    5.617632   4.888228   4.413685   7.080438   7.669155
    41  H    4.734360   5.342536   4.624585   7.107608   7.474750
    42  H    3.339214   3.578312   2.883577   5.371271   5.783142
    43  H    9.212933   7.514607   7.776698   9.482113  10.435399
    44  H    9.391924   7.255644   7.474827   9.318483  10.211679
    45  H    9.454764   7.333553   7.783815   9.126751  10.115883
    46  H    7.039428   5.301204   5.750746   7.084634   8.081227
    47  H    7.556235   5.892237   5.809508   8.150275   8.929758
    48  H    4.135551   4.679102   4.293788   6.361532   6.930388
                   16         17         18         19         20
    16  O    0.000000
    17  N    2.307210   0.000000
    18  C    2.763017   1.353389   0.000000
    19  H    2.505723   2.066874   1.078406   0.000000
    20  C    4.038283   2.356714   1.365836   2.160799   0.000000
    21  H    4.705573   3.330465   2.116752   2.497406   1.079965
    22  C    4.770081   2.730493   2.382682   3.387440   1.393467
    23  H    5.798116   3.811223   3.363223   4.292525   2.150629
    24  H    5.890205   3.686335   3.357227   4.184507   2.592460
    25  C    4.511311   2.360920   2.749375   3.824612   2.405121
    26  C    3.376445   1.329418   2.341482   3.282595   2.735762
    27  H    3.650334   2.075008   3.308643   4.140288   3.818018
    28  C    5.724519   3.694850   4.242508   5.313982   3.814487
    29  O    5.841951   4.085966   4.908800   5.933929   4.730860
    30  N    6.898684   4.774191   5.049191   6.121685   4.292434
    31  H    7.716766   5.632325   6.010968   7.087702   5.298150
    32  H    7.073553   4.842627   4.924925   5.964473   4.037422
    33  H    2.759832   3.935098   3.462603   2.442136   4.588501
    34  C    5.790116   4.681804   5.782701   6.311123   6.457637
    35  C    5.492390   3.505430   4.162163   4.920745   4.349585
    36  C    6.273924   4.058048   4.416609   5.286322   4.166452
    37  C    7.921510   5.687529   5.462668   6.236554   4.674734
    38  C    6.464468   4.252706   4.136153   4.915209   3.594677
    39  O    4.640044   2.906066   3.500585   4.052305   4.001798
    40  S    6.246940   4.551354   5.532417   6.300752   5.834954
    41  H    6.619877   5.647469   6.805317   7.339388   7.475018
    42  H    4.849798   4.022660   5.219958   5.685316   6.049056
    43  H    8.617714   6.412250   6.282211   7.010212   5.623963
    44  H    8.251649   5.961345   5.828830   6.709816   4.937640
    45  H    8.223858   6.073081   5.605681   6.281453   4.682639
    46  H    6.352199   4.323690   4.103361   4.684208   3.777360
    47  H    7.117296   4.893686   5.332015   6.260867   4.980078
    48  H    6.012180   4.954796   5.898313   6.308401   6.605773
                   21         22         23         24         25
    21  H    0.000000
    22  C    2.159968   0.000000
    23  H    2.495563   1.082080   0.000000
    24  H    3.012634   2.121668   2.300869   0.000000
    25  C    3.392806   1.390858   2.150869   2.624292   0.000000
    26  C    3.815353   2.383670   3.370530   3.390919   1.383934
    27  H    4.897240   3.375850   4.282300   4.200801   2.149498
    28  C    4.710907   2.558870   2.804746   3.413254   1.498773
    29  O    5.696209   3.602220   3.947907   4.510319   2.357142
    30  N    4.979553   2.905880   2.634271   3.371866   2.422471
    31  H    5.985530   3.912739   3.605583   4.232645   3.318520
    32  H    4.601748   2.717517   2.299832   2.645380   2.591874
    33  H    4.716362   5.823768   6.729732   6.434479   6.112393
    34  C    7.419789   6.177359   7.007826   5.743868   5.115480
    35  C    5.208998   3.914300   4.585017   3.008863   3.172282
    36  C    4.900472   3.467787   3.843984   2.159664   2.977803
    37  C    4.913091   4.040593   3.818544   2.123027   4.345595
    38  C    4.046699   3.111055   3.296674   1.102404   3.261932
    39  O    4.818179   3.986539   4.828988   3.231518   3.441961
    40  S    6.792961   5.223760   5.865197   4.644609   4.129217
    41  H    8.458553   7.117082   7.913821   6.716499   5.973033
    42  H    7.038546   5.884299   6.806348   5.788574   4.808824
    43  H    5.884588   5.036145   4.884423   3.043935   5.195186
    44  H    5.237324   4.029953   3.624223   2.537053   4.230470
    45  H    4.675159   4.233946   3.874384   2.404374   4.849529
    46  H    4.124588   3.685067   4.017491   1.725510   3.920946
    47  H    5.712902   4.057335   4.246058   2.897780   3.443351
    48  H    7.481608   6.481837   7.317763   5.780587   5.591904
                   26         27         28         29         30
    26  C    0.000000
    27  H    1.082846   0.000000
    28  C    2.455279   2.645197   0.000000
    29  O    2.773802   2.493672   1.207779   0.000000
    30  N    3.651178   3.969261   1.368056   2.273397   0.000000
    31  H    4.427246   4.555945   2.002998   2.459908   1.009272
    32  H    3.874626   4.351977   2.036639   3.104241   1.009530
    33  H    5.263931   5.838342   7.558307   7.997653   8.485346
    34  C    4.270806   3.608572   5.303951   5.067021   6.265159
    35  C    2.950702   2.974183   3.565028   3.972426   4.197880
    36  C    3.360435   3.628754   3.162550   3.869465   3.353772
    37  C    5.205096   5.791987   4.538796   5.568872   3.980823
    38  C    3.868861   4.477772   3.792327   4.775398   3.706760
    39  O    2.858492   3.024312   4.258359   4.685045   5.035042
    40  S    3.747354   3.214625   3.991262   3.873089   4.732904
    41  H    5.153412   4.362469   5.969245   5.560980   6.911280
    42  H    3.745265   3.019060   5.155030   4.861035   6.277881
    43  H    5.925560   6.394097   5.295216   6.215541   4.764375
    44  H    5.274055   5.799133   4.094385   5.105516   3.272807
    45  H    5.756164   6.476580   5.207634   6.322203   4.587449
    46  H    4.240999   4.863791   4.680062   5.604253   4.748236
    47  H    3.987921   4.091380   3.130759   3.716745   3.067216
    48  H    4.762561   4.290987   5.955676   5.890733   6.833530
                   31         32         33         34         35
    31  H    0.000000
    32  H    1.703112   0.000000
    33  H    9.422434   8.359256   0.000000
    34  C    6.566346   6.369095   7.307178   0.000000
    35  C    4.719263   3.980694   6.636394   2.792992   0.000000
    36  C    3.873431   2.901654   7.294257   4.063411   1.372704
    37  C    4.483007   3.028959   8.363899   6.501792   3.786343
    38  C    4.399241   2.941995   7.001824   5.293366   2.511712
    39  O    5.695519   4.798073   5.509176   2.869248   1.268560
    40  S    4.936932   4.810672   7.830527   1.799402   1.813501
    41  H    7.081693   7.093604   8.253199   1.088495   3.736048
    42  H    6.667377   6.464393   6.554531   1.087490   3.089507
    43  H    5.124222   3.869797   9.004001   6.518992   3.998037
    44  H    3.631366   2.318236   8.965695   6.779311   4.127445
    45  H    5.163777   3.589190   8.380169   7.400761   4.646262
    46  H    5.466645   4.014470   6.524415   5.269740   2.672207
    47  H    3.317409   2.687074   8.318643   4.379505   2.110712
    48  H    7.203927   6.790410   7.129893   1.088079   2.900699
                   36         37         38         39         40
    36  C    0.000000
    37  C    2.524124   0.000000
    38  C    1.488796   1.525609   0.000000
    39  O    2.359283   4.398425   2.945373   0.000000
    40  S    2.685950   5.131636   4.118377   2.672905   0.000000
    41  H    4.905252   7.332371   6.221154   3.945504   2.347718
    42  H    4.405653   6.873579   5.535784   2.883270   2.427689
    43  H    2.841749   1.089516   2.172360   4.668039   5.173218
    44  H    2.759255   1.094037   2.176066   4.932280   5.227697
    45  H    3.464754   1.090711   2.175160   5.061255   6.123400
    46  H    2.124688   2.167930   1.094100   2.697766   4.405003
    47  H    1.084547   2.675899   2.223715   3.295025   2.716258
    48  H    4.186616   6.440933   5.237613   2.714028   2.409422
                   41         42         43         44         45
    41  H    0.000000
    42  H    1.772517   0.000000
    43  H    7.274212   7.043774   0.000000
    44  H    7.534972   7.143601   1.753771   0.000000
    45  H    8.282839   7.702954   1.766416   1.763353   0.000000
    46  H    6.249964   5.511074   2.513661   3.082213   2.536830
    47  H    5.041169   4.848891   2.839382   2.549639   3.735327
    48  H    1.775389   1.775644   6.357442   6.879297   7.280227
                   46         47         48
    46  H    0.000000
    47  H    3.015425   0.000000
    48  H    5.001237   4.635495   0.000000
 Stoichiometry    C16H24N2O5S
 Framework group  C1[X(C16H24N2O5S)]
 Deg. of freedom   138
 Full point group                 C1      NOp   1
 Largest Abelian subgroup         C1      NOp   1
 Largest concise Abelian subgroup C1      NOp   1
                         Standard orientation:                         
 ---------------------------------------------------------------------
 Center     Atomic      Atomic             Coordinates (Angstroms)
 Number     Number       Type             X           Y           Z
 ---------------------------------------------------------------------
      1          6           0        4.685364   -1.937290    0.592137
      2          1           0        4.649923   -2.885586    0.057174
      3          1           0        5.707688   -1.766926    0.930327
      4          6           0        2.505416    0.483397    0.700198
      5          1           0        2.310652   -0.159120    1.569784
      6          8           0        2.019998    1.762913    0.875726
      7          1           0        1.027785    1.700700    1.025185
      8          6           0        4.005200    0.516247    0.391985
      9          1           0        4.606213    0.607176    1.301873
     10          8           0        4.272574    1.564081   -0.505944
     11          1           0        3.722895    2.311396   -0.229797
     12          6           0        1.997860   -0.223956   -0.567553
     13          1           0        1.806969    0.509037   -1.355032
     14          6           0        4.241208   -0.811450   -0.317526
     15          1           0        4.953836   -0.662679   -1.129169
     16          8           0        2.971747   -1.154055   -0.919930
     17          7           0        0.734893   -0.973231   -0.384201
     18          6           0        0.739507   -2.043761    0.443813
     19          1           0        1.682373   -2.271950    0.914866
     20          6           0       -0.390443   -2.794926    0.600252
     21          1           0       -0.369708   -3.654357    1.253914
     22          6           0       -1.545373   -2.447668   -0.097816
     23          1           0       -2.427873   -3.070247   -0.030845
     24          1           0       -2.361401   -1.415773    1.566746
     25          6           0       -1.536209   -1.327997   -0.922886
     26          6           0       -0.358451   -0.612235   -1.048756
     27          1           0       -0.305009    0.257271   -1.691920
     28          6           0       -2.680270   -0.902500   -1.792597
     29          8           0       -2.488564   -0.244221   -2.786905
     30          7           0       -3.903632   -1.397187   -1.431697
     31          1           0       -4.673918   -1.007714   -1.954766
     32          1           0       -4.076290   -1.520853   -0.444759
     33          1           0        4.044975   -2.009369    1.474500
     34          6           0       -0.285286    3.595648   -0.322017
     35          6           0       -1.614051    1.376902    0.732662
     36          6           0       -2.737879    0.626834    0.974992
     37          6           0       -4.167118   -0.794400    2.494392
     38          6           0       -2.768557   -0.476016    1.974639
     39          8           0       -0.450346    1.162723    1.190006
     40         16           0       -1.874019    2.756031   -0.415904
     41          1           0       -0.408708    4.537250   -0.853971
     42          1           0        0.509291    3.022176   -0.793622
     43          1           0       -4.577834    0.041327    3.060006
     44          1           0       -4.860667   -0.992356    1.671762
     45          1           0       -4.161108   -1.673356    3.140187
     46          1           0       -2.093479   -0.242625    2.803404
     47          1           0       -3.671184    0.951093    0.527734
     48          1           0       -0.018715    3.799415    0.713036
 ---------------------------------------------------------------------
 Rotational constants (GHZ):           0.3320653           0.1644231           0.1400545
 Leave Link  202 at Sat Aug 13 20:44:47 2022, MaxMem=  2684354560 cpu:               0.2 elap:               0.0
 (Enter /storage/apps/GAUSSIAN/G16_RevA03/g16/l301.exe)
 Standard basis: def2TZVP (5D, 7F)
 Ernie: Thresh=  0.10000D-02 Tol=  0.10000D-05 Strict=F.
 There are  1014 symmetry adapted cartesian basis functions of A   symmetry.
 There are   894 symmetry adapted basis functions of A   symmetry.
   894 basis functions,  1434 primitive gaussians,  1014 cartesian basis functions
    95 alpha electrons       95 beta electrons
       nuclear repulsion energy      2496.0669008404 Hartrees.
 IExCor= 4336 DFT=T Ex+Corr=M062X ExCW=0 ScaHFX=  0.540000
 ScaDFX=  1.000000  1.000000  1.000000  1.000000 ScalE2=  1.000000  1.000000
 IRadAn=      5 IRanWt=     -1 IRanGd=            0 ICorTp=0 IEmpDi=131
 NAtoms=   48 NActive=   48 NUniq=   48 SFac= 1.00D+00 NAtFMM=   60 NAOKFM=F Big=F
 Integral buffers will be    131072 words long.
 Raffenetti 2 integral format.
 Two-electron integral symmetry is turned on.
 R6Disp:  Grimme-D3 Dispersion energy=       -0.0042750160 Hartrees.
 Nuclear repulsion after empirical dispersion term =     2496.0626258244 Hartrees.
 Leave Link  301 at Sat Aug 13 20:44:47 2022, MaxMem=  2684354560 cpu:               0.9 elap:               0.1
 (Enter /storage/apps/GAUSSIAN/G16_RevA03/g16/l302.exe)
 NPDir=0 NMtPBC=     1 NCelOv=     1 NCel=       1 NClECP=     1 NCelD=      1
         NCelK=      1 NCelE2=     1 NClLst=     1 CellRange=     0.0.
 One-electron integrals computed using PRISM.
 One-electron integral symmetry used in STVInt
   1 Symmetry operations used in ECPInt.
 ECPInt:  NShTT=   65703 NPrTT=  200010 LenC2=   56942 LenP2D=  121336.
 LDataN:  DoStor=T MaxTD1= 6 Len=  172
 NBasis=   894 RedAO= T EigKep=  1.81D-05  NBF=   894
 NBsUse=   894 1.00D-06 EigRej= -1.00D+00 NBFU=   894
 Precomputing XC quadrature grid using
 IXCGrd= 4 IRadAn=           5 IRanWt=          -1 IRanGd=           0 AccXCQ= 0.00D+00.
 Generated NRdTot=       0 NPtTot=           0 NUsed=           0 NTot=          32
 NSgBfM=   998   996   997   997   998 MxSgAt=    48 MxSgA2=    48.
 Leave Link  302 at Sat Aug 13 20:44:48 2022, MaxMem=  2684354560 cpu:              18.5 elap:               1.2
 (Enter /storage/apps/GAUSSIAN/G16_RevA03/g16/l303.exe)
 DipDrv:  MaxL=1.
 Leave Link  303 at Sat Aug 13 20:44:49 2022, MaxMem=  2684354560 cpu:               2.0 elap:               0.2
 (Enter /storage/apps/GAUSSIAN/G16_RevA03/g16/l401.exe)
 ExpMin= 9.52D-02 ExpMax= 6.07D+04 ExpMxC= 2.07D+03 IAcc=3 IRadAn=         5 AccDes= 0.00D+00
 Harris functional with IExCor= 1009 and IRadAn=       5 diagonalized for initial guess.
 HarFok:  IExCor= 1009 AccDes= 0.00D+00 IRadAn=         5 IDoV= 1 UseB2=F ITyADJ=14
 ICtDFT=  3500011 ScaDFX=  1.000000  1.000000  1.000000  1.000000
 FoFCou: FMM=F IPFlag=           0 FMFlag=      100000 FMFlg1=           0
         NFxFlg=           0 DoJE=T BraDBF=F KetDBF=T FulRan=T
         wScrn=  0.000000 ICntrl=       500 IOpCl=  0 I1Cent=   200000004 NGrid=           0
         NMat0=    1 NMatS0=      1 NMatT0=    0 NMatD0=    1 NMtDS0=    0 NMtDT0=    0
 Petite list used in FoFCou.
 Harris En= -1507.24412734078    
 JPrj=0 DoOrth=F DoCkMO=F.
 Leave Link  401 at Sat Aug 13 20:44:52 2022, MaxMem=  2684354560 cpu:              59.9 elap:               3.8
 (Enter /storage/apps/GAUSSIAN/G16_RevA03/g16/l502.exe)
 Integral symmetry usage will be decided dynamically.
 Closed shell SCF:
 Using DIIS extrapolation, IDIIS=  1040.
 NGot=  2684354560 LenX=  2682272944 LenY=  2681243734
 Requested convergence on RMS density matrix=1.00D-08 within 128 cycles.
 Requested convergence on MAX density matrix=1.00D-06.
 Requested convergence on             energy=1.00D-06.
 No special actions if energy rises.
 Fock matrices will be formed incrementally for  20 cycles.
 Integral accuracy reduced to 1.0D-05 until final iterations.

 Cycle   1  Pass 0  IDiag  1:
 FoFJK:  IHMeth= 1 ICntrl=       0 DoSepK=F KAlg= 0 I1Cent=           0 FoldK=F
 IRaf= 790000000 NMat=       1 IRICut=       1 DoRegI=T DoRafI=F ISym2E= 0 IDoP0=0 IntGTp=1.
 FoFCou: FMM=F IPFlag=           0 FMFlag=      100000 FMFlg1=           0
         NFxFlg=           0 DoJE=F BraDBF=F KetDBF=F FulRan=T
         wScrn=  0.000000 ICntrl=         0 IOpCl=  0 I1Cent=           0 NGrid=           0
         NMat0=    1 NMatS0=      1 NMatT0=    0 NMatD0=    1 NMtDS0=    0 NMtDT0=    0
 Symmetry not used in FoFCou.
 E= -1507.16343253815    
 DIIS: error= 1.82D-02 at cycle   1 NSaved=   1.
 NSaved= 1 IEnMin= 1 EnMin= -1507.16343253815     IErMin= 1 ErrMin= 1.82D-02
 ErrMax= 1.82D-02  0.00D+00 EMaxC= 1.00D-01 BMatC= 9.94D-01 BMatP= 9.94D-01
 IDIUse=3 WtCom= 8.18D-01 WtEn= 1.82D-01
 Coeff-Com:  0.100D+01
 Coeff-En:   0.100D+01
 Coeff:      0.100D+01
 Gap=     0.170 Goal=   None    Shift=    0.000
 GapD=    0.170 DampG=1.000 DampE=0.500 DampFc=0.5000 IDamp=-1.
 Damping current iteration by 5.00D-01
 RMSDP=3.99D-03 MaxDP=8.64D-01              OVMax= 5.57D-01

 Cycle   2  Pass 0  IDiag  1:
 RMSU=  1.99D-03    CP:  1.01D+00
 E= -1507.46723864102     Delta-E=       -0.303806102866 Rises=F Damp=T
 DIIS: error= 5.14D-03 at cycle   2 NSaved=   2.
 NSaved= 2 IEnMin= 2 EnMin= -1507.46723864102     IErMin= 2 ErrMin= 5.14D-03
 ErrMax= 5.14D-03  0.00D+00 EMaxC= 1.00D-01 BMatC= 9.84D-02 BMatP= 9.94D-01
 IDIUse=3 WtCom= 9.49D-01 WtEn= 5.14D-02
 Coeff-Com:  0.133D-01 0.987D+00
 Coeff-En:   0.129D+00 0.871D+00
 Coeff:      0.192D-01 0.981D+00
 Gap=     0.154 Goal=   None    Shift=    0.000
 RMSDP=1.36D-03 MaxDP=1.68D-01 DE=-3.04D-01 OVMax= 4.30D-01

 Cycle   3  Pass 0  IDiag  1:
 RMSU=  1.16D-03    CP:  9.99D-01  6.49D-01
 E= -1507.83058195085     Delta-E=       -0.363343309835 Rises=F Damp=F
 DIIS: error= 5.93D-03 at cycle   3 NSaved=   3.
 NSaved= 3 IEnMin= 3 EnMin= -1507.83058195085     IErMin= 2 ErrMin= 5.14D-03
 ErrMax= 5.93D-03  0.00D+00 EMaxC= 1.00D-01 BMatC= 7.34D-02 BMatP= 9.84D-02
 IDIUse=3 WtCom= 9.41D-01 WtEn= 5.93D-02
 Coeff-Com: -0.744D-01 0.489D+00 0.585D+00
 Coeff-En:   0.000D+00 0.000D+00 0.100D+01
 Coeff:     -0.700D-01 0.460D+00 0.610D+00
 Gap=     0.129 Goal=   None    Shift=    0.000
 RMSDP=5.82D-04 MaxDP=2.66D-02 DE=-3.63D-01 OVMax= 1.50D-01

 Cycle   4  Pass 0  IDiag  1:
 RMSU=  4.65D-04    CP:  1.00D+00  7.95D-01  8.32D-01
 E= -1507.89661737289     Delta-E=       -0.066035422036 Rises=F Damp=F
 DIIS: error= 2.09D-03 at cycle   4 NSaved=   4.
 NSaved= 4 IEnMin= 4 EnMin= -1507.89661737289     IErMin= 4 ErrMin= 2.09D-03
 ErrMax= 2.09D-03  0.00D+00 EMaxC= 1.00D-01 BMatC= 8.32D-03 BMatP= 7.34D-02
 IDIUse=3 WtCom= 9.79D-01 WtEn= 2.09D-02
 Coeff-Com: -0.395D-01 0.111D+00 0.284D+00 0.645D+00
 Coeff-En:   0.000D+00 0.000D+00 0.174D-01 0.983D+00
 Coeff:     -0.387D-01 0.109D+00 0.278D+00 0.652D+00
 Gap=     0.146 Goal=   None    Shift=    0.000
 RMSDP=2.13D-04 MaxDP=3.10D-02 DE=-6.60D-02 OVMax= 5.17D-02

 Cycle   5  Pass 0  IDiag  1:
 RMSU=  1.89D-04    CP:  1.00D+00  7.85D-01  9.02D-01  8.90D-01
 E= -1507.90407956027     Delta-E=       -0.007462187377 Rises=F Damp=F
 DIIS: error= 8.10D-04 at cycle   5 NSaved=   5.
 NSaved= 5 IEnMin= 5 EnMin= -1507.90407956027     IErMin= 5 ErrMin= 8.10D-04
 ErrMax= 8.10D-04  0.00D+00 EMaxC= 1.00D-01 BMatC= 8.19D-04 BMatP= 8.32D-03
 IDIUse=3 WtCom= 9.92D-01 WtEn= 8.10D-03
 Coeff-Com: -0.128D-01 0.232D-01 0.835D-01 0.315D+00 0.591D+00
 Coeff-En:   0.000D+00 0.000D+00 0.000D+00 0.000D+00 0.100D+01
 Coeff:     -0.127D-01 0.230D-01 0.828D-01 0.312D+00 0.595D+00
 Gap=     0.145 Goal=   None    Shift=    0.000
 RMSDP=7.27D-05 MaxDP=6.65D-03 DE=-7.46D-03 OVMax= 8.37D-03

 Cycle   6  Pass 0  IDiag  1:
 RMSU=  6.44D-05    CP:  1.00D+00  7.87D-01  8.92D-01  9.56D-01  9.65D-01
 E= -1507.90486507907     Delta-E=       -0.000785518801 Rises=F Damp=F
 DIIS: error= 1.55D-04 at cycle   6 NSaved=   6.
 NSaved= 6 IEnMin= 6 EnMin= -1507.90486507907     IErMin= 6 ErrMin= 1.55D-04
 ErrMax= 1.55D-04  0.00D+00 EMaxC= 1.00D-01 BMatC= 9.32D-05 BMatP= 8.19D-04
 IDIUse=3 WtCom= 9.98D-01 WtEn= 1.55D-03
 Coeff-Com: -0.367D-03-0.360D-02-0.727D-02 0.517D-01 0.279D+00 0.681D+00
 Coeff-En:   0.000D+00 0.000D+00 0.000D+00 0.000D+00 0.000D+00 0.100D+01
 Coeff:     -0.366D-03-0.360D-02-0.726D-02 0.516D-01 0.279D+00 0.681D+00
 Gap=     0.146 Goal=   None    Shift=    0.000
 RMSDP=4.27D-05 MaxDP=5.45D-03 DE=-7.86D-04 OVMax= 6.71D-03

 Cycle   7  Pass 0  IDiag  1:
 RMSU=  2.24D-05    CP:  1.00D+00  7.88D-01  8.98D-01  9.82D-01  1.14D+00
                    CP:  1.07D+00
 E= -1507.90496602773     Delta-E=       -0.000100948657 Rises=F Damp=F
 DIIS: error= 8.31D-05 at cycle   7 NSaved=   7.
 NSaved= 7 IEnMin= 7 EnMin= -1507.90496602773     IErMin= 7 ErrMin= 8.31D-05
 ErrMax= 8.31D-05  0.00D+00 EMaxC= 1.00D-01 BMatC= 1.26D-05 BMatP= 9.32D-05
 IDIUse=1 WtCom= 1.00D+00 WtEn= 0.00D+00
 Coeff-Com:  0.156D-02-0.459D-02-0.165D-01-0.192D-01 0.455D-01 0.306D+00
 Coeff-Com:  0.687D+00
 Coeff:      0.156D-02-0.459D-02-0.165D-01-0.192D-01 0.455D-01 0.306D+00
 Coeff:      0.687D+00
 Gap=     0.146 Goal=   None    Shift=    0.000
 RMSDP=1.95D-05 MaxDP=1.86D-03 DE=-1.01D-04 OVMax= 3.34D-03

 Cycle   8  Pass 0  IDiag  1:
 RMSU=  1.24D-05    CP:  1.00D+00  7.86D-01  8.97D-01  9.96D-01  1.19D+00
                    CP:  1.17D+00  1.20D+00
 E= -1507.90497700704     Delta-E=       -0.000010979316 Rises=F Damp=F
 DIIS: error= 3.39D-05 at cycle   8 NSaved=   8.
 NSaved= 8 IEnMin= 8 EnMin= -1507.90497700704     IErMin= 8 ErrMin= 3.39D-05
 ErrMax= 3.39D-05  0.00D+00 EMaxC= 1.00D-01 BMatC= 2.74D-06 BMatP= 1.26D-05
 IDIUse=1 WtCom= 1.00D+00 WtEn= 0.00D+00
 Coeff-Com:  0.841D-03-0.162D-02-0.830D-02-0.190D-01-0.292D-01 0.336D-01
 Coeff-Com:  0.342D+00 0.682D+00
 Coeff:      0.841D-03-0.162D-02-0.830D-02-0.190D-01-0.292D-01 0.336D-01
 Coeff:      0.342D+00 0.682D+00
 Gap=     0.146 Goal=   None    Shift=    0.000
 RMSDP=1.52D-05 MaxDP=1.63D-03 DE=-1.10D-05 OVMax= 2.27D-03

 Cycle   9  Pass 0  IDiag  1:
 RMSU=  1.09D-05    CP:  1.00D+00  7.84D-01  8.96D-01  1.00D+00  1.21D+00
                    CP:  1.25D+00  1.40D+00  1.55D+00
 E= -1507.90497887492     Delta-E=       -0.000001867877 Rises=F Damp=F
 DIIS: error= 1.62D-05 at cycle   9 NSaved=   9.
 NSaved= 9 IEnMin= 9 EnMin= -1507.90497887492     IErMin= 9 ErrMin= 1.62D-05
 ErrMax= 1.62D-05  0.00D+00 EMaxC= 1.00D-01 BMatC= 6.23D-07 BMatP= 2.74D-06
 IDIUse=1 WtCom= 1.00D+00 WtEn= 0.00D+00
 Coeff-Com:  0.242D-03-0.290D-03-0.291D-02-0.753D-02-0.222D-01-0.175D-01
 Coeff-Com:  0.753D-01 0.336D+00 0.639D+00
 Coeff:      0.242D-03-0.290D-03-0.291D-02-0.753D-02-0.222D-01-0.175D-01
 Coeff:      0.753D-01 0.336D+00 0.639D+00
 Gap=     0.146 Goal=   None    Shift=    0.000
 RMSDP=1.86D-05 MaxDP=2.15D-03 DE=-1.87D-06 OVMax= 1.05D-03

 Cycle  10  Pass 0  IDiag  1:
 RMSU=  1.03D-05    CP:  1.00D+00  7.84D-01  8.96D-01  1.00D+00  1.21D+00
                    CP:  1.31D+00  1.56D+00  2.04D+00  2.20D+00
 E= -1507.90497744540     Delta-E=        0.000001429517 Rises=F Damp=F
 DIIS: error= 2.69D-05 at cycle  10 NSaved=  10.
 NSaved=10 IEnMin= 9 EnMin= -1507.90497887492     IErMin= 9 ErrMin= 1.62D-05
 ErrMax= 2.69D-05  0.00D+00 EMaxC= 1.00D-01 BMatC= 4.47D-07 BMatP= 6.23D-07
 IDIUse=1 WtCom= 1.00D+00 WtEn= 0.00D+00
 Coeff-Com:  0.199D-03-0.234D-03-0.252D-02-0.634D-02-0.193D-01-0.156D-01
 Coeff-Com:  0.601D-01 0.284D+00 0.553D+00 0.147D+00
 Coeff:      0.199D-03-0.234D-03-0.252D-02-0.634D-02-0.193D-01-0.156D-01
 Coeff:      0.601D-01 0.284D+00 0.553D+00 0.147D+00
 Gap=     0.146 Goal=   None    Shift=    0.000
 RMSDP=6.50D-06 MaxDP=8.40D-04 DE= 1.43D-06 OVMax= 1.02D-04

 Initial convergence to 1.0D-05 achieved.  Increase integral accuracy.
 Cycle  11  Pass 1  IDiag  1:
 E= -1507.90487691944     Delta-E=        0.000100525961 Rises=F Damp=F
 DIIS: error= 3.28D-04 at cycle   1 NSaved=   1.
 NSaved= 1 IEnMin= 1 EnMin= -1507.90487691944     IErMin= 1 ErrMin= 3.28D-04
 ErrMax= 3.28D-04  0.00D+00 EMaxC= 1.00D-01 BMatC= 9.76D-05 BMatP= 9.76D-05
 IDIUse=3 WtCom= 9.97D-01 WtEn= 3.28D-03
 Coeff-Com:  0.100D+01
 Coeff-En:   0.100D+01
 Coeff:      0.100D+01
 Gap=     0.146 Goal=   None    Shift=    0.000
 RMSDP=6.50D-06 MaxDP=8.40D-04 DE= 1.01D-04 OVMax= 1.08D-03

 Cycle  12  Pass 1  IDiag  1:
 RMSU=  5.88D-04    CP:  9.90D-01
 E= -1507.90493935779     Delta-E=       -0.000062438347 Rises=F Damp=F
 DIIS: error= 1.06D-05 at cycle   2 NSaved=   2.
 NSaved= 2 IEnMin= 2 EnMin= -1507.90493935779     IErMin= 2 ErrMin= 1.06D-05
 ErrMax= 1.06D-05  0.00D+00 EMaxC= 1.00D-01 BMatC= 1.17D-07 BMatP= 9.76D-05
 IDIUse=1 WtCom= 1.00D+00 WtEn= 0.00D+00
 Coeff-Com: -0.157D-01 0.102D+01
 Coeff:     -0.157D-01 0.102D+01
 Gap=     0.146 Goal=   None    Shift=    0.000
 RMSDP=2.22D-05 MaxDP=2.19D-03 DE=-6.24D-05 OVMax= 5.13D-04

 Cycle  13  Pass 1  IDiag  1:
 RMSU=  8.41D-06    CP:  9.90D-01  1.03D+00
 E= -1507.90493938203     Delta-E=       -0.000000024243 Rises=F Damp=F
 DIIS: error= 1.17D-05 at cycle   3 NSaved=   3.
 NSaved= 3 IEnMin= 3 EnMin= -1507.90493938203     IErMin= 2 ErrMin= 1.06D-05
 ErrMax= 1.17D-05  0.00D+00 EMaxC= 1.00D-01 BMatC= 1.74D-07 BMatP= 1.17D-07
 IDIUse=1 WtCom= 1.00D+00 WtEn= 0.00D+00
 Coeff-Com: -0.101D-01 0.596D+00 0.414D+00
 Coeff:     -0.101D-01 0.596D+00 0.414D+00
 Gap=     0.146 Goal=   None    Shift=    0.000
 RMSDP=8.75D-07 MaxDP=5.43D-05 DE=-2.42D-08 OVMax= 1.23D-04

 Cycle  14  Pass 1  IDiag  1:
 RMSU=  8.19D-07    CP:  9.90D-01  1.04D+00  1.01D+00
 E= -1507.90493955885     Delta-E=       -0.000000176819 Rises=F Damp=F
 DIIS: error= 1.55D-06 at cycle   4 NSaved=   4.
 NSaved= 4 IEnMin= 4 EnMin= -1507.90493955885     IErMin= 4 ErrMin= 1.55D-06
 ErrMax= 1.55D-06  0.00D+00 EMaxC= 1.00D-01 BMatC= 1.45D-09 BMatP= 1.17D-07
 IDIUse=1 WtCom= 1.00D+00 WtEn= 0.00D+00
 Coeff-Com:  0.334D-03-0.310D-01 0.152D-01 0.102D+01
 Coeff:      0.334D-03-0.310D-01 0.152D-01 0.102D+01
 Gap=     0.146 Goal=   None    Shift=    0.000
 RMSDP=6.97D-07 MaxDP=8.53D-05 DE=-1.77D-07 OVMax= 1.26D-04

 Cycle  15  Pass 1  IDiag  1:
 RMSU=  4.01D-07    CP:  9.90D-01  1.04D+00  1.06D+00  9.58D-01
 E= -1507.90493956716     Delta-E=       -0.000000008306 Rises=F Damp=F
 DIIS: error= 6.37D-07 at cycle   5 NSaved=   5.
 NSaved= 5 IEnMin= 5 EnMin= -1507.90493956716     IErMin= 5 ErrMin= 6.37D-07
 ErrMax= 6.37D-07  0.00D+00 EMaxC= 1.00D-01 BMatC= 1.03D-09 BMatP= 1.45D-09
 IDIUse=1 WtCom= 1.00D+00 WtEn= 0.00D+00
 Coeff-Com:  0.924D-03-0.594D-01-0.446D-01 0.459D+00 0.644D+00
 Coeff:      0.924D-03-0.594D-01-0.446D-01 0.459D+00 0.644D+00
 Gap=     0.146 Goal=   None    Shift=    0.000
 RMSDP=1.44D-07 MaxDP=1.42D-05 DE=-8.31D-09 OVMax= 4.41D-05

 Cycle  16  Pass 1  IDiag  1:
 RMSU=  7.71D-08    CP:  9.90D-01  1.04D+00  1.06D+00  9.75D-01  1.25D+00
 E= -1507.90493956949     Delta-E=       -0.000000002333 Rises=F Damp=F
 DIIS: error= 3.70D-07 at cycle   6 NSaved=   6.
 NSaved= 6 IEnMin= 6 EnMin= -1507.90493956949     IErMin= 6 ErrMin= 3.70D-07
 ErrMax= 3.70D-07  0.00D+00 EMaxC= 1.00D-01 BMatC= 1.67D-10 BMatP= 1.03D-09
 IDIUse=1 WtCom= 1.00D+00 WtEn= 0.00D+00
 Coeff-Com:  0.310D-04 0.114D-02-0.319D-01-0.234D+00 0.770D-01 0.119D+01
 Coeff:      0.310D-04 0.114D-02-0.319D-01-0.234D+00 0.770D-01 0.119D+01
 Gap=     0.146 Goal=   None    Shift=    0.000
 RMSDP=1.68D-07 MaxDP=2.08D-05 DE=-2.33D-09 OVMax= 5.29D-05

 Cycle  17  Pass 1  IDiag  1:
 RMSU=  5.58D-08    CP:  9.90D-01  1.04D+00  1.07D+00  9.85D-01  1.62D+00
                    CP:  1.48D+00
 E= -1507.90493957040     Delta-E=       -0.000000000914 Rises=F Damp=F
 DIIS: error= 1.41D-07 at cycle   7 NSaved=   7.
 NSaved= 7 IEnMin= 7 EnMin= -1507.90493957040     IErMin= 7 ErrMin= 1.41D-07
 ErrMax= 1.41D-07  0.00D+00 EMaxC= 1.00D-01 BMatC= 4.10D-11 BMatP= 1.67D-10
 IDIUse=1 WtCom= 1.00D+00 WtEn= 0.00D+00
 Coeff-Com: -0.922D-04 0.760D-02-0.141D-01-0.176D+00-0.263D-01 0.659D+00
 Coeff-Com:  0.550D+00
 Coeff:     -0.922D-04 0.760D-02-0.141D-01-0.176D+00-0.263D-01 0.659D+00
 Coeff:      0.550D+00
 Gap=     0.146 Goal=   None    Shift=    0.000
 RMSDP=2.82D-08 MaxDP=3.15D-06 DE=-9.14D-10 OVMax= 9.16D-06

 Cycle  18  Pass 1  IDiag  1:
 RMSU=  9.65D-09    CP:  9.90D-01  1.04D+00  1.07D+00  9.84D-01  1.67D+00
                    CP:  1.63D+00  1.14D+00
 E= -1507.90493957044     Delta-E=       -0.000000000035 Rises=F Damp=F
 DIIS: error= 3.58D-08 at cycle   8 NSaved=   8.
 NSaved= 8 IEnMin= 8 EnMin= -1507.90493957044     IErMin= 8 ErrMin= 3.58D-08
 ErrMax= 3.58D-08  0.00D+00 EMaxC= 1.00D-01 BMatC= 2.82D-12 BMatP= 4.10D-11
 IDIUse=1 WtCom= 1.00D+00 WtEn= 0.00D+00
 Coeff-Com: -0.432D-04 0.303D-02-0.172D-02-0.411D-01-0.239D-01 0.104D+00
 Coeff-Com:  0.217D+00 0.743D+00
 Coeff:     -0.432D-04 0.303D-02-0.172D-02-0.411D-01-0.239D-01 0.104D+00
 Coeff:      0.217D+00 0.743D+00
 Gap=     0.146 Goal=   None    Shift=    0.000
 RMSDP=1.10D-08 MaxDP=1.01D-06 DE=-3.50D-11 OVMax= 3.35D-06

 Cycle  19  Pass 1  IDiag  1:
 RMSU=  4.44D-09    CP:  9.90D-01  1.04D+00  1.07D+00  9.85D-01  1.69D+00
                    CP:  1.66D+00  1.25D+00  1.08D+00
 E= -1507.90493957046     Delta-E=       -0.000000000021 Rises=F Damp=F
 DIIS: error= 1.52D-08 at cycle   9 NSaved=   9.
 NSaved= 9 IEnMin= 9 EnMin= -1507.90493957046     IErMin= 9 ErrMin= 1.52D-08
 ErrMax= 1.52D-08  0.00D+00 EMaxC= 1.00D-01 BMatC= 6.30D-13 BMatP= 2.82D-12
 IDIUse=1 WtCom= 1.00D+00 WtEn= 0.00D+00
 Coeff-Com: -0.756D-05 0.340D-03 0.131D-02 0.812D-02-0.727D-02-0.520D-01
 Coeff-Com:  0.161D-01 0.367D+00 0.666D+00
 Coeff:     -0.756D-05 0.340D-03 0.131D-02 0.812D-02-0.727D-02-0.520D-01
 Coeff:      0.161D-01 0.367D+00 0.666D+00
 Gap=     0.146 Goal=   None    Shift=    0.000
 RMSDP=3.40D-09 MaxDP=3.02D-07 DE=-2.14D-11 OVMax= 1.03D-06

 SCF Done:  E(RM062X) =  -1507.90493957     A.U. after   19 cycles
            NFock= 19  Conv=0.34D-08     -V/T= 2.0037
 KE= 1.502296155265D+03 PE=-8.529535859158D+03 EE= 3.023272138498D+03
 Leave Link  502 at Sat Aug 13 20:53:57 2022, MaxMem=  2684354560 cpu:            8698.9 elap:             544.5
 (Enter /storage/apps/GAUSSIAN/G16_RevA03/g16/l601.exe)
 Copying SCF densities to generalized density rwf, IOpCl= 0 IROHF=0.

 **********************************************************************

            Population analysis using the SCF density.

 **********************************************************************

 Orbital symmetries:
       Occupied  (A) (A) (A) (A) (A) (A) (A) (A) (A) (A) (A) (A)
                 (A) (A) (A) (A) (A) (A) (A) (A) (A) (A) (A) (A)
                 (A) (A) (A) (A) (A) (A) (A) (A) (A) (A) (A) (A)
                 (A) (A) (A) (A) (A) (A) (A) (A) (A) (A) (A) (A)
                 (A) (A) (A) (A) (A) (A) (A) (A) (A) (A) (A) (A)
                 (A) (A) (A) (A) (A) (A) (A) (A) (A) (A) (A) (A)
                 (A) (A) (A) (A) (A) (A) (A) (A) (A) (A) (A) (A)
                 (A) (A) (A) (A) (A) (A) (A) (A) (A) (A) (A)
       Virtual   (A) (A) (A) (A) (A) (A) (A) (A) (A) (A) (A) (A)
                 (A) (A) (A) (A) (A) (A) (A) (A) (A) (A) (A) (A)
                 (A) (A) (A) (A) (A) (A) (A) (A) (A) (A) (A) (A)
                 (A) (A) (A) (A) (A) (A) (A) (A) (A) (A) (A) (A)
                 (A) (A) (A) (A) (A) (A) (A) (A) (A) (A) (A) (A)
                 (A) (A) (A) (A) (A) (A) (A) (A) (A) (A) (A) (A)
                 (A) (A) (A) (A) (A) (A) (A) (A) (A) (A) (A) (A)
                 (A) (A) (A) (A) (A) (A) (A) (A) (A) (A) (A) (A)
                 (A) (A) (A) (A) (A) (A) (A) (A) (A) (A) (A) (A)
                 (A) (A) (A) (A) (A) (A) (A) (A) (A) (A) (A) (A)
                 (A) (A) (A) (A) (A) (A) (A) (A) (A) (A) (A) (A)
                 (A) (A) (A) (A) (A) (A) (A) (A) (A) (A) (A) (A)
                 (A) (A) (A) (A) (A) (A) (A) (A) (A) (A) (A) (A)
                 (A) (A) (A) (A) (A) (A) (A) (A) (A) (A) (A) (A)
                 (A) (A) (A) (A) (A) (A) (A) (A) (A) (A) (A) (A)
                 (A) (A) (A) (A) (A) (A) (A) (A) (A) (A) (A) (A)
                 (A) (A) (A) (A) (A) (A) (A) (A) (A) (A) (A) (A)
                 (A) (A) (A) (A) (A) (A) (A) (A) (A) (A) (A) (A)
                 (A) (A) (A) (A) (A) (A) (A) (A) (A) (A) (A) (A)
                 (A) (A) (A) (A) (A) (A) (A) (A) (A) (A) (A) (A)
                 (A) (A) (A) (A) (A) (A) (A) (A) (A) (A) (A) (A)
                 (A) (A) (A) (A) (A) (A) (A) (A) (A) (A) (A) (A)
                 (A) (A) (A) (A) (A) (A) (A) (A) (A) (A) (A) (A)
                 (A) (A) (A) (A) (A) (A) (A) (A) (A) (A) (A) (A)
                 (A) (A) (A) (A) (A) (A) (A) (A) (A) (A) (A) (A)
                 (A) (A) (A) (A) (A) (A) (A) (A) (A) (A) (A) (A)
                 (A) (A) (A) (A) (A) (A) (A) (A) (A) (A) (A) (A)
                 (A) (A) (A) (A) (A) (A) (A) (A) (A) (A) (A) (A)
                 (A) (A) (A) (A) (A) (A) (A) (A) (A) (A) (A) (A)
                 (A) (A) (A) (A) (A) (A) (A) (A) (A) (A) (A) (A)
                 (A) (A) (A) (A) (A) (A) (A) (A) (A) (A) (A) (A)
                 (A) (A) (A) (A) (A) (A) (A) (A) (A) (A) (A) (A)
                 (A) (A) (A) (A) (A) (A) (A) (A) (A) (A) (A) (A)
                 (A) (A) (A) (A) (A) (A) (A) (A) (A) (A) (A) (A)
                 (A) (A) (A) (A) (A) (A) (A) (A) (A) (A) (A) (A)
                 (A) (A) (A) (A) (A) (A) (A) (A) (A) (A) (A) (A)
                 (A) (A) (A) (A) (A) (A) (A) (A) (A) (A) (A) (A)
                 (A) (A) (A) (A) (A) (A) (A) (A) (A) (A) (A) (A)
                 (A) (A) (A) (A) (A) (A) (A) (A) (A) (A) (A) (A)
                 (A) (A) (A) (A) (A) (A) (A) (A) (A) (A) (A) (A)
                 (A) (A) (A) (A) (A) (A) (A) (A) (A) (A) (A) (A)
                 (A) (A) (A) (A) (A) (A) (A) (A) (A) (A) (A) (A)
                 (A) (A) (A) (A) (A) (A) (A) (A) (A) (A) (A) (A)
                 (A) (A) (A) (A) (A) (A) (A) (A) (A) (A) (A) (A)
                 (A) (A) (A) (A) (A) (A) (A) (A) (A) (A) (A) (A)
                 (A) (A) (A) (A) (A) (A) (A) (A) (A) (A) (A) (A)
                 (A) (A) (A) (A) (A) (A) (A) (A) (A) (A) (A) (A)
                 (A) (A) (A) (A) (A) (A) (A) (A) (A) (A) (A) (A)
                 (A) (A) (A) (A) (A) (A) (A) (A) (A) (A) (A) (A)
                 (A) (A) (A) (A) (A) (A) (A) (A) (A) (A) (A) (A)
                 (A) (A) (A) (A) (A) (A) (A) (A) (A) (A) (A) (A)
                 (A) (A) (A) (A) (A) (A) (A) (A) (A) (A) (A) (A)
                 (A) (A) (A) (A) (A) (A) (A) (A) (A) (A) (A) (A)
                 (A) (A) (A) (A) (A) (A) (A) (A) (A) (A) (A) (A)
                 (A) (A) (A) (A) (A) (A) (A) (A) (A) (A) (A) (A)
                 (A) (A) (A) (A) (A) (A) (A) (A) (A) (A) (A) (A)
                 (A) (A) (A) (A) (A) (A) (A) (A) (A) (A) (A) (A)
                 (A) (A) (A) (A) (A) (A) (A) (A) (A) (A) (A) (A)
                 (A) (A) (A) (A) (A) (A) (A) (A) (A) (A) (A) (A)
                 (A) (A) (A) (A) (A) (A) (A) (A) (A) (A) (A) (A)
                 (A) (A) (A) (A) (A) (A) (A) (A) (A) (A) (A) (A)
                 (A) (A) (A) (A) (A) (A) (A) (A) (A) (A) (A) (A)
                 (A) (A) (A) (A) (A) (A) (A) (A) (A) (A) (A) (A)
                 (A) (A) (A) (A) (A) (A) (A) (A) (A) (A) (A) (A)
                 (A) (A) (A) (A) (A) (A) (A) (A) (A) (A) (A) (A)
                 (A) (A) (A) (A) (A) (A) (A) (A) (A) (A) (A) (A)
                 (A) (A) (A) (A) (A) (A) (A)
 The electronic state is 1-A.
 Alpha  occ. eigenvalues --  -89.86745 -19.66568 -19.63272 -19.61711 -19.61279
 Alpha  occ. eigenvalues --  -19.56932 -14.88072 -14.77872 -10.66645 -10.66316
 Alpha  occ. eigenvalues --  -10.64303 -10.63553 -10.61224 -10.61133 -10.60725
 Alpha  occ. eigenvalues --  -10.60512 -10.59838 -10.59814 -10.58985 -10.55174
 Alpha  occ. eigenvalues --  -10.53664 -10.52184 -10.52140 -10.49004  -8.22644
 Alpha  occ. eigenvalues --   -6.14613  -6.14387  -6.14119  -1.22565  -1.18589
 Alpha  occ. eigenvalues --   -1.17089  -1.15732  -1.13948  -1.10353  -1.03262
 Alpha  occ. eigenvalues --   -0.97859  -0.93332  -0.90706  -0.88130  -0.87509
 Alpha  occ. eigenvalues --   -0.85361  -0.81550  -0.80774  -0.78981  -0.76915
 Alpha  occ. eigenvalues --   -0.73282  -0.71720  -0.69997  -0.69208  -0.67175
 Alpha  occ. eigenvalues --   -0.66033  -0.64083  -0.62908  -0.62453  -0.61255
 Alpha  occ. eigenvalues --   -0.60094  -0.58321  -0.57955  -0.57401  -0.56157
 Alpha  occ. eigenvalues --   -0.55985  -0.54329  -0.53287  -0.52641  -0.51903
 Alpha  occ. eigenvalues --   -0.51763  -0.50967  -0.50208  -0.50063  -0.48901
 Alpha  occ. eigenvalues --   -0.48648  -0.48115  -0.47794  -0.47236  -0.46059
 Alpha  occ. eigenvalues --   -0.45735  -0.45623  -0.44763  -0.43721  -0.43265
 Alpha  occ. eigenvalues --   -0.42754  -0.40431  -0.39634  -0.38559  -0.37990
 Alpha  occ. eigenvalues --   -0.37683  -0.37315  -0.36797  -0.36742  -0.36231
 Alpha  occ. eigenvalues --   -0.34961  -0.34467  -0.29216  -0.27951  -0.21200
 Alpha virt. eigenvalues --   -0.06626  -0.04167   0.03760   0.04638   0.05097
 Alpha virt. eigenvalues --    0.06275   0.07091   0.07267   0.08201   0.08873
 Alpha virt. eigenvalues --    0.09340   0.10030   0.10321   0.10798   0.11247
 Alpha virt. eigenvalues --    0.11421   0.11918   0.12571   0.12990   0.13257
 Alpha virt. eigenvalues --    0.13693   0.14017   0.14285   0.14596   0.15229
 Alpha virt. eigenvalues --    0.15410   0.15510   0.16216   0.16394   0.16710
 Alpha virt. eigenvalues --    0.17503   0.17692   0.18596   0.18819   0.19543
 Alpha virt. eigenvalues --    0.20531   0.20712   0.21457   0.21495   0.22306
 Alpha virt. eigenvalues --    0.22697   0.22911   0.23367   0.23735   0.24205
 Alpha virt. eigenvalues --    0.24621   0.25346   0.25580   0.25875   0.26026
 Alpha virt. eigenvalues --    0.26697   0.27202   0.27667   0.28038   0.28716
 Alpha virt. eigenvalues --    0.29156   0.29532   0.29818   0.30351   0.31231
 Alpha virt. eigenvalues --    0.31514   0.31948   0.32558   0.33088   0.33646
 Alpha virt. eigenvalues --    0.34045   0.34562   0.35087   0.35810   0.36027
 Alpha virt. eigenvalues --    0.36615   0.37087   0.37470   0.37604   0.38347
 Alpha virt. eigenvalues --    0.38623   0.38789   0.39233   0.39679   0.39799
 Alpha virt. eigenvalues --    0.40269   0.40637   0.41174   0.41832   0.42053
 Alpha virt. eigenvalues --    0.42839   0.42957   0.43074   0.43758   0.44085
 Alpha virt. eigenvalues --    0.44251   0.44682   0.44889   0.45486   0.45679
 Alpha virt. eigenvalues --    0.45956   0.46103   0.46671   0.46743   0.47565
 Alpha virt. eigenvalues --    0.47791   0.48021   0.48559   0.48751   0.49127
 Alpha virt. eigenvalues --    0.49422   0.49620   0.50024   0.50452   0.50697
 Alpha virt. eigenvalues --    0.51303   0.51806   0.52026   0.52861   0.53236
 Alpha virt. eigenvalues --    0.53574   0.53955   0.54183   0.54516   0.55229
 Alpha virt. eigenvalues --    0.55512   0.55760   0.56082   0.56489   0.57290
 Alpha virt. eigenvalues --    0.57723   0.58897   0.59233   0.59720   0.60242
 Alpha virt. eigenvalues --    0.60619   0.60945   0.61564   0.61874   0.62480
 Alpha virt. eigenvalues --    0.62822   0.63501   0.64244   0.64895   0.65238
 Alpha virt. eigenvalues --    0.65573   0.66086   0.66535   0.66847   0.67225
 Alpha virt. eigenvalues --    0.67526   0.68182   0.68420   0.69644   0.70607
 Alpha virt. eigenvalues --    0.71156   0.71736   0.72076   0.72487   0.72809
 Alpha virt. eigenvalues --    0.74062   0.74760   0.75250   0.76120   0.76378
 Alpha virt. eigenvalues --    0.77179   0.78612   0.79160   0.79802   0.80935
 Alpha virt. eigenvalues --    0.81330   0.81625   0.82302   0.83115   0.83492
 Alpha virt. eigenvalues --    0.84113   0.86090   0.86670   0.87196   0.87402
 Alpha virt. eigenvalues --    0.87535   0.88720   0.89809   0.89900   0.90275
 Alpha virt. eigenvalues --    0.90553   0.91529   0.91886   0.92520   0.92909
 Alpha virt. eigenvalues --    0.93559   0.94298   0.95121   0.95722   0.96245
 Alpha virt. eigenvalues --    0.96538   0.97111   0.97854   0.98931   0.99437
 Alpha virt. eigenvalues --    1.00552   1.01002   1.01419   1.01941   1.02998
 Alpha virt. eigenvalues --    1.03310   1.03813   1.04331   1.05636   1.06399
 Alpha virt. eigenvalues --    1.06837   1.08077   1.08439   1.08740   1.09999
 Alpha virt. eigenvalues --    1.10668   1.10814   1.12260   1.12518   1.13243
 Alpha virt. eigenvalues --    1.14041   1.15136   1.15669   1.16171   1.17400
 Alpha virt. eigenvalues --    1.17717   1.18581   1.18899   1.19219   1.19922
 Alpha virt. eigenvalues --    1.21049   1.21309   1.23009   1.23411   1.24490
 Alpha virt. eigenvalues --    1.24705   1.25804   1.25996   1.27158   1.27691
 Alpha virt. eigenvalues --    1.28482   1.28716   1.29261   1.29606   1.30896
 Alpha virt. eigenvalues --    1.31890   1.32387   1.33463   1.33853   1.34192
 Alpha virt. eigenvalues --    1.34983   1.35868   1.37135   1.39170   1.39547
 Alpha virt. eigenvalues --    1.40063   1.41326   1.42505   1.42630   1.43396
 Alpha virt. eigenvalues --    1.44996   1.45375   1.46608   1.47342   1.49874
 Alpha virt. eigenvalues --    1.50823   1.51343   1.52672   1.52948   1.53323
 Alpha virt. eigenvalues --    1.53872   1.54546   1.54843   1.55128   1.55871
 Alpha virt. eigenvalues --    1.56541   1.56767   1.57150   1.58158   1.58502
 Alpha virt. eigenvalues --    1.59025   1.59308   1.60056   1.60607   1.60831
 Alpha virt. eigenvalues --    1.61271   1.61491   1.62488   1.62830   1.63150
 Alpha virt. eigenvalues --    1.63459   1.63823   1.64462   1.64668   1.65102
 Alpha virt. eigenvalues --    1.65852   1.66947   1.67412   1.68202   1.68650
 Alpha virt. eigenvalues --    1.69006   1.69827   1.70935   1.71519   1.71809
 Alpha virt. eigenvalues --    1.72099   1.72565   1.73283   1.74283   1.74511
 Alpha virt. eigenvalues --    1.75729   1.76581   1.77114   1.77758   1.78026
 Alpha virt. eigenvalues --    1.78243   1.79020   1.79294   1.80626   1.80803
 Alpha virt. eigenvalues --    1.82650   1.82851   1.83593   1.84202   1.84965
 Alpha virt. eigenvalues --    1.85991   1.86094   1.87257   1.87753   1.89014
 Alpha virt. eigenvalues --    1.89363   1.89828   1.90395   1.91239   1.91602
 Alpha virt. eigenvalues --    1.91913   1.93009   1.94286   1.94364   1.94529
 Alpha virt. eigenvalues --    1.95318   1.95574   1.96595   1.97581   1.98117
 Alpha virt. eigenvalues --    1.99081   1.99927   2.00072   2.01414   2.02537
 Alpha virt. eigenvalues --    2.02923   2.03338   2.04452   2.04531   2.05073
 Alpha virt. eigenvalues --    2.05905   2.06557   2.07180   2.07788   2.09209
 Alpha virt. eigenvalues --    2.09868   2.10807   2.11047   2.12212   2.13639
 Alpha virt. eigenvalues --    2.14334   2.14689   2.15923   2.16243   2.17286
 Alpha virt. eigenvalues --    2.17821   2.18275   2.18474   2.19318   2.20013
 Alpha virt. eigenvalues --    2.21199   2.21472   2.21523   2.22701   2.23208
 Alpha virt. eigenvalues --    2.23268   2.24081   2.25140   2.25646   2.26313
 Alpha virt. eigenvalues --    2.27236   2.27586   2.28650   2.29290   2.29985
 Alpha virt. eigenvalues --    2.30635   2.31796   2.32297   2.33895   2.34249
 Alpha virt. eigenvalues --    2.34542   2.35071   2.35793   2.36418   2.36961
 Alpha virt. eigenvalues --    2.37446   2.37817   2.38241   2.38711   2.39655
 Alpha virt. eigenvalues --    2.40537   2.40780   2.42131   2.42626   2.43769
 Alpha virt. eigenvalues --    2.45013   2.45312   2.46165   2.46790   2.47325
 Alpha virt. eigenvalues --    2.47689   2.49938   2.50041   2.50802   2.51852
 Alpha virt. eigenvalues --    2.52869   2.53453   2.54478   2.54788   2.56023
 Alpha virt. eigenvalues --    2.56382   2.57376   2.58010   2.58233   2.58378
 Alpha virt. eigenvalues --    2.59732   2.60156   2.60424   2.60692   2.61688
 Alpha virt. eigenvalues --    2.62451   2.62549   2.63267   2.64133   2.65060
 Alpha virt. eigenvalues --    2.65865   2.66467   2.66599   2.67588   2.68028
 Alpha virt. eigenvalues --    2.68794   2.68940   2.69909   2.69994   2.71157
 Alpha virt. eigenvalues --    2.71563   2.72053   2.73097   2.73352   2.73907
 Alpha virt. eigenvalues --    2.74640   2.75444   2.76500   2.76912   2.77893
 Alpha virt. eigenvalues --    2.79298   2.79448   2.80140   2.80898   2.81568
 Alpha virt. eigenvalues --    2.82035   2.82825   2.83054   2.83850   2.84281
 Alpha virt. eigenvalues --    2.85049   2.85954   2.86104   2.86982   2.87611
 Alpha virt. eigenvalues --    2.88893   2.89429   2.89755   2.90405   2.91824
 Alpha virt. eigenvalues --    2.92667   2.93371   2.94028   2.94315   2.95015
 Alpha virt. eigenvalues --    2.96386   2.97417   2.98069   2.98383   2.99529
 Alpha virt. eigenvalues --    3.00173   3.01309   3.01725   3.02017   3.02897
 Alpha virt. eigenvalues --    3.03580   3.04403   3.05144   3.06021   3.06683
 Alpha virt. eigenvalues --    3.07737   3.07868   3.08845   3.09771   3.09824
 Alpha virt. eigenvalues --    3.10286   3.11086   3.11305   3.12027   3.12724
 Alpha virt. eigenvalues --    3.12999   3.13693   3.14210   3.14771   3.15383
 Alpha virt. eigenvalues --    3.16015   3.16563   3.17723   3.17883   3.18120
 Alpha virt. eigenvalues --    3.19413   3.19660   3.19938   3.20783   3.21293
 Alpha virt. eigenvalues --    3.21735   3.22579   3.23376   3.23650   3.24616
 Alpha virt. eigenvalues --    3.25814   3.26022   3.26495   3.26959   3.27996
 Alpha virt. eigenvalues --    3.28560   3.29550   3.30364   3.30510   3.30984
 Alpha virt. eigenvalues --    3.31867   3.32071   3.33036   3.33098   3.33604
 Alpha virt. eigenvalues --    3.34646   3.35394   3.35502   3.36331   3.36931
 Alpha virt. eigenvalues --    3.37908   3.38415   3.39169   3.39890   3.40224
 Alpha virt. eigenvalues --    3.41239   3.41407   3.41915   3.42205   3.43122
 Alpha virt. eigenvalues --    3.43366   3.44641   3.44846   3.45490   3.45994
 Alpha virt. eigenvalues --    3.46444   3.47420   3.48094   3.48826   3.49801
 Alpha virt. eigenvalues --    3.50206   3.51384   3.51619   3.53103   3.53520
 Alpha virt. eigenvalues --    3.54347   3.54813   3.55772   3.56469   3.56988
 Alpha virt. eigenvalues --    3.57427   3.58169   3.58425   3.59296   3.60031
 Alpha virt. eigenvalues --    3.60563   3.61764   3.62633   3.64055   3.64608
 Alpha virt. eigenvalues --    3.66229   3.66992   3.67412   3.69505   3.70028
 Alpha virt. eigenvalues --    3.70603   3.71610   3.72753   3.73599   3.74982
 Alpha virt. eigenvalues --    3.75884   3.76753   3.77622   3.78764   3.79706
 Alpha virt. eigenvalues --    3.79868   3.80437   3.82403   3.83203   3.85517
 Alpha virt. eigenvalues --    3.85777   3.86589   3.87153   3.87754   3.89086
 Alpha virt. eigenvalues --    3.90670   3.91229   3.92751   3.93349   3.94476
 Alpha virt. eigenvalues --    3.96287   3.97156   3.97781   3.98010   3.99378
 Alpha virt. eigenvalues --    3.99762   4.01431   4.02845   4.05823   4.06685
 Alpha virt. eigenvalues --    4.08195   4.10646   4.10789   4.12356   4.13466
 Alpha virt. eigenvalues --    4.14341   4.15676   4.16883   4.17319   4.17978
 Alpha virt. eigenvalues --    4.18583   4.20019   4.21182   4.23226   4.23786
 Alpha virt. eigenvalues --    4.26989   4.27130   4.28676   4.29599   4.31267
 Alpha virt. eigenvalues --    4.32215   4.33837   4.35078   4.36652   4.37747
 Alpha virt. eigenvalues --    4.39429   4.39859   4.40918   4.42380   4.43993
 Alpha virt. eigenvalues --    4.44402   4.44914   4.45582   4.47589   4.49282
 Alpha virt. eigenvalues --    4.50371   4.51562   4.54767   4.57008   4.57569
 Alpha virt. eigenvalues --    4.59063   4.60103   4.62255   4.63958   4.66832
 Alpha virt. eigenvalues --    4.67760   4.71828   4.73576   4.75603   4.76303
 Alpha virt. eigenvalues --    4.77462   4.80217   4.80590   4.81599   4.83514
 Alpha virt. eigenvalues --    4.85312   4.86437   4.88774   4.89242   4.90082
 Alpha virt. eigenvalues --    4.91431   4.93254   4.95128   4.96673   4.97869
 Alpha virt. eigenvalues --    4.99940   5.02242   5.04050   5.04628   5.05929
 Alpha virt. eigenvalues --    5.08635   5.13057   5.14993   5.18573   5.20227
 Alpha virt. eigenvalues --    5.21331   5.24883   5.26946   5.27179   5.28706
 Alpha virt. eigenvalues --    5.30650   5.31145   5.32175   5.33975   5.37758
 Alpha virt. eigenvalues --    5.39556   5.42302   5.43325   5.45372   5.46835
 Alpha virt. eigenvalues --    5.48817   5.49351   5.50475   5.53229   5.58467
 Alpha virt. eigenvalues --    5.64546   5.67290   5.72292   5.74471   5.77545
 Alpha virt. eigenvalues --    5.80117   5.81114   5.83460   5.84652   5.86868
 Alpha virt. eigenvalues --    5.88608   5.90564   5.91826   5.94201   5.95372
 Alpha virt. eigenvalues --    5.97405   6.03294   6.05922   6.15215   6.17767
 Alpha virt. eigenvalues --    6.20326   6.22354   6.25887   6.26771   6.38094
 Alpha virt. eigenvalues --    6.41839   6.44579   6.47936   6.49722   6.55524
 Alpha virt. eigenvalues --    6.58375   6.68450   6.73462   6.75417   6.76303
 Alpha virt. eigenvalues --    6.77374   6.80592   6.83892   6.85118   6.87354
 Alpha virt. eigenvalues --    6.89699   6.95220   6.99925   7.08017   7.08631
 Alpha virt. eigenvalues --    7.09800   7.11508   7.16898   7.19312   7.23140
 Alpha virt. eigenvalues --    7.32369   7.41270   9.06639   9.42569   9.59115
 Alpha virt. eigenvalues --   19.81241  22.36495  22.46673  22.49522  22.58456
 Alpha virt. eigenvalues --   22.64789  22.68970  22.74637  22.75646  22.82340
 Alpha virt. eigenvalues --   22.86858  22.95089  22.97219  23.07281  23.18611
 Alpha virt. eigenvalues --   23.28933  23.51748  32.18674  33.16480  44.13531
 Alpha virt. eigenvalues --   44.23026  44.26231  44.36964  44.51413
          Condensed to atoms (all electrons):
               1          2          3          4          5          6
     1  C    5.148978   0.429786   0.412579   0.005248  -0.006729  -0.000243
     2  H    0.429786   0.496183  -0.013564  -0.002315   0.000472  -0.000005
     3  H    0.412579  -0.013564   0.504110  -0.000561   0.000197  -0.000008
     4  C    0.005248  -0.002315  -0.000561   5.583711   0.541895   0.236147
     5  H   -0.006729   0.000472   0.000197   0.541895   0.528386  -0.035193
     6  O   -0.000243  -0.000005  -0.000008   0.236147  -0.035193   8.176949
     7  H   -0.000005  -0.000002  -0.000003  -0.058219  -0.006809   0.305682
     8  C   -0.005636   0.011043  -0.001065  -0.048088  -0.106787  -0.061281
     9  H    0.007104  -0.000310  -0.001973  -0.075188   0.002101   0.001257
    10  O    0.005234  -0.000192  -0.000016   0.050577   0.005647  -0.022692
[...]
 Dipole        = 7.17001935D-01-2.70909775D+00 7.78548830D-01
 ***** Axes restored to original set *****
 -------------------------------------------------------------------
 Center     Atomic                   Forces (Hartrees/Bohr)
 Number     Number              X              Y              Z
 -------------------------------------------------------------------
      1        6          -0.000135474   -0.000026237    0.000265448
      2        1          -0.000010078    0.000007012    0.000016946
      3        1          -0.000022525   -0.000022020    0.000016629
      4        6          -0.000204341   -0.000008600    0.000093907
      5        1          -0.000061607    0.000001753   -0.000005194
      6        8          -0.000368485   -0.000016522    0.000103395
      7        1          -0.000031990   -0.000010816   -0.000010252
      8        6          -0.000235909   -0.000021312    0.000284643
      9        1          -0.000032667    0.000004941    0.000042367
     10        8          -0.000391121    0.000081193    0.000349298
     11        1          -0.000041220    0.000003511    0.000037278
     12        6           0.000046753    0.000035090    0.000101695
     13        1           0.000013831    0.000011577   -0.000018942
     14        6          -0.000048223   -0.000004029    0.000371002
     15        1           0.000000819   -0.000012416    0.000034616
     16        8           0.000286941    0.000112777    0.000367245
     17        7           0.000357544   -0.000116447   -0.000356733
     18        6           0.000834306    0.000183732   -0.001135396
     19        1           0.000066707    0.000018360   -0.000112282
     20        6           0.001194352    0.000100426   -0.001510131
     21        1           0.000129963    0.000048043   -0.000156192
     22        6           0.000638017    0.000232571   -0.001197136
     23        1           0.000214456    0.000006334   -0.000007443
     24        1          -0.000133741   -0.000042108    0.000147858
     25        6           0.000229016   -0.000010373   -0.000188474
     26        6           0.000000299    0.000069705    0.000242721
     27        1          -0.000061942   -0.000064222    0.000032182
     28        6          -0.000039712   -0.000077992    0.000106311
     29        8           0.000035417   -0.000091180   -0.000250570
     30        7          -0.000328757   -0.000260363    0.000734326
     31        1          -0.000007825   -0.000005704    0.000070254
     32        1           0.000040046    0.000046420    0.000073870
     33        1          -0.000051839    0.000009712    0.000032830
     34        6          -0.000322148   -0.000079246    0.000017546
     35        6           0.000155803   -0.000174073   -0.000276701
     36        6          -0.000396579   -0.000304554    0.000416772
     37        6          -0.000711994    0.000668088    0.001721264
     38        6          -0.000901848   -0.000293758    0.000939945
     39        8           0.000533599   -0.000109953   -0.001137932
     40       16           0.000484144   -0.000164190   -0.001379153
     41        1          -0.000031971   -0.000017333   -0.000009375
     42        1          -0.000014586   -0.000002387    0.000030677
     43        1          -0.000216048    0.000469534    0.000597547
     44        1          -0.000046151    0.000143225   -0.000136635
     45        1          -0.000248592   -0.000149927    0.000252174
     46        1          -0.000105871   -0.000113772    0.000315982
     47        1          -0.000014822   -0.000046204    0.000101274
     48        1          -0.000043950   -0.000008263   -0.000029457
 -------------------------------------------------------------------
 Cartesian Forces:  Max     0.001721264 RMS     0.000383803
 Leave Link  716 at Sat Aug 13 20:57:14 2022, MaxMem=  2684354560 cpu:               0.4 elap:               0.0
 (Enter /storage/apps/GAUSSIAN/G16_RevA03/g16/l103.exe)

 GradGradGradGradGradGradGradGradGradGradGradGradGradGradGradGradGradGrad
 Berny optimization.
 Search for a local minimum.
 Step number   1 out of a maximum of    2
 All quantities printed in internal units (Hartrees-Bohrs-Radians)
 Second derivative matrix not updated -- first step.
 ITU=  0
     Eigenvalues ---    0.00024   0.00088   0.00106   0.00128   0.00182
     Eigenvalues ---    0.00214   0.00308   0.00348   0.00445   0.00482
     Eigenvalues ---    0.00601   0.00622   0.00808   0.00922   0.00955
     Eigenvalues ---    0.00970   0.01121   0.01171   0.01358   0.01505
     Eigenvalues ---    0.01720   0.02153   0.02327   0.02425   0.02675
     Eigenvalues ---    0.03002   0.03127   0.03302   0.03705   0.04251
     Eigenvalues ---    0.04395   0.04598   0.04795   0.05008   0.05248
     Eigenvalues ---    0.05309   0.05472   0.05739   0.05824   0.05972
     Eigenvalues ---    0.06160   0.06300   0.06459   0.06788   0.07043
     Eigenvalues ---    0.07064   0.07123   0.07669   0.08088   0.08339
     Eigenvalues ---    0.08657   0.08806   0.09214   0.09345   0.10364
     Eigenvalues ---    0.10747   0.10833   0.11206   0.12212   0.12552
     Eigenvalues ---    0.12833   0.13067   0.13238   0.13305   0.13683
     Eigenvalues ---    0.13889   0.14039   0.15560   0.16205   0.16484
     Eigenvalues ---    0.17523   0.18133   0.18663   0.19251   0.19890
     Eigenvalues ---    0.20347   0.20652   0.21195   0.21940   0.22554
     Eigenvalues ---    0.25178   0.25678   0.27215   0.28083   0.30622
     Eigenvalues ---    0.33205   0.33642   0.34341   0.34692   0.37712
     Eigenvalues ---    0.37874   0.37874   0.37874   0.37874   0.39962
     Eigenvalues ---    0.43799   0.48121   0.49161   0.57113   0.58863
     Eigenvalues ---    0.59997   0.61743   0.69586   0.72239   0.73793
     Eigenvalues ---    0.79280   0.81745   0.82693   0.87451   0.90842
     Eigenvalues ---    0.91225   0.92125   0.92700   0.93385   0.95354
     Eigenvalues ---    0.96985   0.99931   1.00121   1.02196   1.04215
     Eigenvalues ---    1.06031   1.08570   1.11608   1.11729   1.12632
     Eigenvalues ---    1.20133   1.20746   1.27479   1.27828   1.28923
     Eigenvalues ---    1.33428   1.37325   1.43477   1.56182   1.72568
     Eigenvalues ---    1.84040   1.88101   2.35768
 Quadratic step=5.390D+00 exceeds max=3.000D-01 adjusted using Lamda=-4.985D-03.
 Angle between NR and scaled steps=  30.60 degrees.
 Angle between quadratic step and forces=  57.05 degrees.
 Linear search not attempted -- first point.
 Variable       Old X    -DE/DX   Delta X   Delta X   Delta X     New X
                                 (Linear)    (Quad)   (Total)
    X1        6.79222  -0.00014   0.00000  -0.02462  -0.02462   6.76760
    Y1       -6.83409  -0.00003   0.00000  -0.02022  -0.02022  -6.85432
    Z1       -0.82368   0.00027   0.00000   0.02550   0.02550  -0.79818
    X2        7.08089  -0.00001   0.00000  -0.02512  -0.02512   7.05576
    Y2       -7.00705   0.00001   0.00000  -0.02795  -0.02795  -7.03500
    Z2       -2.85458   0.00002   0.00000   0.02542   0.02542  -2.82917
    X3        8.18101  -0.00002   0.00000  -0.02600  -0.02600   8.15501
    Y3       -8.01184  -0.00002   0.00000  -0.02230  -0.02230  -8.03414
    Z3        0.13992   0.00002   0.00000   0.02540   0.02540   0.16532
    X4        3.50033  -0.00020   0.00000  -0.00636  -0.00636   3.49397
    Y4       -2.71507  -0.00001   0.00000   0.01456   0.01456  -2.70051
    Z4        2.35980   0.00009   0.00000   0.00631   0.00631   2.36610
    X5        2.27351  -0.00006   0.00000  -0.01122  -0.01122   2.26229
    Y5       -4.36287   0.00000   0.00000   0.01773   0.01773  -4.34515
    Z5        2.06024  -0.00001   0.00000   0.01092   0.01092   2.07117
    X6        2.74346  -0.00037   0.00000  -0.00233  -0.00233   2.74113
    Y6       -1.27614  -0.00002   0.00000   0.02895   0.02895  -1.24719
    Z6        4.39807   0.00010   0.00000  -0.00176  -0.00176   4.39630
    X7        0.96884  -0.00003   0.00000   0.00435   0.00435   0.97319
    Y7       -0.68241  -0.00001   0.00000   0.04063   0.04063  -0.64178
    Z7        4.07028  -0.00001   0.00000  -0.01368  -0.01368   4.05660
    X8        6.24945  -0.00024   0.00000  -0.00958  -0.00958   6.23987
    Y8       -3.56058  -0.00002   0.00000   0.00435   0.00435  -3.55623
    Z8        2.68087   0.00028   0.00000   0.01195   0.01195   2.69282
    X9        6.40505  -0.00003   0.00000  -0.01191  -0.01191   6.39314
    Y9       -5.23069   0.00000   0.00000   0.01131   0.01131  -5.21938
    Z9        3.89019   0.00004   0.00000   0.02136   0.02136   3.91154
   X10        7.68539  -0.00039   0.00000  -0.00088  -0.00088   7.68451
   Y10       -1.53848   0.00008   0.00000   0.00620   0.00620  -1.53229
   Z10        3.63199   0.00035   0.00000  -0.00499  -0.00499   3.62700
   X11        6.64608  -0.00004   0.00000   0.00582   0.00582   6.65190
   Y11       -0.70429   0.00000   0.00000   0.02246   0.02246  -0.68183
   Z11        4.88484   0.00004   0.00000  -0.01117  -0.01117   4.87367
   X12        3.73269   0.00005   0.00000   0.00308   0.00308   3.73578
   Y12       -1.24440   0.00004   0.00000   0.00023   0.00023  -1.24417
   Z12       -0.13605   0.00010   0.00000  -0.00217  -0.00217  -0.13822
   X13        4.26553   0.00001   0.00000   0.01452   0.01452   4.28005
   Y13        0.71420   0.00001   0.00000  -0.00034  -0.00034   0.71385
   Z13        0.24247  -0.00002   0.00000  -0.01531  -0.01531   0.22716
   X14        7.08514  -0.00005   0.00000  -0.01219  -0.01219   7.07295
   Y14       -4.10367  -0.00000   0.00000  -0.01767  -0.01767  -4.12133
   Z14       -0.02066   0.00037   0.00000   0.01521   0.01521  -0.00545
   X15        9.02923   0.00000   0.00000  -0.00831  -0.00831   9.02092
   Y15       -3.46833  -0.00001   0.00000  -0.02995  -0.02995  -3.49828
   Z15       -0.26945   0.00003   0.00000   0.00827   0.00827  -0.26117
   X16        5.50918   0.00029   0.00000  -0.00238  -0.00238   5.50680
   Y16       -2.52151   0.00011   0.00000  -0.01675  -0.01675  -2.53826
   Z16       -1.59645   0.00037   0.00000   0.00746   0.00746  -1.58899
   X17        1.37467   0.00036   0.00000   0.00944   0.00944   1.38411
   Y17       -1.13810  -0.00012   0.00000   0.00088   0.00088  -1.13722
   Z17       -1.63587  -0.00036   0.00000  -0.01239  -0.01239  -1.64826
   X18        0.44578   0.00083   0.00000   0.03489   0.03489   0.48067
   Y18       -3.32261   0.00018   0.00000   0.00623   0.00623  -3.31637
   Z18       -2.58775  -0.00114   0.00000  -0.04938  -0.04938  -2.63713
   X19        1.51836   0.00007   0.00000   0.04481   0.04481   1.56317
   Y19       -5.00446   0.00002   0.00000   0.00907   0.00907  -4.99539
   Z19       -2.17070  -0.00011   0.00000  -0.06247  -0.06247  -2.23317
   X20       -1.66957   0.00119   0.00000   0.04641   0.04641  -1.62316
   Y20       -3.29659   0.00010   0.00000   0.00876   0.00876  -3.28783
   Z20       -4.06642  -0.00151   0.00000  -0.06560  -0.06560  -4.13202
   X21       -2.37711   0.00013   0.00000   0.06477   0.06477  -2.31233
   Y21       -5.04999   0.00005   0.00000   0.01229   0.01229  -5.03770
   Z21       -4.83455  -0.00016   0.00000  -0.09041  -0.09041  -4.92496
   X22       -2.86045   0.00064   0.00000   0.02699   0.02699  -2.83346
   Y22       -1.00493   0.00023   0.00000   0.00517   0.00517  -0.99976
   Z22       -4.58044  -0.00120   0.00000  -0.03753  -0.03753  -4.61796
   X23       -4.46701   0.00021   0.00000   0.03462   0.03462  -4.43239
   Y23       -0.94472   0.00001   0.00000   0.00820   0.00820  -0.93651
   Z23       -5.84403  -0.00001   0.00000  -0.04603  -0.04603  -5.89006
   X24       -5.57903  -0.00013   0.00000  -0.01133  -0.01133  -5.59036
   Y24       -1.55184  -0.00004   0.00000  -0.02782  -0.02782  -1.57966
   Z24       -1.68470   0.00015   0.00000   0.03827   0.03827  -1.64643
   X25       -1.90397   0.00023   0.00000  -0.00285  -0.00285  -1.90682
   Y25        1.21196  -0.00001   0.00000  -0.00181  -0.00181   1.21016
   Z25       -3.54183  -0.00019   0.00000   0.00515   0.00515  -3.53668
   X26        0.25582   0.00000   0.00000  -0.00528  -0.00528   0.25054
   Y26        1.06813   0.00007   0.00000  -0.00231  -0.00231   1.06582
   Z26       -2.07410   0.00024   0.00000   0.00906   0.00906  -2.06504
   X27        1.07678  -0.00006   0.00000  -0.01503  -0.01503   1.06175
   Y27        2.75295  -0.00006   0.00000  -0.00551  -0.00551   2.74744
   Z27       -1.25271   0.00003   0.00000   0.02489   0.02489  -1.22782
   X28       -2.90554  -0.00004   0.00000  -0.02638  -0.02638  -2.93192
   Y28        3.80497  -0.00008   0.00000  -0.00369  -0.00369   3.80128
   Z28       -4.08492   0.00011   0.00000   0.04037   0.04037  -4.04455
   X29       -1.56559   0.00004   0.00000  -0.03680  -0.03680  -1.60239
   Y29        5.64082  -0.00009   0.00000   0.00307   0.00307   5.64389
   Z29       -3.87653  -0.00025   0.00000   0.04492   0.04492  -3.83161
   X30       -5.32320  -0.00033   0.00000  -0.03033  -0.03033  -5.35353
   Y30        3.88545  -0.00026   0.00000  -0.00907  -0.00907   3.87638
   Z30       -4.99703   0.00073   0.00000   0.05211   0.05211  -4.94493
   X31       -6.03929  -0.00001   0.00000  -0.03222  -0.03222  -6.07151
   Y31        5.64742  -0.00001   0.00000  -0.01027  -0.01027   5.63715
   Z31       -5.13947   0.00007   0.00000   0.04900   0.04900  -5.09048
   X32       -6.54090   0.00004   0.00000  -0.02422  -0.02422  -6.56511
   Y32        2.56880   0.00005   0.00000  -0.01644  -0.01644   2.55236
   Z32       -4.34657   0.00007   0.00000   0.04509   0.04509  -4.30149
   X33        4.91302  -0.00005   0.00000  -0.02615  -0.02615   4.88687
   Y33       -7.55287   0.00001   0.00000  -0.01319  -0.01319  -7.56606
   Z33       -0.35966   0.00003   0.00000   0.02782   0.02782  -0.33185
   X34        0.36448  -0.00032   0.00000  -0.00950  -0.00950   0.35498
   Y34        4.15207  -0.00008   0.00000   0.00358   0.00358   4.15565
   Z34        5.38330   0.00002   0.00000   0.00015   0.00015   5.38345
   X35       -3.14083   0.00016   0.00000   0.02066   0.02066  -3.12017
   Y35        1.68354  -0.00017   0.00000  -0.00704  -0.00704   1.67650
   Z35        2.30494  -0.00028   0.00000  -0.01949  -0.01949   2.28545
   X36       -5.32562  -0.00040   0.00000   0.00249   0.00249  -5.32313
   Y36        1.58833  -0.00030   0.00000  -0.01366  -0.01366   1.57467
   Z36        0.90973   0.00042   0.00000   0.01026   0.01026   0.91999
   X37       -9.30097  -0.00071   0.00000  -0.00701  -0.00701  -9.30798
   Y37       -0.64221   0.00067   0.00000   0.01358   0.01358  -0.62862
   Z37       -0.49501   0.00172   0.00000   0.01273   0.01273  -0.48228
   X38       -6.47661  -0.00090   0.00000  -0.01347  -0.01347  -6.49008
   Y38       -0.83123  -0.00029   0.00000  -0.01312  -0.01312  -0.84434
   Z38        0.05166   0.00094   0.00000   0.03349   0.03349   0.08515
   X39       -1.69137   0.00053   0.00000   0.03336   0.03336  -1.65801
   Y39       -0.15694  -0.00011   0.00000  -0.00195  -0.00195  -0.15889
   Z39        2.81330  -0.00114   0.00000  -0.03700  -0.03700   2.77630
   X40       -2.28460   0.00048   0.00000   0.03238   0.03238  -2.25222
   Y40        4.82908  -0.00016   0.00000   0.00101   0.00101   4.83009
   Z40        3.36178  -0.00138   0.00000  -0.05407  -0.05407   3.30771
   X41        0.80379  -0.00003   0.00000  -0.02422  -0.02422   0.77958
   Y41        5.90931  -0.00002   0.00000   0.00630   0.00630   5.91561
   Z41        6.35809  -0.00001   0.00000   0.00133   0.00133   6.35942
   X42        2.01381  -0.00001   0.00000   0.00910   0.00910   2.02291
   Y42        3.54317  -0.00000   0.00000  -0.00307  -0.00307   3.54010
   Z42        4.31925   0.00003   0.00000   0.03235   0.03235   4.35160
   X43      -10.36703  -0.00022   0.00000  -0.02007  -0.02007 -10.38710
   Y43       -0.23565   0.00047   0.00000   0.05559   0.05559  -0.18006
   Z43        1.21882   0.00060   0.00000  -0.00642  -0.00642   1.21241
   X44       -9.70600  -0.00005   0.00000   0.03193   0.03193  -9.67407
   Y44        0.88387   0.00014   0.00000  -0.00564  -0.00564   0.87824
   Z44       -1.82966  -0.00014   0.00000  -0.02355  -0.02355  -1.85321
   X45      -10.02842  -0.00025   0.00000  -0.01363  -0.01363 -10.04206
   Y45       -2.39134  -0.00015   0.00000   0.00947   0.00947  -2.38187
   Z45       -1.30721   0.00025   0.00000   0.02453   0.02453  -1.28268
   X46       -6.10196  -0.00011   0.00000  -0.02456  -0.02456  -6.12652
   Y46       -2.31484  -0.00011   0.00000  -0.00930  -0.00930  -2.32414
   Z46        1.44209   0.00032   0.00000   0.03991   0.03991   1.48199
   X47       -6.38947  -0.00001   0.00000   0.01122   0.01122  -6.37825
   Y47        3.32396  -0.00005   0.00000  -0.01063  -0.01063   3.31333
   Z47        0.67251   0.00010   0.00000  -0.00335  -0.00335   0.66916
   X48       -0.12637  -0.00004   0.00000  -0.03822  -0.03822  -0.16459
   Y48        2.71177  -0.00001   0.00000   0.00822   0.00822   2.72000
   Z48        6.76621  -0.00003   0.00000  -0.00555  -0.00555   6.76066
         Item               Value     Threshold  Converged?
 Maximum Force            0.001721     0.000450     NO 
 RMS     Force            0.000384     0.000300     NO 
 Maximum Displacement     0.090414     0.001800     NO 
 RMS     Displacement     0.025032     0.001200     NO 
 Predicted change in Energy=-6.010744D-04
 GradGradGradGradGradGradGradGradGradGradGradGradGradGradGradGradGradGrad

 Leave Link  103 at Sat Aug 13 20:57:14 2022, MaxMem=  2684354560 cpu:               0.9 elap:               0.1
 (Enter /storage/apps/GAUSSIAN/G16_RevA03/g16/l9999.exe)

 Test job not archived.
 1\1\GINC-T060\Force\RM062X\def2TZVP\C16H24N2O5S1\LV87696\13-Aug-2022\0
 \\#P M062X/Def2TZVP scf=(direct,conver=8) EmpiricalDispersion=GD3 Forc
 e Charge Prop=(Field,Read)\\Gaussian run\\0,1\C,3.594289,-3.616446,-0.
 435874\H,3.747044,-3.707972,-1.510581\H,4.329205,-4.239684,0.074043\C,
 1.852294,-1.436753,1.248752\H,1.203092,-2.308734,1.090233\O,1.451779,-
 0.675305,2.327357\H,0.512687,-0.361115,2.153902\C,3.307068,-1.884179,1
 .418657\H,3.389404,-2.767963,2.058599\O,4.066933,-0.814129,1.921965\H,
 3.516954,-0.372692,2.584944\C,1.975257,-0.658508,-0.071993\H,2.257221,
 0.377936,0.128309\C,3.749292,-2.171566,-0.010935\H,4.778063,-1.83536,-
 0.142586\O,2.915333,-1.334324,-0.844805\N,0.727444,-0.602255,-0.865666
 \C,0.235897,-1.758248,-1.369377\H,0.803483,-2.648248,-1.148683\C,-0.88
 3498,-1.744482,-2.151856\H,-1.25791,-2.672338,-2.558334\C,-1.513683,-0
 .531787,-2.423862\H,-2.36384,-0.499922,-3.092528\H,-2.952293,-0.8212,-
 0.891505\C,-1.007536,0.641343,-1.874255\C,0.135372,0.565231,-1.097569\
 H,0.569808,1.456798,-0.662908\C,-1.537544,2.013501,-2.161647\O,-0.8284
 76,2.984991,-2.05137\N,-2.816917,2.056092,-2.644315\H,-3.195854,2.9884
 84,-2.719693\H,-3.461294,1.359349,-2.300107\H,2.59986,-3.996805,-0.190
 325\C,0.192877,2.197182,2.848722\C,-1.662055,0.890891,1.219724\C,-2.81
 8198,0.840509,0.481408\C,-4.921861,-0.339841,-0.261949\C,-3.427274,-0.
 439866,0.027338\O,-0.895037,-0.08305,1.488734\S,-1.208957,2.555441,1.7
 78975\H,0.425349,3.127072,3.364554\H,1.065665,1.874964,2.285649\H,-5.4
 85998,-0.124699,0.644974\H,-5.136195,0.467725,-0.968217\H,-5.306812,-1
 .265442,-0.691747\H,-3.229018,-1.224961,0.76312\H,-3.381162,1.758962,0
 .355878\H,-0.066873,1.435008,3.580526\\Version=ES64L-G16RevA.03\State=
 1-A\HF=-1507.9049396\RMSD=3.396e-09\RMSF=3.838e-04\Dipole=0.014036,-2.
 2990494,-1.7814644\Quadrupole=1.3568721,1.2713096,-2.6281816,-4.114603
 9,9.3894794,4.8740776\PG=C01 [X(C16H24N2O5S1)]\\@


    THE DOUGHNUT CREED
 AS YOU RAMBLE ON THROUGH LIFE, BROTHER
 WHATEVER BE YOUR GOAL
 KEEP YOUR EYE UPON THE DOUGHNUT
 AND NOT UPON THE HOLE.
 Job cpu time:       0 days  3 hours 18 minutes 44.3 seconds.
 Elapsed time:       0 days  0 hours 12 minutes 26.7 seconds.
 File lengths (MBytes):  RWF=    435 Int=      0 D2E=      0 Chk=     48 Scr=      1
 Normal termination of Gaussian 16 at Sat Aug 13 20:57:14 2022.
