 Entering Gaussian System, Link 0=g16
 Initial command:
 /storage/apps/GAUSSIAN/G16_RevA03/g16/l1.exe "/scratch/tmp/1019339/Gau-89115.inp" -scrdir="/scratch/tmp/1019339/"
 Entering Link 1 = /storage/apps/GAUSSIAN/G16_RevA03/g16/l1.exe PID=     89116.
  
 Copyright (c) 1988,1990,1992,1993,1995,1998,2003,2009,2016,
            Gaussian, Inc.  All Rights Reserved.
  
 This is part of the Gaussian(R) 16 program.  It is based on
 the Gaussian(R) 09 system (copyright 2009, Gaussian, Inc.),
 the Gaussian(R) 03 system (copyright 2003, Gaussian, Inc.),
 the Gaussian(R) 98 system (copyright 1998, Gaussian, Inc.),
 the Gaussian(R) 94 system (copyright 1995, Gaussian, Inc.),
 the Gaussian 92(TM) system (copyright 1992, Gaussian, Inc.),
 the Gaussian 90(TM) system (copyright 1990, Gaussian, Inc.),
 the Gaussian 88(TM) system (copyright 1988, Gaussian, Inc.),
 the Gaussian 86(TM) system (copyright 1986, Carnegie Mellon
 University), and the Gaussian 82(TM) system (copyright 1983,
 Carnegie Mellon University). Gaussian is a federally registered
 trademark of Gaussian, Inc.
  
 This software contains proprietary and confidential information,
 including trade secrets, belonging to Gaussian, Inc.
  
 This software is provided under written license and may be
 used, copied, transmitted, or stored only in accord with that
 written license.
  
 The following legend is applicable only to US Government
 contracts under FAR:
  
                    RESTRICTED RIGHTS LEGEND
  
 Use, reproduction and disclosure by the US Government is
 subject to restrictions as set forth in subparagraphs (a)
 and (c) of the Commercial Computer Software - Restricted
 Rights clause in FAR 52.227-19.
  
 Gaussian, Inc.
 340 Quinnipiac St., Bldg. 40, Wallingford CT 06492
  
  
 ---------------------------------------------------------------
 Warning -- This program may not be used in any manner that
 competes with the business of Gaussian, Inc. or will provide
 assistance to any competitor of Gaussian, Inc.  The licensee
 of this program is prohibited from giving any competitor of
 Gaussian, Inc. access to this program.  By using this program,
 the user acknowledges that Gaussian, Inc. is engaged in the
 business of creating and licensing software in the field of
 computational chemistry and represents and warrants to the
 licensee that it is not a competitor of Gaussian, Inc. and that
 it will not use this program in any manner prohibited above.
 ---------------------------------------------------------------
  

 Cite this work as:
 Gaussian 16, Revision A.03,
 M. J. Frisch, G. W. Trucks, H. B. Schlegel, G. E. Scuseria, 
 M. A. Robb, J. R. Cheeseman, G. Scalmani, V. Barone, 
 G. A. Petersson, H. Nakatsuji, X. Li, M. Caricato, A. V. Marenich, 
 J. Bloino, B. G. Janesko, R. Gomperts, B. Mennucci, H. P. Hratchian, 
 J. V. Ortiz, A. F. Izmaylov, J. L. Sonnenberg, D. Williams-Young, 
 F. Ding, F. Lipparini, F. Egidi, J. Goings, B. Peng, A. Petrone, 
 T. Henderson, D. Ranasinghe, V. G. Zakrzewski, J. Gao, N. Rega, 
 G. Zheng, W. Liang, M. Hada, M. Ehara, K. Toyota, R. Fukuda, 
 J. Hasegawa, M. Ishida, T. Nakajima, Y. Honda, O. Kitao, H. Nakai, 
 T. Vreven, K. Throssell, J. A. Montgomery, Jr., J. E. Peralta, 
 F. Ogliaro, M. J. Bearpark, J. J. Heyd, E. N. Brothers, K. N. Kudin, 
 V. N. Staroverov, T. A. Keith, R. Kobayashi, J. Normand, 
 K. Raghavachari, A. P. Rendell, J. C. Burant, S. S. Iyengar, 
 J. Tomasi, M. Cossi, J. M. Millam, M. Klene, C. Adamo, R. Cammi, 
 J. W. Ochterski, R. L. Martin, K. Morokuma, O. Farkas, 
 J. B. Foresman, and D. J. Fox, Gaussian, Inc., Wallingford CT, 2016.
 
 ******************************************
 Gaussian 16:  ES64L-G16RevA.03 25-Dec-2016
                13-Aug-2022 
 ******************************************
 %NProcShared=16
 Will use up to   16 processors via shared memory.
 %mem=20GB
 ----------------------------------------------------------------------
 #P M062X/Def2TZVP scf=(direct,conver=8) EmpiricalDispersion=GD3 Force 
 Charge Prop=(Field,Read)
 ----------------------------------------------------------------------
 1/10=7,18=10,28=-2,30=1,38=1,125=101/1,3;
 2/12=2,17=6,18=5,29=2,40=1/2;
 3/5=44,7=101,11=2,25=1,30=1,71=1,74=-55,124=31/1,2,3;
 4//1;
 5/5=2,6=8,38=5/2;
 6/7=2,8=2,9=2,10=2,14=2,15=1,28=1/1,2;
 7/7=1,16=-2,29=1/1,2,3,16;
 1/10=7,18=10,28=-2,30=1/3;
 99/12=1/99;
 Leave Link    1 at Sat Aug 13 20:45:17 2022, MaxMem=  2684354560 cpu:               0.7 elap:               0.1
 (Enter /storage/apps/GAUSSIAN/G16_RevA03/g16/l101.exe)
 ------------
 Gaussian run
 ------------
 Symbolic Z-matrix:
 Charge =  0 Multiplicity = 1
 C                     3.59346  -3.61661  -0.43421 
 H                     3.74671  -3.7079   -1.50888 
 H                     4.3278   -4.24043   0.07582 
 C                     1.85113  -1.43681   1.24931 
 H                     1.20179  -2.30858   1.08995 
 O                     1.45022  -0.67545   2.32775 
 H                     0.51134  -0.36054   2.15278 
 C                     3.30581  -1.8843    1.42029 
 H                     3.38771  -2.76785   2.06062 
 O                     4.06522  -0.81395   1.92366 
 H                     3.51461  -0.37229   2.58599 
 C                     1.97552  -0.65841  -0.07135 
 H                     2.25683   0.37813   0.12935 
 C                     3.74916  -2.17194  -0.0088 
 H                     4.77829  -1.83649  -0.13956 
 O                     2.91667  -1.33377  -0.84314 
 N                     0.72902  -0.60231  -0.86748 
 C                     0.24099  -1.75723  -1.376 
 H                     0.81001  -2.64681  -1.15721 
 C                    -0.87724  -1.74319  -2.16058 
 H                    -1.2489   -2.67041  -2.571 
 C                    -1.50912  -0.53078  -2.42973 
 H                    -2.35873  -0.4984   -3.09859 
 H                    -2.96027  -0.82749  -0.88449 
 C                    -1.00632   0.64112  -1.87532 
 C                     0.135     0.56485  -1.09628 
 H                     0.56684   1.4557   -0.65789 
 C                    -1.53778   2.01315  -2.16101 
 O                    -0.82848   2.98461  -2.05252 
 N                    -2.81834   2.05502  -2.64056 
 H                    -3.19775   2.98731  -2.71512 
 H                    -3.46141   1.35881  -2.29239 
 H                     2.59873  -3.99654  -0.1892 
 C                     0.19137   2.1967    2.84894 
 C                    -1.66185   0.89002   1.21795 
 C                    -2.8201    0.83896   0.48387 
 C                    -4.92758  -0.33524  -0.25111 
 C                    -3.43252  -0.44188   0.03368 
 O                    -0.89252  -0.08344   1.4836 
 S                    -1.20786   2.55502   1.77573 
 H                     0.42293   3.12671   3.36496 
 H                     1.0654    1.87399   2.28811 
 H                    -5.48567  -0.1012    0.65666 
 H                    -5.13875   0.46446  -0.96741 
 H                    -5.32217  -1.26386  -0.66634 
 H                    -3.23687  -1.2245    0.77346 
 H                    -3.38449   1.75696   0.36179 
 H                    -0.0703    1.43493   3.58049 
 
 ITRead=  0  0  0  0  0  0  0  0  0  0  0  0  0  0  0  0  0  0  0  0
 ITRead=  0  0  0  0  0  0  0  0  0  0  0  0  0  0  0  0  0  0  0  0
 ITRead=  0  0  0  0  0  0  0  0
 MicOpt= -1 -1 -1 -1 -1 -1 -1 -1 -1 -1 -1 -1 -1 -1 -1 -1 -1 -1 -1 -1
 MicOpt= -1 -1 -1 -1 -1 -1 -1 -1 -1 -1 -1 -1 -1 -1 -1 -1 -1 -1 -1 -1
 MicOpt= -1 -1 -1 -1 -1 -1 -1 -1
 NAtoms=     48 NQM=       48 NQMF=       0 NMMI=      0 NMMIF=      0
                NMic=       0 NMicF=      0.
                    Isotopes and Nuclear Properties:
 (Nuclear quadrupole moments (NQMom) in fm**2, nuclear magnetic moments (NMagM)
  in nuclear magnetons)

  Atom         1           2           3           4           5           6           7           8           9          10
 IAtWgt=          12           1           1          12           1          16           1          12           1          16
 AtmWgt=  12.0000000   1.0078250   1.0078250  12.0000000   1.0078250  15.9949146   1.0078250  12.0000000   1.0078250  15.9949146
 NucSpn=           0           1           1           0           1           0           1           0           1           0
 AtZEff=  -0.0000000  -0.0000000  -0.0000000  -0.0000000  -0.0000000  -0.0000000  -0.0000000  -0.0000000  -0.0000000  -0.0000000
 NQMom=    0.0000000   0.0000000   0.0000000   0.0000000   0.0000000   0.0000000   0.0000000   0.0000000   0.0000000   0.0000000
 NMagM=    0.0000000   2.7928460   2.7928460   0.0000000   2.7928460   0.0000000   2.7928460   0.0000000   2.7928460   0.0000000
 AtZNuc=   6.0000000   1.0000000   1.0000000   6.0000000   1.0000000   8.0000000   1.0000000   6.0000000   1.0000000   8.0000000

  Atom        11          12          13          14          15          16          17          18          19          20
 IAtWgt=           1          12           1          12           1          16          14          12           1          12
 AtmWgt=   1.0078250  12.0000000   1.0078250  12.0000000   1.0078250  15.9949146  14.0030740  12.0000000   1.0078250  12.0000000
 NucSpn=           1           0           1           0           1           0           2           0           1           0
 AtZEff=  -0.0000000  -0.0000000  -0.0000000  -0.0000000  -0.0000000  -0.0000000  -0.0000000  -0.0000000  -0.0000000  -0.0000000
 NQMom=    0.0000000   0.0000000   0.0000000   0.0000000   0.0000000   0.0000000   2.0440000   0.0000000   0.0000000   0.0000000
 NMagM=    2.7928460   0.0000000   2.7928460   0.0000000   2.7928460   0.0000000   0.4037610   0.0000000   2.7928460   0.0000000
 AtZNuc=   1.0000000   6.0000000   1.0000000   6.0000000   1.0000000   8.0000000   7.0000000   6.0000000   1.0000000   6.0000000

  Atom        21          22          23          24          25          26          27          28          29          30
 IAtWgt=           1          12           1           1          12          12           1          12          16          14
 AtmWgt=   1.0078250  12.0000000   1.0078250   1.0078250  12.0000000  12.0000000   1.0078250  12.0000000  15.9949146  14.0030740
 NucSpn=           1           0           1           1           0           0           1           0           0           2
 AtZEff=  -0.0000000  -0.0000000  -0.0000000  -0.0000000  -0.0000000  -0.0000000  -0.0000000  -0.0000000  -0.0000000  -0.0000000
 NQMom=    0.0000000   0.0000000   0.0000000   0.0000000   0.0000000   0.0000000   0.0000000   0.0000000   0.0000000   2.0440000
 NMagM=    2.7928460   0.0000000   2.7928460   2.7928460   0.0000000   0.0000000   2.7928460   0.0000000   0.0000000   0.4037610
 AtZNuc=   1.0000000   6.0000000   1.0000000   1.0000000   6.0000000   6.0000000   1.0000000   6.0000000   8.0000000   7.0000000

  Atom        31          32          33          34          35          36          37          38          39          40
 IAtWgt=           1           1           1          12          12          12          12          12          16          32
 AtmWgt=   1.0078250   1.0078250   1.0078250  12.0000000  12.0000000  12.0000000  12.0000000  12.0000000  15.9949146  31.9720718
 NucSpn=           1           1           1           0           0           0           0           0           0           0
 AtZEff=  -0.0000000  -0.0000000  -0.0000000  -0.0000000  -0.0000000  -0.0000000  -0.0000000  -0.0000000  -0.0000000  -0.0000000
 NQMom=    0.0000000   0.0000000   0.0000000   0.0000000   0.0000000   0.0000000   0.0000000   0.0000000   0.0000000   0.0000000
 NMagM=    2.7928460   2.7928460   2.7928460   0.0000000   0.0000000   0.0000000   0.0000000   0.0000000   0.0000000   0.0000000
 AtZNuc=   1.0000000   1.0000000   1.0000000   6.0000000   6.0000000   6.0000000   6.0000000   6.0000000   8.0000000  16.0000000

  Atom        41          42          43          44          45          46          47          48
 IAtWgt=           1           1           1           1           1           1           1           1
 AtmWgt=   1.0078250   1.0078250   1.0078250   1.0078250   1.0078250   1.0078250   1.0078250   1.0078250
 NucSpn=           1           1           1           1           1           1           1           1
 AtZEff=  -0.0000000  -0.0000000  -0.0000000  -0.0000000  -0.0000000  -0.0000000  -0.0000000  -0.0000000
 NQMom=    0.0000000   0.0000000   0.0000000   0.0000000   0.0000000   0.0000000   0.0000000   0.0000000
 NMagM=    2.7928460   2.7928460   2.7928460   2.7928460   2.7928460   2.7928460   2.7928460   2.7928460
 AtZNuc=   1.0000000   1.0000000   1.0000000   1.0000000   1.0000000   1.0000000   1.0000000   1.0000000
 Background charge distribution read from input stream:
 Leave Link  101 at Sat Aug 13 20:45:17 2022, MaxMem=  2684354560 cpu:               2.3 elap:               0.2
 (Enter /storage/apps/GAUSSIAN/G16_RevA03/g16/l103.exe)

 GradGradGradGradGradGradGradGradGradGradGradGradGradGradGradGradGradGrad
 Berny optimization.
 Initialization pass.
 Trust Radius=3.00D-01 FncErr=1.00D-07 GrdErr=1.00D-07 EigMax=2.50D+02 EigMin=1.00D-04
 Number of steps in this run=      2 maximum allowed number of steps=      2.
 GradGradGradGradGradGradGradGradGradGradGradGradGradGradGradGradGradGrad

 Leave Link  103 at Sat Aug 13 20:45:17 2022, MaxMem=  2684354560 cpu:               0.6 elap:               0.1
 (Enter /storage/apps/GAUSSIAN/G16_RevA03/g16/l202.exe)
 ---------------------------------------------------------------------------------------------------
                            Z-MATRIX (ANGSTROMS AND DEGREES)
   CD    Cent   Atom    N1       Length/X        N2       Alpha/Y        N3        Beta/Z          J
 ---------------------------------------------------------------------------------------------------
      1      1  C        0   3.593456         -3.616613         -0.434213
      2      2  H        0   3.746714         -3.707901         -1.508880
      3      3  H        0   4.327801         -4.240431          0.075818
      4      4  C        0   1.851126         -1.436806          1.249308
      5      5  H        0   1.201785         -2.308584          1.089950
      6      6  O        0   1.450219         -0.675448          2.327745
      7      7  H        0   0.511339         -0.360540          2.152775
      8      8  C        0   3.305812         -1.884301          1.420292
      9      9  H        0   3.387710         -2.767845          2.060619
     10     10  O        0   4.065215         -0.813945          1.923659
     11     11  H        0   3.514614         -0.372290          2.585989
     12     12  C        0   1.975521         -0.658408         -0.071354
     13     13  H        0   2.256825          0.378126          0.129346
     14     14  C        0   3.749161         -2.171939         -0.008795
     15     15  H        0   4.778290         -1.836491         -0.139556
     16     16  O        0   2.916671         -1.333767         -0.843135
     17     17  N        0   0.729017         -0.602309         -0.867475
     18     18  C        0   0.240991         -1.757230         -1.376004
     19     19  H        0   0.810007         -2.646811         -1.157212
     20     20  C        0  -0.877242         -1.743193         -2.160584
     21     21  H        0  -1.248902         -2.670413         -2.571000
     22     22  C        0  -1.509117         -0.530783         -2.429730
     23     23  H        0  -2.358732         -0.498396         -3.098588
     24     24  H        0  -2.960269         -0.827486         -0.884486
     25     25  C        0  -1.006322          0.641116         -1.875317
     26     26  C        0   0.134995          0.564846         -1.096284
     27     27  H        0   0.566842          1.455696         -0.657894
     28     28  C        0  -1.537780          2.013153         -2.161010
     29     29  O        0  -0.828481          2.984606         -2.052518
     30     30  N        0  -2.818337          2.055018         -2.640558
     31     31  H        0  -3.197746          2.987310         -2.715119
     32     32  H        0  -3.461410          1.358812         -2.292395
     33     33  H        0   2.598731         -3.996541         -0.189197
     34     34  C        0   0.191366          2.196703          2.848944
     35     35  C        0  -1.661850          0.890024          1.217951
     36     36  C        0  -2.820097          0.838962          0.483868
     37     37  C        0  -4.927580         -0.335242         -0.251114
     38     38  C        0  -3.432519         -0.441881          0.033678
     39     39  O        0  -0.892518         -0.083435          1.483595
     40     40  S        0  -1.207856          2.555016          1.775726
     41     41  H        0   0.422934          3.126715          3.364964
     42     42  H        0   1.065397          1.873988          2.288105
     43     43  H        0  -5.485671         -0.101201          0.656658
     44     44  H        0  -5.138748          0.464461         -0.967414
     45     45  H        0  -5.322174         -1.263863         -0.666340
     46     46  H        0  -3.236867         -1.224498          0.773461
     47     47  H        0  -3.384494          1.756957          0.361788
     48     48  H        0  -0.070296          1.434926          3.580489
 ---------------------------------------------------------------------------------------------------
                         Z-Matrix orientation:                         
 ---------------------------------------------------------------------
 Center     Atomic      Atomic             Coordinates (Angstroms)
 Number     Number       Type             X           Y           Z
 ---------------------------------------------------------------------
      1          6           0        3.593456   -3.616613   -0.434213
      2          1           0        3.746714   -3.707901   -1.508880
      3          1           0        4.327801   -4.240431    0.075818
      4          6           0        1.851126   -1.436806    1.249308
      5          1           0        1.201785   -2.308584    1.089950
      6          8           0        1.450219   -0.675448    2.327745
      7          1           0        0.511339   -0.360540    2.152775
      8          6           0        3.305812   -1.884301    1.420292
      9          1           0        3.387710   -2.767845    2.060619
     10          8           0        4.065215   -0.813945    1.923659
     11          1           0        3.514614   -0.372290    2.585989
     12          6           0        1.975521   -0.658408   -0.071354
     13          1           0        2.256825    0.378126    0.129346
     14          6           0        3.749161   -2.171939   -0.008795
     15          1           0        4.778290   -1.836491   -0.139556
     16          8           0        2.916671   -1.333767   -0.843135
     17          7           0        0.729017   -0.602309   -0.867475
     18          6           0        0.240991   -1.757230   -1.376004
     19          1           0        0.810007   -2.646811   -1.157212
     20          6           0       -0.877242   -1.743193   -2.160584
     21          1           0       -1.248902   -2.670413   -2.571000
     22          6           0       -1.509117   -0.530783   -2.429730
     23          1           0       -2.358732   -0.498396   -3.098588
     24          1           0       -2.960269   -0.827486   -0.884486
     25          6           0       -1.006322    0.641116   -1.875317
     26          6           0        0.134995    0.564846   -1.096284
     27          1           0        0.566842    1.455696   -0.657894
     28          6           0       -1.537780    2.013153   -2.161010
     29          8           0       -0.828481    2.984606   -2.052518
     30          7           0       -2.818337    2.055018   -2.640558
     31          1           0       -3.197746    2.987310   -2.715119
     32          1           0       -3.461410    1.358812   -2.292395
     33          1           0        2.598731   -3.996541   -0.189197
     34          6           0        0.191366    2.196703    2.848944
     35          6           0       -1.661850    0.890024    1.217951
     36          6           0       -2.820097    0.838962    0.483868
     37          6           0       -4.927580   -0.335242   -0.251114
     38          6           0       -3.432519   -0.441881    0.033678
     39          8           0       -0.892518   -0.083435    1.483595
     40         16           0       -1.207856    2.555016    1.775726
     41          1           0        0.422934    3.126715    3.364964
     42          1           0        1.065397    1.873988    2.288105
     43          1           0       -5.485671   -0.101201    0.656658
     44          1           0       -5.138748    0.464461   -0.967414
     45          1           0       -5.322174   -1.263863   -0.666340
     46          1           0       -3.236867   -1.224498    0.773461
     47          1           0       -3.384494    1.756957    0.361788
     48          1           0       -0.070296    1.434926    3.580489
 ---------------------------------------------------------------------
                    Distance matrix (angstroms):
                    1          2          3          4          5
     1  C    0.000000
     2  H    1.089372   0.000000
     3  H    1.090203   1.769892   0.000000
     4  C    3.259067   4.044592   3.920626   0.000000
     5  H    3.123156   3.897264   3.812148   1.098652   0.000000
     6  O    4.568624   5.402717   5.104974   1.379644   2.064216
     7  H    5.176289   5.922854   5.825177   1.941554   2.324046
     8  C    2.553984   3.478500   2.898865   1.531535   2.171652
     9  H    2.643279   3.708627   2.644185   2.188831   2.435444
    10  O    3.692840   4.500972   3.901830   2.396851   3.335903
    11  H    4.433223   5.286598   4.682387   2.384765   3.366979
    12  C    3.391218   3.808282   4.287863   1.538027   2.161105
    13  H    4.249955   4.647491   5.061904   2.170918   3.042085
    14  C    1.514037   2.146961   2.149568   2.392860   2.777596
    15  H    2.158585   2.537986   2.455250   3.264503   3.811292
    16  O    2.415914   2.601673   3.359235   2.350387   2.761869
    17  N    4.180760   4.377510   5.203555   2.536983   2.639393
    18  C    3.947568   4.014084   4.997608   3.096364   2.703340
    19  H    3.034935   3.142265   4.053993   2.887798   2.305998
    20  C    5.145600   5.066139   6.191136   4.377811   3.899742
    21  H    5.376763   5.211589   6.369476   5.072151   4.420333
    22  C    6.288139   6.210137   7.355873   5.064329   4.785156
    23  H    7.228465   7.078458   8.293938   6.124354   5.787738
    24  H    7.136756   7.326000   8.104711   5.298478   4.838878
    25  C    6.431407   6.452873   7.489279   4.716572   4.729617
    26  C    5.466616   5.609912   6.484145   3.528954   3.764872
    27  H    5.910900   6.123602   6.865057   3.695047   4.198561
    28  C    7.810613   7.815472   8.860912   5.917531   6.062291
    29  O    8.108547   8.125122   9.127881   6.134430   6.481894
    30  N    8.840048   8.808622   9.903467   7.009121   7.008501
    31  H    9.743447   9.721440  10.801085   7.796191   7.866442
    32  H    8.830562   8.845481   9.880879   6.970092   6.829014
    33  H    1.092637   1.772778   1.766182   3.029926   2.537100
    34  C    7.493196   8.154476   8.138613   4.303025   4.940913
    35  C    7.117420   7.604544   7.968811   4.213801   4.295100
    36  C    7.863122   8.232133   8.778336   5.252175   5.142948
    37  C    9.132851   9.391495  10.050844   7.029621   6.577359
    38  C    7.724129   8.036651   8.640216   5.512217   5.106571
    39  O    6.023728   6.604100   6.820131   3.068238   3.080966
    40  S    8.125603   8.634844   8.928118   5.056593   5.470947
    41  H    8.364116   9.028502   8.963331   5.228906   5.943465
    42  H    6.629389   7.263886   7.274862   3.557784   4.352940
    43  H    9.796870  10.145678  10.666529   7.480887   7.055661
    44  H    9.653541   9.831237  10.622612   7.575422   7.219757
    45  H    9.223761   9.430160  10.125847   7.426698   6.836522
    46  H    7.337166   7.755435   8.173540   5.114604   4.580070
    47  H    8.843114   9.177047   9.773942   6.196735   6.171936
    48  H    7.420172   8.180459   7.989722   4.168107   4.672777
                    6          7          8          9         10
     6  O    0.000000
     7  H    1.005623   0.000000
     8  C    2.393329   3.266108   0.000000
     9  H    2.864150   3.751949   1.094247   0.000000
    10  O    2.649655   3.590001   1.405608   2.072558   0.000000
    11  H    2.102456   3.034382   1.920579   2.455769   0.967937
    12  C    2.455994   2.679422   2.344674   3.315013   2.893284
    13  H    2.567799   2.772474   2.808112   3.860809   2.812626
    14  C    3.603337   4.293838   1.523674   2.183627   2.382943
    15  H    4.302517   5.063604   2.145601   2.764399   2.410588
    16  O    3.555045   3.963366   2.361699   3.272651   3.040480
    17  N    3.276418   3.037721   3.676582   4.509094   4.354932
    18  C    4.043543   3.804749   4.150728   4.767972   5.138312
    19  H    4.054759   4.033888   3.667968   4.124759   4.842266
    20  C    5.167422   4.737610   5.508223   6.087551   6.478613
    21  H    5.938252   5.545089   6.106865   6.554354   7.203351
    22  C    5.604656   5.011046   6.311753   7.010463   7.078514
    23  H    6.632085   5.986078   7.377538   8.049187   8.160247
    24  H    5.458383   4.636276   6.759632   7.261919   7.565929
    25  C    5.043180   4.419517   5.986090   6.813232   6.501531
    26  C    3.871966   3.399170   4.731338   5.626102   5.144682
    27  H    3.773085   3.346887   4.793370   5.760721   4.904518
    28  C    6.025416   5.333109   7.174695   8.058570   7.488028
    29  O    6.146151   5.538015   7.270422   8.233156   7.361198
    30  N    7.096481   6.316463   8.337502   9.158389   8.743358
    31  H    7.774950   6.975801   9.117592   9.964824   9.419045
    32  H    7.043295   6.204711   8.372402   9.104311   8.896408
    33  H    4.322469   4.802347   2.748086   2.682136   4.091901
    34  C    3.178932   2.669555   5.328735   5.956913   4.992681
    35  C    3.656134   2.675922   5.693460   6.291912   6.016711
    36  C    4.891719   3.914399   6.769033   7.350651   7.225830
    37  C    6.887857   5.946525   8.542946   8.966923   9.264403
    38  C    5.399854   4.477857   7.029109   7.485594   7.741219
    39  O    2.559587   1.579685   4.568709   5.085210   5.030548
    40  S    4.219714   3.405622   6.340904   7.037986   6.259158
    41  H    4.072785   3.692989   6.099428   6.725849   5.556291
    42  H    2.578620   2.306168   4.460638   5.195335   4.044343
    43  H    7.157434   6.186255   9.002930   9.371179   9.660886
    44  H    7.454660   6.506896   9.084515   9.608188   9.731678
    45  H    7.428061   6.541657   8.898377   9.249884   9.748517
    46  H    4.968504   4.086316   6.607600   6.922696   7.403507
    47  H    5.758127   4.782148   7.690214   8.320012   8.034124
    48  H    2.887042   2.366509   5.204020   5.650761   4.990487
                   11         12         13         14         15
    11  H    0.000000
    12  C    3.084176   0.000000
    13  H    2.860114   1.092618   0.000000
    14  C    3.166489   2.332485   2.957868   0.000000
    15  H    3.342059   3.041060   3.366693   1.090289   0.000000
    16  O    3.611214   1.391948   2.076462   1.446269   2.052652
    17  N    4.442845   1.480111   2.071015   3.510319   4.295309
    18  C    5.322786   2.432718   3.299911   3.787941   4.703421
    19  H    5.147805   2.547795   3.591484   3.191080   4.176064
    20  C    6.610426   3.698635   4.423364   5.120315   6.006522
    21  H    7.386947   4.548989   5.373600   5.638617   6.552434
    22  C    7.100734   4.209623   4.642984   6.016960   6.817716
    23  H    8.174748   5.289187   5.700107   7.046554   7.841138
    24  H    7.360401   5.005177   5.449718   6.898611   7.839535
    25  C    6.431882   3.719467   3.838745   5.831964   6.527874
    26  C    5.085193   2.436056   2.457478   4.662062   5.314314
    27  H    4.749070   2.607267   2.153357   4.869109   5.370611
    28  C    7.331509   4.883358   4.724201   7.078048   7.668036
    29  O    7.186583   5.005895   4.590575   7.191771   7.637950
    30  N    8.562411   6.078204   6.020100   8.241685   8.894245
    31  H    9.189365   6.858822   6.682153   9.066507   9.670560
    32  H    8.686786   6.209865   6.286874   8.347057   9.096006
    33  H    4.655716   3.397854   4.399555   2.164534   3.068999
    34  C    4.208663   4.456793   3.869051   6.317405   6.799828
    35  C    5.500977   4.158175   4.099160   6.337157   7.124052
    36  C    6.783407   5.054537   5.110107   7.243162   8.079740
    37  C    8.906243   6.912999   7.229752   8.872317   9.821920
    38  C    7.401472   5.413392   5.748930   7.387248   8.330206
    39  O    4.552090   3.312719   3.459103   5.304174   6.153526
    40  S    5.614924   4.885866   4.410604   7.078180   7.667306
    41  H    4.733743   5.342842   4.624621   7.107867   7.475574
    42  H    3.336640   3.578883   2.883981   5.371021   5.783318
    43  H    9.208742   7.517305   7.775221   9.487513  10.440023
    44  H    9.391885   7.257863   7.476954   9.320112  10.214077
    45  H    9.458402   7.346900   7.795542   9.140355  10.130389
    46  H    7.042302   5.310665   5.758814   7.093247   8.090172
    47  H    7.555028   5.895028   5.812029   8.152459   8.932819
    48  H    4.136017   4.680104   4.294497   6.362443   6.931788
                   16         17         18         19         20
    16  O    0.000000
    17  N    2.306828   0.000000
    18  C    2.760894   1.353002   0.000000
    19  H    2.502151   2.066518   1.078426   0.000000
    20  C    4.036964   2.356653   1.366092   2.161039   0.000000
    21  H    4.703630   3.330348   2.117003   2.497691   1.079958
    22  C    4.769661   2.730385   2.382727   3.387508   1.393429
    23  H    5.797826   3.810887   3.363111   4.292497   2.150392
    24  H    5.898852   3.696191   3.369581   4.195152   2.608821
    25  C    4.511700   2.360774   2.749030   3.824289   2.404780
    26  C    3.377357   1.329461   2.341264   3.282392   2.735764
    27  H    3.652001   2.074996   3.308286   4.139929   3.817898
    28  C    5.725452   3.694894   4.242175   5.313660   3.813980
    29  O    5.842698   4.086084   4.907795   5.932881   4.729285
    30  N    6.899631   4.773775   5.048942   6.121470   4.292392
    31  H    7.717650   5.631929   6.010724   7.087487   5.298104
    32  H    7.073207   4.841082   4.925166   5.964785   4.039521
    33  H    2.760269   3.934044   3.461497   2.440975   4.587628
    34  C    5.789901   4.683514   5.786729   6.315982   6.462204
    35  C    5.491464   3.506038   4.166217   4.925513   4.354761
    36  C    6.276320   4.061970   4.423754   5.293525   4.175564
    37  C    7.929679   5.696342   5.477367   6.251741   4.694000
    38  C    6.471204   4.261009   4.148737   4.927369   3.610767
    39  O    4.635399   2.902781   3.501962   4.055040   4.004381
    40  S    6.244421   4.550460   5.534259   6.303404   5.837674
    41  H    6.619873   5.649146   6.809023   7.343943   7.479181
    42  H    4.849904   4.025281   5.224087   5.689733   6.053815
    43  H    8.623685   6.418445   6.298318   7.028927   5.645406
    44  H    8.254626   5.964784   5.834762   6.715931   4.945485
    45  H    8.241038   6.090568   5.629906   6.305327   4.713803
    46  H    6.363282   4.336822   4.123045   4.704005   3.800723
    47  H    7.121032   4.898795   5.339810   6.268522   4.989962
    48  H    6.012993   4.957178   5.903692   6.315166   6.611469
                   21         22         23         24         25
    21  H    0.000000
    22  C    2.160020   0.000000
    23  H    2.495542   1.081788   0.000000
    24  H    3.028116   2.140480   2.317843   0.000000
    25  C    3.392498   1.390512   2.150324   2.637508   0.000000
    26  C    3.815345   2.383608   3.370219   3.400604   1.383949
    27  H    4.897109   3.375664   4.281874   4.207704   2.149536
    28  C    4.710343   2.558250   2.803728   3.423773   1.498851
    29  O    5.694279   3.600488   3.945533   4.521157   2.356899
    30  N    4.979725   2.906006   2.634569   3.378278   2.422418
    31  H    5.985699   3.912786   3.605709   4.237957   3.318468
    32  H    4.605157   2.720455   2.305443   2.648254   2.591621
    33  H    4.715494   5.822876   6.728894   6.436522   6.111241
    34  C    7.425563   6.180228   7.009971   5.746044   5.115950
    35  C    5.215687   3.917601   4.587577   3.009315   3.171747
    36  C    4.910864   3.476194   3.851672   2.160808   2.982394
    37  C    4.936352   4.058386   3.838451   2.124565   4.355178
    38  C    4.064343   3.126621   3.311692   1.102151   3.271632
    39  O    4.822780   3.986782   4.828911   3.230637   3.438054
    40  S    6.797119   5.224823   5.865729   4.646396   4.127196
    41  H    8.463888   7.119592   7.915592   6.718601   5.973401
    42  H    7.044037   5.888040   6.809503   5.793900   4.811037
    43  H    5.913446   5.052060   4.902793   3.046354   5.198702
    44  H    5.246887   4.037710   3.632834   2.534122   4.234671
    45  H    4.711439   4.264546   3.909445   2.411764   4.870026
    46  H    4.150674   3.704969   4.036225   1.727111   3.933430
    47  H    5.723950   4.067354   4.255938   2.900433   3.450426
    48  H    7.488908   6.485133   7.320160   5.779832   5.592146
                   26         27         28         29         30
    26  C    0.000000
    27  H    1.082724   0.000000
    28  C    2.455486   2.645666   0.000000
    29  O    2.774510   2.495890   1.207724   0.000000
    30  N    3.650694   3.968574   1.368044   2.273643   0.000000
    31  H    4.426751   4.555232   2.002874   2.460176   1.009296
    32  H    3.872363   4.348309   2.036118   3.103717   1.009685
    33  H    5.262989   5.837391   7.557459   7.997135   8.483818
    34  C    4.269773   3.603885   5.303138   5.068058   6.262030
    35  C    2.947894   2.967465   3.562891   3.972121   4.193181
    36  C    3.362230   3.627029   3.165192   3.873445   3.352735
    37  C    5.210963   5.793238   4.544602   5.573963   3.983929
    38  C    3.875238   4.480397   3.799195   4.782681   3.709887
    39  O    2.851636   3.014072   4.253844   4.681994   5.028956
    40  S    3.743323   3.206332   3.987525   3.870908   4.727284
    41  H    5.152554   4.358486   5.968317   5.561955   6.908015
    42  H    3.746143   3.017024   5.156600   4.864284   6.277570
    43  H    5.925227   6.386305   5.291086   6.208966   4.757687
    44  H    5.276272   5.799320   4.097571   5.109499   3.273162
    45  H    5.771458   6.486646   5.224415   6.337528   4.602359
    46  H    4.250547   4.868308   4.688326   5.612757   4.752464
    47  H    3.991730   4.091890   3.136957   3.724137   3.069765
    48  H    4.761448   4.286055   5.954214   5.891275   6.829178
                   31         32         33         34         35
    31  H    0.000000
    32  H    1.703003   0.000000
    33  H    9.420913   8.356348   0.000000
    34  C    6.562769   6.362248   7.306297   0.000000
    35  C    4.714512   3.972494   6.634089   2.793198   0.000000
    36  C    3.871890   2.896405   7.293751   4.062752   1.372232
    37  C    4.483637   3.030891   8.369845   6.498055   3.784762
    38  C    4.401176   2.941759   7.004374   5.293429   2.512318
    39  O    5.689706   4.789299   5.504494   2.870194   1.268882
    40  S    4.930946   4.801981   7.827766   1.799446   1.813676
    41  H    7.077865   7.086559   8.252692   1.088496   3.736145
    42  H    6.666793   6.460524   6.553720   1.087481   3.090516
    43  H    5.112962   3.863442   9.013695   6.505016   3.989885
    44  H    3.631354   2.317089   8.965196   6.780514   4.128649
    45  H    5.175245   3.603460   8.392612   7.398099   4.646262
    46  H    5.469099   4.015393   6.531856   5.269253   2.673846
    47  H    3.319036   2.684981   8.318973   4.377910   2.109998
    48  H    7.198994   6.782051   7.129872   1.088085   2.900267
                   36         37         38         39         40
    36  C    0.000000
    37  C    2.521991   0.000000
    38  C    1.489393   1.525676   0.000000
    39  O    2.359201   4.399358   2.946582   0.000000
    40  S    2.685714   5.128159   4.118889   2.673238   0.000000
    41  H    4.904261   7.327289   6.220680   3.946521   2.347763
    42  H    4.407223   6.873435   5.538677   2.883084   2.427758
    43  H    2.831792   1.091004   2.172464   4.667033   5.158246
    44  H    2.760908   1.094167   2.175973   4.933366   5.229450
    45  H    3.464858   1.091079   2.176345   5.063347   6.121694
    46  H    2.124954   2.167727   1.094554   2.702274   4.405241
    47  H    1.084510   2.670966   2.223702   3.294759   2.715487
    48  H    4.183974   6.434896   5.235152   2.716327   2.409526
                   41         42         43         44         45
    41  H    0.000000
    42  H    1.772487   0.000000
    43  H    7.257133   7.034165   0.000000
    44  H    7.535874   7.146788   1.754406   0.000000
    45  H    8.278578   7.705577   1.768852   1.763915   0.000000
    46  H    6.248447   5.514004   2.516458   3.082269   2.534380
    47  H    5.039029   4.850353   2.820398   2.552397   3.733230
    48  H    1.775353   1.775621   6.343088   6.878549   7.273324
                   46         47         48
    46  H    0.000000
    47  H    3.013361   0.000000
    48  H    4.997911   4.631161   0.000000
 Stoichiometry    C16H24N2O5S
 Framework group  C1[X(C16H24N2O5S)]
 Deg. of freedom   138
 Full point group                 C1      NOp   1
 Largest Abelian subgroup         C1      NOp   1
 Largest concise Abelian subgroup C1      NOp   1
                         Standard orientation:                         
 ---------------------------------------------------------------------
 Center     Atomic      Atomic             Coordinates (Angstroms)
 Number     Number       Type             X           Y           Z
 ---------------------------------------------------------------------
      1          6           0        4.685928   -1.932738    0.598141
      2          1           0        4.651486   -2.881759    0.064376
      3          1           0        5.707848   -1.761520    0.937120
      4          6           0        2.504129    0.486083    0.700950
      5          1           0        2.309047   -0.155680    1.571076
      6          8           0        2.017657    1.765420    0.874330
      7          1           0        1.024989    1.702045    1.022220
      8          6           0        4.004159    0.520068    0.393777
      9          1           0        4.604420    0.613267    1.303929
     10          8           0        4.270743    1.566688   -0.505808
     11          1           0        3.719821    2.313693   -0.231272
     12          6           0        1.998532   -0.223413   -0.566532
     13          1           0        1.806973    0.508475   -1.354860
     14          6           0        4.242272   -0.808315   -0.313532
     15          1           0        4.955911   -0.660155   -1.124394
     16          8           0        2.973937   -1.152397   -0.917377
     17          7           0        0.736626   -0.975088   -0.384036
     18          6           0        0.743160   -2.047462    0.440940
     19          1           0        1.686674   -2.275643    0.910746
     20          6           0       -0.385973   -2.800500    0.596505
     21          1           0       -0.363669   -3.661603    1.247898
     22          6           0       -1.541641   -2.452882   -0.100087
     23          1           0       -2.423644   -3.075654   -0.033076
     24          1           0       -2.363767   -1.412450    1.580170
     25          6           0       -1.534207   -1.331434   -0.922171
     26          6           0       -0.357632   -0.613490   -1.046842
     27          1           0       -0.305630    0.257538   -1.687855
     28          6           0       -2.679084   -0.906746   -1.791337
     29          8           0       -2.487536   -0.251573   -2.787657
     30          7           0       -3.902390   -1.399278   -1.427359
     31          1           0       -4.672917   -1.010490   -1.950628
     32          1           0       -4.073642   -1.517609   -0.439364
     33          1           0        4.044740   -2.003909    1.479996
     34          6           0       -0.288035    3.594609   -0.327110
     35          6           0       -1.614703    1.375205    0.729374
     36          6           0       -2.738907    0.628038    0.976208
     37          6           0       -4.172385   -0.781365    2.499087
     38          6           0       -2.771261   -0.470351    1.981586
     39          8           0       -0.449900    1.159987    1.184322
     40         16           0       -1.874736    2.751298   -0.423091
     41          1           0       -0.412583    4.535391   -0.860251
     42          1           0        0.508730    3.022498   -0.796651
     43          1           0       -4.586961    0.066135    3.046959
     44          1           0       -4.861176   -0.993429    1.675802
     45          1           0       -4.170269   -1.649190    3.160396
     46          1           0       -2.099182   -0.230729    2.811610
     47          1           0       -3.672600    0.953631    0.530823
     48          1           0       -0.023790    3.800096    0.708206
 ---------------------------------------------------------------------
 Rotational constants (GHZ):           0.3320115           0.1643798           0.1400426
 Leave Link  202 at Sat Aug 13 20:45:17 2022, MaxMem=  2684354560 cpu:               0.4 elap:               0.1
 (Enter /storage/apps/GAUSSIAN/G16_RevA03/g16/l301.exe)
 Standard basis: def2TZVP (5D, 7F)
 Ernie: Thresh=  0.10000D-02 Tol=  0.10000D-05 Strict=F.
 There are  1014 symmetry adapted cartesian basis functions of A   symmetry.
 There are   894 symmetry adapted basis functions of A   symmetry.
   894 basis functions,  1434 primitive gaussians,  1014 cartesian basis functions
    95 alpha electrons       95 beta electrons
       nuclear repulsion energy      2495.8744279179 Hartrees.
 IExCor= 4336 DFT=T Ex+Corr=M062X ExCW=0 ScaHFX=  0.540000
 ScaDFX=  1.000000  1.000000  1.000000  1.000000 ScalE2=  1.000000  1.000000
 IRadAn=      5 IRanWt=     -1 IRanGd=            0 ICorTp=0 IEmpDi=131
 NAtoms=   48 NActive=   48 NUniq=   48 SFac= 1.00D+00 NAtFMM=   60 NAOKFM=F Big=F
 Integral buffers will be    131072 words long.
 Raffenetti 2 integral format.
 Two-electron integral symmetry is turned on.
 R6Disp:  Grimme-D3 Dispersion energy=       -0.0042749738 Hartrees.
 Nuclear repulsion after empirical dispersion term =     2495.8701529441 Hartrees.
 Leave Link  301 at Sat Aug 13 20:45:17 2022, MaxMem=  2684354560 cpu:               1.3 elap:               0.1
 (Enter /storage/apps/GAUSSIAN/G16_RevA03/g16/l302.exe)
 NPDir=0 NMtPBC=     1 NCelOv=     1 NCel=       1 NClECP=     1 NCelD=      1
         NCelK=      1 NCelE2=     1 NClLst=     1 CellRange=     0.0.
 One-electron integrals computed using PRISM.
 One-electron integral symmetry used in STVInt
   1 Symmetry operations used in ECPInt.
 ECPInt:  NShTT=   65703 NPrTT=  200010 LenC2=   56940 LenP2D=  121317.
 LDataN:  DoStor=T MaxTD1= 6 Len=  172
 NBasis=   894 RedAO= T EigKep=  1.82D-05  NBF=   894
 NBsUse=   894 1.00D-06 EigRej= -1.00D+00 NBFU=   894
 Precomputing XC quadrature grid using
 IXCGrd= 4 IRadAn=           5 IRanWt=          -1 IRanGd=           0 AccXCQ= 0.00D+00.
 Generated NRdTot=       0 NPtTot=           0 NUsed=           0 NTot=          32
 NSgBfM=   998   996   997   997   998 MxSgAt=    48 MxSgA2=    48.
 Leave Link  302 at Sat Aug 13 20:45:19 2022, MaxMem=  2684354560 cpu:              19.6 elap:               1.3
 (Enter /storage/apps/GAUSSIAN/G16_RevA03/g16/l303.exe)
 DipDrv:  MaxL=1.
 Leave Link  303 at Sat Aug 13 20:45:19 2022, MaxMem=  2684354560 cpu:               2.2 elap:               0.2
 (Enter /storage/apps/GAUSSIAN/G16_RevA03/g16/l401.exe)
 ExpMin= 9.52D-02 ExpMax= 6.07D+04 ExpMxC= 2.07D+03 IAcc=3 IRadAn=         5 AccDes= 0.00D+00
 Harris functional with IExCor= 1009 and IRadAn=       5 diagonalized for initial guess.
 HarFok:  IExCor= 1009 AccDes= 0.00D+00 IRadAn=         5 IDoV= 1 UseB2=F ITyADJ=14
 ICtDFT=  3500011 ScaDFX=  1.000000  1.000000  1.000000  1.000000
 FoFCou: FMM=F IPFlag=           0 FMFlag=      100000 FMFlg1=           0
         NFxFlg=           0 DoJE=T BraDBF=F KetDBF=T FulRan=T
         wScrn=  0.000000 ICntrl=       500 IOpCl=  0 I1Cent=   200000004 NGrid=           0
         NMat0=    1 NMatS0=      1 NMatT0=    0 NMatD0=    1 NMtDS0=    0 NMtDT0=    0
 Petite list used in FoFCou.
 Harris En= -1507.24416790666    
 JPrj=0 DoOrth=F DoCkMO=F.
 Leave Link  401 at Sat Aug 13 20:45:23 2022, MaxMem=  2684354560 cpu:              64.1 elap:               4.1
 (Enter /storage/apps/GAUSSIAN/G16_RevA03/g16/l502.exe)
 Integral symmetry usage will be decided dynamically.
 Closed shell SCF:
 Using DIIS extrapolation, IDIIS=  1040.
 NGot=  2684354560 LenX=  2682272944 LenY=  2681243734
 Requested convergence on RMS density matrix=1.00D-08 within 128 cycles.
 Requested convergence on MAX density matrix=1.00D-06.
 Requested convergence on             energy=1.00D-06.
 No special actions if energy rises.
 Fock matrices will be formed incrementally for  20 cycles.
 Integral accuracy reduced to 1.0D-05 until final iterations.

 Cycle   1  Pass 0  IDiag  1:
 FoFJK:  IHMeth= 1 ICntrl=       0 DoSepK=F KAlg= 0 I1Cent=           0 FoldK=F
 IRaf= 790000000 NMat=       1 IRICut=       1 DoRegI=T DoRafI=F ISym2E= 0 IDoP0=0 IntGTp=1.
 FoFCou: FMM=F IPFlag=           0 FMFlag=      100000 FMFlg1=           0
         NFxFlg=           0 DoJE=F BraDBF=F KetDBF=F FulRan=T
         wScrn=  0.000000 ICntrl=         0 IOpCl=  0 I1Cent=           0 NGrid=           0
         NMat0=    1 NMatS0=      1 NMatT0=    0 NMatD0=    1 NMtDS0=    0 NMtDT0=    0
 Symmetry not used in FoFCou.
 E= -1507.16403523317    
 DIIS: error= 1.81D-02 at cycle   1 NSaved=   1.
 NSaved= 1 IEnMin= 1 EnMin= -1507.16403523317     IErMin= 1 ErrMin= 1.81D-02
 ErrMax= 1.81D-02  0.00D+00 EMaxC= 1.00D-01 BMatC= 9.94D-01 BMatP= 9.94D-01
 IDIUse=3 WtCom= 8.19D-01 WtEn= 1.81D-01
 Coeff-Com:  0.100D+01
 Coeff-En:   0.100D+01
 Coeff:      0.100D+01
 Gap=     0.169 Goal=   None    Shift=    0.000
 GapD=    0.169 DampG=1.000 DampE=0.500 DampFc=0.5000 IDamp=-1.
 Damping current iteration by 5.00D-01
 RMSDP=3.98D-03 MaxDP=8.55D-01              OVMax= 5.57D-01

 Cycle   2  Pass 0  IDiag  1:
 RMSU=  1.99D-03    CP:  1.01D+00
 E= -1507.46796130163     Delta-E=       -0.303926068460 Rises=F Damp=T
 DIIS: error= 5.15D-03 at cycle   2 NSaved=   2.
 NSaved= 2 IEnMin= 2 EnMin= -1507.46796130163     IErMin= 2 ErrMin= 5.15D-03
 ErrMax= 5.15D-03  0.00D+00 EMaxC= 1.00D-01 BMatC= 9.82D-02 BMatP= 9.94D-01
 IDIUse=3 WtCom= 9.49D-01 WtEn= 5.15D-02
 Coeff-Com:  0.129D-01 0.987D+00
 Coeff-En:   0.128D+00 0.872D+00
 Coeff:      0.189D-01 0.981D+00
 Gap=     0.154 Goal=   None    Shift=    0.000
 RMSDP=1.35D-03 MaxDP=1.69D-01 DE=-3.04D-01 OVMax= 4.28D-01

 Cycle   3  Pass 0  IDiag  1:
 RMSU=  1.16D-03    CP:  9.99D-01  6.48D-01
 E= -1507.83146626370     Delta-E=       -0.363504962074 Rises=F Damp=F
 DIIS: error= 5.84D-03 at cycle   3 NSaved=   3.
 NSaved= 3 IEnMin= 3 EnMin= -1507.83146626370     IErMin= 2 ErrMin= 5.15D-03
 ErrMax= 5.84D-03  0.00D+00 EMaxC= 1.00D-01 BMatC= 7.29D-02 BMatP= 9.82D-02
 IDIUse=3 WtCom= 9.42D-01 WtEn= 5.84D-02
 Coeff-Com: -0.746D-01 0.488D+00 0.586D+00
 Coeff-En:   0.000D+00 0.000D+00 0.100D+01
 Coeff:     -0.702D-01 0.460D+00 0.610D+00
 Gap=     0.129 Goal=   None    Shift=    0.000
 RMSDP=5.80D-04 MaxDP=2.64D-02 DE=-3.64D-01 OVMax= 1.48D-01

 Cycle   4  Pass 0  IDiag  1:
 RMSU=  4.62D-04    CP:  1.00D+00  7.95D-01  8.33D-01
 E= -1507.89701423660     Delta-E=       -0.065547972903 Rises=F Damp=F
 DIIS: error= 2.09D-03 at cycle   4 NSaved=   4.
 NSaved= 4 IEnMin= 4 EnMin= -1507.89701423660     IErMin= 4 ErrMin= 2.09D-03
 ErrMax= 2.09D-03  0.00D+00 EMaxC= 1.00D-01 BMatC= 8.21D-03 BMatP= 7.29D-02
 IDIUse=3 WtCom= 9.79D-01 WtEn= 2.09D-02
 Coeff-Com: -0.396D-01 0.111D+00 0.283D+00 0.646D+00
 Coeff-En:   0.000D+00 0.000D+00 0.149D-01 0.985D+00
 Coeff:     -0.387D-01 0.108D+00 0.277D+00 0.653D+00
 Gap=     0.145 Goal=   None    Shift=    0.000
 RMSDP=2.12D-04 MaxDP=3.09D-02 DE=-6.55D-02 OVMax= 5.09D-02

 Cycle   5  Pass 0  IDiag  1:
 RMSU=  1.88D-04    CP:  1.00D+00  7.85D-01  9.03D-01  8.93D-01
 E= -1507.90436377979     Delta-E=       -0.007349543187 Rises=F Damp=F
 DIIS: error= 7.93D-04 at cycle   5 NSaved=   5.
 NSaved= 5 IEnMin= 5 EnMin= -1507.90436377979     IErMin= 5 ErrMin= 7.93D-04
 ErrMax= 7.93D-04  0.00D+00 EMaxC= 1.00D-01 BMatC= 8.08D-04 BMatP= 8.21D-03
 IDIUse=3 WtCom= 9.92D-01 WtEn= 7.93D-03
 Coeff-Com: -0.128D-01 0.231D-01 0.828D-01 0.314D+00 0.593D+00
 Coeff-En:   0.000D+00 0.000D+00 0.000D+00 0.000D+00 0.100D+01
 Coeff:     -0.127D-01 0.230D-01 0.821D-01 0.312D+00 0.596D+00
 Gap=     0.145 Goal=   None    Shift=    0.000
 RMSDP=7.24D-05 MaxDP=6.64D-03 DE=-7.35D-03 OVMax= 8.30D-03

 Cycle   6  Pass 0  IDiag  1:
 RMSU=  6.43D-05    CP:  1.00D+00  7.87D-01  8.93D-01  9.58D-01  9.65D-01
 E= -1507.90514093408     Delta-E=       -0.000777154288 Rises=F Damp=F
 DIIS: error= 1.56D-04 at cycle   6 NSaved=   6.
 NSaved= 6 IEnMin= 6 EnMin= -1507.90514093408     IErMin= 6 ErrMin= 1.56D-04
 ErrMax= 1.56D-04  0.00D+00 EMaxC= 1.00D-01 BMatC= 9.19D-05 BMatP= 8.08D-04
 IDIUse=3 WtCom= 9.98D-01 WtEn= 1.56D-03
 Coeff-Com: -0.350D-03-0.362D-02-0.751D-02 0.511D-01 0.279D+00 0.682D+00
 Coeff-En:   0.000D+00 0.000D+00 0.000D+00 0.000D+00 0.000D+00 0.100D+01
 Coeff:     -0.350D-03-0.361D-02-0.750D-02 0.510D-01 0.278D+00 0.682D+00
 Gap=     0.146 Goal=   None    Shift=    0.000
 RMSDP=4.30D-05 MaxDP=5.72D-03 DE=-7.77D-04 OVMax= 6.74D-03

 Cycle   7  Pass 0  IDiag  1:
 RMSU=  2.24D-05    CP:  1.00D+00  7.88D-01  8.99D-01  9.84D-01  1.14D+00
                    CP:  1.07D+00
 E= -1507.90524208265     Delta-E=       -0.000101148569 Rises=F Damp=F
 DIIS: error= 8.12D-05 at cycle   7 NSaved=   7.
 NSaved= 7 IEnMin= 7 EnMin= -1507.90524208265     IErMin= 7 ErrMin= 8.12D-05
 ErrMax= 8.12D-05  0.00D+00 EMaxC= 1.00D-01 BMatC= 1.24D-05 BMatP= 9.19D-05
 IDIUse=1 WtCom= 1.00D+00 WtEn= 0.00D+00
 Coeff-Com:  0.157D-02-0.460D-02-0.166D-01-0.195D-01 0.447D-01 0.304D+00
 Coeff-Com:  0.690D+00
 Coeff:      0.157D-02-0.460D-02-0.166D-01-0.195D-01 0.447D-01 0.304D+00
 Coeff:      0.690D+00
 Gap=     0.146 Goal=   None    Shift=    0.000
 RMSDP=1.95D-05 MaxDP=1.83D-03 DE=-1.01D-04 OVMax= 3.39D-03

 Cycle   8  Pass 0  IDiag  1:
 RMSU=  1.23D-05    CP:  1.00D+00  7.87D-01  8.99D-01  9.98D-01  1.20D+00
                    CP:  1.17D+00  1.21D+00
 E= -1507.90525340304     Delta-E=       -0.000011320396 Rises=F Damp=F
 DIIS: error= 3.36D-05 at cycle   8 NSaved=   8.
 NSaved= 8 IEnMin= 8 EnMin= -1507.90525340304     IErMin= 8 ErrMin= 3.36D-05
 ErrMax= 3.36D-05  0.00D+00 EMaxC= 1.00D-01 BMatC= 2.74D-06 BMatP= 1.24D-05
 IDIUse=1 WtCom= 1.00D+00 WtEn= 0.00D+00
 Coeff-Com:  0.846D-03-0.162D-02-0.828D-02-0.191D-01-0.294D-01 0.328D-01
 Coeff-Com:  0.344D+00 0.681D+00
 Coeff:      0.846D-03-0.162D-02-0.828D-02-0.191D-01-0.294D-01 0.328D-01
 Coeff:      0.344D+00 0.681D+00
 Gap=     0.146 Goal=   None    Shift=    0.000
 RMSDP=1.59D-05 MaxDP=1.59D-03 DE=-1.13D-05 OVMax= 2.30D-03

 Cycle   9  Pass 0  IDiag  1:
 RMSU=  1.18D-05    CP:  1.00D+00  7.85D-01  8.98D-01  1.00D+00  1.22D+00
                    CP:  1.25D+00  1.43D+00  1.51D+00
 E= -1507.90525470708     Delta-E=       -0.000001304039 Rises=F Damp=F
 DIIS: error= 1.63D-05 at cycle   9 NSaved=   9.
 NSaved= 9 IEnMin= 9 EnMin= -1507.90525470708     IErMin= 9 ErrMin= 1.63D-05
 ErrMax= 1.63D-05  0.00D+00 EMaxC= 1.00D-01 BMatC= 6.23D-07 BMatP= 2.74D-06
 IDIUse=1 WtCom= 1.00D+00 WtEn= 0.00D+00
 Coeff-Com:  0.243D-03-0.292D-03-0.288D-02-0.754D-02-0.222D-01-0.183D-01
 Coeff-Com:  0.751D-01 0.335D+00 0.640D+00
 Coeff:      0.243D-03-0.292D-03-0.288D-02-0.754D-02-0.222D-01-0.183D-01
 Coeff:      0.751D-01 0.335D+00 0.640D+00
 Gap=     0.146 Goal=   None    Shift=    0.000
 RMSDP=1.93D-05 MaxDP=2.37D-03 DE=-1.30D-06 OVMax= 1.07D-03

 Cycle  10  Pass 0  IDiag  1:
 RMSU=  1.06D-05    CP:  1.00D+00  7.85D-01  8.98D-01  1.01D+00  1.23D+00
                    CP:  1.33D+00  1.61D+00  2.01D+00  2.12D+00
 E= -1507.90525231980     Delta-E=        0.000002387283 Rises=F Damp=F
 DIIS: error= 2.66D-05 at cycle  10 NSaved=  10.
 NSaved=10 IEnMin= 9 EnMin= -1507.90525470708     IErMin= 9 ErrMin= 1.63D-05
 ErrMax= 2.66D-05  0.00D+00 EMaxC= 1.00D-01 BMatC= 4.45D-07 BMatP= 6.23D-07
 IDIUse=1 WtCom= 1.00D+00 WtEn= 0.00D+00
 Coeff-Com:  0.199D-03-0.234D-03-0.248D-02-0.630D-02-0.192D-01-0.162D-01
 Coeff-Com:  0.592D-01 0.282D+00 0.552D+00 0.151D+00
 Coeff:      0.199D-03-0.234D-03-0.248D-02-0.630D-02-0.192D-01-0.162D-01
 Coeff:      0.592D-01 0.282D+00 0.552D+00 0.151D+00
 Gap=     0.146 Goal=   None    Shift=    0.000
 RMSDP=6.96D-06 MaxDP=9.44D-04 DE= 2.39D-06 OVMax= 1.08D-04

 Initial convergence to 1.0D-05 achieved.  Increase integral accuracy.
 Cycle  11  Pass 1  IDiag  1:
 E= -1507.90514730061     Delta-E=        0.000105019193 Rises=F Damp=F
 DIIS: error= 3.27D-04 at cycle   1 NSaved=   1.
 NSaved= 1 IEnMin= 1 EnMin= -1507.90514730061     IErMin= 1 ErrMin= 3.27D-04
 ErrMax= 3.27D-04  0.00D+00 EMaxC= 1.00D-01 BMatC= 9.76D-05 BMatP= 9.76D-05
 IDIUse=3 WtCom= 9.97D-01 WtEn= 3.27D-03
 Coeff-Com:  0.100D+01
 Coeff-En:   0.100D+01
 Coeff:      0.100D+01
 Gap=     0.145 Goal=   None    Shift=    0.000
 RMSDP=6.96D-06 MaxDP=9.44D-04 DE= 1.05D-04 OVMax= 1.08D-03

 Cycle  12  Pass 1  IDiag  1:
 RMSU=  5.89D-04    CP:  9.90D-01
 E= -1507.90520977185     Delta-E=       -0.000062471245 Rises=F Damp=F
 DIIS: error= 1.06D-05 at cycle   2 NSaved=   2.
 NSaved= 2 IEnMin= 2 EnMin= -1507.90520977185     IErMin= 2 ErrMin= 1.06D-05
 ErrMax= 1.06D-05  0.00D+00 EMaxC= 1.00D-01 BMatC= 1.15D-07 BMatP= 9.76D-05
 IDIUse=1 WtCom= 1.00D+00 WtEn= 0.00D+00
 Coeff-Com: -0.157D-01 0.102D+01
 Coeff:     -0.157D-01 0.102D+01
 Gap=     0.146 Goal=   None    Shift=    0.000
 RMSDP=2.22D-05 MaxDP=2.21D-03 DE=-6.25D-05 OVMax= 5.01D-04

 Cycle  13  Pass 1  IDiag  1:
 RMSU=  8.37D-06    CP:  9.89D-01  1.03D+00
 E= -1507.90520980112     Delta-E=       -0.000000029273 Rises=F Damp=F
 DIIS: error= 1.15D-05 at cycle   3 NSaved=   3.
 NSaved= 3 IEnMin= 3 EnMin= -1507.90520980112     IErMin= 2 ErrMin= 1.06D-05
 ErrMax= 1.15D-05  0.00D+00 EMaxC= 1.00D-01 BMatC= 1.67D-07 BMatP= 1.15D-07
 IDIUse=1 WtCom= 1.00D+00 WtEn= 0.00D+00
 Coeff-Com: -0.101D-01 0.594D+00 0.416D+00
 Coeff:     -0.101D-01 0.594D+00 0.416D+00
 Gap=     0.145 Goal=   None    Shift=    0.000
 RMSDP=8.63D-07 MaxDP=5.20D-05 DE=-2.93D-08 OVMax= 1.16D-04

 Cycle  14  Pass 1  IDiag  1:
 RMSU=  8.04D-07    CP:  9.89D-01  1.04D+00  1.01D+00
 E= -1507.90520997045     Delta-E=       -0.000000169325 Rises=F Damp=F
 DIIS: error= 1.52D-06 at cycle   4 NSaved=   4.
 NSaved= 4 IEnMin= 4 EnMin= -1507.90520997045     IErMin= 4 ErrMin= 1.52D-06
 ErrMax= 1.52D-06  0.00D+00 EMaxC= 1.00D-01 BMatC= 1.50D-09 BMatP= 1.15D-07
 IDIUse=1 WtCom= 1.00D+00 WtEn= 0.00D+00
 Coeff-Com:  0.333D-03-0.309D-01 0.211D-01 0.101D+01
 Coeff:      0.333D-03-0.309D-01 0.211D-01 0.101D+01
 Gap=     0.145 Goal=   None    Shift=    0.000
 RMSDP=6.94D-07 MaxDP=8.54D-05 DE=-1.69D-07 OVMax= 1.27D-04

 Cycle  15  Pass 1  IDiag  1:
 RMSU=  4.01D-07    CP:  9.89D-01  1.04D+00  1.06D+00  9.50D-01
 E= -1507.90520997898     Delta-E=       -0.000000008528 Rises=F Damp=F
 DIIS: error= 6.66D-07 at cycle   5 NSaved=   5.
 NSaved= 5 IEnMin= 5 EnMin= -1507.90520997898     IErMin= 5 ErrMin= 6.66D-07
 ErrMax= 6.66D-07  0.00D+00 EMaxC= 1.00D-01 BMatC= 9.95D-10 BMatP= 1.50D-09
 IDIUse=1 WtCom= 1.00D+00 WtEn= 0.00D+00
 Coeff-Com:  0.910D-03-0.584D-01-0.414D-01 0.453D+00 0.646D+00
 Coeff:      0.910D-03-0.584D-01-0.414D-01 0.453D+00 0.646D+00
 Gap=     0.145 Goal=   None    Shift=    0.000
 RMSDP=1.44D-07 MaxDP=1.50D-05 DE=-8.53D-09 OVMax= 4.50D-05

 Cycle  16  Pass 1  IDiag  1:
 RMSU=  7.64D-08    CP:  9.89D-01  1.04D+00  1.06D+00  9.66D-01  1.25D+00
 E= -1507.90520998125     Delta-E=       -0.000000002270 Rises=F Damp=F
 DIIS: error= 3.59D-07 at cycle   6 NSaved=   6.
 NSaved= 6 IEnMin= 6 EnMin= -1507.90520998125     IErMin= 6 ErrMin= 3.59D-07
 ErrMax= 3.59D-07  0.00D+00 EMaxC= 1.00D-01 BMatC= 1.66D-10 BMatP= 9.95D-10
 IDIUse=1 WtCom= 1.00D+00 WtEn= 0.00D+00
 Coeff-Com:  0.476D-04 0.606D-04-0.330D-01-0.226D+00 0.921D-01 0.117D+01
 Coeff:      0.476D-04 0.606D-04-0.330D-01-0.226D+00 0.921D-01 0.117D+01
 Gap=     0.145 Goal=   None    Shift=    0.000
 RMSDP=1.66D-07 MaxDP=2.06D-05 DE=-2.27D-09 OVMax= 5.26D-05

 Cycle  17  Pass 1  IDiag  1:
 RMSU=  5.65D-08    CP:  9.89D-01  1.04D+00  1.07D+00  9.75D-01  1.61D+00
                    CP:  1.48D+00
 E= -1507.90520998212     Delta-E=       -0.000000000874 Rises=F Damp=F
 DIIS: error= 1.51D-07 at cycle   7 NSaved=   7.
 NSaved= 7 IEnMin= 7 EnMin= -1507.90520998212     IErMin= 7 ErrMin= 1.51D-07
 ErrMax= 1.51D-07  0.00D+00 EMaxC= 1.00D-01 BMatC= 5.04D-11 BMatP= 1.66D-10
 IDIUse=1 WtCom= 1.00D+00 WtEn= 0.00D+00
 Coeff-Com: -0.931D-04 0.772D-02-0.154D-01-0.182D+00-0.224D-01 0.679D+00
 Coeff-Com:  0.533D+00
 Coeff:     -0.931D-04 0.772D-02-0.154D-01-0.182D+00-0.224D-01 0.679D+00
 Coeff:      0.533D+00
 Gap=     0.145 Goal=   None    Shift=    0.000
 RMSDP=3.08D-08 MaxDP=3.70D-06 DE=-8.74D-10 OVMax= 9.99D-06

 Cycle  18  Pass 1  IDiag  1:
 RMSU=  1.13D-08    CP:  9.89D-01  1.04D+00  1.07D+00  9.73D-01  1.67D+00
                    CP:  1.63D+00  1.14D+00
 E= -1507.90520998219     Delta-E=       -0.000000000068 Rises=F Damp=F
 DIIS: error= 3.78D-08 at cycle   8 NSaved=   8.
 NSaved= 8 IEnMin= 8 EnMin= -1507.90520998219     IErMin= 8 ErrMin= 3.78D-08
 ErrMax= 3.78D-08  0.00D+00 EMaxC= 1.00D-01 BMatC= 3.38D-12 BMatP= 5.04D-11
 IDIUse=1 WtCom= 1.00D+00 WtEn= 0.00D+00
 Coeff-Com: -0.472D-04 0.335D-02-0.243D-02-0.477D-01-0.246D-01 0.126D+00
 Coeff-Com:  0.221D+00 0.724D+00
 Coeff:     -0.472D-04 0.335D-02-0.243D-02-0.477D-01-0.246D-01 0.126D+00
 Coeff:      0.221D+00 0.724D+00
 Gap=     0.145 Goal=   None    Shift=    0.000
 RMSDP=1.12D-08 MaxDP=9.92D-07 DE=-6.82D-11 OVMax= 3.48D-06

 Cycle  19  Pass 1  IDiag  1:
 RMSU=  4.54D-09    CP:  9.89D-01  1.04D+00  1.07D+00  9.74D-01  1.69D+00
                    CP:  1.67D+00  1.25D+00  1.04D+00
 E= -1507.90520998219     Delta-E=       -0.000000000001 Rises=F Damp=F
 DIIS: error= 1.49D-08 at cycle   9 NSaved=   9.
 NSaved= 9 IEnMin= 9 EnMin= -1507.90520998219     IErMin= 9 ErrMin= 1.49D-08
 ErrMax= 1.49D-08  0.00D+00 EMaxC= 1.00D-01 BMatC= 6.54D-13 BMatP= 3.38D-12
 IDIUse=1 WtCom= 1.00D+00 WtEn= 0.00D+00
 Coeff-Com: -0.831D-05 0.390D-03 0.131D-02 0.761D-02-0.787D-02-0.516D-01
 Coeff-Com:  0.172D-01 0.348D+00 0.685D+00
 Coeff:     -0.831D-05 0.390D-03 0.131D-02 0.761D-02-0.787D-02-0.516D-01
 Coeff:      0.172D-01 0.348D+00 0.685D+00
 Gap=     0.145 Goal=   None    Shift=    0.000
 RMSDP=3.80D-09 MaxDP=3.66D-07 DE=-1.36D-12 OVMax= 1.16D-06

 SCF Done:  E(RM062X) =  -1507.90520998     A.U. after   19 cycles
            NFock= 19  Conv=0.38D-08     -V/T= 2.0037
 KE= 1.502293104057D+03 PE=-8.529150888236D+03 EE= 3.023082421254D+03
 Leave Link  502 at Sat Aug 13 20:54:55 2022, MaxMem=  2684354560 cpu:            9128.5 elap:             571.5
 (Enter /storage/apps/GAUSSIAN/G16_RevA03/g16/l601.exe)
 Copying SCF densities to generalized density rwf, IOpCl= 0 IROHF=0.

 **********************************************************************

            Population analysis using the SCF density.

 **********************************************************************

 Orbital symmetries:
       Occupied  (A) (A) (A) (A) (A) (A) (A) (A) (A) (A) (A) (A)
                 (A) (A) (A) (A) (A) (A) (A) (A) (A) (A) (A) (A)
                 (A) (A) (A) (A) (A) (A) (A) (A) (A) (A) (A) (A)
                 (A) (A) (A) (A) (A) (A) (A) (A) (A) (A) (A) (A)
                 (A) (A) (A) (A) (A) (A) (A) (A) (A) (A) (A) (A)
                 (A) (A) (A) (A) (A) (A) (A) (A) (A) (A) (A) (A)
                 (A) (A) (A) (A) (A) (A) (A) (A) (A) (A) (A) (A)
                 (A) (A) (A) (A) (A) (A) (A) (A) (A) (A) (A)
       Virtual   (A) (A) (A) (A) (A) (A) (A) (A) (A) (A) (A) (A)
                 (A) (A) (A) (A) (A) (A) (A) (A) (A) (A) (A) (A)
                 (A) (A) (A) (A) (A) (A) (A) (A) (A) (A) (A) (A)
                 (A) (A) (A) (A) (A) (A) (A) (A) (A) (A) (A) (A)
                 (A) (A) (A) (A) (A) (A) (A) (A) (A) (A) (A) (A)
                 (A) (A) (A) (A) (A) (A) (A) (A) (A) (A) (A) (A)
                 (A) (A) (A) (A) (A) (A) (A) (A) (A) (A) (A) (A)
                 (A) (A) (A) (A) (A) (A) (A) (A) (A) (A) (A) (A)
                 (A) (A) (A) (A) (A) (A) (A) (A) (A) (A) (A) (A)
                 (A) (A) (A) (A) (A) (A) (A) (A) (A) (A) (A) (A)
                 (A) (A) (A) (A) (A) (A) (A) (A) (A) (A) (A) (A)
                 (A) (A) (A) (A) (A) (A) (A) (A) (A) (A) (A) (A)
                 (A) (A) (A) (A) (A) (A) (A) (A) (A) (A) (A) (A)
                 (A) (A) (A) (A) (A) (A) (A) (A) (A) (A) (A) (A)
                 (A) (A) (A) (A) (A) (A) (A) (A) (A) (A) (A) (A)
                 (A) (A) (A) (A) (A) (A) (A) (A) (A) (A) (A) (A)
                 (A) (A) (A) (A) (A) (A) (A) (A) (A) (A) (A) (A)
                 (A) (A) (A) (A) (A) (A) (A) (A) (A) (A) (A) (A)
                 (A) (A) (A) (A) (A) (A) (A) (A) (A) (A) (A) (A)
                 (A) (A) (A) (A) (A) (A) (A) (A) (A) (A) (A) (A)
                 (A) (A) (A) (A) (A) (A) (A) (A) (A) (A) (A) (A)
                 (A) (A) (A) (A) (A) (A) (A) (A) (A) (A) (A) (A)
                 (A) (A) (A) (A) (A) (A) (A) (A) (A) (A) (A) (A)
                 (A) (A) (A) (A) (A) (A) (A) (A) (A) (A) (A) (A)
                 (A) (A) (A) (A) (A) (A) (A) (A) (A) (A) (A) (A)
                 (A) (A) (A) (A) (A) (A) (A) (A) (A) (A) (A) (A)
                 (A) (A) (A) (A) (A) (A) (A) (A) (A) (A) (A) (A)
                 (A) (A) (A) (A) (A) (A) (A) (A) (A) (A) (A) (A)
                 (A) (A) (A) (A) (A) (A) (A) (A) (A) (A) (A) (A)
                 (A) (A) (A) (A) (A) (A) (A) (A) (A) (A) (A) (A)
                 (A) (A) (A) (A) (A) (A) (A) (A) (A) (A) (A) (A)
                 (A) (A) (A) (A) (A) (A) (A) (A) (A) (A) (A) (A)
                 (A) (A) (A) (A) (A) (A) (A) (A) (A) (A) (A) (A)
                 (A) (A) (A) (A) (A) (A) (A) (A) (A) (A) (A) (A)
                 (A) (A) (A) (A) (A) (A) (A) (A) (A) (A) (A) (A)
                 (A) (A) (A) (A) (A) (A) (A) (A) (A) (A) (A) (A)
                 (A) (A) (A) (A) (A) (A) (A) (A) (A) (A) (A) (A)
                 (A) (A) (A) (A) (A) (A) (A) (A) (A) (A) (A) (A)
                 (A) (A) (A) (A) (A) (A) (A) (A) (A) (A) (A) (A)
                 (A) (A) (A) (A) (A) (A) (A) (A) (A) (A) (A) (A)
                 (A) (A) (A) (A) (A) (A) (A) (A) (A) (A) (A) (A)
                 (A) (A) (A) (A) (A) (A) (A) (A) (A) (A) (A) (A)
                 (A) (A) (A) (A) (A) (A) (A) (A) (A) (A) (A) (A)
                 (A) (A) (A) (A) (A) (A) (A) (A) (A) (A) (A) (A)
                 (A) (A) (A) (A) (A) (A) (A) (A) (A) (A) (A) (A)
                 (A) (A) (A) (A) (A) (A) (A) (A) (A) (A) (A) (A)
                 (A) (A) (A) (A) (A) (A) (A) (A) (A) (A) (A) (A)
                 (A) (A) (A) (A) (A) (A) (A) (A) (A) (A) (A) (A)
                 (A) (A) (A) (A) (A) (A) (A) (A) (A) (A) (A) (A)
                 (A) (A) (A) (A) (A) (A) (A) (A) (A) (A) (A) (A)
                 (A) (A) (A) (A) (A) (A) (A) (A) (A) (A) (A) (A)
                 (A) (A) (A) (A) (A) (A) (A) (A) (A) (A) (A) (A)
                 (A) (A) (A) (A) (A) (A) (A) (A) (A) (A) (A) (A)
                 (A) (A) (A) (A) (A) (A) (A) (A) (A) (A) (A) (A)
                 (A) (A) (A) (A) (A) (A) (A) (A) (A) (A) (A) (A)
                 (A) (A) (A) (A) (A) (A) (A) (A) (A) (A) (A) (A)
                 (A) (A) (A) (A) (A) (A) (A) (A) (A) (A) (A) (A)
                 (A) (A) (A) (A) (A) (A) (A) (A) (A) (A) (A) (A)
                 (A) (A) (A) (A) (A) (A) (A) (A) (A) (A) (A) (A)
                 (A) (A) (A) (A) (A) (A) (A) (A) (A) (A) (A) (A)
                 (A) (A) (A) (A) (A) (A) (A) (A) (A) (A) (A) (A)
                 (A) (A) (A) (A) (A) (A) (A) (A) (A) (A) (A) (A)
                 (A) (A) (A) (A) (A) (A) (A) (A) (A) (A) (A) (A)
                 (A) (A) (A) (A) (A) (A) (A) (A) (A) (A) (A) (A)
                 (A) (A) (A) (A) (A) (A) (A) (A) (A) (A) (A) (A)
                 (A) (A) (A) (A) (A) (A) (A) (A) (A) (A) (A) (A)
                 (A) (A) (A) (A) (A) (A) (A)
 The electronic state is 1-A.
 Alpha  occ. eigenvalues --  -89.86727 -19.66577 -19.63270 -19.61693 -19.61296
 Alpha  occ. eigenvalues --  -19.56909 -14.88103 -14.77872 -10.66654 -10.66326
 Alpha  occ. eigenvalues --  -10.64317 -10.63589 -10.61228 -10.61134 -10.60741
 Alpha  occ. eigenvalues --  -10.60513 -10.59865 -10.59837 -10.58948 -10.55182
 Alpha  occ. eigenvalues --  -10.53653 -10.52178 -10.52137 -10.48967  -8.22626
 Alpha  occ. eigenvalues --   -6.14595  -6.14369  -6.14100  -1.22580  -1.18604
 Alpha  occ. eigenvalues --   -1.17091  -1.15750  -1.13941  -1.10321  -1.03267
 Alpha  occ. eigenvalues --   -0.97877  -0.93354  -0.90713  -0.88122  -0.87493
 Alpha  occ. eigenvalues --   -0.85343  -0.81560  -0.80794  -0.78954  -0.76930
 Alpha  occ. eigenvalues --   -0.73287  -0.71687  -0.70004  -0.69208  -0.67181
 Alpha  occ. eigenvalues --   -0.66012  -0.64080  -0.62910  -0.62470  -0.61271
 Alpha  occ. eigenvalues --   -0.60096  -0.58322  -0.57965  -0.57403  -0.56153
 Alpha  occ. eigenvalues --   -0.56001  -0.54333  -0.53302  -0.52632  -0.51908
 Alpha  occ. eigenvalues --   -0.51738  -0.50959  -0.50202  -0.50055  -0.48911
 Alpha  occ. eigenvalues --   -0.48654  -0.48108  -0.47800  -0.47242  -0.46044
 Alpha  occ. eigenvalues --   -0.45736  -0.45622  -0.44751  -0.43687  -0.43259
 Alpha  occ. eigenvalues --   -0.42708  -0.40409  -0.39631  -0.38534  -0.38011
 Alpha  occ. eigenvalues --   -0.37709  -0.37314  -0.36809  -0.36740  -0.36235
 Alpha  occ. eigenvalues --   -0.34967  -0.34473  -0.29202  -0.27938  -0.21190
 Alpha virt. eigenvalues --   -0.06646  -0.04177   0.03768   0.04637   0.05089
 Alpha virt. eigenvalues --    0.06279   0.07093   0.07269   0.08207   0.08866
 Alpha virt. eigenvalues --    0.09339   0.10020   0.10329   0.10807   0.11248
 Alpha virt. eigenvalues --    0.11417   0.11913   0.12566   0.12996   0.13256
 Alpha virt. eigenvalues --    0.13686   0.14014   0.14276   0.14592   0.15219
 Alpha virt. eigenvalues --    0.15411   0.15510   0.16201   0.16411   0.16703
 Alpha virt. eigenvalues --    0.17490   0.17691   0.18594   0.18813   0.19541
 Alpha virt. eigenvalues --    0.20478   0.20708   0.21461   0.21487   0.22322
 Alpha virt. eigenvalues --    0.22684   0.22902   0.23361   0.23740   0.24214
 Alpha virt. eigenvalues --    0.24615   0.25320   0.25579   0.25882   0.26015
 Alpha virt. eigenvalues --    0.26699   0.27184   0.27691   0.28027   0.28684
 Alpha virt. eigenvalues --    0.29184   0.29535   0.29819   0.30358   0.31203
 Alpha virt. eigenvalues --    0.31512   0.31955   0.32557   0.33089   0.33664
 Alpha virt. eigenvalues --    0.34078   0.34567   0.35070   0.35814   0.36026
 Alpha virt. eigenvalues --    0.36606   0.37095   0.37462   0.37621   0.38366
 Alpha virt. eigenvalues --    0.38618   0.38764   0.39219   0.39681   0.39810
 Alpha virt. eigenvalues --    0.40271   0.40643   0.41160   0.41832   0.42059
 Alpha virt. eigenvalues --    0.42854   0.42954   0.43069   0.43759   0.44086
 Alpha virt. eigenvalues --    0.44257   0.44698   0.44879   0.45494   0.45683
 Alpha virt. eigenvalues --    0.45961   0.46083   0.46686   0.46726   0.47548
 Alpha virt. eigenvalues --    0.47798   0.48018   0.48558   0.48741   0.49119
 Alpha virt. eigenvalues --    0.49412   0.49629   0.50039   0.50428   0.50691
 Alpha virt. eigenvalues --    0.51300   0.51833   0.52021   0.52851   0.53205
 Alpha virt. eigenvalues --    0.53569   0.53945   0.54169   0.54483   0.55211
 Alpha virt. eigenvalues --    0.55534   0.55757   0.56084   0.56471   0.57268
 Alpha virt. eigenvalues --    0.57692   0.58882   0.59216   0.59677   0.60241
 Alpha virt. eigenvalues --    0.60632   0.60912   0.61539   0.61892   0.62447
 Alpha virt. eigenvalues --    0.62798   0.63500   0.64195   0.64851   0.65261
 Alpha virt. eigenvalues --    0.65550   0.66123   0.66489   0.66838   0.67201
 Alpha virt. eigenvalues --    0.67523   0.68189   0.68408   0.69656   0.70579
 Alpha virt. eigenvalues --    0.71107   0.71720   0.72061   0.72478   0.72808
 Alpha virt. eigenvalues --    0.74053   0.74776   0.75246   0.76136   0.76298
 Alpha virt. eigenvalues --    0.77178   0.78578   0.79165   0.79793   0.80943
 Alpha virt. eigenvalues --    0.81258   0.81590   0.82329   0.83146   0.83475
 Alpha virt. eigenvalues --    0.84129   0.86097   0.86672   0.87173   0.87387
 Alpha virt. eigenvalues --    0.87568   0.88703   0.89816   0.89947   0.90279
 Alpha virt. eigenvalues --    0.90543   0.91495   0.91871   0.92522   0.92916
 Alpha virt. eigenvalues --    0.93578   0.94248   0.95091   0.95694   0.96263
 Alpha virt. eigenvalues --    0.96545   0.97098   0.97805   0.98916   0.99452
 Alpha virt. eigenvalues --    1.00598   1.00957   1.01393   1.01927   1.03002
 Alpha virt. eigenvalues --    1.03313   1.03819   1.04352   1.05657   1.06413
 Alpha virt. eigenvalues --    1.06829   1.08078   1.08388   1.08745   1.10026
 Alpha virt. eigenvalues --    1.10653   1.10875   1.12251   1.12537   1.13273
 Alpha virt. eigenvalues --    1.14062   1.15142   1.15620   1.16172   1.17400
 Alpha virt. eigenvalues --    1.17706   1.18579   1.18892   1.19225   1.19956
 Alpha virt. eigenvalues --    1.21035   1.21284   1.23007   1.23368   1.24499
 Alpha virt. eigenvalues --    1.24774   1.25776   1.25970   1.27161   1.27685
 Alpha virt. eigenvalues --    1.28425   1.28726   1.29287   1.29593   1.30865
 Alpha virt. eigenvalues --    1.31894   1.32338   1.33489   1.33821   1.34202
 Alpha virt. eigenvalues --    1.34954   1.35872   1.37092   1.39144   1.39571
 Alpha virt. eigenvalues --    1.40054   1.41328   1.42490   1.42616   1.43385
 Alpha virt. eigenvalues --    1.45006   1.45397   1.46652   1.47293   1.49847
 Alpha virt. eigenvalues --    1.50782   1.51236   1.52631   1.52929   1.53359
 Alpha virt. eigenvalues --    1.53850   1.54565   1.54851   1.55135   1.55876
 Alpha virt. eigenvalues --    1.56538   1.56762   1.57162   1.58177   1.58495
 Alpha virt. eigenvalues --    1.59014   1.59294   1.60064   1.60605   1.60781
 Alpha virt. eigenvalues --    1.61251   1.61439   1.62514   1.62803   1.63152
 Alpha virt. eigenvalues --    1.63458   1.63797   1.64441   1.64648   1.65080
 Alpha virt. eigenvalues --    1.65846   1.66920   1.67380   1.68189   1.68657
 Alpha virt. eigenvalues --    1.68955   1.69838   1.70953   1.71511   1.71822
 Alpha virt. eigenvalues --    1.72108   1.72571   1.73289   1.74272   1.74478
 Alpha virt. eigenvalues --    1.75736   1.76547   1.77119   1.77719   1.77994
 Alpha virt. eigenvalues --    1.78232   1.78997   1.79311   1.80628   1.80805
 Alpha virt. eigenvalues --    1.82619   1.82769   1.83598   1.84199   1.84988
 Alpha virt. eigenvalues --    1.85992   1.86075   1.87263   1.87708   1.89000
 Alpha virt. eigenvalues --    1.89372   1.89845   1.90388   1.91224   1.91617
 Alpha virt. eigenvalues --    1.91944   1.92976   1.94264   1.94333   1.94529
 Alpha virt. eigenvalues --    1.95301   1.95564   1.96605   1.97551   1.98080
 Alpha virt. eigenvalues --    1.99101   1.99891   2.00061   2.01428   2.02513
 Alpha virt. eigenvalues --    2.02911   2.03323   2.04465   2.04536   2.05090
 Alpha virt. eigenvalues --    2.05906   2.06416   2.07181   2.07738   2.09190
 Alpha virt. eigenvalues --    2.09793   2.10781   2.11012   2.12213   2.13681
 Alpha virt. eigenvalues --    2.14368   2.14690   2.15908   2.16226   2.17279
 Alpha virt. eigenvalues --    2.17817   2.18212   2.18430   2.19293   2.19992
 Alpha virt. eigenvalues --    2.21206   2.21425   2.21524   2.22675   2.23169
 Alpha virt. eigenvalues --    2.23267   2.24007   2.25170   2.25529   2.26309
 Alpha virt. eigenvalues --    2.27138   2.27581   2.28621   2.29298   2.29980
 Alpha virt. eigenvalues --    2.30599   2.31817   2.32318   2.33915   2.34178
 Alpha virt. eigenvalues --    2.34511   2.35064   2.35755   2.36422   2.36891
 Alpha virt. eigenvalues --    2.37457   2.37790   2.38180   2.38721   2.39647
 Alpha virt. eigenvalues --    2.40565   2.40733   2.42086   2.42632   2.43775
 Alpha virt. eigenvalues --    2.44946   2.45285   2.46158   2.46824   2.47346
 Alpha virt. eigenvalues --    2.47704   2.49819   2.49948   2.50830   2.51862
 Alpha virt. eigenvalues --    2.52853   2.53445   2.54434   2.54794   2.56012
 Alpha virt. eigenvalues --    2.56369   2.57373   2.58038   2.58240   2.58378
 Alpha virt. eigenvalues --    2.59727   2.60155   2.60433   2.60659   2.61712
 Alpha virt. eigenvalues --    2.62383   2.62501   2.63254   2.64123   2.65012
 Alpha virt. eigenvalues --    2.65857   2.66450   2.66590   2.67584   2.67918
 Alpha virt. eigenvalues --    2.68738   2.68872   2.69833   2.69966   2.71054
 Alpha virt. eigenvalues --    2.71586   2.72028   2.73025   2.73329   2.73902
 Alpha virt. eigenvalues --    2.74578   2.75416   2.76402   2.76879   2.77856
 Alpha virt. eigenvalues --    2.79330   2.79472   2.80111   2.80897   2.81500
 Alpha virt. eigenvalues --    2.82026   2.82821   2.83022   2.83829   2.84207
 Alpha virt. eigenvalues --    2.85010   2.85947   2.86052   2.86982   2.87646
 Alpha virt. eigenvalues --    2.88913   2.89399   2.89714   2.90401   2.91833
 Alpha virt. eigenvalues --    2.92585   2.93325   2.94046   2.94335   2.94974
 Alpha virt. eigenvalues --    2.96380   2.97389   2.98057   2.98371   2.99533
 Alpha virt. eigenvalues --    3.00152   3.01285   3.01727   3.01926   3.02932
 Alpha virt. eigenvalues --    3.03566   3.04408   3.05106   3.06052   3.06658
 Alpha virt. eigenvalues --    3.07662   3.07813   3.08864   3.09753   3.09848
 Alpha virt. eigenvalues --    3.10258   3.11122   3.11313   3.11990   3.12711
 Alpha virt. eigenvalues --    3.12953   3.13663   3.14177   3.14735   3.15346
 Alpha virt. eigenvalues --    3.16035   3.16538   3.17696   3.17843   3.18181
 Alpha virt. eigenvalues --    3.19333   3.19595   3.19921   3.20800   3.21329
 Alpha virt. eigenvalues --    3.21735   3.22593   3.23322   3.23629   3.24586
 Alpha virt. eigenvalues --    3.25760   3.26043   3.26490   3.26930   3.27984
 Alpha virt. eigenvalues --    3.28509   3.29538   3.30365   3.30548   3.30940
 Alpha virt. eigenvalues --    3.31806   3.32027   3.32997   3.33028   3.33587
 Alpha virt. eigenvalues --    3.34613   3.35372   3.35507   3.36289   3.36898
 Alpha virt. eigenvalues --    3.37814   3.38387   3.39203   3.39854   3.40209
 Alpha virt. eigenvalues --    3.41240   3.41427   3.41890   3.42165   3.43074
 Alpha virt. eigenvalues --    3.43311   3.44631   3.44881   3.45486   3.45975
 Alpha virt. eigenvalues --    3.46427   3.47397   3.48079   3.48810   3.49799
 Alpha virt. eigenvalues --    3.50226   3.51340   3.51558   3.53088   3.53468
 Alpha virt. eigenvalues --    3.54336   3.54816   3.55757   3.56471   3.57004
 Alpha virt. eigenvalues --    3.57419   3.58068   3.58455   3.59243   3.60040
 Alpha virt. eigenvalues --    3.60545   3.61762   3.62634   3.64034   3.64600
 Alpha virt. eigenvalues --    3.66199   3.67025   3.67440   3.69569   3.70003
 Alpha virt. eigenvalues --    3.70586   3.71639   3.72769   3.73583   3.75059
 Alpha virt. eigenvalues --    3.75819   3.76790   3.77635   3.78726   3.79712
 Alpha virt. eigenvalues --    3.79877   3.80420   3.82388   3.83279   3.85495
 Alpha virt. eigenvalues --    3.85772   3.86568   3.87081   3.87721   3.89050
 Alpha virt. eigenvalues --    3.90644   3.91208   3.92674   3.93299   3.94458
 Alpha virt. eigenvalues --    3.96216   3.97129   3.97776   3.97987   3.99276
 Alpha virt. eigenvalues --    3.99765   4.01437   4.02776   4.05805   4.06654
 Alpha virt. eigenvalues --    4.08153   4.10650   4.10817   4.12340   4.13440
 Alpha virt. eigenvalues --    4.14334   4.15669   4.16842   4.17227   4.17904
 Alpha virt. eigenvalues --    4.18513   4.19996   4.21141   4.23144   4.23786
 Alpha virt. eigenvalues --    4.26959   4.27127   4.28709   4.29583   4.31258
 Alpha virt. eigenvalues --    4.32199   4.33806   4.35119   4.36652   4.37761
 Alpha virt. eigenvalues --    4.39407   4.39876   4.40881   4.42342   4.43991
 Alpha virt. eigenvalues --    4.44242   4.44847   4.45550   4.47564   4.49178
 Alpha virt. eigenvalues --    4.50347   4.51524   4.54665   4.57018   4.57605
 Alpha virt. eigenvalues --    4.58985   4.60041   4.62198   4.63901   4.66793
 Alpha virt. eigenvalues --    4.67768   4.71771   4.73555   4.75602   4.76308
 Alpha virt. eigenvalues --    4.77437   4.80142   4.80586   4.81565   4.83526
 Alpha virt. eigenvalues --    4.85334   4.86424   4.88724   4.89190   4.90052
 Alpha virt. eigenvalues --    4.91373   4.93250   4.95103   4.96596   4.97883
 Alpha virt. eigenvalues --    4.99950   5.02209   5.03950   5.04627   5.05834
 Alpha virt. eigenvalues --    5.08598   5.13036   5.14916   5.18520   5.20195
 Alpha virt. eigenvalues --    5.21302   5.24863   5.26958   5.27186   5.28780
 Alpha virt. eigenvalues --    5.30646   5.31111   5.32199   5.33918   5.37746
 Alpha virt. eigenvalues --    5.39550   5.42291   5.43341   5.45350   5.46814
 Alpha virt. eigenvalues --    5.48813   5.49351   5.50437   5.53216   5.58498
 Alpha virt. eigenvalues --    5.64565   5.67297   5.72259   5.74461   5.77536
 Alpha virt. eigenvalues --    5.80126   5.81141   5.83458   5.84675   5.86865
 Alpha virt. eigenvalues --    5.88535   5.90555   5.91824   5.94205   5.95347
 Alpha virt. eigenvalues --    5.97408   6.03255   6.05902   6.15208   6.17808
 Alpha virt. eigenvalues --    6.20330   6.22338   6.25917   6.26766   6.38069
 Alpha virt. eigenvalues --    6.41853   6.44585   6.47935   6.49790   6.55556
 Alpha virt. eigenvalues --    6.58308   6.68555   6.73493   6.75441   6.76312
 Alpha virt. eigenvalues --    6.77327   6.80597   6.83886   6.85110   6.87373
 Alpha virt. eigenvalues --    6.89761   6.95204   6.99932   7.08035   7.08598
 Alpha virt. eigenvalues --    7.09823   7.11459   7.16906   7.19303   7.23231
 Alpha virt. eigenvalues --    7.32372   7.41319   9.06668   9.42546   9.59126
 Alpha virt. eigenvalues --   19.81186  22.36500  22.46413  22.49539  22.58244
 Alpha virt. eigenvalues --   22.64778  22.68763  22.74606  22.75581  22.82329
 Alpha virt. eigenvalues --   22.86841  22.95041  22.97182  23.07287  23.18648
 Alpha virt. eigenvalues --   23.28910  23.51716  32.18670  33.16460  44.13479
 Alpha virt. eigenvalues --   44.23070  44.26253  44.37079  44.51399
          Condensed to atoms (all electrons):
               1          2          3          4          5          6
     1  C    5.149670   0.429896   0.412482   0.005008  -0.006757  -0.000242
     2  H    0.429896   0.496117  -0.013498  -0.002327   0.000473  -0.000005
     3  H    0.412482  -0.013498   0.503896  -0.000540   0.000198  -0.000008
     4  C    0.005008  -0.002327  -0.000540   5.581676   0.541621   0.236400
     5  H   -0.006757   0.000473   0.000198   0.541621   0.528347  -0.035167
     6  O   -0.000242  -0.000005  -0.000008   0.236400  -0.035167   8.177724
     7  H   -0.000006  -0.000002  -0.000003  -0.058387  -0.006799   0.305477
     8  C   -0.005458   0.011059  -0.001095  -0.047081  -0.106724  -0.061255
     9  H    0.007130  -0.000312  -0.001967  -0.075293   0.002114   0.001257
    10  O    0.005232  -0.000192  -0.000015   0.050526   0.005647  -0.022759
[...]
 (Enter /storage/apps/GAUSSIAN/G16_RevA03/g16/l716.exe)
 Dipole        = 7.24964581D-01-2.71501307D+00 7.78873921D-01
 ***** Axes restored to original set *****
 -------------------------------------------------------------------
 Center     Atomic                   Forces (Hartrees/Bohr)
 Number     Number              X              Y              Z
 -------------------------------------------------------------------
      1        6          -0.000133758   -0.000029145    0.000269874
      2        1          -0.000009831    0.000005869    0.000018804
      3        1          -0.000025469   -0.000022025    0.000018340
      4        6          -0.000201130   -0.000011635    0.000077779
      5        1          -0.000063704    0.000001382   -0.000007386
      6        8          -0.000359838   -0.000047900    0.000078643
      7        1          -0.000040204   -0.000007918   -0.000012342
      8        6          -0.000227108   -0.000023425    0.000274023
      9        1          -0.000036869    0.000004880    0.000043292
     10        8          -0.000386788    0.000060838    0.000364802
     11        1          -0.000045038    0.000005336    0.000041645
     12        6           0.000081926    0.000040076    0.000077320
     13        1           0.000013186    0.000011346   -0.000019365
     14        6          -0.000027616   -0.000010277    0.000369070
     15        1          -0.000000925   -0.000013766    0.000036700
     16        8           0.000317267    0.000123418    0.000350648
     17        7           0.000333914   -0.000044480   -0.000397230
     18        6           0.000814090    0.000152551   -0.001083953
     19        1           0.000071523    0.000017668   -0.000107758
     20        6           0.000993991    0.000235121   -0.001416785
     21        1           0.000127561    0.000048430   -0.000149141
     22        6           0.000805511    0.000016048   -0.000935442
     23        1           0.000012675    0.000031087   -0.000100355
     24        1          -0.000035160   -0.000139478    0.000049977
     25        6           0.000105997    0.000033346   -0.000167017
     26        6           0.000085444   -0.000033420    0.000182607
     27        1          -0.000031063    0.000002119    0.000082775
     28        6          -0.000047904   -0.000054458    0.000114156
     29        8           0.000023726   -0.000076972   -0.000252450
     30        7          -0.000394944   -0.000301739    0.000766033
     31        1          -0.000002004   -0.000004075    0.000069384
     32        1           0.000099108    0.000100956    0.000028520
     33        1          -0.000053271    0.000010395    0.000033826
     34        6          -0.000309432   -0.000077266    0.000013508
     35        6           0.000038862   -0.000160265   -0.000336148
     36        6          -0.000270592   -0.000217940    0.000495539
     37        6          -0.001139482    0.000779786    0.002249370
     38        6          -0.000867215   -0.000375867    0.001157170
     39        8           0.000481049   -0.000138186   -0.001043402
     40       16           0.000536868   -0.000143262   -0.001396378
     41        1          -0.000029922   -0.000016862   -0.000008223
     42        1          -0.000010283   -0.000004431    0.000033559
     43        1           0.000215749    0.000095922   -0.000209569
     44        1          -0.000053373    0.000053015   -0.000130485
     45        1          -0.000157632    0.000101749    0.000384583
     46        1          -0.000103984    0.000048485    0.000021700
     47        1          -0.000047111   -0.000016181    0.000096583
     48        1          -0.000046793   -0.000008849   -0.000026801
 -------------------------------------------------------------------
 Cartesian Forces:  Max     0.002249370 RMS     0.000396858
 Leave Link  716 at Sat Aug 13 20:58:17 2022, MaxMem=  2684354560 cpu:               0.8 elap:               0.1
 (Enter /storage/apps/GAUSSIAN/G16_RevA03/g16/l103.exe)

 GradGradGradGradGradGradGradGradGradGradGradGradGradGradGradGradGradGrad
 Berny optimization.
 Search for a local minimum.
 Step number   1 out of a maximum of    2
 All quantities printed in internal units (Hartrees-Bohrs-Radians)
 Second derivative matrix not updated -- first step.
 ITU=  0
     Eigenvalues ---    0.00024   0.00088   0.00106   0.00128   0.00181
     Eigenvalues ---    0.00213   0.00307   0.00346   0.00445   0.00481
     Eigenvalues ---    0.00600   0.00623   0.00808   0.00922   0.00956
     Eigenvalues ---    0.00969   0.01122   0.01173   0.01357   0.01505
     Eigenvalues ---    0.01719   0.02152   0.02323   0.02425   0.02674
     Eigenvalues ---    0.02999   0.03126   0.03302   0.03702   0.04247
     Eigenvalues ---    0.04395   0.04597   0.04791   0.05008   0.05247
     Eigenvalues ---    0.05306   0.05464   0.05738   0.05824   0.05971
     Eigenvalues ---    0.06158   0.06300   0.06458   0.06780   0.07042
     Eigenvalues ---    0.07065   0.07122   0.07668   0.08090   0.08340
     Eigenvalues ---    0.08659   0.08807   0.09205   0.09345   0.10377
     Eigenvalues ---    0.10745   0.10833   0.11207   0.12201   0.12550
     Eigenvalues ---    0.12833   0.13066   0.13227   0.13300   0.13672
     Eigenvalues ---    0.13891   0.14036   0.15569   0.16211   0.16479
     Eigenvalues ---    0.17526   0.18136   0.18660   0.19240   0.19891
     Eigenvalues ---    0.20340   0.20645   0.21185   0.21940   0.22556
     Eigenvalues ---    0.25178   0.25643   0.27225   0.28083   0.30623
     Eigenvalues ---    0.33208   0.33648   0.34354   0.34688   0.37715
     Eigenvalues ---    0.37868   0.37868   0.37868   0.37868   0.39935
     Eigenvalues ---    0.43809   0.48118   0.49176   0.57121   0.58763
     Eigenvalues ---    0.60010   0.61749   0.69587   0.72191   0.73807
     Eigenvalues ---    0.79275   0.81692   0.82684   0.87450   0.90836
     Eigenvalues ---    0.91220   0.92085   0.92663   0.93380   0.95351
     Eigenvalues ---    0.96801   0.99920   1.00039   1.02187   1.04216
     Eigenvalues ---    1.06041   1.08573   1.11620   1.11636   1.12638
     Eigenvalues ---    1.20061   1.20735   1.27473   1.27831   1.28896
     Eigenvalues ---    1.33469   1.37322   1.43440   1.56224   1.72575
     Eigenvalues ---    1.84086   1.87986   2.35808
 Quadratic step=5.065D+00 exceeds max=3.000D-01 adjusted using Lamda=-4.572D-03.
 Angle between NR and scaled steps=  29.26 degrees.
 Angle between quadratic step and forces=  60.67 degrees.
 Linear search not attempted -- first point.
 Variable       Old X    -DE/DX   Delta X   Delta X   Delta X     New X
                                 (Linear)    (Quad)   (Total)
    X1        6.79065  -0.00013   0.00000  -0.02421  -0.02421   6.76643
    Y1       -6.83441  -0.00003   0.00000  -0.02089  -0.02089  -6.85530
    Z1       -0.82054   0.00027   0.00000   0.02688   0.02688  -0.79366
    X2        7.08026  -0.00001   0.00000  -0.02382  -0.02382   7.05644
    Y2       -7.00692   0.00001   0.00000  -0.02913  -0.02913  -7.03605
    Z2       -2.85137   0.00002   0.00000   0.02698   0.02698  -2.82439
    X3        8.17836  -0.00003   0.00000  -0.02673  -0.02673   8.15163
    Y3       -8.01325  -0.00002   0.00000  -0.02349  -0.02349  -8.03674
    Z3        0.14328   0.00002   0.00000   0.02773   0.02773   0.17101
    X4        3.49812  -0.00020   0.00000  -0.00650  -0.00650   3.49162
    Y4       -2.71517  -0.00001   0.00000   0.01500   0.01500  -2.70017
    Z4        2.36085   0.00008   0.00000   0.00424   0.00424   2.36509
    X5        2.27104  -0.00006   0.00000  -0.01153  -0.01153   2.25951
    Y5       -4.36259   0.00000   0.00000   0.01844   0.01844  -4.34415
    Z5        2.05971  -0.00001   0.00000   0.00803   0.00803   2.06774
    X6        2.74052  -0.00036   0.00000  -0.00393  -0.00393   2.73658
    Y6       -1.27641  -0.00005   0.00000   0.02946   0.02946  -1.24696
    Z6        4.39880   0.00008   0.00000  -0.00447  -0.00447   4.39433
    X7        0.96629  -0.00004   0.00000   0.00322   0.00322   0.96951
    Y7       -0.68132  -0.00001   0.00000   0.04172   0.04172  -0.63960
    Z7        4.06816  -0.00001   0.00000  -0.01776  -0.01776   4.05040
    X8        6.24708  -0.00023   0.00000  -0.01026  -0.01026   6.23682
    Y8       -3.56081  -0.00002   0.00000   0.00417   0.00417  -3.55664
    Z8        2.68396   0.00027   0.00000   0.01232   0.01232   2.69628
    X9        6.40184  -0.00004   0.00000  -0.01420  -0.01420   6.38764
    Y9       -5.23047   0.00000   0.00000   0.01114   0.01114  -5.21933
    Z9        3.89401   0.00004   0.00000   0.02193   0.02193   3.91594
   X10        7.68214  -0.00039   0.00000  -0.00179  -0.00179   7.68036
   Y10       -1.53813   0.00006   0.00000   0.00552   0.00552  -1.53261
   Z10        3.63519   0.00036   0.00000  -0.00317  -0.00317   3.63202
   X11        6.64166  -0.00005   0.00000   0.00404   0.00404   6.64569
   Y11       -0.70353   0.00001   0.00000   0.02227   0.02227  -0.68126
   Z11        4.88681   0.00004   0.00000  -0.01040  -0.01040   4.87641
   X12        3.73319   0.00008   0.00000   0.00506   0.00506   3.73826
   Y12       -1.24421   0.00004   0.00000   0.00047   0.00047  -1.24374
   Z12       -0.13484   0.00008   0.00000  -0.00421  -0.00421  -0.13905
   X13        4.26478   0.00001   0.00000   0.01656   0.01656   4.28134
   Y13        0.71455   0.00001   0.00000  -0.00017  -0.00017   0.71439
   Z13        0.24443  -0.00002   0.00000  -0.01704  -0.01704   0.22739
   X14        7.08489  -0.00003   0.00000  -0.01100  -0.01100   7.07389
   Y14       -4.10437  -0.00001   0.00000  -0.01832  -0.01832  -4.12269
   Z14       -0.01662   0.00037   0.00000   0.01625   0.01625  -0.00037
   X15        9.02966  -0.00000   0.00000  -0.00670  -0.00670   9.02295
   Y15       -3.47047  -0.00001   0.00000  -0.03148  -0.03148  -3.50195
   Z15       -0.26372   0.00004   0.00000   0.01063   0.01063  -0.25309
   X16        5.51171   0.00032   0.00000   0.00055   0.00055   5.51226
   Y16       -2.52045   0.00012   0.00000  -0.01704  -0.01704  -2.53750
   Z16       -1.59329   0.00035   0.00000   0.00695   0.00695  -1.58635
   X17        1.37764   0.00033   0.00000   0.01152   0.01152   1.38916
   Y17       -1.13820  -0.00004   0.00000   0.00138   0.00138  -1.13682
   Z17       -1.63929  -0.00040   0.00000  -0.01486  -0.01486  -1.65415
   X18        0.45541   0.00081   0.00000   0.03648   0.03648   0.49189
   Y18       -3.32068   0.00015   0.00000   0.00687   0.00687  -3.31382
   Z18       -2.60027  -0.00108   0.00000  -0.05128  -0.05128  -2.65155
   X19        1.53069   0.00007   0.00000   0.04756   0.04756   1.57825
   Y19       -5.00175   0.00002   0.00000   0.01003   0.01003  -4.99172
   Z19       -2.18681  -0.00011   0.00000  -0.06622  -0.06622  -2.25303
   X20       -1.65775   0.00099   0.00000   0.04607   0.04607  -1.61168
   Y20       -3.29416   0.00024   0.00000   0.00929   0.00929  -3.28487
   Z20       -4.08291  -0.00142   0.00000  -0.06483  -0.06483  -4.14774
   X21       -2.36008   0.00013   0.00000   0.06484   0.06484  -2.29524
   Y21       -5.04635   0.00005   0.00000   0.01312   0.01312  -5.03323
   Z21       -4.85849  -0.00015   0.00000  -0.09031  -0.09031  -4.94879
   X22       -2.85182   0.00081   0.00000   0.02543   0.02543  -2.82639
   Y22       -1.00303   0.00002   0.00000   0.00505   0.00505  -0.99799
   Z22       -4.59152  -0.00094   0.00000  -0.03478  -0.03478  -4.62631
   X23       -4.45736   0.00001   0.00000   0.03136   0.03136  -4.42599
   Y23       -0.94183   0.00003   0.00000   0.00823   0.00823  -0.93360
   Z23       -5.85548  -0.00010   0.00000  -0.04210  -0.04210  -5.89758
   X24       -5.59410  -0.00004   0.00000  -0.01050  -0.01050  -5.60460
   Y24       -1.56372  -0.00014   0.00000  -0.02581  -0.02581  -1.58953
   Z24       -1.67144   0.00005   0.00000   0.03688   0.03688  -1.63456
   X25       -1.90167   0.00011   0.00000  -0.00348  -0.00348  -1.90516
   Y25        1.21153   0.00003   0.00000  -0.00178  -0.00178   1.20975
   Z25       -3.54384  -0.00017   0.00000   0.00636   0.00636  -3.53748
   X26        0.25510   0.00009   0.00000  -0.00395  -0.00395   0.25116
   Y26        1.06740  -0.00003   0.00000  -0.00209  -0.00209   1.06531
   Z26       -2.07168   0.00018   0.00000   0.00774   0.00774  -2.06394
   X27        1.07118  -0.00003   0.00000  -0.01348  -0.01348   1.05769
   Y27        2.75087   0.00000   0.00000  -0.00525  -0.00525   2.74561
   Z27       -1.24324   0.00008   0.00000   0.02372   0.02372  -1.21952
   X28       -2.90598  -0.00005   0.00000  -0.02748  -0.02748  -2.93347
   Y28        3.80431  -0.00005   0.00000  -0.00376  -0.00376   3.80055
   Z28       -4.08372   0.00011   0.00000   0.04174   0.04174  -4.04197
   X29       -1.56560   0.00002   0.00000  -0.03830  -0.03830  -1.60391
   Y29        5.64009  -0.00008   0.00000   0.00329   0.00329   5.64338
   Z29       -3.87870  -0.00025   0.00000   0.04640   0.04640  -3.83230
   X30       -5.32589  -0.00039   0.00000  -0.03119  -0.03119  -5.35708
   Y30        3.88342  -0.00030   0.00000  -0.00944  -0.00944   3.87398
   Z30       -4.98993   0.00077   0.00000   0.05294   0.05294  -4.93699
   X31       -6.04286  -0.00000   0.00000  -0.03329  -0.03329  -6.07615
   Y31        5.64520  -0.00000   0.00000  -0.01066  -0.01066   5.63454
   Z31       -5.13083   0.00007   0.00000   0.05033   0.05033  -5.08050
   X32       -6.54112   0.00010   0.00000  -0.02486  -0.02486  -6.56598
   Y32        2.56778   0.00010   0.00000  -0.01709  -0.01709   2.55069
   Z32       -4.33200   0.00003   0.00000   0.04524   0.04524  -4.28676
   X33        4.91089  -0.00005   0.00000  -0.02636  -0.02636   4.88453
   Y33       -7.55237   0.00001   0.00000  -0.01287  -0.01287  -7.56524
   Z33       -0.35753   0.00003   0.00000   0.02833   0.02833  -0.32920
   X34        0.36163  -0.00031   0.00000  -0.00878  -0.00878   0.35285
   Y34        4.15117  -0.00008   0.00000   0.00341   0.00341   4.15458
   Z34        5.38372   0.00001   0.00000  -0.00054  -0.00054   5.38319
   X35       -3.14044   0.00004   0.00000   0.01891   0.01891  -3.12154
   Y35        1.68190  -0.00016   0.00000  -0.00687  -0.00687   1.67504
   Z35        2.30159  -0.00034   0.00000  -0.01789  -0.01789   2.28371
   X36       -5.32921  -0.00027   0.00000   0.00196   0.00196  -5.32725
   Y36        1.58541  -0.00022   0.00000  -0.01229  -0.01229   1.57312
   Z36        0.91438   0.00050   0.00000   0.01057   0.01057   0.92495
   X37       -9.31178  -0.00114   0.00000  -0.00686  -0.00686  -9.31863
   Y37       -0.63352   0.00078   0.00000   0.01288   0.01288  -0.62063
   Z37       -0.47454   0.00225   0.00000   0.01285   0.01285  -0.46169
   X38       -6.48652  -0.00087   0.00000  -0.01300  -0.01300  -6.49952
   Y38       -0.83503  -0.00038   0.00000  -0.01179  -0.01179  -0.84682
   Z38        0.06364   0.00116   0.00000   0.03250   0.03250   0.09614
   X39       -1.68661   0.00048   0.00000   0.02810   0.02810  -1.65852
   Y39       -0.15767  -0.00014   0.00000  -0.00346  -0.00346  -0.16113
   Z39        2.80359  -0.00104   0.00000  -0.03159  -0.03159   2.77200
   X40       -2.28252   0.00054   0.00000   0.03501   0.03501  -2.24751
   Y40        4.82828  -0.00014   0.00000   0.00139   0.00139   4.82967
   Z40        3.35564  -0.00140   0.00000  -0.05690  -0.05690   3.29874
   X41        0.79923  -0.00003   0.00000  -0.02314  -0.02314   0.77609
   Y41        5.90864  -0.00002   0.00000   0.00633   0.00633   5.91496
   Z41        6.35886  -0.00001   0.00000   0.00015   0.00015   6.35901
   X42        2.01331  -0.00001   0.00000   0.01024   0.01024   2.02355
   Y42        3.54132  -0.00000   0.00000  -0.00464  -0.00464   3.53669
   Z42        4.32389   0.00003   0.00000   0.03328   0.03328   4.35718
   X43      -10.36642   0.00022   0.00000  -0.01855  -0.01855 -10.38497
   Y43       -0.19124   0.00010   0.00000   0.04894   0.04894  -0.14230
   Z43        1.24090  -0.00021   0.00000  -0.00780  -0.00780   1.23310
   X44       -9.71083  -0.00005   0.00000   0.02907   0.02907  -9.68176
   Y44        0.87770   0.00005   0.00000  -0.00564  -0.00564   0.87206
   Z44       -1.82815  -0.00013   0.00000  -0.02058  -0.02058  -1.84873
   X45      -10.05745  -0.00016   0.00000  -0.01223  -0.01223 -10.06968
   Y45       -2.38835   0.00010   0.00000   0.01025   0.01025  -2.37811
   Z45       -1.25920   0.00038   0.00000   0.02327   0.02327  -1.23593
   X46       -6.11679  -0.00010   0.00000  -0.02278  -0.02278  -6.13957
   Y46       -2.31397   0.00005   0.00000  -0.00823  -0.00823  -2.32220
   Z46        1.46163   0.00002   0.00000   0.03697   0.03697   1.49860
   X47       -6.39577  -0.00005   0.00000   0.01104   0.01104  -6.38473
   Y47        3.32017  -0.00002   0.00000  -0.00888  -0.00888   3.31128
   Z47        0.68368   0.00010   0.00000  -0.00337  -0.00337   0.68031
   X48       -0.13284  -0.00005   0.00000  -0.03925  -0.03925  -0.17209
   Y48        2.71162  -0.00001   0.00000   0.00902   0.00902   2.72064
   Z48        6.76614  -0.00003   0.00000  -0.00592  -0.00592   6.76022
         Item               Value     Threshold  Converged?
 Maximum Force            0.002249     0.000450     NO 
 RMS     Force            0.000397     0.000300     NO 
 Maximum Displacement     0.090306     0.001800     NO 
 RMS     Displacement     0.025011     0.001200     NO 
 Predicted change in Energy=-5.560261D-04
 GradGradGradGradGradGradGradGradGradGradGradGradGradGradGradGradGradGrad

 Leave Link  103 at Sat Aug 13 20:58:17 2022, MaxMem=  2684354560 cpu:               1.1 elap:               0.1
 (Enter /storage/apps/GAUSSIAN/G16_RevA03/g16/l9999.exe)

 Test job not archived.
 1\1\GINC-T003\Force\RM062X\def2TZVP\C16H24N2O5S1\LV87696\13-Aug-2022\0
 \\#P M062X/Def2TZVP scf=(direct,conver=8) EmpiricalDispersion=GD3 Forc
 e Charge Prop=(Field,Read)\\Gaussian run\\0,1\C,3.593456,-3.616613,-0.
 434213\H,3.746714,-3.707901,-1.50888\H,4.327801,-4.240431,0.075818\C,1
 .851126,-1.436806,1.249308\H,1.201785,-2.308584,1.08995\O,1.450219,-0.
 675448,2.327745\H,0.511339,-0.36054,2.152775\C,3.305812,-1.884301,1.42
 0292\H,3.38771,-2.767845,2.060619\O,4.065215,-0.813945,1.923659\H,3.51
 4614,-0.37229,2.585989\C,1.975521,-0.658408,-0.071354\H,2.256825,0.378
 126,0.129346\C,3.749161,-2.171939,-0.008795\H,4.77829,-1.836491,-0.139
 556\O,2.916671,-1.333767,-0.843135\N,0.729017,-0.602309,-0.867475\C,0.
 240991,-1.75723,-1.376004\H,0.810007,-2.646811,-1.157212\C,-0.877242,-
 1.743193,-2.160584\H,-1.248902,-2.670413,-2.571\C,-1.509117,-0.530783,
 -2.42973\H,-2.358732,-0.498396,-3.098588\H,-2.960269,-0.827486,-0.8844
 86\C,-1.006322,0.641116,-1.875317\C,0.134995,0.564846,-1.096284\H,0.56
 6842,1.455696,-0.657894\C,-1.53778,2.013153,-2.16101\O,-0.828481,2.984
 606,-2.052518\N,-2.818337,2.055018,-2.640558\H,-3.197746,2.98731,-2.71
 5119\H,-3.46141,1.358812,-2.292395\H,2.598731,-3.996541,-0.189197\C,0.
 191366,2.196703,2.848944\C,-1.66185,0.890024,1.217951\C,-2.820097,0.83
 8962,0.483868\C,-4.92758,-0.335242,-0.251114\C,-3.432519,-0.441881,0.0
 33678\O,-0.892518,-0.083435,1.483595\S,-1.207856,2.555016,1.775726\H,0
 .422934,3.126715,3.364964\H,1.065397,1.873988,2.288105\H,-5.485671,-0.
 101201,0.656658\H,-5.138748,0.464461,-0.967414\H,-5.322174,-1.263863,-
 0.66634\H,-3.236867,-1.224498,0.773461\H,-3.384494,1.756957,0.361788\H
 ,-0.070296,1.434926,3.580489\\Version=ES64L-G16RevA.03\State=1-A\HF=-1
 507.90521\RMSD=3.800e-09\RMSF=3.969e-04\Dipole=0.0215072,-2.302869,-1.
 7888113\Quadrupole=1.2994901,1.270042,-2.5695321,-4.1469047,9.3500632,
 4.9135447\PG=C01 [X(C16H24N2O5S1)]\\@


 A MAN IS EXACTLY AS GREAT AS THE TIDE SURGING
 BENEATH HIM.      - BISMARCK
 Job cpu time:       0 days  3 hours 27 minutes 31.0 seconds.
 Elapsed time:       0 days  0 hours 13 minutes  0.2 seconds.
 File lengths (MBytes):  RWF=    435 Int=      0 D2E=      0 Chk=     48 Scr=      1
 Normal termination of Gaussian 16 at Sat Aug 13 20:58:17 2022.
