 Entering Gaussian System, Link 0=g16
 Initial command:
 /storage/apps/GAUSSIAN/G16_RevA03/g16/l1.exe "/scratch/tmp/1019352/Gau-141012.inp" -scrdir="/scratch/tmp/1019352/"
 Entering Link 1 = /storage/apps/GAUSSIAN/G16_RevA03/g16/l1.exe PID=    141013.
  
 Copyright (c) 1988,1990,1992,1993,1995,1998,2003,2009,2016,
            Gaussian, Inc.  All Rights Reserved.
  
 This is part of the Gaussian(R) 16 program.  It is based on
 the Gaussian(R) 09 system (copyright 2009, Gaussian, Inc.),
 the Gaussian(R) 03 system (copyright 2003, Gaussian, Inc.),
 the Gaussian(R) 98 system (copyright 1998, Gaussian, Inc.),
 the Gaussian(R) 94 system (copyright 1995, Gaussian, Inc.),
 the Gaussian 92(TM) system (copyright 1992, Gaussian, Inc.),
 the Gaussian 90(TM) system (copyright 1990, Gaussian, Inc.),
 the Gaussian 88(TM) system (copyright 1988, Gaussian, Inc.),
 the Gaussian 86(TM) system (copyright 1986, Carnegie Mellon
 University), and the Gaussian 82(TM) system (copyright 1983,
 Carnegie Mellon University). Gaussian is a federally registered
 trademark of Gaussian, Inc.
  
 This software contains proprietary and confidential information,
 including trade secrets, belonging to Gaussian, Inc.
  
 This software is provided under written license and may be
 used, copied, transmitted, or stored only in accord with that
 written license.
  
 The following legend is applicable only to US Government
 contracts under FAR:
  
                    RESTRICTED RIGHTS LEGEND
  
 Use, reproduction and disclosure by the US Government is
 subject to restrictions as set forth in subparagraphs (a)
 and (c) of the Commercial Computer Software - Restricted
 Rights clause in FAR 52.227-19.
  
 Gaussian, Inc.
 340 Quinnipiac St., Bldg. 40, Wallingford CT 06492
  
  
 ---------------------------------------------------------------
 Warning -- This program may not be used in any manner that
 competes with the business of Gaussian, Inc. or will provide
 assistance to any competitor of Gaussian, Inc.  The licensee
 of this program is prohibited from giving any competitor of
 Gaussian, Inc. access to this program.  By using this program,
 the user acknowledges that Gaussian, Inc. is engaged in the
 business of creating and licensing software in the field of
 computational chemistry and represents and warrants to the
 licensee that it is not a competitor of Gaussian, Inc. and that
 it will not use this program in any manner prohibited above.
 ---------------------------------------------------------------
  

 Cite this work as:
 Gaussian 16, Revision A.03,
 M. J. Frisch, G. W. Trucks, H. B. Schlegel, G. E. Scuseria, 
 M. A. Robb, J. R. Cheeseman, G. Scalmani, V. Barone, 
 G. A. Petersson, H. Nakatsuji, X. Li, M. Caricato, A. V. Marenich, 
 J. Bloino, B. G. Janesko, R. Gomperts, B. Mennucci, H. P. Hratchian, 
 J. V. Ortiz, A. F. Izmaylov, J. L. Sonnenberg, D. Williams-Young, 
 F. Ding, F. Lipparini, F. Egidi, J. Goings, B. Peng, A. Petrone, 
 T. Henderson, D. Ranasinghe, V. G. Zakrzewski, J. Gao, N. Rega, 
 G. Zheng, W. Liang, M. Hada, M. Ehara, K. Toyota, R. Fukuda, 
 J. Hasegawa, M. Ishida, T. Nakajima, Y. Honda, O. Kitao, H. Nakai, 
 T. Vreven, K. Throssell, J. A. Montgomery, Jr., J. E. Peralta, 
 F. Ogliaro, M. J. Bearpark, J. J. Heyd, E. N. Brothers, K. N. Kudin, 
 V. N. Staroverov, T. A. Keith, R. Kobayashi, J. Normand, 
 K. Raghavachari, A. P. Rendell, J. C. Burant, S. S. Iyengar, 
 J. Tomasi, M. Cossi, J. M. Millam, M. Klene, C. Adamo, R. Cammi, 
 J. W. Ochterski, R. L. Martin, K. Morokuma, O. Farkas, 
 J. B. Foresman, and D. J. Fox, Gaussian, Inc., Wallingford CT, 2016.
 
 ******************************************
 Gaussian 16:  ES64L-G16RevA.03 25-Dec-2016
                13-Aug-2022 
 ******************************************
 %NProcShared=16
 Will use up to   16 processors via shared memory.
 %mem=20GB
 ----------------------------------------------------------------------
 #P M062X/Def2TZVP scf=(direct,conver=8) EmpiricalDispersion=GD3 Force 
 Charge Prop=(Field,Read)
 ----------------------------------------------------------------------
 1/10=7,18=10,28=-2,30=1,38=1,125=101/1,3;
 2/12=2,17=6,18=5,29=2,40=1/2;
 3/5=44,7=101,11=2,25=1,30=1,71=1,74=-55,124=31/1,2,3;
 4//1;
 5/5=2,6=8,38=5/2;
 6/7=2,8=2,9=2,10=2,14=2,15=1,28=1/1,2;
 7/7=1,16=-2,29=1/1,2,3,16;
 1/10=7,18=10,28=-2,30=1/3;
 99/12=1/99;
 Leave Link    1 at Sat Aug 13 20:46:17 2022, MaxMem=  2684354560 cpu:               0.5 elap:               0.0
 (Enter /storage/apps/GAUSSIAN/G16_RevA03/g16/l101.exe)
 ------------
 Gaussian run
 ------------
 Symbolic Z-matrix:
 Charge =  0 Multiplicity = 1
 C                     3.58912  -3.61779  -0.42528 
 H                     3.7459   -3.70876  -1.4995 
 H                     4.31919  -4.24509   0.0866 
 C                     1.84548  -1.43712   1.25017 
 H                     1.19556  -2.30774   1.0856 
 O                     1.44158  -0.67712   2.32797 
 H                     0.50363  -0.35898   2.14592 
 C                     3.2993   -1.88532   1.42818 
 H                     3.37761  -2.76798   2.07019 
 O                     4.05617  -0.81411   1.93353 
 H                     3.50175  -0.37171   2.59227 
 C                     1.97834  -0.65748  -0.0699 
 H                     2.25631   0.37944   0.13318 
 C                     3.74944  -2.17414   0.00206 
 H                     4.7807   -1.84337  -0.12334 
 O                     2.92561  -1.33064  -0.83551 
 N                     0.73804  -0.60168  -0.87798 
 C                     0.26495  -1.75187  -1.4071 
 H                     0.84218  -2.63894  -1.19937 
 C                    -0.85105  -1.73687  -2.19699 
 H                    -1.21039  -2.66111  -2.6247 
 C                    -1.49207  -0.52708  -2.45062 
 H                    -2.34327  -0.49212  -3.1178 
 H                    -2.99545  -0.8454   -0.86079 
 C                    -1.00212   0.64053  -1.87833 
 C                     0.13495   0.56365  -1.09263 
 H                     0.5562    1.45187  -0.63873 
 C                    -1.54002   2.01186  -2.15682 
 O                    -0.8295    2.98323  -2.05801 
 N                    -2.82631   2.0506   -2.62075 
 H                    -3.20771   2.98242  -2.69197 
 H                    -3.46295   1.35638  -2.25686 
 H                     2.59218  -3.9942   -0.18375 
 C                     0.18406   2.19398   2.85078 
 C                    -1.66152   0.88677   1.2101 
 C                    -2.82973   0.83416   0.49685 
 C                    -4.95278  -0.31924  -0.20175 
 C                    -3.45457  -0.44759   0.05904 
 O                    -0.88309  -0.08549   1.46049 
 S                    -1.20021   2.55351   1.75842 
 H                     0.41203   3.12479   3.36698 
 H                     1.0643    1.86657   2.30259 
 H                    -5.4843   -0.03282   0.70705 
 H                    -5.16048   0.45425  -0.94766 
 H                    -5.37676  -1.25265  -0.56942 
 H                    -3.26177  -1.22442   0.80525 
 H                    -3.40097   1.7501    0.39164 
 H                    -0.08945   1.43549   3.5815 
 
 ITRead=  0  0  0  0  0  0  0  0  0  0  0  0  0  0  0  0  0  0  0  0
 ITRead=  0  0  0  0  0  0  0  0  0  0  0  0  0  0  0  0  0  0  0  0
 ITRead=  0  0  0  0  0  0  0  0
 MicOpt= -1 -1 -1 -1 -1 -1 -1 -1 -1 -1 -1 -1 -1 -1 -1 -1 -1 -1 -1 -1
 MicOpt= -1 -1 -1 -1 -1 -1 -1 -1 -1 -1 -1 -1 -1 -1 -1 -1 -1 -1 -1 -1
 MicOpt= -1 -1 -1 -1 -1 -1 -1 -1
 NAtoms=     48 NQM=       48 NQMF=       0 NMMI=      0 NMMIF=      0
                NMic=       0 NMicF=      0.
                    Isotopes and Nuclear Properties:
 (Nuclear quadrupole moments (NQMom) in fm**2, nuclear magnetic moments (NMagM)
  in nuclear magnetons)

  Atom         1           2           3           4           5           6           7           8           9          10
 IAtWgt=          12           1           1          12           1          16           1          12           1          16
 AtmWgt=  12.0000000   1.0078250   1.0078250  12.0000000   1.0078250  15.9949146   1.0078250  12.0000000   1.0078250  15.9949146
 NucSpn=           0           1           1           0           1           0           1           0           1           0
 AtZEff=  -0.0000000  -0.0000000  -0.0000000  -0.0000000  -0.0000000  -0.0000000  -0.0000000  -0.0000000  -0.0000000  -0.0000000
 NQMom=    0.0000000   0.0000000   0.0000000   0.0000000   0.0000000   0.0000000   0.0000000   0.0000000   0.0000000   0.0000000
 NMagM=    0.0000000   2.7928460   2.7928460   0.0000000   2.7928460   0.0000000   2.7928460   0.0000000   2.7928460   0.0000000
 AtZNuc=   6.0000000   1.0000000   1.0000000   6.0000000   1.0000000   8.0000000   1.0000000   6.0000000   1.0000000   8.0000000

  Atom        11          12          13          14          15          16          17          18          19          20
 IAtWgt=           1          12           1          12           1          16          14          12           1          12
 AtmWgt=   1.0078250  12.0000000   1.0078250  12.0000000   1.0078250  15.9949146  14.0030740  12.0000000   1.0078250  12.0000000
 NucSpn=           1           0           1           0           1           0           2           0           1           0
 AtZEff=  -0.0000000  -0.0000000  -0.0000000  -0.0000000  -0.0000000  -0.0000000  -0.0000000  -0.0000000  -0.0000000  -0.0000000
 NQMom=    0.0000000   0.0000000   0.0000000   0.0000000   0.0000000   0.0000000   2.0440000   0.0000000   0.0000000   0.0000000
 NMagM=    2.7928460   0.0000000   2.7928460   0.0000000   2.7928460   0.0000000   0.4037610   0.0000000   2.7928460   0.0000000
 AtZNuc=   1.0000000   6.0000000   1.0000000   6.0000000   1.0000000   8.0000000   7.0000000   6.0000000   1.0000000   6.0000000

  Atom        21          22          23          24          25          26          27          28          29          30
 IAtWgt=           1          12           1           1          12          12           1          12          16          14
 AtmWgt=   1.0078250  12.0000000   1.0078250   1.0078250  12.0000000  12.0000000   1.0078250  12.0000000  15.9949146  14.0030740
 NucSpn=           1           0           1           1           0           0           1           0           0           2
 AtZEff=  -0.0000000  -0.0000000  -0.0000000  -0.0000000  -0.0000000  -0.0000000  -0.0000000  -0.0000000  -0.0000000  -0.0000000
 NQMom=    0.0000000   0.0000000   0.0000000   0.0000000   0.0000000   0.0000000   0.0000000   0.0000000   0.0000000   2.0440000
 NMagM=    2.7928460   0.0000000   2.7928460   2.7928460   0.0000000   0.0000000   2.7928460   0.0000000   0.0000000   0.4037610
 AtZNuc=   1.0000000   6.0000000   1.0000000   1.0000000   6.0000000   6.0000000   1.0000000   6.0000000   8.0000000   7.0000000

  Atom        31          32          33          34          35          36          37          38          39          40
 IAtWgt=           1           1           1          12          12          12          12          12          16          32
 AtmWgt=   1.0078250   1.0078250   1.0078250  12.0000000  12.0000000  12.0000000  12.0000000  12.0000000  15.9949146  31.9720718
 NucSpn=           1           1           1           0           0           0           0           0           0           0
 AtZEff=  -0.0000000  -0.0000000  -0.0000000  -0.0000000  -0.0000000  -0.0000000  -0.0000000  -0.0000000  -0.0000000  -0.0000000
 NQMom=    0.0000000   0.0000000   0.0000000   0.0000000   0.0000000   0.0000000   0.0000000   0.0000000   0.0000000   0.0000000
 NMagM=    2.7928460   2.7928460   2.7928460   0.0000000   0.0000000   0.0000000   0.0000000   0.0000000   0.0000000   0.0000000
 AtZNuc=   1.0000000   1.0000000   1.0000000   6.0000000   6.0000000   6.0000000   6.0000000   6.0000000   8.0000000  16.0000000

  Atom        41          42          43          44          45          46          47          48
 IAtWgt=           1           1           1           1           1           1           1           1
 AtmWgt=   1.0078250   1.0078250   1.0078250   1.0078250   1.0078250   1.0078250   1.0078250   1.0078250
 NucSpn=           1           1           1           1           1           1           1           1
 AtZEff=  -0.0000000  -0.0000000  -0.0000000  -0.0000000  -0.0000000  -0.0000000  -0.0000000  -0.0000000
 NQMom=    0.0000000   0.0000000   0.0000000   0.0000000   0.0000000   0.0000000   0.0000000   0.0000000
 NMagM=    2.7928460   2.7928460   2.7928460   2.7928460   2.7928460   2.7928460   2.7928460   2.7928460
 AtZNuc=   1.0000000   1.0000000   1.0000000   1.0000000   1.0000000   1.0000000   1.0000000   1.0000000
 Background charge distribution read from input stream:
 Leave Link  101 at Sat Aug 13 20:46:17 2022, MaxMem=  2684354560 cpu:               1.5 elap:               0.1
 (Enter /storage/apps/GAUSSIAN/G16_RevA03/g16/l103.exe)

 GradGradGradGradGradGradGradGradGradGradGradGradGradGradGradGradGradGrad
 Berny optimization.
 Initialization pass.
 Trust Radius=3.00D-01 FncErr=1.00D-07 GrdErr=1.00D-07 EigMax=2.50D+02 EigMin=1.00D-04
 Number of steps in this run=      2 maximum allowed number of steps=      2.
 GradGradGradGradGradGradGradGradGradGradGradGradGradGradGradGradGradGrad

 Leave Link  103 at Sat Aug 13 20:46:17 2022, MaxMem=  2684354560 cpu:               0.3 elap:               0.0
 (Enter /storage/apps/GAUSSIAN/G16_RevA03/g16/l202.exe)
 ---------------------------------------------------------------------------------------------------
                            Z-MATRIX (ANGSTROMS AND DEGREES)
   CD    Cent   Atom    N1       Length/X        N2       Alpha/Y        N3        Beta/Z          J
 ---------------------------------------------------------------------------------------------------
      1      1  C        0   3.589117         -3.617792         -0.425280
      2      2  H        0   3.745902         -3.708759         -1.499495
      3      3  H        0   4.319192         -4.245094          0.086595
      4      4  C        0   1.845476         -1.437120          1.250165
      5      5  H        0   1.195560         -2.307744          1.085603
      6      6  O        0   1.441583         -0.677124          2.327968
      7      7  H        0   0.503633         -0.358981          2.145917
      8      8  C        0   3.299303         -1.885323          1.428180
      9      9  H        0   3.377609         -2.767984          2.070188
     10     10  O        0   4.056172         -0.814107          1.933527
     11     11  H        0   3.501746         -0.371713          2.592274
     12     12  C        0   1.978338         -0.657482         -0.069900
     13     13  H        0   2.256310          0.379439          0.133183
     14     14  C        0   3.749438         -2.174142          0.002063
     15     15  H        0   4.780702         -1.843373         -0.123335
     16     16  O        0   2.925609         -1.330637         -0.835506
     17     17  N        0   0.738038         -0.601684         -0.877977
     18     18  C        0   0.264946         -1.751865         -1.407098
     19     19  H        0   0.842179         -2.638936         -1.199373
     20     20  C        0  -0.851049         -1.736867         -2.196988
     21     21  H        0  -1.210389         -2.661106         -2.624703
     22     22  C        0  -1.492065         -0.527081         -2.450619
     23     23  H        0  -2.343267         -0.492121         -3.117800
     24     24  H        0  -2.995447         -0.845399         -0.860790
     25     25  C        0  -1.002125          0.640525         -1.878329
     26     26  C        0   0.134945          0.563653         -1.092633
     27     27  H        0   0.556199          1.451872         -0.638732
     28     28  C        0  -1.540019          2.011864         -2.156820
     29     29  O        0  -0.829495          2.983228         -2.058013
     30     30  N        0  -2.826308          2.050602         -2.620753
     31     31  H        0  -3.207705          2.982417         -2.691968
     32     32  H        0  -3.462953          1.356384         -2.256857
     33     33  H        0   2.592181         -3.994195         -0.183748
     34     34  C        0   0.184058          2.193982          2.850783
     35     35  C        0  -1.661519          0.886770          1.210104
     36     36  C        0  -2.829733          0.834158          0.496852
     37     37  C        0  -4.952779         -0.319239         -0.201746
     38     38  C        0  -3.454574         -0.447585          0.059043
     39     39  O        0  -0.883091         -0.085493          1.460489
     40     40  S        0  -1.200213          2.553505          1.758421
     41     41  H        0   0.412025          3.124794          3.366982
     42     42  H        0   1.064301          1.866572          2.302585
     43     43  H        0  -5.484303         -0.032816          0.707047
     44     44  H        0  -5.160484          0.454248         -0.947657
     45     45  H        0  -5.376760         -1.252645         -0.569417
     46     46  H        0  -3.261765         -1.224423          0.805254
     47     47  H        0  -3.400969          1.750101          0.391636
     48     48  H        0  -0.089448          1.435486          3.581501
 ---------------------------------------------------------------------------------------------------
                         Z-Matrix orientation:                         
 ---------------------------------------------------------------------
 Center     Atomic      Atomic             Coordinates (Angstroms)
 Number     Number       Type             X           Y           Z
 ---------------------------------------------------------------------
      1          6           0        3.589117   -3.617792   -0.425280
      2          1           0        3.745902   -3.708759   -1.499495
      3          1           0        4.319192   -4.245094    0.086595
      4          6           0        1.845476   -1.437120    1.250165
      5          1           0        1.195560   -2.307744    1.085603
      6          8           0        1.441583   -0.677124    2.327968
      7          1           0        0.503633   -0.358981    2.145917
      8          6           0        3.299303   -1.885323    1.428180
      9          1           0        3.377609   -2.767984    2.070188
     10          8           0        4.056172   -0.814107    1.933527
     11          1           0        3.501746   -0.371713    2.592274
     12          6           0        1.978338   -0.657482   -0.069900
     13          1           0        2.256310    0.379439    0.133183
     14          6           0        3.749438   -2.174142    0.002063
     15          1           0        4.780702   -1.843373   -0.123335
     16          8           0        2.925609   -1.330637   -0.835506
     17          7           0        0.738038   -0.601684   -0.877977
     18          6           0        0.264946   -1.751865   -1.407098
     19          1           0        0.842179   -2.638936   -1.199373
     20          6           0       -0.851049   -1.736867   -2.196988
     21          1           0       -1.210389   -2.661106   -2.624703
     22          6           0       -1.492065   -0.527081   -2.450619
     23          1           0       -2.343267   -0.492121   -3.117800
     24          1           0       -2.995447   -0.845399   -0.860790
     25          6           0       -1.002125    0.640525   -1.878329
     26          6           0        0.134945    0.563653   -1.092633
     27          1           0        0.556199    1.451872   -0.638732
     28          6           0       -1.540019    2.011864   -2.156820
     29          8           0       -0.829495    2.983228   -2.058013
     30          7           0       -2.826308    2.050602   -2.620753
     31          1           0       -3.207705    2.982417   -2.691968
     32          1           0       -3.462953    1.356384   -2.256857
     33          1           0        2.592181   -3.994195   -0.183748
     34          6           0        0.184058    2.193982    2.850783
     35          6           0       -1.661519    0.886770    1.210104
     36          6           0       -2.829733    0.834158    0.496852
     37          6           0       -4.952779   -0.319239   -0.201746
     38          6           0       -3.454574   -0.447585    0.059043
     39          8           0       -0.883091   -0.085493    1.460489
     40         16           0       -1.200213    2.553505    1.758421
     41          1           0        0.412025    3.124794    3.366982
     42          1           0        1.064301    1.866572    2.302585
     43          1           0       -5.484303   -0.032816    0.707047
     44          1           0       -5.160484    0.454248   -0.947657
     45          1           0       -5.376760   -1.252645   -0.569417
     46          1           0       -3.261765   -1.224423    0.805254
     47          1           0       -3.400969    1.750101    0.391636
     48          1           0       -0.089448    1.435486    3.581501
 ---------------------------------------------------------------------
                    Distance matrix (angstroms):
                    1          2          3          4          5
     1  C    0.000000
     2  H    1.089401   0.000000
     3  H    1.090199   1.769745   0.000000
     4  C    3.256183   4.041360   3.918914   0.000000
     5  H    3.118992   3.892277   3.808992   1.098844   0.000000
     6  O    4.565064   5.399090   5.102430   1.379269   2.064684
     7  H    5.172148   5.917968   5.822471   1.940438   2.323942
     8  C    2.553577   3.477880   2.899749   1.531727   2.172909
     9  H    2.644668   3.709897   2.646332   2.188851   2.437738
    10  O    3.693611   4.501213   3.905382   2.396311   3.336619
    11  H    4.432865   5.285647   4.685053   2.383187   3.367012
    12  C    3.388855   3.805038   4.286613   1.538850   2.161317
    13  H    4.250425   4.647352   5.063986   2.171709   3.041915
    14  C    1.514084   2.147030   2.149560   2.392913   2.777445
    15  H    2.158613   2.538561   2.454654   3.266052   3.811878
    16  O    2.416528   2.601774   3.359524   2.351180   2.763778
    17  N    4.174984   4.368918   5.198990   2.540347   2.641139
    18  C    3.936466   3.994374   4.988409   3.107762   2.718198
    19  H    3.017126   3.109052   4.040183   2.907095   2.335740
    20  C    5.137305   5.050427   6.183635   4.386794   3.910232
    21  H    5.365442   5.189267   6.358964   5.084393   4.436195
    22  C    6.282746   6.201936   7.350632   5.065881   4.785285
    23  H    7.225833   7.074154   8.291038   6.125170   5.786915
    24  H    7.157675   7.352045   8.121540   5.314207   4.846797
    25  C    6.428384   6.450081   7.486429   4.713058   4.723029
    26  C    5.464535   5.608748   6.482480   3.523877   3.756932
    27  H    5.911484   6.127579   6.865977   3.684622   4.185311
    28  C    7.810204   7.816557   8.860744   5.913088   6.054396
    29  O    8.109464   8.125816   9.130003   6.135062   6.479009
    30  N    8.837900   8.810301   9.900691   6.998127   6.993402
    31  H    9.741531   9.723501  10.798681   7.785073   7.851407
    32  H    8.822063   8.842899   9.870669   6.948546   6.804382
    33  H    1.092657   1.773058   1.765957   3.025278   2.530992
    34  C    7.490242   8.151932   8.136447   4.301998   4.940095
    35  C    7.108779   7.596118   7.960352   4.207266   4.287577
    36  C    7.865864   8.237868   8.779194   5.252025   5.140152
    37  C    9.159389   9.425500  10.072980   7.040879   6.588892
    38  C    7.739403   8.056746   8.651779   5.521638   5.112510
    39  O    6.002825   6.581576   6.801001   3.052247   3.065898
    40  S    8.111174   8.619398   8.915143   5.045754   5.461150
    41  H    8.362872   9.027446   8.963378   5.229413   5.943996
    42  H    6.625269   7.261619   7.270309   3.554181   4.350079
    43  H    9.821465  10.177331  10.688160   7.482827   7.066765
    44  H    9.664880   9.846769  10.630981   7.582293   7.222329
    45  H    9.273707   9.493182  10.168411   7.450208   6.859134
    46  H    7.360504   7.784034   8.192181   5.130994   4.595642
    47  H    8.851154   9.189847   9.779381   6.198438   6.170557
    48  H    7.424403   8.184723   7.994965   4.175036   4.678945
                    6          7          8          9         10
     6  O    0.000000
     7  H    1.007029   0.000000
     8  C    2.391754   3.265063   0.000000
     9  H    2.861179   3.750836   1.094256   0.000000
    10  O    2.647720   3.587866   1.405607   2.072863   0.000000
    11  H    2.099382   3.031184   1.920186   2.455626   0.968013
    12  C    2.457288   2.678377   2.344522   3.315442   2.890613
    13  H    2.568499   2.769159   2.809626   3.862068   2.811635
    14  C    3.602373   4.292571   1.523105   2.183586   2.382086
    15  H    4.303340   5.064212   2.145577   2.763172   2.411434
    16  O    3.554853   3.962192   2.360423   3.273122   3.035213
    17  N    3.283101   3.042661   3.677794   4.511304   4.354273
    18  C    4.060820   3.823743   4.154989   4.776263   5.139315
    19  H    4.080457   4.062484   3.675517   4.139455   4.845081
    20  C    5.182127   4.753373   5.512649   6.095371   6.480236
    21  H    5.958027   5.567447   6.112693   6.565299   7.205937
    22  C    5.609251   5.013902   6.312457   7.012351   7.077150
    23  H    6.634433   5.985757   7.378722   8.051285   8.159191
    24  H    5.466601   4.639014   6.778252   7.273432   7.585151
    25  C    5.039925   4.411448   5.984580   6.811078   6.498659
    26  C    3.866179   3.387535   4.729180   5.622998   5.141195
    27  H    3.757371   3.322081   4.788905   5.753763   4.899080
    28  C    6.019463   5.320805   7.173516   8.055905   7.485613
    29  O    6.147585   5.533590   7.273466   8.235181   7.363551
    30  N    7.081329   6.294104   8.331175   9.149442   8.735935
    31  H    7.759373   6.952992   9.111074   9.955481   9.411307
    32  H    7.015002   6.169335   8.355613   9.084438   8.877364
    33  H    4.316892   4.796264   2.746939   2.683415   4.091342
    34  C    3.177728   2.667693   5.326282   5.952244   4.988309
    35  C    3.650291   2.667494   5.686986   6.284090   6.009019
    36  C    4.886829   3.905679   6.769640   7.347238   7.224715
    37  C    6.885884   5.940163   8.556058   8.975155   9.271757
    38  C    5.401209   4.475522   7.039636   7.490506   7.749796
    39  O    2.550815   1.570863   4.553334   5.071593   5.015074
    40  S    4.211939   3.396442   6.329131   7.026514   6.245083
    41  H    4.073588   3.692706   6.098902   6.723183   5.554236
    42  H    2.571648   2.300430   4.453822   5.185028   4.034047
    43  H    7.142158   6.167018   9.005751   9.374048   9.650665
    44  H    7.456340   6.504903   9.093195   9.611930   9.739440
    45  H    7.430738   6.538402   8.925511   9.268373   9.769199
    46  H    4.973900   4.089571   6.623627   6.932815   7.415764
    47  H    5.752488   4.771965   7.693138   8.317436   8.035020
    48  H    2.894568   2.373343   5.210393   5.654530   4.996264
                   11         12         13         14         15
    11  H    0.000000
    12  C    3.080520   0.000000
    13  H    2.857003   1.092573   0.000000
    14  C    3.165327   2.332859   2.960980   0.000000
    15  H    3.343059   3.043425   3.373314   1.090247   0.000000
    16  O    3.605710   1.391622   2.076218   1.446277   2.052183
    17  N    4.442253   1.481366   2.071279   3.509362   4.295859
    18  C    5.326976   2.433410   3.298553   3.782293   4.695580
    19  H    5.156567   2.548083   3.589716   3.179880   4.159656
    20  C    6.614189   3.700676   4.423136   5.117765   6.002333
    21  H    7.393401   4.550770   5.372974   5.633553   6.543600
    22  C    7.098807   4.210525   4.641996   6.016794   6.818833
    23  H    8.172125   5.290870   5.699528   7.048673   7.844975
    24  H    7.373028   5.039777   5.483536   6.928459   7.874534
    25  C    6.426179   3.720000   3.838196   5.834002   6.533823
    26  C    5.078267   2.436237   2.456980   4.664594   5.321313
    27  H    4.737205   2.606803   2.153217   4.873948   5.382444
    28  C    7.324939   4.884617   4.724515   7.082498   7.677853
    29  O    7.186129   5.009121   4.593827   7.197847   7.649403
    30  N    8.549124   6.076610   6.017471   8.244274   8.903187
    31  H    9.175518   6.857051   6.679254   9.069164   9.679916
    32  H    8.660683   6.200491   6.275084   8.341817   9.096604
    33  H    4.653599   3.394616   4.397946   2.164801   3.069089
    34  C    4.201984   4.458775   3.869386   6.317250   6.802555
    35  C    5.491218   4.155921   4.094695   6.333009   7.122777
    36  C    6.777355   5.065940   5.119263   7.251219   8.091509
    37  C    8.904397   6.940618   7.250606   8.900044   9.852400
    38  C    7.403607   5.438494   5.770932   7.408241   8.354715
    39  O    4.537582   3.295002   3.440021   5.286756   6.138175
    40  S    5.600056   4.874052   4.394942   7.066434   7.657995
    41  H    4.729916   5.345195   4.625561   7.109130   7.479996
    42  H    3.321894   3.582596   2.887690   5.369333   5.784498
    43  H    9.187927   7.528935   7.772796   9.504959  10.456480
    44  H    9.394017   7.277993   7.495508   9.337939  10.236491
    45  H    9.465738   7.396026   7.837162   9.190388  10.184399
    46  H    7.047385   5.342845   5.785603   7.120678   8.119523
    47  H    7.549330   5.911549   5.826690   8.165768   8.950865
    48  H    4.140195   4.689241   4.302175   6.370152   6.942268
                   16         17         18         19         20
    16  O    0.000000
    17  N    2.306218   0.000000
    18  C    2.753775   1.351555   0.000000
    19  H    2.486911   2.065075   1.078537   0.000000
    20  C    4.035071   2.356614   1.367332   2.162403   0.000000
    21  H    4.698708   3.329961   2.117993   2.499018   1.079946
    22  C    4.771806   2.729859   2.382461   3.387365   1.392412
    23  H    5.802847   3.810938   3.363961   4.293745   2.150349
    24  H    5.940959   3.741471   3.427870   4.249563   2.679288
    25  C    4.516642   2.360499   2.747919   3.823258   2.403406
    26  C    3.382640   1.329590   2.340387   3.281486   2.735722
    27  H    3.659943   2.075427   3.307438   4.138939   3.817927
    28  C    5.732366   3.695351   4.240948   5.312392   3.811729
    29  O    5.848484   4.086715   4.903325   5.927941   4.722190
    30  N    6.906840   4.772468   5.048521   6.121265   4.292569
    31  H    7.724405   5.630740   6.010293   7.087243   5.298158
    32  H    7.074888   4.835666   4.927528   5.967832   4.048929
    33  H    2.762337   3.927968   3.455525   2.435309   4.583066
    34  C    5.790317   4.693218   5.805670   6.339872   6.480973
    35  C    5.490278   3.511901   4.186097   4.950221   4.375912
    36  C    6.291699   4.084212   4.459773   5.331276   4.216887
    37  C    7.968286   5.737810   5.543460   6.321218   4.776489
    38  C    6.502825   4.298808   4.205419   4.984748   3.678351
    39  O    4.618243   2.891874   3.509678   4.070810   4.013129
    40  S    6.231968   4.545616   5.541066   6.315169   5.845893
    41  H    6.620414   5.657968   6.826073   7.365950   7.495923
    42  H    4.851209   4.039147   5.243453   5.710749   6.074495
    43  H    8.648146   6.446196   6.362280   7.102864   5.727500
    44  H    8.281503   5.992696   5.874803   6.757449   4.993300
    45  H    8.306998   6.157086   5.725363   6.402644   4.833789
    46  H    6.402107   4.384004   4.196473   4.781394   3.884277
    47  H    7.142998   4.926884   5.379418   6.308665   5.036071
    48  H    6.020960   4.972096   5.930508   6.350244   6.635872
                   21         22         23         24         25
    21  H    0.000000
    22  C    2.159562   0.000000
    23  H    2.496208   1.082080   0.000000
    24  H    3.097517   2.211117   2.375761   0.000000
    25  C    3.391344   1.389554   2.148915   2.686389   0.000000
    26  C    3.815263   2.383482   3.370088   3.440717   1.384253
    27  H    4.897091   3.375585   4.281564   4.235676   2.150176
    28  C    4.707889   2.556337   2.799755   3.458600   1.499152
    29  O    5.685484   3.593801   3.936077   4.558846   2.355917
    30  N    4.981105   2.907507   2.635493   3.393066   2.422221
    31  H    5.986915   3.913853   3.605690   4.248581   3.318290
    32  H    4.620561   2.733017   2.326347   2.648663   2.590639
    33  H    4.711149   5.817272   6.725461   6.449410   6.105020
    34  C    7.449652   6.190189   7.016160   5.755247   5.117105
    35  C    5.243728   3.927923   4.593133   3.011374   3.167626
    36  C    4.958150   3.511398   3.880899   2.166002   3.003187
    37  C    5.035925   4.132453   3.916990   2.131275   4.397698
    38  C    4.139871   3.186874   3.365905   1.102337   3.309365
    39  O    4.840424   3.982790   4.822675   3.229217   3.418915
    40  S    6.812052   5.224099   5.861735   4.651417   4.113962
    41  H    8.485821   7.127849   7.919981   6.726615   5.973667
    42  H    7.067691   5.904027   6.823161   5.817498   4.822173
    43  H    6.022857   5.114012   4.970566   3.051689   5.217995
    44  H    5.302939   4.084018   3.679925   2.526661   4.265302
    45  H    4.854545   4.376782   4.034195   2.433393   4.943154
    46  H    4.246976   3.770787   4.095150   1.729245   3.973112
    47  H    5.775438   4.111920   4.296793   2.910264   3.484014
    48  H    7.520342   6.496574   7.326391   5.777648   5.592377
                   26         27         28         29         30
    26  C    0.000000
    27  H    1.082781   0.000000
    28  C    2.456688   2.648077   0.000000
    29  O    2.777849   2.505905   1.207541   0.000000
    30  N    3.648998   3.965884   1.367945   2.274583   0.000000
    31  H    4.425110   4.552507   2.002382   2.461256   1.009363
    32  H    3.863769   4.333708   2.034044   3.101816   1.009790
    33  H    5.257191   5.831970   7.552538   7.994071   8.475765
    34  C    4.267425   3.586911   5.299217   5.074099   6.246644
    35  C    2.938415   2.942075   3.552010   3.970893   4.169737
    36  C    3.374752   3.624315   3.176843   3.891888   3.346522
    37  C    5.240049   5.803157   4.572011   5.599418   3.998702
    38  C    3.903025   4.492341   3.824194   4.810763   3.717118
    39  O    2.824220   2.973512   4.232657   4.669023   4.999553
    40  S    3.724334   3.169372   3.967109   3.858402   4.698325
    41  H    5.150183   4.343409   5.963344   5.567044   6.891564
    42  H    3.753506   3.013551   5.166225   4.883462   6.277735
    43  H    5.930478   6.364203   5.285814   6.197525   4.741289
    44  H    5.298543   5.811295   4.122622   5.136740   3.285723
    45  H    5.826799   6.520676   5.281804   6.390317   4.650186
    46  H    4.282152   4.881035   4.712944   5.640794   4.759510
    47  H    4.014150   4.099973   3.166431   3.759503   3.081400
    48  H    4.760039   4.269367   5.946822   5.894683   6.807108
                   31         32         33         34         35
    31  H    0.000000
    32  H    1.702485   0.000000
    33  H    9.412915   8.342129   0.000000
    34  C    6.545821   6.331686   7.300751   0.000000
    35  C    4.691332   3.935165   6.622734   2.794063   0.000000
    36  C    3.863477   2.873430   7.292007   4.058700   1.369752
    37  C    4.488588   3.041509   8.392380   6.482384   3.778911
    38  C    4.403853   2.935603   7.014317   5.292573   2.514059
    39  O    5.662049   4.749038   5.482607   2.875366   1.270409
    40  S    4.901015   4.761885   7.811955   1.799644   1.814238
    41  H    7.059291   7.054806   8.248683   1.088504   3.736370
    42  H    6.666386   6.445528   6.547126   1.087449   3.095742
    43  H    5.082109   3.847137   9.039670   6.456357   3.963885
    44  H    3.639726   2.325826   8.970843   6.783727   4.133493
    45  H    5.210161   3.649266   8.436164   7.382391   4.641854
    46  H    5.470922   4.009684   6.551217   5.267198   2.679893
    47  H    3.326344   2.678315   8.321409   4.369995   2.107348
    48  H    7.174464   6.743383   7.130895   1.088150   2.897589
                   36         37         38         39         40
    36  C    0.000000
    37  C    2.515092   0.000000
    38  C    1.491633   1.526140   0.000000
    39  O    2.358764   4.402275   2.950879   0.000000
    40  S    2.683849   5.116314   4.120263   2.674629   0.000000
    41  H    4.898332   7.306046   6.217310   3.951959   2.348010
    42  H    4.414754   6.874205   5.550589   2.883057   2.428171
    43  H    2.800458   1.091082   2.170655   4.662789   5.113499
    44  H    2.768273   1.094444   2.176437   4.938277   5.235789
    45  H    3.461073   1.089123   2.176668   5.067132   6.111395
    46  H    2.125916   2.166318   1.094296   2.717459   4.408091
    47  H    1.084589   2.653749   2.223357   3.294171   2.712358
    48  H    4.169630   6.406560   5.222810   2.727992   2.409852
                   41         42         43         44         45
    41  H    0.000000
    42  H    1.772435   0.000000
    43  H    7.198086   7.002687   0.000000
    44  H    7.536629   7.162868   1.755031   0.000000
    45  H    8.256346   7.711367   1.768872   1.761626   0.000000
    46  H    6.242986   5.523685   2.523737   3.081520   2.522642
    47  H    5.028060   4.858387   2.760173   2.562974   3.720733
    48  H    1.775177   1.775556   6.286721   6.869607   7.239602
                   46         47         48
    46  H    0.000000
    47  H    3.006368   0.000000
    48  H    4.984602   4.608730   0.000000
 Stoichiometry    C16H24N2O5S
 Framework group  C1[X(C16H24N2O5S)]
 Deg. of freedom   138
 Full point group                 C1      NOp   1
 Largest Abelian subgroup         C1      NOp   1
 Largest concise Abelian subgroup C1      NOp   1
                         Standard orientation:                         
 ---------------------------------------------------------------------
 Center     Atomic      Atomic             Coordinates (Angstroms)
 Number     Number       Type             X           Y           Z
 ---------------------------------------------------------------------
      1          6           0        4.688261   -1.911968    0.624607
      2          1           0        4.659720   -2.863853    0.095556
      3          1           0        5.707557   -1.736669    0.969336
      4          6           0        2.497758    0.495963    0.703956
      5          1           0        2.300882   -0.144181    1.575113
      6          8           0        2.006055    1.773861    0.870051
      7          1           0        1.011292    1.704922    1.010771
      8          6           0        3.999065    0.536836    0.402967
      9          1           0        4.594636    0.639219    1.315222
     10          8           0        4.262326    1.579811   -0.501813
     11          1           0        3.704981    2.324425   -0.233549
     12          6           0        2.002445   -0.221495   -0.564105
     13          1           0        1.807723    0.506511   -1.355185
     14          6           0        4.248182   -0.793320   -0.295941
     15          1           0        4.967648   -0.646727   -1.101868
     16          8           0        2.985934   -1.143728   -0.908852
     17          7           0        0.745217   -0.984641   -0.386812
     18          6           0        0.759860   -2.065280    0.424795
     19          1           0        1.707085   -2.295596    0.886273
     20          6           0       -0.367299   -2.823667    0.579584
     21          1           0       -0.337951   -3.692493    1.220336
     22          6           0       -1.526524   -2.472284   -0.107104
     23          1           0       -2.409441   -3.093966   -0.037340
     24          1           0       -2.380233   -1.399505    1.627649
     25          6           0       -1.526235   -1.344442   -0.918789
     26          6           0       -0.353248   -0.619652   -1.041002
     27          1           0       -0.307331    0.258131   -1.673302
     28          6           0       -2.674735   -0.923042   -1.785293
     29          8           0       -2.484029   -0.282485   -2.791013
     30          7           0       -3.897975   -1.404583   -1.407040
     31          1           0       -4.669510   -1.018684   -1.931091
     32          1           0       -4.062655   -1.501557   -0.415499
     33          1           0        4.041795   -1.979916    1.502880
     34          6           0       -0.300147    3.590493   -0.346186
     35          6           0       -1.618248    1.367423    0.715583
     36          6           0       -2.745042    0.635598    0.982021
     37          6           0       -4.193510   -0.726123    2.522588
     38          6           0       -2.784306   -0.446855    2.007556
     39          8           0       -0.449184    1.146288    1.160923
     40         16           0       -1.876051    2.728416   -0.456039
     41          1           0       -0.429535    4.527592   -0.884653
     42          1           0        0.508541    3.025902   -0.804231
     43          1           0       -4.611514    0.154061    3.013516
     44          1           0       -4.871334   -0.983846    1.702868
     45          1           0       -4.204536   -1.553609    3.230636
     46          1           0       -2.117818   -0.191809    2.837151
     47          1           0       -3.680602    0.968814    0.546101
     48          1           0       -0.049763    3.803665    0.691088
 ---------------------------------------------------------------------
 Rotational constants (GHZ):           0.3318994           0.1641627           0.1400102
 Leave Link  202 at Sat Aug 13 20:46:17 2022, MaxMem=  2684354560 cpu:               0.2 elap:               0.0
 (Enter /storage/apps/GAUSSIAN/G16_RevA03/g16/l301.exe)
 Standard basis: def2TZVP (5D, 7F)
 Ernie: Thresh=  0.10000D-02 Tol=  0.10000D-05 Strict=F.
 There are  1014 symmetry adapted cartesian basis functions of A   symmetry.
 There are   894 symmetry adapted basis functions of A   symmetry.
   894 basis functions,  1434 primitive gaussians,  1014 cartesian basis functions
    95 alpha electrons       95 beta electrons
       nuclear repulsion energy      2495.1799937730 Hartrees.
 IExCor= 4336 DFT=T Ex+Corr=M062X ExCW=0 ScaHFX=  0.540000
 ScaDFX=  1.000000  1.000000  1.000000  1.000000 ScalE2=  1.000000  1.000000
 IRadAn=      5 IRanWt=     -1 IRanGd=            0 ICorTp=0 IEmpDi=131
 NAtoms=   48 NActive=   48 NUniq=   48 SFac= 1.00D+00 NAtFMM=   60 NAOKFM=F Big=F
 Integral buffers will be    131072 words long.
 Raffenetti 2 integral format.
 Two-electron integral symmetry is turned on.
 R6Disp:  Grimme-D3 Dispersion energy=       -0.0042737306 Hartrees.
 Nuclear repulsion after empirical dispersion term =     2495.1757200425 Hartrees.
 Leave Link  301 at Sat Aug 13 20:46:17 2022, MaxMem=  2684354560 cpu:               0.8 elap:               0.1
 (Enter /storage/apps/GAUSSIAN/G16_RevA03/g16/l302.exe)
 NPDir=0 NMtPBC=     1 NCelOv=     1 NCel=       1 NClECP=     1 NCelD=      1
         NCelK=      1 NCelE2=     1 NClLst=     1 CellRange=     0.0.
 One-electron integrals computed using PRISM.
 One-electron integral symmetry used in STVInt
   1 Symmetry operations used in ECPInt.
 ECPInt:  NShTT=   65703 NPrTT=  200010 LenC2=   56930 LenP2D=  121263.
 LDataN:  DoStor=T MaxTD1= 6 Len=  172
 NBasis=   894 RedAO= T EigKep=  1.86D-05  NBF=   894
 NBsUse=   894 1.00D-06 EigRej= -1.00D+00 NBFU=   894
 Precomputing XC quadrature grid using
 IXCGrd= 4 IRadAn=           5 IRanWt=          -1 IRanGd=           0 AccXCQ= 0.00D+00.
 Generated NRdTot=       0 NPtTot=           0 NUsed=           0 NTot=          32
 NSgBfM=  1000  1000  1000  1000  1000 MxSgAt=    48 MxSgA2=    48.
 Leave Link  302 at Sat Aug 13 20:46:19 2022, MaxMem=  2684354560 cpu:              18.4 elap:               1.2
 (Enter /storage/apps/GAUSSIAN/G16_RevA03/g16/l303.exe)
 DipDrv:  MaxL=1.
 Leave Link  303 at Sat Aug 13 20:46:19 2022, MaxMem=  2684354560 cpu:               2.0 elap:               0.2
 (Enter /storage/apps/GAUSSIAN/G16_RevA03/g16/l401.exe)
 ExpMin= 9.52D-02 ExpMax= 6.07D+04 ExpMxC= 2.07D+03 IAcc=3 IRadAn=         5 AccDes= 0.00D+00
 Harris functional with IExCor= 1009 and IRadAn=       5 diagonalized for initial guess.
 HarFok:  IExCor= 1009 AccDes= 0.00D+00 IRadAn=         5 IDoV= 1 UseB2=F ITyADJ=14
 ICtDFT=  3500011 ScaDFX=  1.000000  1.000000  1.000000  1.000000
 FoFCou: FMM=F IPFlag=           0 FMFlag=      100000 FMFlg1=           0
         NFxFlg=           0 DoJE=T BraDBF=F KetDBF=T FulRan=T
         wScrn=  0.000000 ICntrl=       500 IOpCl=  0 I1Cent=   200000004 NGrid=           0
         NMat0=    1 NMatS0=      1 NMatT0=    0 NMatD0=    1 NMtDS0=    0 NMtDT0=    0
 Petite list used in FoFCou.
 Harris En= -1507.24490567478    
 JPrj=0 DoOrth=F DoCkMO=F.
 Leave Link  401 at Sat Aug 13 20:46:23 2022, MaxMem=  2684354560 cpu:              59.6 elap:               3.8
 (Enter /storage/apps/GAUSSIAN/G16_RevA03/g16/l502.exe)
 Integral symmetry usage will be decided dynamically.
 Closed shell SCF:
 Using DIIS extrapolation, IDIIS=  1040.
 NGot=  2684354560 LenX=  2682272944 LenY=  2681243734
 Requested convergence on RMS density matrix=1.00D-08 within 128 cycles.
 Requested convergence on MAX density matrix=1.00D-06.
 Requested convergence on             energy=1.00D-06.
 No special actions if energy rises.
 Fock matrices will be formed incrementally for  20 cycles.
 Integral accuracy reduced to 1.0D-05 until final iterations.

 Cycle   1  Pass 0  IDiag  1:
 FoFJK:  IHMeth= 1 ICntrl=       0 DoSepK=F KAlg= 0 I1Cent=           0 FoldK=F
 IRaf= 790000000 NMat=       1 IRICut=       1 DoRegI=T DoRafI=F ISym2E= 0 IDoP0=0 IntGTp=1.
 FoFCou: FMM=F IPFlag=           0 FMFlag=      100000 FMFlg1=           0
         NFxFlg=           0 DoJE=F BraDBF=F KetDBF=F FulRan=T
         wScrn=  0.000000 ICntrl=         0 IOpCl=  0 I1Cent=           0 NGrid=           0
         NMat0=    1 NMatS0=      1 NMatT0=    0 NMatD0=    1 NMtDS0=    0 NMtDT0=    0
 Symmetry not used in FoFCou.
 E= -1507.16575271708    
 DIIS: error= 1.78D-02 at cycle   1 NSaved=   1.
 NSaved= 1 IEnMin= 1 EnMin= -1507.16575271708     IErMin= 1 ErrMin= 1.78D-02
 ErrMax= 1.78D-02  0.00D+00 EMaxC= 1.00D-01 BMatC= 9.93D-01 BMatP= 9.93D-01
 IDIUse=3 WtCom= 8.22D-01 WtEn= 1.78D-01
 Coeff-Com:  0.100D+01
 Coeff-En:   0.100D+01
 Coeff:      0.100D+01
 Gap=     0.169 Goal=   None    Shift=    0.000
 GapD=    0.169 DampG=1.000 DampE=0.500 DampFc=0.5000 IDamp=-1.
 Damping current iteration by 5.00D-01
 RMSDP=3.97D-03 MaxDP=8.20D-01              OVMax= 5.51D-01

 Cycle   2  Pass 0  IDiag  1:
 RMSU=  1.98D-03    CP:  1.01D+00
 E= -1507.47128411579     Delta-E=       -0.305531398712 Rises=F Damp=T
 DIIS: error= 5.22D-03 at cycle   2 NSaved=   2.
 NSaved= 2 IEnMin= 2 EnMin= -1507.47128411579     IErMin= 2 ErrMin= 5.22D-03
 ErrMax= 5.22D-03  0.00D+00 EMaxC= 1.00D-01 BMatC= 9.71D-02 BMatP= 9.93D-01
 IDIUse=3 WtCom= 9.48D-01 WtEn= 5.22D-02
 Coeff-Com:  0.107D-01 0.989D+00
 Coeff-En:   0.123D+00 0.877D+00
 Coeff:      0.165D-01 0.983D+00
 Gap=     0.155 Goal=   None    Shift=    0.000
 RMSDP=1.35D-03 MaxDP=1.72D-01 DE=-3.06D-01 OVMax= 4.17D-01

 Cycle   3  Pass 0  IDiag  1:
 RMSU=  1.15D-03    CP:  9.98D-01  6.47D-01
 E= -1507.83569643875     Delta-E=       -0.364412322959 Rises=F Damp=F
 DIIS: error= 5.49D-03 at cycle   3 NSaved=   3.
 NSaved= 3 IEnMin= 3 EnMin= -1507.83569643875     IErMin= 2 ErrMin= 5.22D-03
 ErrMax= 5.49D-03  0.00D+00 EMaxC= 1.00D-01 BMatC= 7.01D-02 BMatP= 9.71D-02
 IDIUse=3 WtCom= 9.45D-01 WtEn= 5.49D-02
 Coeff-Com: -0.753D-01 0.484D+00 0.591D+00
 Coeff-En:   0.000D+00 0.000D+00 0.100D+01
 Coeff:     -0.712D-01 0.458D+00 0.614D+00
 Gap=     0.129 Goal=   None    Shift=    0.000
 RMSDP=5.67D-04 MaxDP=2.53D-02 DE=-3.64D-01 OVMax= 1.39D-01

 Cycle   4  Pass 0  IDiag  1:
 RMSU=  4.50D-04    CP:  1.00D+00  7.94D-01  8.42D-01
 E= -1507.89847684640     Delta-E=       -0.062780407647 Rises=F Damp=F
 DIIS: error= 1.99D-03 at cycle   4 NSaved=   4.
 NSaved= 4 IEnMin= 4 EnMin= -1507.89847684640     IErMin= 4 ErrMin= 1.99D-03
 ErrMax= 1.99D-03  0.00D+00 EMaxC= 1.00D-01 BMatC= 7.76D-03 BMatP= 7.01D-02
 IDIUse=3 WtCom= 9.80D-01 WtEn= 1.99D-02
 Coeff-Com: -0.396D-01 0.110D+00 0.282D+00 0.648D+00
 Coeff-En:   0.000D+00 0.000D+00 0.631D-02 0.994D+00
 Coeff:     -0.388D-01 0.108D+00 0.276D+00 0.655D+00
 Gap=     0.144 Goal=   None    Shift=    0.000
 RMSDP=2.06D-04 MaxDP=3.10D-02 DE=-6.28D-02 OVMax= 4.71D-02

 Cycle   5  Pass 0  IDiag  1:
 RMSU=  1.86D-04    CP:  1.00D+00  7.85D-01  9.07D-01  9.05D-01
 E= -1507.90538313659     Delta-E=       -0.006906290189 Rises=F Damp=F
 DIIS: error= 7.50D-04 at cycle   5 NSaved=   5.
 NSaved= 5 IEnMin= 5 EnMin= -1507.90538313659     IErMin= 5 ErrMin= 7.50D-04
 ErrMax= 7.50D-04  0.00D+00 EMaxC= 1.00D-01 BMatC= 7.45D-04 BMatP= 7.76D-03
 IDIUse=3 WtCom= 9.93D-01 WtEn= 7.50D-03
 Coeff-Com: -0.126D-01 0.228D-01 0.808D-01 0.311D+00 0.598D+00
 Coeff-En:   0.000D+00 0.000D+00 0.000D+00 0.000D+00 0.100D+01
 Coeff:     -0.125D-01 0.226D-01 0.802D-01 0.308D+00 0.601D+00
 Gap=     0.144 Goal=   None    Shift=    0.000
 RMSDP=6.95D-05 MaxDP=6.27D-03 DE=-6.91D-03 OVMax= 7.88D-03

 Cycle   6  Pass 0  IDiag  1:
 RMSU=  6.25D-05    CP:  1.00D+00  7.86D-01  8.98D-01  9.66D-01  9.63D-01
 E= -1507.90610743018     Delta-E=       -0.000724293595 Rises=F Damp=F
 DIIS: error= 1.67D-04 at cycle   6 NSaved=   6.
 NSaved= 6 IEnMin= 6 EnMin= -1507.90610743018     IErMin= 6 ErrMin= 1.67D-04
 ErrMax= 1.67D-04  0.00D+00 EMaxC= 1.00D-01 BMatC= 8.52D-05 BMatP= 7.45D-04
 IDIUse=3 WtCom= 9.98D-01 WtEn= 1.67D-03
 Coeff-Com: -0.262D-03-0.371D-02-0.813D-02 0.481D-01 0.278D+00 0.686D+00
 Coeff-En:   0.000D+00 0.000D+00 0.000D+00 0.000D+00 0.000D+00 0.100D+01
 Coeff:     -0.261D-03-0.370D-02-0.812D-02 0.480D-01 0.278D+00 0.686D+00
 Gap=     0.145 Goal=   None    Shift=    0.000
 RMSDP=4.40D-05 MaxDP=6.24D-03 DE=-7.24D-04 OVMax= 6.75D-03

 Cycle   7  Pass 0  IDiag  1:
 RMSU=  2.23D-05    CP:  1.00D+00  7.88D-01  9.04D-01  9.94D-01  1.15D+00
                    CP:  1.07D+00
 E= -1507.90620722485     Delta-E=       -0.000099794664 Rises=F Damp=F
 DIIS: error= 7.18D-05 at cycle   7 NSaved=   7.
 NSaved= 7 IEnMin= 7 EnMin= -1507.90620722485     IErMin= 7 ErrMin= 7.18D-05
 ErrMax= 7.18D-05  0.00D+00 EMaxC= 1.00D-01 BMatC= 1.10D-05 BMatP= 8.52D-05
 IDIUse=1 WtCom= 1.00D+00 WtEn= 0.00D+00
 Coeff-Com:  0.161D-02-0.460D-02-0.165D-01-0.209D-01 0.410D-01 0.295D+00
 Coeff-Com:  0.705D+00
 Coeff:      0.161D-02-0.460D-02-0.165D-01-0.209D-01 0.410D-01 0.295D+00
 Coeff:      0.705D+00
 Gap=     0.145 Goal=   None    Shift=    0.000
 RMSDP=2.09D-05 MaxDP=2.44D-03 DE=-9.98D-05 OVMax= 3.51D-03

 Cycle   8  Pass 0  IDiag  1:
 RMSU=  1.12D-05    CP:  1.00D+00  7.88D-01  9.04D-01  1.01D+00  1.22D+00
                    CP:  1.18D+00  1.23D+00
 E= -1507.90621793389     Delta-E=       -0.000010709043 Rises=F Damp=F
 DIIS: error= 3.07D-05 at cycle   8 NSaved=   8.
 NSaved= 8 IEnMin= 8 EnMin= -1507.90621793389     IErMin= 8 ErrMin= 3.07D-05
 ErrMax= 3.07D-05  0.00D+00 EMaxC= 1.00D-01 BMatC= 2.62D-06 BMatP= 1.10D-05
 IDIUse=1 WtCom= 1.00D+00 WtEn= 0.00D+00
 Coeff-Com:  0.852D-03-0.162D-02-0.812D-02-0.193D-01-0.301D-01 0.285D-01
 Coeff-Com:  0.354D+00 0.676D+00
 Coeff:      0.852D-03-0.162D-02-0.812D-02-0.193D-01-0.301D-01 0.285D-01
 Coeff:      0.354D+00 0.676D+00
 Gap=     0.145 Goal=   None    Shift=    0.000
 RMSDP=1.54D-05 MaxDP=1.27D-03 DE=-1.07D-05 OVMax= 2.37D-03

 Cycle   9  Pass 0  IDiag  1:
 RMSU=  1.07D-05    CP:  1.00D+00  7.87D-01  9.03D-01  1.02D+00  1.25D+00
                    CP:  1.26D+00  1.46D+00  1.57D+00
 E= -1507.90621596710     Delta-E=        0.000001966791 Rises=F Damp=F
 DIIS: error= 1.81D-05 at cycle   9 NSaved=   9.
 NSaved= 9 IEnMin= 8 EnMin= -1507.90621793389     IErMin= 9 ErrMin= 1.81D-05
 ErrMax= 1.81D-05  0.00D+00 EMaxC= 1.00D-01 BMatC= 6.06D-07 BMatP= 2.62D-06
 IDIUse=1 WtCom= 1.00D+00 WtEn= 0.00D+00
 Coeff-Com:  0.250D-03-0.311D-03-0.282D-02-0.760D-02-0.223D-01-0.205D-01
 Coeff-Com:  0.788D-01 0.340D+00 0.634D+00
 Coeff:      0.250D-03-0.311D-03-0.282D-02-0.760D-02-0.223D-01-0.205D-01
 Coeff:      0.788D-01 0.340D+00 0.634D+00
 Gap=     0.145 Goal=   None    Shift=    0.000
 RMSDP=1.92D-05 MaxDP=1.90D-03 DE= 1.97D-06 OVMax= 1.08D-03

 Cycle  10  Pass 0  IDiag  1:
 RMSU=  8.55D-06    CP:  1.00D+00  7.87D-01  9.03D-01  1.02D+00  1.26D+00
                    CP:  1.33D+00  1.62D+00  2.34D+00  2.24D+00
 E= -1507.90621278864     Delta-E=        0.000003178454 Rises=F Damp=F
 DIIS: error= 2.66D-05 at cycle  10 NSaved=  10.
 NSaved=10 IEnMin= 8 EnMin= -1507.90621793389     IErMin= 9 ErrMin= 1.81D-05
 ErrMax= 2.66D-05  0.00D+00 EMaxC= 1.00D-01 BMatC= 4.51D-07 BMatP= 6.06D-07
 IDIUse=1 WtCom= 1.00D+00 WtEn= 0.00D+00
 Coeff-Com:  0.215D-03-0.265D-03-0.251D-02-0.661D-02-0.198D-01-0.184D-01
 Coeff-Com:  0.658D-01 0.297D+00 0.561D+00 0.123D+00
 Coeff:      0.215D-03-0.265D-03-0.251D-02-0.661D-02-0.198D-01-0.184D-01
 Coeff:      0.658D-01 0.297D+00 0.561D+00 0.123D+00
 Gap=     0.145 Goal=   None    Shift=    0.000
 RMSDP=5.66D-06 MaxDP=6.57D-04 DE= 3.18D-06 OVMax= 8.82D-05

 Initial convergence to 1.0D-05 achieved.  Increase integral accuracy.
 Cycle  11  Pass 1  IDiag  1:
 E= -1507.90609906898     Delta-E=        0.000113719666 Rises=F Damp=F
 DIIS: error= 3.25D-04 at cycle   1 NSaved=   1.
 NSaved= 1 IEnMin= 1 EnMin= -1507.90609906898     IErMin= 1 ErrMin= 3.25D-04
 ErrMax= 3.25D-04  0.00D+00 EMaxC= 1.00D-01 BMatC= 9.74D-05 BMatP= 9.74D-05
 IDIUse=3 WtCom= 9.97D-01 WtEn= 3.25D-03
 Coeff-Com:  0.100D+01
 Coeff-En:   0.100D+01
 Coeff:      0.100D+01
 Gap=     0.145 Goal=   None    Shift=    0.000
 RMSDP=5.66D-06 MaxDP=6.57D-04 DE= 1.14D-04 OVMax= 1.08D-03

 Cycle  12  Pass 1  IDiag  1:
 RMSU=  5.88D-04    CP:  9.90D-01
 E= -1507.90616159077     Delta-E=       -0.000062521791 Rises=F Damp=F
 DIIS: error= 1.05D-05 at cycle   2 NSaved=   2.
 NSaved= 2 IEnMin= 2 EnMin= -1507.90616159077     IErMin= 2 ErrMin= 1.05D-05
 ErrMax= 1.05D-05  0.00D+00 EMaxC= 1.00D-01 BMatC= 1.15D-07 BMatP= 9.74D-05
 IDIUse=1 WtCom= 1.00D+00 WtEn= 0.00D+00
 Coeff-Com: -0.158D-01 0.102D+01
 Coeff:     -0.158D-01 0.102D+01
 Gap=     0.145 Goal=   None    Shift=    0.000
 RMSDP=2.23D-05 MaxDP=2.23D-03 DE=-6.25D-05 OVMax= 4.99D-04

 Cycle  13  Pass 1  IDiag  1:
 RMSU=  8.51D-06    CP:  9.90D-01  1.04D+00
 E= -1507.90616163419     Delta-E=       -0.000000043426 Rises=F Damp=F
 DIIS: error= 1.14D-05 at cycle   3 NSaved=   3.
 NSaved= 3 IEnMin= 3 EnMin= -1507.90616163419     IErMin= 2 ErrMin= 1.05D-05
 ErrMax= 1.14D-05  0.00D+00 EMaxC= 1.00D-01 BMatC= 1.64D-07 BMatP= 1.15D-07
 IDIUse=1 WtCom= 1.00D+00 WtEn= 0.00D+00
 Coeff-Com: -0.101D-01 0.591D+00 0.419D+00
 Coeff:     -0.101D-01 0.591D+00 0.419D+00
 Gap=     0.145 Goal=   None    Shift=    0.000
 RMSDP=8.41D-07 MaxDP=4.43D-05 DE=-4.34D-08 OVMax= 9.48D-05

 Cycle  14  Pass 1  IDiag  1:
 RMSU=  7.76D-07    CP:  9.90D-01  1.04D+00  1.01D+00
 E= -1507.90616179643     Delta-E=       -0.000000162240 Rises=F Damp=F
 DIIS: error= 1.50D-06 at cycle   4 NSaved=   4.
 NSaved= 4 IEnMin= 4 EnMin= -1507.90616179643     IErMin= 4 ErrMin= 1.50D-06
 ErrMax= 1.50D-06  0.00D+00 EMaxC= 1.00D-01 BMatC= 1.80D-09 BMatP= 1.15D-07
 IDIUse=1 WtCom= 1.00D+00 WtEn= 0.00D+00
 Coeff-Com:  0.309D-03-0.298D-01 0.289D-01 0.100D+01
 Coeff:      0.309D-03-0.298D-01 0.289D-01 0.100D+01
 Gap=     0.145 Goal=   None    Shift=    0.000
 RMSDP=7.16D-07 MaxDP=8.97D-05 DE=-1.62D-07 OVMax= 1.35D-04

 Cycle  15  Pass 1  IDiag  1:
 RMSU=  4.20D-07    CP:  9.90D-01  1.04D+00  1.06D+00  9.53D-01
 E= -1507.90616180627     Delta-E=       -0.000000009834 Rises=F Damp=F
 DIIS: error= 8.20D-07 at cycle   5 NSaved=   5.
 NSaved= 5 IEnMin= 5 EnMin= -1507.90616180627     IErMin= 5 ErrMin= 8.20D-07
 ErrMax= 8.20D-07  0.00D+00 EMaxC= 1.00D-01 BMatC= 1.13D-09 BMatP= 1.80D-09
 IDIUse=1 WtCom= 1.00D+00 WtEn= 0.00D+00
 Coeff-Com:  0.970D-03-0.620D-01-0.389D-01 0.465D+00 0.635D+00
 Coeff:      0.970D-03-0.620D-01-0.389D-01 0.465D+00 0.635D+00
 Gap=     0.145 Goal=   None    Shift=    0.000
 RMSDP=1.57D-07 MaxDP=1.63D-05 DE=-9.83D-09 OVMax= 5.24D-05

 Cycle  16  Pass 1  IDiag  1:
 RMSU=  8.21D-08    CP:  9.90D-01  1.04D+00  1.07D+00  9.72D-01  1.26D+00
 E= -1507.90616180890     Delta-E=       -0.000000002629 Rises=F Damp=F
 DIIS: error= 4.16D-07 at cycle   6 NSaved=   6.
 NSaved= 6 IEnMin= 6 EnMin= -1507.90616180890     IErMin= 6 ErrMin= 4.16D-07
 ErrMax= 4.16D-07  0.00D+00 EMaxC= 1.00D-01 BMatC= 2.28D-10 BMatP= 1.13D-09
 IDIUse=1 WtCom= 1.00D+00 WtEn= 0.00D+00
 Coeff-Com:  0.213D-03-0.105D-01-0.369D-01-0.153D+00 0.204D+00 0.996D+00
 Coeff:      0.213D-03-0.105D-01-0.369D-01-0.153D+00 0.204D+00 0.996D+00
 Gap=     0.145 Goal=   None    Shift=    0.000
 RMSDP=1.56D-07 MaxDP=1.86D-05 DE=-2.63D-09 OVMax= 5.14D-05

 Cycle  17  Pass 1  IDiag  1:
 RMSU=  5.53D-08    CP:  9.90D-01  1.04D+00  1.07D+00  9.86D-01  1.59D+00
                    CP:  1.35D+00
 E= -1507.90616180993     Delta-E=       -0.000000001035 Rises=F Damp=F
 DIIS: error= 2.31D-07 at cycle   7 NSaved=   7.
 NSaved= 7 IEnMin= 7 EnMin= -1507.90616180993     IErMin= 7 ErrMin= 2.31D-07
 ErrMax= 2.31D-07  0.00D+00 EMaxC= 1.00D-01 BMatC= 9.34D-11 BMatP= 2.28D-10
 IDIUse=1 WtCom= 1.00D+00 WtEn= 0.00D+00
 Coeff-Com: -0.927D-04 0.788D-02-0.173D-01-0.197D+00 0.151D-04 0.645D+00
 Coeff-Com:  0.562D+00
 Coeff:     -0.927D-04 0.788D-02-0.173D-01-0.197D+00 0.151D-04 0.645D+00
 Coeff:      0.562D+00
 Gap=     0.145 Goal=   None    Shift=    0.000
 RMSDP=5.49D-08 MaxDP=7.03D-06 DE=-1.04D-09 OVMax= 1.77D-05

 Cycle  18  Pass 1  IDiag  1:
 RMSU=  1.86D-08    CP:  9.90D-01  1.04D+00  1.07D+00  9.85D-01  1.69D+00
                    CP:  1.54D+00  1.21D+00
 E= -1507.90616181005     Delta-E=       -0.000000000120 Rises=F Damp=F
 DIIS: error= 3.99D-08 at cycle   8 NSaved=   8.
 NSaved= 8 IEnMin= 8 EnMin= -1507.90616181005     IErMin= 8 ErrMin= 3.99D-08
 ErrMax= 3.99D-08  0.00D+00 EMaxC= 1.00D-01 BMatC= 2.94D-12 BMatP= 9.34D-11
 IDIUse=1 WtCom= 1.00D+00 WtEn= 0.00D+00
 Coeff-Com: -0.505D-04 0.357D-02-0.260D-02-0.497D-01-0.191D-01 0.112D+00
 Coeff-Com:  0.184D+00 0.773D+00
 Coeff:     -0.505D-04 0.357D-02-0.260D-02-0.497D-01-0.191D-01 0.112D+00
 Coeff:      0.184D+00 0.773D+00
 Gap=     0.145 Goal=   None    Shift=    0.000
 RMSDP=1.16D-08 MaxDP=8.94D-07 DE=-1.20D-10 OVMax= 3.78D-06

 Cycle  19  Pass 1  IDiag  1:
 RMSU=  4.57D-09    CP:  9.90D-01  1.04D+00  1.07D+00  9.85D-01  1.71D+00
                    CP:  1.58D+00  1.33D+00  1.06D+00
 E= -1507.90616181011     Delta-E=       -0.000000000055 Rises=F Damp=F
 DIIS: error= 1.52D-08 at cycle   9 NSaved=   9.
 NSaved= 9 IEnMin= 9 EnMin= -1507.90616181011     IErMin= 9 ErrMin= 1.52D-08
 ErrMax= 1.52D-08  0.00D+00 EMaxC= 1.00D-01 BMatC= 5.36D-13 BMatP= 2.94D-12
 IDIUse=1 WtCom= 1.00D+00 WtEn= 0.00D+00
 Coeff-Com: -0.868D-05 0.418D-03 0.130D-02 0.711D-02-0.818D-02-0.459D-01
 Coeff-Com:  0.576D-03 0.324D+00 0.720D+00
 Coeff:     -0.868D-05 0.418D-03 0.130D-02 0.711D-02-0.818D-02-0.459D-01
 Coeff:      0.576D-03 0.324D+00 0.720D+00
 Gap=     0.145 Goal=   None    Shift=    0.000
 RMSDP=4.04D-09 MaxDP=4.42D-07 DE=-5.50D-11 OVMax= 1.28D-06

 SCF Done:  E(RM062X) =  -1507.90616181     A.U. after   19 cycles
            NFock= 19  Conv=0.40D-08     -V/T= 2.0037
 KE= 1.502292823565D+03 PE=-8.527777593837D+03 EE= 3.022402888420D+03
 Leave Link  502 at Sat Aug 13 20:55:24 2022, MaxMem=  2684354560 cpu:            8658.1 elap:             542.0
 (Enter /storage/apps/GAUSSIAN/G16_RevA03/g16/l601.exe)
 Copying SCF densities to generalized density rwf, IOpCl= 0 IROHF=0.

 **********************************************************************

            Population analysis using the SCF density.

 **********************************************************************

 Orbital symmetries:
       Occupied  (A) (A) (A) (A) (A) (A) (A) (A) (A) (A) (A) (A)
                 (A) (A) (A) (A) (A) (A) (A) (A) (A) (A) (A) (A)
                 (A) (A) (A) (A) (A) (A) (A) (A) (A) (A) (A) (A)
                 (A) (A) (A) (A) (A) (A) (A) (A) (A) (A) (A) (A)
                 (A) (A) (A) (A) (A) (A) (A) (A) (A) (A) (A) (A)
                 (A) (A) (A) (A) (A) (A) (A) (A) (A) (A) (A) (A)
                 (A) (A) (A) (A) (A) (A) (A) (A) (A) (A) (A) (A)
                 (A) (A) (A) (A) (A) (A) (A) (A) (A) (A) (A)
       Virtual   (A) (A) (A) (A) (A) (A) (A) (A) (A) (A) (A) (A)
                 (A) (A) (A) (A) (A) (A) (A) (A) (A) (A) (A) (A)
                 (A) (A) (A) (A) (A) (A) (A) (A) (A) (A) (A) (A)
                 (A) (A) (A) (A) (A) (A) (A) (A) (A) (A) (A) (A)
                 (A) (A) (A) (A) (A) (A) (A) (A) (A) (A) (A) (A)
                 (A) (A) (A) (A) (A) (A) (A) (A) (A) (A) (A) (A)
                 (A) (A) (A) (A) (A) (A) (A) (A) (A) (A) (A) (A)
                 (A) (A) (A) (A) (A) (A) (A) (A) (A) (A) (A) (A)
                 (A) (A) (A) (A) (A) (A) (A) (A) (A) (A) (A) (A)
                 (A) (A) (A) (A) (A) (A) (A) (A) (A) (A) (A) (A)
                 (A) (A) (A) (A) (A) (A) (A) (A) (A) (A) (A) (A)
                 (A) (A) (A) (A) (A) (A) (A) (A) (A) (A) (A) (A)
                 (A) (A) (A) (A) (A) (A) (A) (A) (A) (A) (A) (A)
                 (A) (A) (A) (A) (A) (A) (A) (A) (A) (A) (A) (A)
                 (A) (A) (A) (A) (A) (A) (A) (A) (A) (A) (A) (A)
                 (A) (A) (A) (A) (A) (A) (A) (A) (A) (A) (A) (A)
                 (A) (A) (A) (A) (A) (A) (A) (A) (A) (A) (A) (A)
                 (A) (A) (A) (A) (A) (A) (A) (A) (A) (A) (A) (A)
                 (A) (A) (A) (A) (A) (A) (A) (A) (A) (A) (A) (A)
                 (A) (A) (A) (A) (A) (A) (A) (A) (A) (A) (A) (A)
                 (A) (A) (A) (A) (A) (A) (A) (A) (A) (A) (A) (A)
                 (A) (A) (A) (A) (A) (A) (A) (A) (A) (A) (A) (A)
                 (A) (A) (A) (A) (A) (A) (A) (A) (A) (A) (A) (A)
                 (A) (A) (A) (A) (A) (A) (A) (A) (A) (A) (A) (A)
                 (A) (A) (A) (A) (A) (A) (A) (A) (A) (A) (A) (A)
                 (A) (A) (A) (A) (A) (A) (A) (A) (A) (A) (A) (A)
                 (A) (A) (A) (A) (A) (A) (A) (A) (A) (A) (A) (A)
                 (A) (A) (A) (A) (A) (A) (A) (A) (A) (A) (A) (A)
                 (A) (A) (A) (A) (A) (A) (A) (A) (A) (A) (A) (A)
                 (A) (A) (A) (A) (A) (A) (A) (A) (A) (A) (A) (A)
                 (A) (A) (A) (A) (A) (A) (A) (A) (A) (A) (A) (A)
                 (A) (A) (A) (A) (A) (A) (A) (A) (A) (A) (A) (A)
                 (A) (A) (A) (A) (A) (A) (A) (A) (A) (A) (A) (A)
                 (A) (A) (A) (A) (A) (A) (A) (A) (A) (A) (A) (A)
                 (A) (A) (A) (A) (A) (A) (A) (A) (A) (A) (A) (A)
                 (A) (A) (A) (A) (A) (A) (A) (A) (A) (A) (A) (A)
                 (A) (A) (A) (A) (A) (A) (A) (A) (A) (A) (A) (A)
                 (A) (A) (A) (A) (A) (A) (A) (A) (A) (A) (A) (A)
                 (A) (A) (A) (A) (A) (A) (A) (A) (A) (A) (A) (A)
                 (A) (A) (A) (A) (A) (A) (A) (A) (A) (A) (A) (A)
                 (A) (A) (A) (A) (A) (A) (A) (A) (A) (A) (A) (A)
                 (A) (A) (A) (A) (A) (A) (A) (A) (A) (A) (A) (A)
                 (A) (A) (A) (A) (A) (A) (A) (A) (A) (A) (A) (A)
                 (A) (A) (A) (A) (A) (A) (A) (A) (A) (A) (A) (A)
                 (A) (A) (A) (A) (A) (A) (A) (A) (A) (A) (A) (A)
                 (A) (A) (A) (A) (A) (A) (A) (A) (A) (A) (A) (A)
                 (A) (A) (A) (A) (A) (A) (A) (A) (A) (A) (A) (A)
                 (A) (A) (A) (A) (A) (A) (A) (A) (A) (A) (A) (A)
                 (A) (A) (A) (A) (A) (A) (A) (A) (A) (A) (A) (A)
                 (A) (A) (A) (A) (A) (A) (A) (A) (A) (A) (A) (A)
                 (A) (A) (A) (A) (A) (A) (A) (A) (A) (A) (A) (A)
                 (A) (A) (A) (A) (A) (A) (A) (A) (A) (A) (A) (A)
                 (A) (A) (A) (A) (A) (A) (A) (A) (A) (A) (A) (A)
                 (A) (A) (A) (A) (A) (A) (A) (A) (A) (A) (A) (A)
                 (A) (A) (A) (A) (A) (A) (A) (A) (A) (A) (A) (A)
                 (A) (A) (A) (A) (A) (A) (A) (A) (A) (A) (A) (A)
                 (A) (A) (A) (A) (A) (A) (A) (A) (A) (A) (A) (A)
                 (A) (A) (A) (A) (A) (A) (A) (A) (A) (A) (A) (A)
                 (A) (A) (A) (A) (A) (A) (A) (A) (A) (A) (A) (A)
                 (A) (A) (A) (A) (A) (A) (A) (A) (A) (A) (A) (A)
                 (A) (A) (A) (A) (A) (A) (A) (A) (A) (A) (A) (A)
                 (A) (A) (A) (A) (A) (A) (A) (A) (A) (A) (A) (A)
                 (A) (A) (A) (A) (A) (A) (A) (A) (A) (A) (A) (A)
                 (A) (A) (A) (A) (A) (A) (A) (A) (A) (A) (A) (A)
                 (A) (A) (A) (A) (A) (A) (A) (A) (A) (A) (A) (A)
                 (A) (A) (A) (A) (A) (A) (A) (A) (A) (A) (A) (A)
                 (A) (A) (A) (A) (A) (A) (A)
 The electronic state is 1-A.
 Alpha  occ. eigenvalues --  -89.86657 -19.66609 -19.63253 -19.61607 -19.61352
 Alpha  occ. eigenvalues --  -19.56817 -14.88210 -14.77860 -10.66679 -10.66360
 Alpha  occ. eigenvalues --  -10.64359 -10.63733 -10.61243 -10.61129 -10.60817
 Alpha  occ. eigenvalues --  -10.60504 -10.59960 -10.59912 -10.58802 -10.55211
 Alpha  occ. eigenvalues --  -10.53611 -10.52140 -10.52050 -10.48834  -8.22557
 Alpha  occ. eigenvalues --   -6.14526  -6.14301  -6.14030  -1.22625  -1.18649
 Alpha  occ. eigenvalues --   -1.17089  -1.15809  -1.13902  -1.10186  -1.03282
 Alpha  occ. eigenvalues --   -0.97941  -0.93423  -0.90741  -0.88086  -0.87440
 Alpha  occ. eigenvalues --   -0.85280  -0.81585  -0.80863  -0.78890  -0.76975
 Alpha  occ. eigenvalues --   -0.73296  -0.71599  -0.70021  -0.69200  -0.67195
 Alpha  occ. eigenvalues --   -0.65963  -0.64072  -0.62920  -0.62524  -0.61313
 Alpha  occ. eigenvalues --   -0.60095  -0.58316  -0.57999  -0.57418  -0.56133
 Alpha  occ. eigenvalues --   -0.56047  -0.54347  -0.53353  -0.52594  -0.51920
 Alpha  occ. eigenvalues --   -0.51651  -0.50940  -0.50188  -0.50025  -0.48948
 Alpha  occ. eigenvalues --   -0.48678  -0.48080  -0.47814  -0.47240  -0.45990
 Alpha  occ. eigenvalues --   -0.45732  -0.45613  -0.44712  -0.43560  -0.43256
 Alpha  occ. eigenvalues --   -0.42575  -0.40340  -0.39627  -0.38457  -0.38119
 Alpha  occ. eigenvalues --   -0.37771  -0.37305  -0.36839  -0.36717  -0.36234
 Alpha  occ. eigenvalues --   -0.34975  -0.34478  -0.29154  -0.27884  -0.21173
 Alpha virt. eigenvalues --   -0.06705  -0.04205   0.03794   0.04641   0.05064
 Alpha virt. eigenvalues --    0.06299   0.07096   0.07281   0.08230   0.08832
 Alpha virt. eigenvalues --    0.09344   0.09971   0.10351   0.10852   0.11268
 Alpha virt. eigenvalues --    0.11401   0.11895   0.12545   0.13016   0.13244
 Alpha virt. eigenvalues --    0.13662   0.14004   0.14235   0.14567   0.15186
 Alpha virt. eigenvalues --    0.15424   0.15525   0.16150   0.16474   0.16677
 Alpha virt. eigenvalues --    0.17437   0.17694   0.18598   0.18807   0.19517
 Alpha virt. eigenvalues --    0.20305   0.20707   0.21444   0.21495   0.22380
 Alpha virt. eigenvalues --    0.22626   0.22879   0.23347   0.23769   0.24257
 Alpha virt. eigenvalues --    0.24599   0.25207   0.25594   0.25898   0.25982
 Alpha virt. eigenvalues --    0.26694   0.27115   0.27785   0.28005   0.28564
 Alpha virt. eigenvalues --    0.29295   0.29532   0.29833   0.30397   0.31118
 Alpha virt. eigenvalues --    0.31527   0.31976   0.32555   0.33088   0.33737
 Alpha virt. eigenvalues --    0.34205   0.34590   0.34954   0.35831   0.36045
 Alpha virt. eigenvalues --    0.36567   0.37106   0.37432   0.37686   0.38442
 Alpha virt. eigenvalues --    0.38572   0.38736   0.39171   0.39675   0.39857
 Alpha virt. eigenvalues --    0.40268   0.40668   0.41110   0.41833   0.42076
 Alpha virt. eigenvalues --    0.42902   0.42944   0.43046   0.43761   0.44085
 Alpha virt. eigenvalues --    0.44281   0.44750   0.44848   0.45497   0.45715
 Alpha virt. eigenvalues --    0.45953   0.46053   0.46646   0.46759   0.47470
 Alpha virt. eigenvalues --    0.47836   0.48008   0.48534   0.48710   0.49069
 Alpha virt. eigenvalues --    0.49412   0.49672   0.50092   0.50334   0.50679
 Alpha virt. eigenvalues --    0.51295   0.51905   0.52023   0.52846   0.53083
 Alpha virt. eigenvalues --    0.53571   0.53909   0.54103   0.54415   0.55201
 Alpha virt. eigenvalues --    0.55585   0.55775   0.56110   0.56418   0.57226
 Alpha virt. eigenvalues --    0.57592   0.58791   0.59162   0.59512   0.60201
 Alpha virt. eigenvalues --    0.60687   0.60815   0.61469   0.61958   0.62304
 Alpha virt. eigenvalues --    0.62761   0.63475   0.64059   0.64677   0.65333
 Alpha virt. eigenvalues --    0.65500   0.66334   0.66367   0.66825   0.67130
 Alpha virt. eigenvalues --    0.67538   0.68172   0.68419   0.69690   0.70477
 Alpha virt. eigenvalues --    0.71001   0.71665   0.71999   0.72504   0.72885
 Alpha virt. eigenvalues --    0.74012   0.74824   0.75190   0.75966   0.76292
 Alpha virt. eigenvalues --    0.77191   0.78434   0.79226   0.79753   0.80898
 Alpha virt. eigenvalues --    0.81007   0.81452   0.82457   0.83257   0.83452
 Alpha virt. eigenvalues --    0.84198   0.86070   0.86696   0.87098   0.87323
 Alpha virt. eigenvalues --    0.87714   0.88658   0.89792   0.90077   0.90332
 Alpha virt. eigenvalues --    0.90506   0.91259   0.91857   0.92493   0.92940
 Alpha virt. eigenvalues --    0.93675   0.94094   0.94956   0.95593   0.96300
 Alpha virt. eigenvalues --    0.96632   0.97069   0.97617   0.98828   0.99558
 Alpha virt. eigenvalues --    1.00612   1.00799   1.01373   1.01859   1.03008
 Alpha virt. eigenvalues --    1.03348   1.03815   1.04447   1.05713   1.06473
 Alpha virt. eigenvalues --    1.06847   1.08012   1.08266   1.08747   1.10092
 Alpha virt. eigenvalues --    1.10593   1.11090   1.12220   1.12582   1.13356
 Alpha virt. eigenvalues --    1.14147   1.15150   1.15420   1.16179   1.17377
 Alpha virt. eigenvalues --    1.17707   1.18533   1.18849   1.19230   1.20159
 Alpha virt. eigenvalues --    1.21030   1.21179   1.22908   1.23282   1.24545
 Alpha virt. eigenvalues --    1.25021   1.25658   1.25877   1.27136   1.27692
 Alpha virt. eigenvalues --    1.28244   1.28752   1.29443   1.29532   1.30759
 Alpha virt. eigenvalues --    1.31913   1.32131   1.33611   1.33706   1.34267
 Alpha virt. eigenvalues --    1.34827   1.35921   1.36967   1.39100   1.39675
 Alpha virt. eigenvalues --    1.40027   1.41318   1.42449   1.42558   1.43407
 Alpha virt. eigenvalues --    1.45053   1.45463   1.46697   1.47148   1.49737
 Alpha virt. eigenvalues --    1.50503   1.50993   1.52497   1.52856   1.53510
 Alpha virt. eigenvalues --    1.53744   1.54666   1.54864   1.55162   1.55922
 Alpha virt. eigenvalues --    1.56482   1.56870   1.57211   1.58154   1.58549
 Alpha virt. eigenvalues --    1.59032   1.59270   1.60128   1.60561   1.60625
 Alpha virt. eigenvalues --    1.61196   1.61330   1.62591   1.62796   1.63155
 Alpha virt. eigenvalues --    1.63463   1.63724   1.64347   1.64566   1.65025
 Alpha virt. eigenvalues --    1.65842   1.66808   1.67257   1.68119   1.68715
 Alpha virt. eigenvalues --    1.68806   1.69898   1.70998   1.71460   1.71888
 Alpha virt. eigenvalues --    1.72191   1.72615   1.73318   1.74251   1.74391
 Alpha virt. eigenvalues --    1.75756   1.76451   1.77056   1.77558   1.77860
 Alpha virt. eigenvalues --    1.78199   1.78947   1.79351   1.80605   1.80844
 Alpha virt. eigenvalues --    1.82385   1.82573   1.83663   1.84225   1.85142
 Alpha virt. eigenvalues --    1.85979   1.86094   1.87240   1.87664   1.88937
 Alpha virt. eigenvalues --    1.89436   1.89837   1.90316   1.91173   1.91612
 Alpha virt. eigenvalues --    1.92237   1.92809   1.94057   1.94194   1.94516
 Alpha virt. eigenvalues --    1.95228   1.95635   1.96648   1.97441   1.97922
 Alpha virt. eigenvalues --    1.99129   1.99728   2.00043   2.01512   2.02418
 Alpha virt. eigenvalues --    2.02853   2.03325   2.04395   2.04660   2.05137
 Alpha virt. eigenvalues --    2.05788   2.06003   2.07252   2.07639   2.09164
 Alpha virt. eigenvalues --    2.09473   2.10615   2.10930   2.12337   2.13834
 Alpha virt. eigenvalues --    2.14429   2.14706   2.15866   2.16200   2.17285
 Alpha virt. eigenvalues --    2.17826   2.18040   2.18243   2.19234   2.19934
 Alpha virt. eigenvalues --    2.21181   2.21272   2.21596   2.22530   2.22939
 Alpha virt. eigenvalues --    2.23300   2.23834   2.25153   2.25253   2.26269
 Alpha virt. eigenvalues --    2.26837   2.27590   2.28536   2.29298   2.30029
 Alpha virt. eigenvalues --    2.30445   2.31929   2.32457   2.33943   2.33976
 Alpha virt. eigenvalues --    2.34445   2.35068   2.35572   2.36422   2.36642
 Alpha virt. eigenvalues --    2.37542   2.37765   2.38140   2.38757   2.39640
 Alpha virt. eigenvalues --    2.40626   2.40713   2.41943   2.42734   2.43771
 Alpha virt. eigenvalues --    2.44692   2.45172   2.46114   2.46890   2.47405
 Alpha virt. eigenvalues --    2.47779   2.49133   2.49883   2.50966   2.51950
 Alpha virt. eigenvalues --    2.52816   2.53494   2.54337   2.54800   2.56037
 Alpha virt. eigenvalues --    2.56443   2.57471   2.58196   2.58314   2.58428
 Alpha virt. eigenvalues --    2.59846   2.60208   2.60450   2.60650   2.61806
 Alpha virt. eigenvalues --    2.62065   2.62534   2.63198   2.64096   2.64867
 Alpha virt. eigenvalues --    2.65860   2.66403   2.66578   2.67445   2.67707
 Alpha virt. eigenvalues --    2.68494   2.68823   2.69584   2.69894   2.70728
 Alpha virt. eigenvalues --    2.71671   2.71914   2.72821   2.73307   2.73866
 Alpha virt. eigenvalues --    2.74426   2.75395   2.76177   2.76772   2.77731
 Alpha virt. eigenvalues --    2.79419   2.79642   2.80077   2.80845   2.81254
 Alpha virt. eigenvalues --    2.82036   2.82780   2.82940   2.83683   2.84002
 Alpha virt. eigenvalues --    2.85019   2.85868   2.85897   2.86867   2.87786
 Alpha virt. eigenvalues --    2.88983   2.89296   2.89661   2.90405   2.91905
 Alpha virt. eigenvalues --    2.92545   2.93157   2.94017   2.94503   2.94842
 Alpha virt. eigenvalues --    2.96371   2.97388   2.97955   2.98414   2.99524
 Alpha virt. eigenvalues --    3.00077   3.01202   3.01583   3.01778   3.03047
 Alpha virt. eigenvalues --    3.03565   3.04439   3.04951   3.06213   3.06580
 Alpha virt. eigenvalues --    3.07292   3.07709   3.08852   3.09687   3.09913
 Alpha virt. eigenvalues --    3.10211   3.11207   3.11405   3.11856   3.12598
 Alpha virt. eigenvalues --    3.12841   3.13567   3.14046   3.14613   3.15179
 Alpha virt. eigenvalues --    3.16190   3.16372   3.17415   3.17820   3.18425
 Alpha virt. eigenvalues --    3.18948   3.19418   3.19784   3.20847   3.21254
 Alpha virt. eigenvalues --    3.21966   3.22666   3.23104   3.23545   3.24477
 Alpha virt. eigenvalues --    3.25493   3.26001   3.26538   3.26885   3.27917
 Alpha virt. eigenvalues --    3.28358   3.29479   3.30374   3.30575   3.30994
 Alpha virt. eigenvalues --    3.31622   3.31942   3.32777   3.32907   3.33563
 Alpha virt. eigenvalues --    3.34489   3.35255   3.35603   3.36123   3.36756
 Alpha virt. eigenvalues --    3.37553   3.38319   3.39286   3.39726   3.40201
 Alpha virt. eigenvalues --    3.41237   3.41398   3.41812   3.42146   3.42864
 Alpha virt. eigenvalues --    3.43170   3.44569   3.45105   3.45481   3.45921
 Alpha virt. eigenvalues --    3.46360   3.47351   3.48032   3.48744   3.49851
 Alpha virt. eigenvalues --    3.50307   3.51140   3.51474   3.52972   3.53350
 Alpha virt. eigenvalues --    3.54333   3.54801   3.55752   3.56477   3.57035
 Alpha virt. eigenvalues --    3.57391   3.57690   3.58532   3.59141   3.60108
 Alpha virt. eigenvalues --    3.60499   3.61754   3.62650   3.63927   3.64580
 Alpha virt. eigenvalues --    3.66067   3.67129   3.67607   3.69618   3.69965
 Alpha virt. eigenvalues --    3.70610   3.71756   3.72821   3.73548   3.75375
 Alpha virt. eigenvalues --    3.75597   3.76916   3.77745   3.78602   3.79778
 Alpha virt. eigenvalues --    3.79931   3.80382   3.82276   3.83540   3.85420
 Alpha virt. eigenvalues --    3.85724   3.86486   3.86992   3.87644   3.88875
 Alpha virt. eigenvalues --    3.90559   3.91171   3.92343   3.93125   3.94328
 Alpha virt. eigenvalues --    3.95969   3.97021   3.97700   3.97921   3.98883
 Alpha virt. eigenvalues --    3.99834   4.01405   4.02565   4.05757   4.06657
 Alpha virt. eigenvalues --    4.08048   4.10582   4.11077   4.12374   4.13353
 Alpha virt. eigenvalues --    4.14299   4.15679   4.16716   4.17131   4.17779
 Alpha virt. eigenvalues --    4.18277   4.19973   4.20974   4.22977   4.23854
 Alpha virt. eigenvalues --    4.26859   4.27102   4.28850   4.29535   4.31198
 Alpha virt. eigenvalues --    4.32133   4.33641   4.35326   4.36627   4.37718
 Alpha virt. eigenvalues --    4.39251   4.40056   4.40803   4.42205   4.43828
 Alpha virt. eigenvalues --    4.43971   4.44776   4.45458   4.47488   4.49011
 Alpha virt. eigenvalues --    4.50243   4.51372   4.54535   4.57043   4.57788
 Alpha virt. eigenvalues --    4.58900   4.60008   4.61954   4.63657   4.66650
 Alpha virt. eigenvalues --    4.67794   4.71601   4.73438   4.75613   4.76278
 Alpha virt. eigenvalues --    4.77389   4.79811   4.80682   4.81492   4.83592
 Alpha virt. eigenvalues --    4.85425   4.86423   4.88472   4.89080   4.90014
 Alpha virt. eigenvalues --    4.91187   4.93225   4.94914   4.96241   4.97990
 Alpha virt. eigenvalues --    4.99977   5.02100   5.03521   5.04668   5.05439
 Alpha virt. eigenvalues --    5.08390   5.12913   5.14634   5.18293   5.20082
 Alpha virt. eigenvalues --    5.21157   5.24799   5.26982   5.27212   5.29075
 Alpha virt. eigenvalues --    5.30572   5.31012   5.32304   5.33753   5.37713
 Alpha virt. eigenvalues --    5.39544   5.42238   5.43421   5.45227   5.46755
 Alpha virt. eigenvalues --    5.48781   5.49337   5.50271   5.53142   5.58639
 Alpha virt. eigenvalues --    5.64657   5.67339   5.72118   5.74410   5.77519
 Alpha virt. eigenvalues --    5.80169   5.81273   5.83464   5.84800   5.86839
 Alpha virt. eigenvalues --    5.88306   5.90542   5.91811   5.94250   5.95243
 Alpha virt. eigenvalues --    5.97434   6.03085   6.05767   6.15153   6.17958
 Alpha virt. eigenvalues --    6.20326   6.22283   6.26061   6.26738   6.37966
 Alpha virt. eigenvalues --    6.41919   6.44553   6.47949   6.50109   6.55709
 Alpha virt. eigenvalues --    6.58040   6.68981   6.73636   6.75547   6.76364
 Alpha virt. eigenvalues --    6.77120   6.80630   6.83874   6.85080   6.87464
 Alpha virt. eigenvalues --    6.90008   6.95142   6.99982   7.08116   7.08469
 Alpha virt. eigenvalues --    7.09925   7.11290   7.16947   7.19246   7.23653
 Alpha virt. eigenvalues --    7.32357   7.41547   9.06828   9.42400   9.59207
 Alpha virt. eigenvalues --   19.80989  22.36493  22.46578  22.49682  22.57393
 Alpha virt. eigenvalues --   22.64751  22.68131  22.74459  22.75447  22.82168
 Alpha virt. eigenvalues --   22.86780  22.94793  22.97005  23.07248  23.18905
 Alpha virt. eigenvalues --   23.28670  23.51556  32.18688  33.16345  44.13297
 Alpha virt. eigenvalues --   44.23287  44.26338  44.37596  44.51297
          Condensed to atoms (all electrons):
               1          2          3          4          5          6
     1  C    5.153301   0.430382   0.411978   0.004079  -0.006925  -0.000238
     2  H    0.430382   0.495755  -0.013156  -0.002393   0.000477  -0.000005
     3  H    0.411978  -0.013156   0.502878  -0.000461   0.000206  -0.000009
     4  C    0.004079  -0.002393  -0.000461   5.573714   0.540366   0.237246
     5  H   -0.006925   0.000477   0.000206   0.540366   0.528214  -0.035051
     6  O   -0.000238  -0.000005  -0.000009   0.237246  -0.035051   8.181821
     7  H   -0.000007  -0.000003  -0.000003  -0.058978  -0.006758   0.304481
     8  C   -0.004730   0.011140  -0.001211  -0.043143  -0.106372  -0.061267
     9  H    0.007260  -0.000319  -0.001943  -0.075755   0.002175   0.001273
    10  O    0.005217  -0.000192  -0.000014   0.050260   0.005643  -0.023067
[...]
 (Enter /storage/apps/GAUSSIAN/G16_RevA03/g16/l716.exe)
 Dipole        = 7.50223440D-01-2.73608090D+00 7.87507800D-01
 ***** Axes restored to original set *****
 -------------------------------------------------------------------
 Center     Atomic                   Forces (Hartrees/Bohr)
 Number     Number              X              Y              Z
 -------------------------------------------------------------------
      1        6          -0.000134252   -0.000045253    0.000270832
      2        1          -0.000003643   -0.000000903    0.000014492
      3        1          -0.000024936   -0.000021644    0.000018539
      4        6          -0.000166078   -0.000011844   -0.000030164
      5        1          -0.000060440    0.000004277   -0.000010911
      6        8          -0.000398198   -0.000084635   -0.000041140
      7        1          -0.000037020   -0.000013910   -0.000015803
      8        6          -0.000230892   -0.000044731    0.000234159
      9        1          -0.000036063    0.000003747    0.000034732
     10        8          -0.000386921   -0.000021187    0.000424924
     11        1          -0.000038865    0.000003960    0.000036010
     12        6           0.000123829    0.000061850   -0.000021892
     13        1           0.000018869    0.000009255   -0.000029718
     14        6           0.000014618   -0.000019918    0.000336226
     15        1          -0.000001008   -0.000012672    0.000025256
     16        8           0.000425185    0.000117025    0.000279921
     17        7           0.000419385   -0.000049310   -0.000408510
     18        6           0.000636144    0.000171927   -0.000908708
     19        1           0.000048987    0.000005687   -0.000068047
     20        6           0.000799492    0.000057853   -0.000936193
     21        1           0.000073293    0.000045797   -0.000063000
     22        6           0.000245011    0.000135313   -0.000559159
     23        1           0.000108932    0.000009158   -0.000002449
     24        1           0.000007390   -0.000058153   -0.000073487
     25        6           0.000100607    0.000067869   -0.000058443
     26        6           0.000108754    0.000107194    0.000030026
     27        1          -0.000026187   -0.000036368    0.000071350
     28        6          -0.000082154   -0.000052634    0.000155715
     29        8          -0.000055965   -0.000036774   -0.000218557
     30        7          -0.000355358   -0.000159942    0.000713391
     31        1          -0.000004883   -0.000003053    0.000062191
     32        1           0.000055588    0.000038061    0.000039132
     33        1          -0.000048181    0.000018106    0.000026647
     34        6          -0.000254523   -0.000098932    0.000060411
     35        6           0.000111229   -0.000126894   -0.000202406
     36        6          -0.000418341   -0.000127966    0.000432629
     37        6          -0.000309079    0.001456087    0.001871997
     38        6          -0.000636255   -0.000023193    0.000775359
     39        8           0.000177036   -0.000100650   -0.000771861
     40       16           0.000765973   -0.000029734   -0.001431248
     41        1          -0.000018493   -0.000017462   -0.000007637
     42        1          -0.000019572   -0.000001540    0.000038351
     43        1           0.000188379   -0.000166199   -0.000246034
     44        1          -0.000022705    0.000040859    0.000076572
     45        1          -0.000609898   -0.000939377   -0.000016381
     46        1          -0.000006918   -0.000017924    0.000048921
     47        1          -0.000000677   -0.000025428    0.000072247
     48        1          -0.000041197   -0.000005795   -0.000028281
 -------------------------------------------------------------------
 Cartesian Forces:  Max     0.001871997 RMS     0.000348025
 Leave Link  716 at Sat Aug 13 20:58:40 2022, MaxMem=  2684354560 cpu:               0.4 elap:               0.0
 (Enter /storage/apps/GAUSSIAN/G16_RevA03/g16/l103.exe)

 GradGradGradGradGradGradGradGradGradGradGradGradGradGradGradGradGradGrad
 Berny optimization.
 Search for a local minimum.
 Step number   1 out of a maximum of    2
 All quantities printed in internal units (Hartrees-Bohrs-Radians)
 Second derivative matrix not updated -- first step.
 ITU=  0
     Eigenvalues ---    0.00023   0.00087   0.00106   0.00128   0.00181
     Eigenvalues ---    0.00212   0.00304   0.00342   0.00445   0.00477
     Eigenvalues ---    0.00596   0.00623   0.00806   0.00919   0.00959
     Eigenvalues ---    0.00967   0.01127   0.01180   0.01351   0.01504
     Eigenvalues ---    0.01719   0.02148   0.02308   0.02425   0.02668
     Eigenvalues ---    0.02987   0.03125   0.03301   0.03692   0.04241
     Eigenvalues ---    0.04394   0.04593   0.04776   0.05006   0.05245
     Eigenvalues ---    0.05301   0.05444   0.05735   0.05822   0.05970
     Eigenvalues ---    0.06153   0.06297   0.06451   0.06764   0.07039
     Eigenvalues ---    0.07071   0.07118   0.07664   0.08099   0.08341
     Eigenvalues ---    0.08675   0.08818   0.09196   0.09351   0.10427
     Eigenvalues ---    0.10745   0.10846   0.11213   0.12155   0.12548
     Eigenvalues ---    0.12831   0.13059   0.13227   0.13302   0.13688
     Eigenvalues ---    0.13898   0.14024   0.15614   0.16235   0.16459
     Eigenvalues ---    0.17541   0.18132   0.18643   0.19207   0.19903
     Eigenvalues ---    0.20350   0.20638   0.21157   0.21944   0.22564
     Eigenvalues ---    0.25183   0.25551   0.27329   0.28079   0.30616
     Eigenvalues ---    0.33213   0.33649   0.34402   0.34674   0.37720
     Eigenvalues ---    0.37862   0.37862   0.37862   0.37862   0.39930
     Eigenvalues ---    0.43839   0.48080   0.49224   0.57108   0.58631
     Eigenvalues ---    0.60024   0.61765   0.69578   0.72158   0.73839
     Eigenvalues ---    0.79213   0.81753   0.82676   0.87445   0.90834
     Eigenvalues ---    0.91195   0.92171   0.92561   0.93355   0.95334
     Eigenvalues ---    0.96814   0.99848   0.99959   1.02129   1.04185
     Eigenvalues ---    1.06002   1.08565   1.11455   1.11653   1.12615
     Eigenvalues ---    1.19931   1.20699   1.27445   1.27834   1.28924
     Eigenvalues ---    1.33555   1.37318   1.43303   1.56413   1.72502
     Eigenvalues ---    1.84253   1.87521   2.35937
 Quadratic step=3.910D+00 exceeds max=3.000D-01 adjusted using Lamda=-3.300D-03.
 Angle between NR and scaled steps=  26.30 degrees.
 Angle between quadratic step and forces=  64.80 degrees.
 Linear search not attempted -- first point.
 Variable       Old X    -DE/DX   Delta X   Delta X   Delta X     New X
                                 (Linear)    (Quad)   (Total)
    X1        6.78245  -0.00013   0.00000  -0.02134  -0.02134   6.76110
    Y1       -6.83664  -0.00005   0.00000  -0.02303  -0.02303  -6.85966
    Z1       -0.80366   0.00027   0.00000   0.03061   0.03061  -0.77306
    X2        7.07873  -0.00000   0.00000  -0.01627  -0.01627   7.06246
    Y2       -7.00854  -0.00000   0.00000  -0.03280  -0.03280  -7.04134
    Z2       -2.83363   0.00001   0.00000   0.03153   0.03153  -2.80210
    X3        8.16209  -0.00002   0.00000  -0.02845  -0.02845   8.13364
    Y3       -8.02207  -0.00002   0.00000  -0.02735  -0.02735  -8.04941
    Z3        0.16364   0.00002   0.00000   0.03576   0.03576   0.19940
    X4        3.48744  -0.00017   0.00000  -0.00745  -0.00745   3.47999
    Y4       -2.71576  -0.00001   0.00000   0.01707   0.01707  -2.69869
    Z4        2.36247  -0.00003   0.00000  -0.00495  -0.00495   2.35752
    X5        2.25928  -0.00006   0.00000  -0.01329  -0.01329   2.24599
    Y5       -4.36100   0.00000   0.00000   0.02182   0.02182  -4.33918
    Z5        2.05149  -0.00001   0.00000  -0.00494  -0.00494   2.04655
    X6        2.72420  -0.00040   0.00000  -0.01157  -0.01157   2.71263
    Y6       -1.27958  -0.00008   0.00000   0.03231   0.03231  -1.24727
    Z6        4.39922  -0.00004   0.00000  -0.01687  -0.01687   4.38235
    X7        0.95173  -0.00004   0.00000  -0.00251  -0.00251   0.94922
    Y7       -0.67838  -0.00001   0.00000   0.04616   0.04616  -0.63222
    Z7        4.05520  -0.00002   0.00000  -0.03645  -0.03645   4.01874
    X8        6.23478  -0.00023   0.00000  -0.01374  -0.01374   6.22104
    Y8       -3.56274  -0.00004   0.00000   0.00293   0.00293  -3.55982
    Z8        2.69887   0.00023   0.00000   0.01296   0.01296   2.71183
    X9        6.38276  -0.00004   0.00000  -0.02466  -0.02466   6.35810
    Y9       -5.23073   0.00000   0.00000   0.00936   0.00936  -5.22137
    Z9        3.91209   0.00003   0.00000   0.02263   0.02263   3.93472
   X10        7.66505  -0.00039   0.00000  -0.00603  -0.00603   7.65902
   Y10       -1.53844  -0.00002   0.00000   0.00158   0.00158  -1.53686
   Z10        3.65384   0.00042   0.00000   0.00446   0.00446   3.65829
   X11        6.61734  -0.00004   0.00000  -0.00393  -0.00393   6.61341
   Y11       -0.70244   0.00000   0.00000   0.01977   0.01977  -0.68267
   Z11        4.89869   0.00004   0.00000  -0.00690  -0.00690   4.89178
   X12        3.73852   0.00012   0.00000   0.01315   0.01315   3.75167
   Y12       -1.24246   0.00006   0.00000   0.00178   0.00178  -1.24068
   Z12       -0.13209  -0.00002   0.00000  -0.01259  -0.01259  -0.14468
   X13        4.26381   0.00002   0.00000   0.02545   0.02545   4.28926
   Y13        0.71704   0.00001   0.00000   0.00081   0.00081   0.71784
   Z13        0.25168  -0.00003   0.00000  -0.02440  -0.02440   0.22728
   X14        7.08541   0.00001   0.00000  -0.00649  -0.00649   7.07892
   Y14       -4.10853  -0.00002   0.00000  -0.02051  -0.02051  -4.12905
   Z14        0.00390   0.00034   0.00000   0.01941   0.01941   0.02331
   X15        9.03422  -0.00000   0.00000  -0.00079  -0.00079   9.03343
   Y15       -3.48347  -0.00001   0.00000  -0.03626  -0.03626  -3.51973
   Z15       -0.23307   0.00003   0.00000   0.01951   0.01951  -0.21356
   X16        5.52860   0.00043   0.00000   0.01162   0.01162   5.54022
   Y16       -2.51454   0.00012   0.00000  -0.01833  -0.01833  -2.53286
   Z16       -1.57888   0.00028   0.00000   0.00415   0.00415  -1.57473
   X17        1.39469   0.00042   0.00000   0.01980   0.01980   1.41449
   Y17       -1.13702  -0.00005   0.00000   0.00398   0.00398  -1.13304
   Z17       -1.65914  -0.00041   0.00000  -0.02346  -0.02346  -1.68260
   X18        0.50068   0.00064   0.00000   0.04097   0.04097   0.54164
   Y18       -3.31055   0.00017   0.00000   0.00947   0.00947  -3.30107
   Z18       -2.65903  -0.00091   0.00000  -0.05437  -0.05437  -2.71340
   X19        1.59149   0.00005   0.00000   0.05453   0.05453   1.64602
   Y19       -4.98687   0.00001   0.00000   0.01358   0.01358  -4.97329
   Z19       -2.26649  -0.00007   0.00000  -0.07347  -0.07347  -2.33996
   X20       -1.60825   0.00080   0.00000   0.04354   0.04354  -1.56471
   Y20       -3.28220   0.00006   0.00000   0.01052   0.01052  -3.27169
   Z20       -4.15171  -0.00094   0.00000  -0.05778  -0.05778  -4.20949
   X21       -2.28730   0.00007   0.00000   0.06116   0.06116  -2.22615
   Y21       -5.02876   0.00005   0.00000   0.01491   0.01491  -5.01385
   Z21       -4.95997  -0.00006   0.00000  -0.08181  -0.08181  -5.04178
   X22       -2.81959   0.00025   0.00000   0.01974   0.01974  -2.79985
   Y22       -0.99604   0.00014   0.00000   0.00526   0.00526  -0.99078
   Z22       -4.63100  -0.00056   0.00000  -0.02393  -0.02393  -4.65493
   X23       -4.42813   0.00011   0.00000   0.02266   0.02266  -4.40547
   Y23       -0.92997   0.00001   0.00000   0.00764   0.00764  -0.92233
   Z23       -5.89179  -0.00000   0.00000  -0.02690  -0.02690  -5.91868
   X24       -5.66057   0.00001   0.00000  -0.00740  -0.00740  -5.66797
   Y24       -1.59757  -0.00006   0.00000  -0.01362  -0.01362  -1.61119
   Z24       -1.62666  -0.00007   0.00000   0.02823   0.02823  -1.59843
   X25       -1.89374   0.00010   0.00000  -0.00381  -0.00381  -1.89756
   Y25        1.21042   0.00007   0.00000  -0.00107  -0.00107   1.20935
   Z25       -3.54953  -0.00006   0.00000   0.00962   0.00962  -3.53990
   X26        0.25501   0.00011   0.00000   0.00244   0.00244   0.25745
   Y26        1.06515   0.00011   0.00000  -0.00014  -0.00014   1.06501
   Z26       -2.06478   0.00003   0.00000   0.00158   0.00158  -2.06320
   X27        1.05106  -0.00003   0.00000  -0.00516  -0.00516   1.04590
   Y27        2.74364  -0.00004   0.00000  -0.00350  -0.00350   2.74014
   Z27       -1.20703   0.00007   0.00000   0.01517   0.01517  -1.19186
   X28       -2.91021  -0.00008   0.00000  -0.03051  -0.03051  -2.94072
   Y28        3.80187  -0.00005   0.00000  -0.00400  -0.00400   3.79787
   Z28       -4.07580   0.00016   0.00000   0.04585   0.04585  -4.02995
   X29       -1.56752  -0.00006   0.00000  -0.04390  -0.04390  -1.61142
   Y29        5.63748  -0.00004   0.00000   0.00479   0.00479   5.64228
   Z29       -3.88908  -0.00022   0.00000   0.05192   0.05192  -3.83716
   X30       -5.34095  -0.00036   0.00000  -0.03372  -0.03372  -5.37467
   Y30        3.87508  -0.00016   0.00000  -0.01154  -0.01154   3.86353
   Z30       -4.95251   0.00071   0.00000   0.05591   0.05591  -4.89660
   X31       -6.06168  -0.00000   0.00000  -0.03750  -0.03750  -6.09919
   Y31        5.63595  -0.00000   0.00000  -0.01322  -0.01322   5.62273
   Z31       -5.08708   0.00006   0.00000   0.05556   0.05556  -5.03153
   X32       -6.54403   0.00006   0.00000  -0.02642  -0.02642  -6.57045
   Y32        2.56319   0.00004   0.00000  -0.02099  -0.02099   2.54220
   Z32       -4.26484   0.00004   0.00000   0.04718   0.04718  -4.21767
   X33        4.89851  -0.00005   0.00000  -0.02588  -0.02588   4.87264
   Y33       -7.54793   0.00002   0.00000  -0.01173  -0.01173  -7.55967
   Z33       -0.34723   0.00003   0.00000   0.02748   0.02748  -0.31975
   X34        0.34782  -0.00025   0.00000  -0.00548  -0.00548   0.34234
   Y34        4.14603  -0.00010   0.00000   0.00287   0.00287   4.14890
   Z34        5.38720   0.00006   0.00000  -0.00274  -0.00274   5.38446
   X35       -3.13982   0.00011   0.00000   0.01115   0.01115  -3.12866
   Y35        1.67575  -0.00013   0.00000  -0.00587  -0.00587   1.66988
   Z35        2.28677  -0.00020   0.00000  -0.01026  -0.01026   2.27651
   X36       -5.34742  -0.00042   0.00000  -0.00045  -0.00045  -5.34787
   Y36        1.57633  -0.00013   0.00000  -0.00696  -0.00696   1.56937
   Z36        0.93891   0.00043   0.00000   0.00989   0.00989   0.94880
   X37       -9.35940  -0.00031   0.00000  -0.00567  -0.00567  -9.36507
   Y37       -0.60327   0.00146   0.00000   0.00732   0.00732  -0.59596
   Z37       -0.38124   0.00187   0.00000   0.01107   0.01107  -0.37017
   X38       -6.52820  -0.00064   0.00000  -0.01038  -0.01038  -6.53858
   Y38       -0.84581  -0.00002   0.00000  -0.00658  -0.00658  -0.85240
   Z38        0.11158   0.00078   0.00000   0.02612   0.02612   0.13770
   X39       -1.66880   0.00018   0.00000   0.00587   0.00587  -1.66293
   Y39       -0.16156  -0.00010   0.00000  -0.00937  -0.00937  -0.17093
   Z39        2.75992  -0.00077   0.00000  -0.00778  -0.00778   2.75215
   X40       -2.26807   0.00077   0.00000   0.04484   0.04484  -2.22323
   Y40        4.82543  -0.00003   0.00000   0.00275   0.00275   4.82818
   Z40        3.32293  -0.00143   0.00000  -0.06579  -0.06579   3.25714
   X41        0.77861  -0.00002   0.00000  -0.01731  -0.01731   0.76131
   Y41        5.90500  -0.00002   0.00000   0.00677   0.00677   5.91178
   Z41        6.36267  -0.00001   0.00000  -0.00488  -0.00488   6.35779
   X42        2.01124  -0.00002   0.00000   0.01391   0.01391   2.02515
   Y42        3.52731  -0.00000   0.00000  -0.01101  -0.01101   3.51630
   Z42        4.35126   0.00004   0.00000   0.03626   0.03626   4.38751
   X43      -10.36383   0.00019   0.00000  -0.01476  -0.01476 -10.37859
   Y43       -0.06201  -0.00017   0.00000   0.02502   0.02502  -0.03699
   Z43        1.33613  -0.00025   0.00000  -0.00346  -0.00346   1.33267
   X44       -9.75190  -0.00002   0.00000   0.01938   0.01938  -9.73252
   Y44        0.85840   0.00004   0.00000  -0.00176  -0.00176   0.85664
   Z44       -1.79081   0.00008   0.00000  -0.00668  -0.00668  -1.79749
   X45      -10.16060  -0.00061   0.00000  -0.00884  -0.00884 -10.16944
   Y45       -2.36716  -0.00094   0.00000   0.00492   0.00492  -2.36224
   Z45       -1.07604  -0.00002   0.00000   0.01120   0.01120  -1.06484
   X46       -6.16384  -0.00001   0.00000  -0.01447  -0.01447  -6.17831
   Y46       -2.31382  -0.00002   0.00000  -0.00460  -0.00460  -2.31842
   Z46        1.52171   0.00005   0.00000   0.02810   0.02810   1.54981
   X47       -6.42690  -0.00000   0.00000   0.01147   0.01147  -6.41543
   Y47        3.30721  -0.00003   0.00000  -0.00193  -0.00193   3.30528
   Z47        0.74008   0.00007   0.00000  -0.00756  -0.00756   0.73252
   X48       -0.16903  -0.00004   0.00000  -0.04182  -0.04182  -0.21085
   Y48        2.71268  -0.00001   0.00000   0.01276   0.01276   2.72543
   Z48        6.76806  -0.00003   0.00000  -0.00646  -0.00646   6.76159
         Item               Value     Threshold  Converged?
 Maximum Force            0.001872     0.000450     NO 
 RMS     Force            0.000348     0.000300     NO 
 Maximum Displacement     0.081808     0.001800     NO 
 RMS     Displacement     0.025012     0.001200     NO 
 Predicted change in Energy=-4.155376D-04
 GradGradGradGradGradGradGradGradGradGradGradGradGradGradGradGradGradGrad

 Leave Link  103 at Sat Aug 13 20:58:40 2022, MaxMem=  2684354560 cpu:               0.9 elap:               0.1
 (Enter /storage/apps/GAUSSIAN/G16_RevA03/g16/l9999.exe)

 Test job not archived.
 1\1\GINC-T082\Force\RM062X\def2TZVP\C16H24N2O5S1\LV87696\13-Aug-2022\0
 \\#P M062X/Def2TZVP scf=(direct,conver=8) EmpiricalDispersion=GD3 Forc
 e Charge Prop=(Field,Read)\\Gaussian run\\0,1\C,3.589117,-3.617792,-0.
 42528\H,3.745902,-3.708759,-1.499495\H,4.319192,-4.245094,0.086595\C,1
 .845476,-1.43712,1.250165\H,1.19556,-2.307744,1.085603\O,1.441583,-0.6
 77124,2.327968\H,0.503633,-0.358981,2.145917\C,3.299303,-1.885323,1.42
 818\H,3.377609,-2.767984,2.070188\O,4.056172,-0.814107,1.933527\H,3.50
 1746,-0.371713,2.592274\C,1.978338,-0.657482,-0.0699\H,2.25631,0.37943
 9,0.133183\C,3.749438,-2.174142,0.002063\H,4.780702,-1.843373,-0.12333
 5\O,2.925609,-1.330637,-0.835506\N,0.738038,-0.601684,-0.877977\C,0.26
 4946,-1.751865,-1.407098\H,0.842179,-2.638936,-1.199373\C,-0.851049,-1
 .736867,-2.196988\H,-1.210389,-2.661106,-2.624703\C,-1.492065,-0.52708
 1,-2.450619\H,-2.343267,-0.492121,-3.1178\H,-2.995447,-0.845399,-0.860
 79\C,-1.002125,0.640525,-1.878329\C,0.134945,0.563653,-1.092633\H,0.55
 6199,1.451872,-0.638732\C,-1.540019,2.011864,-2.15682\O,-0.829495,2.98
 3228,-2.058013\N,-2.826308,2.050602,-2.620753\H,-3.207705,2.982417,-2.
 691968\H,-3.462953,1.356384,-2.256857\H,2.592181,-3.994195,-0.183748\C
 ,0.184058,2.193982,2.850783\C,-1.661519,0.88677,1.210104\C,-2.829733,0
 .834158,0.496852\C,-4.952779,-0.319239,-0.201746\C,-3.454574,-0.447585
 ,0.059043\O,-0.883091,-0.085493,1.460489\S,-1.200213,2.553505,1.758421
 \H,0.412025,3.124794,3.366982\H,1.064301,1.866572,2.302585\H,-5.484303
 ,-0.032816,0.707047\H,-5.160484,0.454248,-0.947657\H,-5.37676,-1.25264
 5,-0.569417\H,-3.261765,-1.224423,0.805254\H,-3.400969,1.750101,0.3916
 36\H,-0.089448,1.435486,3.581501\\Version=ES64L-G16RevA.03\State=1-A\H
 F=-1507.9061618\RMSD=4.043e-09\RMSF=3.480e-04\Dipole=0.0421001,-2.3186
 074,-1.8142298\Quadrupole=1.1235113,1.2325943,-2.3561056,-4.2803398,9.
 1564184,5.1070521\PG=C01 [X(C16H24N2O5S1)]\\@


 HONESTY IN A LAWYER IS LIKE A HEN'S HIND LEGS.
  -- MAGNUS OLESON, LAKE WOBEGON PATRIARCH, C.1875
 Job cpu time:       0 days  3 hours 17 minutes 38.0 seconds.
 Elapsed time:       0 days  0 hours 12 minutes 22.6 seconds.
 File lengths (MBytes):  RWF=    435 Int=      0 D2E=      0 Chk=     48 Scr=      1
 Normal termination of Gaussian 16 at Sat Aug 13 20:58:40 2022.
