 Entering Gaussian System, Link 0=g16
 Initial command:
 /storage/apps/GAUSSIAN/G16_RevA03/g16/l1.exe "/scratch/tmp/1019256/Gau-178803.inp" -scrdir="/scratch/tmp/1019256/"
 Entering Link 1 = /storage/apps/GAUSSIAN/G16_RevA03/g16/l1.exe PID=    178804.
  
 Copyright (c) 1988,1990,1992,1993,1995,1998,2003,2009,2016,
            Gaussian, Inc.  All Rights Reserved.
  
 This is part of the Gaussian(R) 16 program.  It is based on
 the Gaussian(R) 09 system (copyright 2009, Gaussian, Inc.),
 the Gaussian(R) 03 system (copyright 2003, Gaussian, Inc.),
 the Gaussian(R) 98 system (copyright 1998, Gaussian, Inc.),
 the Gaussian(R) 94 system (copyright 1995, Gaussian, Inc.),
 the Gaussian 92(TM) system (copyright 1992, Gaussian, Inc.),
 the Gaussian 90(TM) system (copyright 1990, Gaussian, Inc.),
 the Gaussian 88(TM) system (copyright 1988, Gaussian, Inc.),
 the Gaussian 86(TM) system (copyright 1986, Carnegie Mellon
 University), and the Gaussian 82(TM) system (copyright 1983,
 Carnegie Mellon University). Gaussian is a federally registered
 trademark of Gaussian, Inc.
  
 This software contains proprietary and confidential information,
 including trade secrets, belonging to Gaussian, Inc.
  
 This software is provided under written license and may be
 used, copied, transmitted, or stored only in accord with that
 written license.
  
 The following legend is applicable only to US Government
 contracts under FAR:
  
                    RESTRICTED RIGHTS LEGEND
  
 Use, reproduction and disclosure by the US Government is
 subject to restrictions as set forth in subparagraphs (a)
 and (c) of the Commercial Computer Software - Restricted
 Rights clause in FAR 52.227-19.
  
 Gaussian, Inc.
 340 Quinnipiac St., Bldg. 40, Wallingford CT 06492
  
  
 ---------------------------------------------------------------
 Warning -- This program may not be used in any manner that
 competes with the business of Gaussian, Inc. or will provide
 assistance to any competitor of Gaussian, Inc.  The licensee
 of this program is prohibited from giving any competitor of
 Gaussian, Inc. access to this program.  By using this program,
 the user acknowledges that Gaussian, Inc. is engaged in the
 business of creating and licensing software in the field of
 computational chemistry and represents and warrants to the
 licensee that it is not a competitor of Gaussian, Inc. and that
 it will not use this program in any manner prohibited above.
 ---------------------------------------------------------------
  

 Cite this work as:
 Gaussian 16, Revision A.03,
 M. J. Frisch, G. W. Trucks, H. B. Schlegel, G. E. Scuseria, 
 M. A. Robb, J. R. Cheeseman, G. Scalmani, V. Barone, 
 G. A. Petersson, H. Nakatsuji, X. Li, M. Caricato, A. V. Marenich, 
 J. Bloino, B. G. Janesko, R. Gomperts, B. Mennucci, H. P. Hratchian, 
 J. V. Ortiz, A. F. Izmaylov, J. L. Sonnenberg, D. Williams-Young, 
 F. Ding, F. Lipparini, F. Egidi, J. Goings, B. Peng, A. Petrone, 
 T. Henderson, D. Ranasinghe, V. G. Zakrzewski, J. Gao, N. Rega, 
 G. Zheng, W. Liang, M. Hada, M. Ehara, K. Toyota, R. Fukuda, 
 J. Hasegawa, M. Ishida, T. Nakajima, Y. Honda, O. Kitao, H. Nakai, 
 T. Vreven, K. Throssell, J. A. Montgomery, Jr., J. E. Peralta, 
 F. Ogliaro, M. J. Bearpark, J. J. Heyd, E. N. Brothers, K. N. Kudin, 
 V. N. Staroverov, T. A. Keith, R. Kobayashi, J. Normand, 
 K. Raghavachari, A. P. Rendell, J. C. Burant, S. S. Iyengar, 
 J. Tomasi, M. Cossi, J. M. Millam, M. Klene, C. Adamo, R. Cammi, 
 J. W. Ochterski, R. L. Martin, K. Morokuma, O. Farkas, 
 J. B. Foresman, and D. J. Fox, Gaussian, Inc., Wallingford CT, 2016.
 
 ******************************************
 Gaussian 16:  ES64L-G16RevA.03 25-Dec-2016
                13-Aug-2022 
 ******************************************
 %NProcShared=16
 Will use up to   16 processors via shared memory.
 %mem=20GB
 ----------------------------------------------------------------------
 #P M062X/Def2TZVP scf=(direct,conver=8) EmpiricalDispersion=GD3 Force 
 Charge Prop=(Field,Read)
 ----------------------------------------------------------------------
 1/10=7,18=10,28=-2,30=1,38=1,125=101/1,3;
 2/12=2,17=6,18=5,29=2,40=1/2;
 3/5=44,7=101,11=2,25=1,30=1,71=1,74=-55,124=31/1,2,3;
 4//1;
 5/5=2,6=8,38=5/2;
 6/7=2,8=2,9=2,10=2,14=2,15=1,28=1/1,2;
 7/7=1,16=-2,29=1/1,2,3,16;
 1/10=7,18=10,28=-2,30=1/3;
 99/12=1/99;
 Leave Link    1 at Sat Aug 13 20:22:12 2022, MaxMem=  2684354560 cpu:               0.6 elap:               0.0
 (Enter /storage/apps/GAUSSIAN/G16_RevA03/g16/l101.exe)
 ------------
 Gaussian run
 ------------
 Symbolic Z-matrix:
 Charge =  0 Multiplicity = 1
 C                     3.66811  -3.62829  -0.44123 
 H                     3.83481  -3.73071  -1.51269 
 H                     4.3936   -4.24746   0.0877 
 C                     1.9139   -1.46989   1.20342 
 H                     1.27917  -2.35224   1.06385 
 O                     1.49158  -0.70634   2.29459 
 H                     0.5527   -0.46985   2.17902 
 C                     3.3654   -1.89238   1.39638 
 H                     3.46155  -2.77469   2.03682 
 O                     4.11284  -0.81346   1.90808 
 H                     3.56673  -0.38823   2.58203 
 C                     2.00095  -0.68779  -0.11654 
 H                     2.30282   0.34174   0.10155 
 C                     3.81276  -2.17493  -0.03465 
 H                     4.8445   -1.84049  -0.15618 
 O                     2.98049  -1.36074  -0.87476 
 N                     0.77546  -0.6196   -0.86953 
 C                     0.18896  -1.79487  -1.33802 
 H                     0.73183  -2.6992   -1.10338 
 C                    -0.92839  -1.80788  -2.05662 
 H                    -1.31018  -2.76174  -2.39448 
 C                    -1.6693   -0.55728  -2.43873 
 H                    -1.77986  -0.51594  -3.53123 
 H                    -2.69163  -0.5876   -2.0377 
 C                    -0.93904   0.66071  -1.92776 
 C                     0.19522   0.56596  -1.21218 
 H                     0.6831    1.4692   -0.86437 
 C                    -1.46343   2.02036  -2.16325 
 O                    -0.89914   3.04221  -1.81416 
 N                    -2.69464   2.07222  -2.77098 
 H                    -3.00169   2.98458  -3.06567 
 H                    -3.06879   1.27437  -3.25292 
 H                     2.66706  -4.00117  -0.21249 
 C                     0.22965   2.2227    2.722 
 C                    -1.72743   0.92441   1.34153 
 C                    -2.98769   0.88043   0.5729 
 C                    -4.90567  -0.41083  -0.37094 
 C                    -3.61149  -0.27326   0.35639 
 O                    -1.11122  -0.06569   1.68806 
 S                    -1.23683   2.55988   1.74023 
 H                     0.53464   3.17141   3.15695 
 H                     1.02944   1.82978   2.0989 
 H                    -5.68712  -0.75737   0.30968 
 H                    -5.21894   0.53623  -0.80904 
 H                    -4.82855  -1.1603   -1.16168 
 H                    -3.14813  -1.17668   0.74398 
 H                    -3.38335   1.82367   0.21139 
 H                    -0.00309   1.51067   3.51075 
 
 ITRead=  0  0  0  0  0  0  0  0  0  0  0  0  0  0  0  0  0  0  0  0
 ITRead=  0  0  0  0  0  0  0  0  0  0  0  0  0  0  0  0  0  0  0  0
 ITRead=  0  0  0  0  0  0  0  0
 MicOpt= -1 -1 -1 -1 -1 -1 -1 -1 -1 -1 -1 -1 -1 -1 -1 -1 -1 -1 -1 -1
 MicOpt= -1 -1 -1 -1 -1 -1 -1 -1 -1 -1 -1 -1 -1 -1 -1 -1 -1 -1 -1 -1
 MicOpt= -1 -1 -1 -1 -1 -1 -1 -1
 NAtoms=     48 NQM=       48 NQMF=       0 NMMI=      0 NMMIF=      0
                NMic=       0 NMicF=      0.
                    Isotopes and Nuclear Properties:
 (Nuclear quadrupole moments (NQMom) in fm**2, nuclear magnetic moments (NMagM)
  in nuclear magnetons)

  Atom         1           2           3           4           5           6           7           8           9          10
 IAtWgt=          12           1           1          12           1          16           1          12           1          16
 AtmWgt=  12.0000000   1.0078250   1.0078250  12.0000000   1.0078250  15.9949146   1.0078250  12.0000000   1.0078250  15.9949146
 NucSpn=           0           1           1           0           1           0           1           0           1           0
 AtZEff=  -0.0000000  -0.0000000  -0.0000000  -0.0000000  -0.0000000  -0.0000000  -0.0000000  -0.0000000  -0.0000000  -0.0000000
 NQMom=    0.0000000   0.0000000   0.0000000   0.0000000   0.0000000   0.0000000   0.0000000   0.0000000   0.0000000   0.0000000
 NMagM=    0.0000000   2.7928460   2.7928460   0.0000000   2.7928460   0.0000000   2.7928460   0.0000000   2.7928460   0.0000000
 AtZNuc=   6.0000000   1.0000000   1.0000000   6.0000000   1.0000000   8.0000000   1.0000000   6.0000000   1.0000000   8.0000000

  Atom        11          12          13          14          15          16          17          18          19          20
 IAtWgt=           1          12           1          12           1          16          14          12           1          12
 AtmWgt=   1.0078250  12.0000000   1.0078250  12.0000000   1.0078250  15.9949146  14.0030740  12.0000000   1.0078250  12.0000000
 NucSpn=           1           0           1           0           1           0           2           0           1           0
 AtZEff=  -0.0000000  -0.0000000  -0.0000000  -0.0000000  -0.0000000  -0.0000000  -0.0000000  -0.0000000  -0.0000000  -0.0000000
 NQMom=    0.0000000   0.0000000   0.0000000   0.0000000   0.0000000   0.0000000   2.0440000   0.0000000   0.0000000   0.0000000
 NMagM=    2.7928460   0.0000000   2.7928460   0.0000000   2.7928460   0.0000000   0.4037610   0.0000000   2.7928460   0.0000000
 AtZNuc=   1.0000000   6.0000000   1.0000000   6.0000000   1.0000000   8.0000000   7.0000000   6.0000000   1.0000000   6.0000000

  Atom        21          22          23          24          25          26          27          28          29          30
 IAtWgt=           1          12           1           1          12          12           1          12          16          14
 AtmWgt=   1.0078250  12.0000000   1.0078250   1.0078250  12.0000000  12.0000000   1.0078250  12.0000000  15.9949146  14.0030740
 NucSpn=           1           0           1           1           0           0           1           0           0           2
 AtZEff=  -0.0000000  -0.0000000  -0.0000000  -0.0000000  -0.0000000  -0.0000000  -0.0000000  -0.0000000  -0.0000000  -0.0000000
 NQMom=    0.0000000   0.0000000   0.0000000   0.0000000   0.0000000   0.0000000   0.0000000   0.0000000   0.0000000   2.0440000
 NMagM=    2.7928460   0.0000000   2.7928460   2.7928460   0.0000000   0.0000000   2.7928460   0.0000000   0.0000000   0.4037610
 AtZNuc=   1.0000000   6.0000000   1.0000000   1.0000000   6.0000000   6.0000000   1.0000000   6.0000000   8.0000000   7.0000000

  Atom        31          32          33          34          35          36          37          38          39          40
 IAtWgt=           1           1           1          12          12          12          12          12          16          32
 AtmWgt=   1.0078250   1.0078250   1.0078250  12.0000000  12.0000000  12.0000000  12.0000000  12.0000000  15.9949146  31.9720718
 NucSpn=           1           1           1           0           0           0           0           0           0           0
 AtZEff=  -0.0000000  -0.0000000  -0.0000000  -0.0000000  -0.0000000  -0.0000000  -0.0000000  -0.0000000  -0.0000000  -0.0000000
 NQMom=    0.0000000   0.0000000   0.0000000   0.0000000   0.0000000   0.0000000   0.0000000   0.0000000   0.0000000   0.0000000
 NMagM=    2.7928460   2.7928460   2.7928460   0.0000000   0.0000000   0.0000000   0.0000000   0.0000000   0.0000000   0.0000000
 AtZNuc=   1.0000000   1.0000000   1.0000000   6.0000000   6.0000000   6.0000000   6.0000000   6.0000000   8.0000000  16.0000000

  Atom        41          42          43          44          45          46          47          48
 IAtWgt=           1           1           1           1           1           1           1           1
 AtmWgt=   1.0078250   1.0078250   1.0078250   1.0078250   1.0078250   1.0078250   1.0078250   1.0078250
 NucSpn=           1           1           1           1           1           1           1           1
 AtZEff=  -0.0000000  -0.0000000  -0.0000000  -0.0000000  -0.0000000  -0.0000000  -0.0000000  -0.0000000
 NQMom=    0.0000000   0.0000000   0.0000000   0.0000000   0.0000000   0.0000000   0.0000000   0.0000000
 NMagM=    2.7928460   2.7928460   2.7928460   2.7928460   2.7928460   2.7928460   2.7928460   2.7928460
 AtZNuc=   1.0000000   1.0000000   1.0000000   1.0000000   1.0000000   1.0000000   1.0000000   1.0000000
 Background charge distribution read from input stream:
 Leave Link  101 at Sat Aug 13 20:22:13 2022, MaxMem=  2684354560 cpu:               1.5 elap:               0.1
 (Enter /storage/apps/GAUSSIAN/G16_RevA03/g16/l103.exe)

 GradGradGradGradGradGradGradGradGradGradGradGradGradGradGradGradGradGrad
 Berny optimization.
 Initialization pass.
 Trust Radius=3.00D-01 FncErr=1.00D-07 GrdErr=1.00D-07 EigMax=2.50D+02 EigMin=1.00D-04
 Number of steps in this run=      2 maximum allowed number of steps=      2.
 GradGradGradGradGradGradGradGradGradGradGradGradGradGradGradGradGradGrad

 Leave Link  103 at Sat Aug 13 20:22:13 2022, MaxMem=  2684354560 cpu:               0.3 elap:               0.0
 (Enter /storage/apps/GAUSSIAN/G16_RevA03/g16/l202.exe)
 ---------------------------------------------------------------------------------------------------
                            Z-MATRIX (ANGSTROMS AND DEGREES)
   CD    Cent   Atom    N1       Length/X        N2       Alpha/Y        N3        Beta/Z          J
 ---------------------------------------------------------------------------------------------------
      1      1  C        0   3.668112         -3.628294         -0.441229
      2      2  H        0   3.834807         -3.730711         -1.512687
      3      3  H        0   4.393596         -4.247458          0.087698
      4      4  C        0   1.913895         -1.469888          1.203420
      5      5  H        0   1.279174         -2.352239          1.063849
      6      6  O        0   1.491575         -0.706337          2.294592
      7      7  H        0   0.552699         -0.469846          2.179021
      8      8  C        0   3.365405         -1.892384          1.396377
      9      9  H        0   3.461550         -2.774689          2.036825
     10     10  O        0   4.112838         -0.813463          1.908078
     11     11  H        0   3.566733         -0.388229          2.582031
     12     12  C        0   2.000953         -0.687787         -0.116535
     13     13  H        0   2.302821          0.341743          0.101551
     14     14  C        0   3.812764         -2.174931         -0.034650
     15     15  H        0   4.844501         -1.840493         -0.156182
     16     16  O        0   2.980491         -1.360738         -0.874764
     17     17  N        0   0.775461         -0.619602         -0.869532
     18     18  C        0   0.188956         -1.794867         -1.338018
     19     19  H        0   0.731834         -2.699197         -1.103380
     20     20  C        0  -0.928388         -1.807884         -2.056625
     21     21  H        0  -1.310182         -2.761744         -2.394477
     22     22  C        0  -1.669297         -0.557283         -2.438729
     23     23  H        0  -1.779862         -0.515937         -3.531231
     24     24  H        0  -2.691631         -0.587604         -2.037705
     25     25  C        0  -0.939040          0.660707         -1.927755
     26     26  C        0   0.195224          0.565963         -1.212175
     27     27  H        0   0.683095          1.469203         -0.864370
     28     28  C        0  -1.463431          2.020364         -2.163253
     29     29  O        0  -0.899143          3.042214         -1.814159
     30     30  N        0  -2.694644          2.072218         -2.770980
     31     31  H        0  -3.001690          2.984578         -3.065667
     32     32  H        0  -3.068793          1.274365         -3.252921
     33     33  H        0   2.667064         -4.001175         -0.212494
     34     34  C        0   0.229650          2.222696          2.721996
     35     35  C        0  -1.727433          0.924408          1.341534
     36     36  C        0  -2.987685          0.880426          0.572899
     37     37  C        0  -4.905668         -0.410829         -0.370940
     38     38  C        0  -3.611488         -0.273262          0.356385
     39     39  O        0  -1.111220         -0.065685          1.688062
     40     40  S        0  -1.236827          2.559879          1.740232
     41     41  H        0   0.534637          3.171412          3.156947
     42     42  H        0   1.029443          1.829783          2.098896
     43     43  H        0  -5.687125         -0.757366          0.309681
     44     44  H        0  -5.218940          0.536231         -0.809043
     45     45  H        0  -4.828547         -1.160299         -1.161683
     46     46  H        0  -3.148125         -1.176677          0.743983
     47     47  H        0  -3.383350          1.823666          0.211391
     48     48  H        0  -0.003089          1.510673          3.510747
 ---------------------------------------------------------------------------------------------------
                         Z-Matrix orientation:                         
 ---------------------------------------------------------------------
 Center     Atomic      Atomic             Coordinates (Angstroms)
 Number     Number       Type             X           Y           Z
 ---------------------------------------------------------------------
      1          6           0        3.668112   -3.628294   -0.441229
      2          1           0        3.834807   -3.730711   -1.512687
      3          1           0        4.393596   -4.247458    0.087698
      4          6           0        1.913895   -1.469888    1.203420
      5          1           0        1.279174   -2.352239    1.063849
      6          8           0        1.491575   -0.706337    2.294592
      7          1           0        0.552699   -0.469846    2.179021
      8          6           0        3.365405   -1.892384    1.396377
      9          1           0        3.461550   -2.774689    2.036825
     10          8           0        4.112838   -0.813463    1.908078
     11          1           0        3.566733   -0.388229    2.582031
     12          6           0        2.000953   -0.687787   -0.116535
     13          1           0        2.302821    0.341743    0.101551
     14          6           0        3.812764   -2.174931   -0.034650
     15          1           0        4.844501   -1.840493   -0.156182
     16          8           0        2.980491   -1.360738   -0.874764
     17          7           0        0.775461   -0.619602   -0.869532
     18          6           0        0.188956   -1.794867   -1.338018
     19          1           0        0.731834   -2.699197   -1.103380
     20          6           0       -0.928388   -1.807884   -2.056625
     21          1           0       -1.310182   -2.761744   -2.394477
     22          6           0       -1.669297   -0.557283   -2.438729
     23          1           0       -1.779862   -0.515937   -3.531231
     24          1           0       -2.691631   -0.587604   -2.037705
     25          6           0       -0.939040    0.660707   -1.927755
     26          6           0        0.195224    0.565963   -1.212175
     27          1           0        0.683095    1.469203   -0.864370
     28          6           0       -1.463431    2.020364   -2.163253
     29          8           0       -0.899143    3.042214   -1.814159
     30          7           0       -2.694644    2.072218   -2.770980
     31          1           0       -3.001690    2.984578   -3.065667
     32          1           0       -3.068793    1.274365   -3.252921
     33          1           0        2.667064   -4.001175   -0.212494
     34          6           0        0.229650    2.222696    2.721996
     35          6           0       -1.727433    0.924408    1.341534
     36          6           0       -2.987685    0.880426    0.572899
     37          6           0       -4.905668   -0.410829   -0.370940
     38          6           0       -3.611488   -0.273262    0.356385
     39          8           0       -1.111220   -0.065685    1.688062
     40         16           0       -1.236827    2.559879    1.740232
     41          1           0        0.534637    3.171412    3.156947
     42          1           0        1.029443    1.829783    2.098896
     43          1           0       -5.687125   -0.757366    0.309681
     44          1           0       -5.218940    0.536231   -0.809043
     45          1           0       -4.828547   -1.160299   -1.161683
     46          1           0       -3.148125   -1.176677    0.743983
     47          1           0       -3.383350    1.823666    0.211391
     48          1           0       -0.003089    1.510673    3.510747
 ---------------------------------------------------------------------
                    Distance matrix (angstroms):
                    1          2          3          4          5
     1  C    0.000000
     2  H    1.089173   0.000000
     3  H    1.090621   1.772147   0.000000
     4  C    3.231233   4.022246   3.886984   0.000000
     5  H    3.098484   3.882008   3.774169   1.095853   0.000000
     6  O    4.556299   5.397495   5.082484   1.397147   2.066116
     7  H    5.152407   5.918968   5.778968   1.950573   2.305380
     8  C    2.545940   3.473102   2.883781   1.524013   2.162036
     9  H    2.629080   3.694907   2.614738   2.189134   2.426502
    10  O    3.693277   4.504361   3.896785   2.400581   3.333198
    11  H    4.432652   5.292520   4.668945   2.408823   3.375669
    12  C    3.395795   3.817283   4.293915   1.536731   2.164410
    13  H    4.233181   4.640865   5.043044   2.155780   3.038323
    14  C    1.516079   2.146050   2.155853   2.373943   2.767168
    15  H    2.159022   2.536240   2.460950   3.251818   3.802883
    16  O    2.408856   2.598764   3.355049   2.338459   2.763290
    17  N    4.195605   4.410470   5.212344   2.513195   2.644564
    18  C    4.033635   4.131614   5.072166   3.088678   2.695961
    19  H    3.150142   3.295451   4.150214   2.868762   2.262044
    20  C    5.201078   5.165381   6.234834   4.338284   3.860960
    21  H    5.417518   5.309177   6.395438   5.000843   4.339640
    22  C    6.473720   6.420542   7.533850   5.190122   4.917662
    23  H    6.993947   6.777448   8.070470   6.080360   5.817600
    24  H    7.227784   7.262862   8.253018   5.700367   5.338620
    25  C    6.467700   6.499727   7.522575   4.741617   4.790408
    26  C    5.499736   5.638996   6.518053   3.596334   3.856311
    27  H    5.922318   6.114958   6.881458   3.798537   4.321661
    28  C    7.823390   7.846619   8.868886   5.909541   6.087341
    29  O    8.200026   8.268838   9.207033   6.113757   6.490618
    30  N    8.854843   8.825589   9.917333   7.041378   7.076225
    31  H    9.752128   9.707963  10.813709   7.888621   7.991265
    32  H    8.793609   8.702809   9.865978   7.226139   7.119802
    33  H    1.092455   1.768411   1.769656   2.996580   2.504851
    34  C    7.487529   8.146947   8.132703   4.333351   4.978050
    35  C    7.281294   7.794564   8.110937   4.360160   4.455694
    36  C    8.102879   8.494625   9.000773   5.472387   5.375615
    37  C    9.157878   9.419188  10.070074   7.078605   6.639274
    38  C    8.055123   8.419899   8.941353   5.716576   5.361084
    39  O    6.329935   6.938328   7.095871   3.370161   3.366297
    40  S    8.192111   8.710596   8.987345   5.143368   5.560275
    41  H    8.306716   8.963030   8.907945   5.221138   5.953664
    42  H    6.573083   7.199493   7.231549   3.531566   4.315437
    43  H    9.814609  10.140463  10.670096   7.686479   7.186217
    44  H    9.821316  10.033556  10.774445   7.678011   7.353670
    45  H    8.877120   9.043446   9.805071   7.151929   6.608931
    46  H    7.340044   7.770263   8.169331   5.091277   4.591866
    47  H    8.937164   9.269592   9.866850   6.316045   6.316961
    48  H    7.450155   8.211969   8.012751   4.228750   4.749063
                    6          7          8          9         10
     6  O    0.000000
     7  H    0.975076   0.000000
     8  C    2.392642   3.247685   0.000000
     9  H    2.867983   3.714019   1.094477   0.000000
    10  O    2.651771   3.586931   1.408746   2.070546   0.000000
    11  H    2.118984   3.041953   1.925822   2.450205   0.966058
    12  C    2.464415   2.722961   2.366788   3.335485   2.928295
    13  H    2.562425   2.835046   2.792308   3.847088   2.806101
    14  C    3.601396   4.293679   1.525713   2.184964   2.391199
    15  H    4.305196   5.074585   2.144961   2.755822   2.418944
    16  O    3.562293   4.001683   2.364083   3.272312   3.053838
    17  N    3.245308   3.060347   3.669077   4.506261   4.346353
    18  C    4.009684   3.775917   4.192404   4.802030   5.186246
    19  H    4.011846   3.971933   3.719601   4.161482   4.904698
    20  C    5.099286   4.682378   5.510628   6.079688   6.490123
    21  H    5.836258   5.444264   6.081733   6.511991   7.191448
    22  C    5.693651   5.125283   6.468289   7.160521   7.238332
    23  H    6.684218   6.168464   7.256011   7.973557   8.024869
    24  H    6.023463   5.321684   7.084000   7.697192   7.868991
    25  C    5.060130   4.513208   6.008026   6.847265   6.512163
    26  C    3.949264   3.563832   4.785192   5.690768   5.194853
    27  H    3.919905   3.610975   4.858604   5.843575   4.965901
    28  C    6.003278   5.396413   7.162278   8.055348   7.463316
    29  O    6.053842   5.512522   7.269399   8.226912   7.337660
    30  N    7.134761   6.442813   8.355186   9.192727   8.750003
    31  H    7.908518   7.216196   9.177935  10.048784   9.475218
    32  H    7.449499   6.757475   8.546530   9.328539   9.086845
    33  H    4.303860   4.760270   2.742835   2.682333   4.092505
    34  C    3.217820   2.765676   5.340797   5.990701   4.995986
    35  C    3.732246   2.800773   5.820165   6.410327   6.119635
    36  C    5.054287   4.115481   6.980569   7.556162   7.420875
    37  C    6.936649   6.024911   8.586563   9.021946   9.310719
    38  C    5.475897   4.549846   7.237415   7.688230   7.897137
    39  O    2.748246   1.781295   4.843767   5.326403   5.281890
    40  S    4.291813   3.546008   6.412599   7.114797   6.326652
    41  H    4.086114   3.770335   6.062581   6.721429   5.499311
    42  H    2.585298   2.349893   4.450256   5.207702   4.065770
    43  H    7.448235   6.520161   9.187898   9.526325   9.929617
    44  H    7.497169   6.576666   9.189833   9.716587   9.812569
    45  H    7.217746   6.371408   8.615130   9.031191   9.460026
    46  H    4.914512   4.031754   6.585129   6.921913   7.362651
    47  H    5.874141   4.962282   7.794800   8.445693   8.125640
    48  H    2.937378   2.450480   5.234320   5.704428   4.991093
                   11         12         13         14         15
    11  H    0.000000
    12  C    3.134272   0.000000
    13  H    2.878040   1.094814   0.000000
    14  C    3.178027   2.345413   2.938048   0.000000
    15  H    3.352547   3.068561   3.359869   1.091375   0.000000
    16  O    3.638528   1.409705   2.076263   1.435751   2.054521
    17  N    4.444999   1.439960   2.049394   3.513017   4.307729
    18  C    5.362349   2.449690   3.332550   3.869781   4.803428
    19  H    5.192252   2.574936   3.628660   3.302903   4.306807
    20  C    6.613521   3.687764   4.440645   5.167362   6.077746
    21  H    7.360945   4.522602   5.377321   5.670777   6.613531
    22  C    7.256213   4.345153   4.799895   6.200756   7.020414
    23  H    8.122460   5.097474   5.531819   6.801162   7.551661
    24  H    7.781313   5.071615   5.512228   6.988490   7.867855
    25  C    6.460683   3.707090   3.837901   5.848447   6.545519
    26  C    5.164645   2.456211   2.493615   4.688887   5.340593
    27  H    4.862417   2.636022   2.197199   4.874728   5.364039
    28  C    7.322676   4.850267   4.704440   7.068924   7.663195
    29  O    7.144122   5.020497   4.605981   7.251712   7.718754
    30  N    8.597288   6.059071   6.018358   8.238455   8.887361
    31  H    9.296048   6.870959   6.719649   9.068869   9.659665
    32  H    8.991167   6.276088   6.401289   8.343305   9.050544
    33  H    4.655336   3.381043   4.369466   2.163198   3.068053
    34  C    4.239415   4.434601   3.834417   6.306895   6.788981
    35  C    5.593750   4.315785   4.256760   6.495658   7.285475
    36  C    6.971836   5.274573   5.338708   7.480002   8.323346
    37  C    8.972298   6.916852   7.263052   8.901472   9.856767
    38  C    7.516221   5.647564   5.951657   7.673902   8.615259
    39  O    4.773516   3.650918   3.786646   5.626924   6.482422
    40  S    5.698610   4.947539   4.487150   7.146118   7.742235
    41  H    4.711176   5.268699   4.524262   7.036746   7.393980
    42  H    3.404532   3.491436   2.797345   5.323216   5.754213
    43  H    9.535918   7.700198   8.067874   9.611241  10.597421
    44  H    9.462667   7.355586   7.579175   9.461594  10.360883
    45  H    9.224544   6.925148   7.396506   8.773365   9.748926
    46  H    7.006382   5.243330   5.694834   7.075080   8.070503
    47  H    7.669163   5.950265   5.877134   8.236102   9.014361
    48  H    4.148731   4.691118   4.278579   6.380772   6.940880
                   16         17         18         19         20
    16  O    0.000000
    17  N    2.326256   0.000000
    18  C    2.862820   1.394530   0.000000
    19  H    2.626822   2.093156   1.080548   0.000000
    20  C    4.108049   2.392552   1.328542   2.111741   0.000000
    21  H    4.762585   3.356209   2.073251   2.416748   1.081554
    22  C    4.971122   2.905702   2.489233   3.483731   1.502981
    23  H    5.516472   3.691214   3.212801   4.119430   2.137428
    24  H    5.841501   3.658740   3.200754   4.129395   2.144404
    25  C    4.534066   2.387162   2.765865   3.841923   2.471975
    26  C    3.403489   1.363687   2.364190   3.310749   2.758759
    27  H    3.645093   2.090853   3.335067   4.175531   3.841569
    28  C    5.730663   3.695372   4.238795   5.311946   3.866927
    29  O    5.943064   4.135881   4.980765   6.010748   4.856243
    30  N    6.898404   4.785711   5.032184   6.106394   4.322633
    31  H    7.711570   5.663920   6.000674   7.077787   5.318312
    32  H    7.013789   4.903666   4.868261   5.903769   3.938619
    33  H    2.740209   3.930000   3.503658   2.496786   4.597675
    34  C    5.774496   4.612553   5.711933   6.253856   6.357818
    35  C    5.683170   3.679301   4.271651   5.015587   4.432987
    36  C    6.537405   4.300228   4.571635   5.427562   4.287436
    37  C    7.959125   5.706786   5.367122   6.128175   4.540050
    38  C    6.793565   4.568167   4.430537   5.184643   3.921315
    39  O    4.998734   3.226093   3.719904   4.257274   4.134170
    40  S    6.324177   4.579222   5.520171   6.294413   5.795568
    41  H    6.540434   5.535550   6.707319   7.256261   7.356301
    42  H    4.777935   3.856885   5.065262   5.554710   5.859529
    43  H    8.768953   6.570734   6.190287   6.853502   5.417432
    44  H    8.416263   6.105117   5.912628   6.779848   5.045807
    45  H    7.816877   5.637607   5.060544   5.769700   4.053582
    46  H    6.341463   4.278819   3.981582   4.559046   3.628920
    47  H    7.198516   4.943042   5.315620   6.254570   4.935473
    48  H    6.031539   4.932652   5.871456   6.289140   6.547109
                   21         22         23         24         25
    21  H    0.000000
    22  C    2.233958   0.000000
    23  H    2.560558   1.098861   0.000000
    24  H    2.600495   1.098593   1.751308   0.000000
    25  C    3.474010   1.509261   2.159307   2.154517   0.000000
    26  C    3.838974   2.498511   3.232568   3.216543   1.344465
    27  H    4.920904   3.481235   4.137522   4.122614   2.101375
    28  C    4.790147   2.600487   2.899020   2.885435   1.476182
    29  O    5.847363   3.733578   4.047770   4.054450   2.384548
    30  N    5.042388   2.841831   2.848395   2.759050   2.405314
    31  H    6.027596   3.835766   3.736739   3.730057   3.309040
    32  H    4.485512   2.444674   2.223506   2.255201   2.582342
    33  H    4.702736   5.968295   6.552561   6.610558   6.138343
    34  C    7.307121   6.161766   7.116256   6.251913   5.042403
    35  C    5.264940   4.060687   5.081455   3.825587   3.373330
    36  C    4.988461   3.588183   4.500283   3.009653   3.240138
    37  C    4.748581   3.843345   4.446251   2.776925   4.393859
    38  C    4.365294   3.415470   4.304335   2.583915   3.637523
    39  O    4.896473   4.193271   5.281177   4.080617   3.692076
    40  S    6.739501   5.231390   6.127304   5.127954   4.141215
    41  H    8.332107   7.076163   7.980299   7.177981   5.859143
    42  H    6.837131   5.794076   6.715127   6.066434   4.632017
    43  H    5.521561   4.872036   5.484305   3.809465   5.437036
    44  H    5.354309   4.056059   4.510501   3.026534   4.425444
    45  H    4.057499   3.460540   3.914644   2.379455   4.362476
    46  H    3.967418   3.563739   4.537199   2.879789   3.923547
    47  H    5.666971   3.953484   4.695970   3.369144   3.450083
    48  H    7.404979   6.515286   7.540128   6.512783   5.583525
                   26         27         28         29         30
    26  C    0.000000
    27  H    1.083895   0.000000
    28  C    2.402284   2.568745   0.000000
    29  O    2.773417   2.424859   1.218386   0.000000
    30  N    3.612480   3.925291   1.374011   2.253935   0.000000
    31  H    4.416491   4.551891   2.027388   2.447509   1.006737
    32  H    3.914114   4.451944   2.078720   3.146857   1.004402
    33  H    5.288488   5.855434   7.558133   8.055588   8.495873
    34  C    4.268917   3.692612   5.174275   4.745786   6.224703
    35  C    3.216601   3.312621   3.681623   3.889674   4.377869
    36  C    3.662825   3.985853   3.333067   3.838409   3.561989
    37  C    5.261264   5.917116   4.579528   5.482575   4.100529
    38  C    4.201873   4.792689   4.027834   4.802131   4.015257
    39  O    3.243016   3.477119   4.394119   4.687170   5.192390
    40  S    3.839685   3.414619   3.947103   3.602828   4.765929
    41  H    5.098313   4.369273   5.798424   5.175356   6.839357
    42  H    3.640928   3.005149   4.941321   4.527851   6.135413
    43  H    6.218462   6.849504   5.627680   6.470879   5.143147
    44  H    5.429233   5.975577   4.259153   5.094198   3.546903
    45  H    5.312326   6.113990   4.737485   5.790255   4.194347
    46  H    4.247509   4.926025   4.638026   5.422274   4.807903
    47  H    4.051487   4.221242   3.060018   3.429139   3.070933
    48  H    4.820560   4.428794   5.881042   5.612767   6.857105
                   31         32         33         34         35
    31  H    0.000000
    32  H    1.721742   0.000000
    33  H    9.438014   8.365140   0.000000
    34  C    6.672261   6.890478   7.299917   0.000000
    35  C    5.029061   4.799035   6.781443   2.724225   0.000000
    36  C    4.203191   3.846903   7.511528   4.095308   1.476811
    37  C    4.734498   3.810486   8.382241   6.547763   3.849234
    38  C    4.764012   3.964437   7.324014   5.155605   2.440204
    39  O    5.956167   5.480980   5.777164   2.846689   1.216587
    40  S    5.137293   5.471766   7.880415   1.796694   1.753402
    41  H    7.159710   7.594070   8.206484   1.087318   3.669021
    42  H    6.652541   6.763577   6.482623   1.087338   2.998944
    43  H    5.710226   4.865771   8.977051   7.050408   4.424053
    44  H    4.000369   3.337741   9.117729   6.708169   4.119015
    45  H    4.913509   3.660273   8.071909   7.218932   4.497667
    46  H    5.643662   4.689258   6.535217   5.184365   2.605761
    47  H    3.497498   3.521667   8.409278   4.417707   2.197259
    48  H    7.376532   7.429777   7.167476   1.087783   2.832411
                   36         37         38         39         40
    36  C    0.000000
    37  C    2.497365   0.000000
    38  C    1.329287   1.490915   0.000000
    39  O    2.379041   4.330872   2.840386   0.000000
    40  S    2.692347   5.171320   3.947244   2.629084   0.000000
    41  H    4.932816   7.407790   6.074478   3.917303   2.349285
    42  H    4.400825   6.807788   5.384922   2.888602   2.407833
    43  H    3.168379   1.092707   2.131855   4.828795   5.731993
    44  H    2.647023   1.089494   2.144156   4.844708   5.143071
    45  H    3.249939   1.092212   2.138363   4.810171   5.929695
    46  H    2.070431   2.217777   1.086782   2.504909   4.313632
    47  H    1.084869   2.765778   2.114279   3.303450   2.736225
    48  H    4.235089   6.541785   5.113997   2.652365   2.399514
                   41         42         43         44         45
    41  H    0.000000
    42  H    1.778840   0.000000
    43  H    7.890028   7.416665   0.000000
    44  H    7.468394   7.012252   1.773171   0.000000
    45  H    8.134988   7.340845   1.750549   1.776225   0.000000
    46  H    6.187973   5.322280   2.609782   3.103904   2.540797
    47  H    5.083635   4.799526   3.461035   2.463365   3.588589
    48  H    1.781117   1.777998   6.906453   6.842165   7.228467
                   46         47         48
    46  H    0.000000
    47  H    3.056312   0.000000
    48  H    4.976754   4.733907   0.000000
 Stoichiometry    C16H24N2O5S
 Framework group  C1[X(C16H24N2O5S)]
 Deg. of freedom   138
 Full point group                 C1      NOp   1
 Largest Abelian subgroup         C1      NOp   1
 Largest concise Abelian subgroup C1      NOp   1
                         Standard orientation:                         
 ---------------------------------------------------------------------
 Center     Atomic      Atomic             Coordinates (Angstroms)
 Number     Number       Type             X           Y           Z
 ---------------------------------------------------------------------
      1          6           0        4.760943   -1.890464    0.611840
      2          1           0        4.752929   -2.845706    0.088631
      3          1           0        5.773762   -1.691635    0.964145
      4          6           0        2.554192    0.468629    0.687964
      5          1           0        2.380782   -0.154738    1.572406
      6          8           0        2.040821    1.756081    0.863860
      7          1           0        1.094951    1.697831    1.093442
      8          6           0        4.045239    0.541910    0.381328
      9          1           0        4.652459    0.648486    1.285654
     10          8           0        4.295944    1.593648   -0.521754
     11          1           0        3.752188    2.340917   -0.240352
     12          6           0        2.025384   -0.255131   -0.560265
     13          1           0        1.856726    0.482164   -1.351826
     14          6           0        4.296621   -0.789095   -0.320837
     15          1           0        5.017410   -0.634817   -1.125673
     16          8           0        3.043609   -1.163961   -0.913133
     17          7           0        0.788657   -0.969244   -0.375783
     18          6           0        0.730012   -2.019416    0.539866
     19          1           0        1.659898   -2.233444    1.046905
     20          6           0       -0.369108   -2.736289    0.747354
     21          1           0       -0.326916   -3.544328    1.465026
     22          6           0       -1.657246   -2.488799    0.013595
     23          1           0       -1.976014   -3.412350   -0.489333
     24          1           0       -2.457073   -2.247963    0.727164
     25          6           0       -1.485318   -1.368239   -0.982726
     26          6           0       -0.322687   -0.707461   -1.121456
     27          1           0       -0.247641    0.092316   -1.849161
     28          6           0       -2.607906   -0.921221   -1.830714
     29          8           0       -2.520547   -0.053363   -2.681394
     30          7           0       -3.815033   -1.519790   -1.561518
     31          1           0       -4.554836   -1.333005   -2.218268
     32          1           0       -3.864541   -2.370983   -1.030628
     33          1           0        4.104430   -1.969960    1.481396
     34          6           0       -0.318141    3.507971   -0.447834
     35          6           0       -1.681651    1.497758    0.785570
     36          6           0       -2.900115    0.710111    1.061121
     37          6           0       -4.151442   -0.919423    2.480849
     38          6           0       -2.954072   -0.116537    2.100710
     39          8           0       -0.627872    1.342026    1.373262
     40         16           0       -1.930209    2.714670   -0.452074
     41          1           0       -0.406622    4.389972   -1.077522
     42          1           0        0.440769    2.842301   -0.851868
     43          1           0       -4.544911   -0.579970    3.442078
     44          1           0       -4.939299   -0.838245    1.732726
     45          1           0       -3.888508   -1.971892    2.607744
     46          1           0       -2.065186   -0.205925    2.719571
     47          1           0       -3.743545    0.847899    0.392854
     48          1           0       -0.047110    3.800333    0.564263
 ---------------------------------------------------------------------
 Rotational constants (GHZ):           0.3252916           0.1601375           0.1375252
 Leave Link  202 at Sat Aug 13 20:22:13 2022, MaxMem=  2684354560 cpu:               0.2 elap:               0.0
 (Enter /storage/apps/GAUSSIAN/G16_RevA03/g16/l301.exe)
 Standard basis: def2TZVP (5D, 7F)
 Ernie: Thresh=  0.10000D-02 Tol=  0.10000D-05 Strict=F.
 There are  1014 symmetry adapted cartesian basis functions of A   symmetry.
 There are   894 symmetry adapted basis functions of A   symmetry.
   894 basis functions,  1434 primitive gaussians,  1014 cartesian basis functions
    95 alpha electrons       95 beta electrons
       nuclear repulsion energy      2471.4372233098 Hartrees.
 IExCor= 4336 DFT=T Ex+Corr=M062X ExCW=0 ScaHFX=  0.540000
 ScaDFX=  1.000000  1.000000  1.000000  1.000000 ScalE2=  1.000000  1.000000
 IRadAn=      5 IRanWt=     -1 IRanGd=            0 ICorTp=0 IEmpDi=131
 NAtoms=   48 NActive=   48 NUniq=   48 SFac= 1.00D+00 NAtFMM=   60 NAOKFM=F Big=F
 Integral buffers will be    131072 words long.
 Raffenetti 2 integral format.
 Two-electron integral symmetry is turned on.
 R6Disp:  Grimme-D3 Dispersion energy=       -0.0043450953 Hartrees.
 Nuclear repulsion after empirical dispersion term =     2471.4328782146 Hartrees.
 Leave Link  301 at Sat Aug 13 20:22:13 2022, MaxMem=  2684354560 cpu:               0.9 elap:               0.1
 (Enter /storage/apps/GAUSSIAN/G16_RevA03/g16/l302.exe)
 NPDir=0 NMtPBC=     1 NCelOv=     1 NCel=       1 NClECP=     1 NCelD=      1
         NCelK=      1 NCelE2=     1 NClLst=     1 CellRange=     0.0.
 One-electron integrals computed using PRISM.
 One-electron integral symmetry used in STVInt
   1 Symmetry operations used in ECPInt.
 ECPInt:  NShTT=   65703 NPrTT=  200010 LenC2=   56724 LenP2D=  120450.
 LDataN:  DoStor=T MaxTD1= 6 Len=  172
 NBasis=   894 RedAO= T EigKep=  3.16D-05  NBF=   894
 NBsUse=   894 1.00D-06 EigRej= -1.00D+00 NBFU=   894
 Precomputing XC quadrature grid using
 IXCGrd= 4 IRadAn=           5 IRanWt=          -1 IRanGd=           0 AccXCQ= 0.00D+00.
 Generated NRdTot=       0 NPtTot=           0 NUsed=           0 NTot=          32
 NSgBfM=   998   998   998   998   998 MxSgAt=    48 MxSgA2=    48.
 Leave Link  302 at Sat Aug 13 20:22:14 2022, MaxMem=  2684354560 cpu:              18.7 elap:               1.2
 (Enter /storage/apps/GAUSSIAN/G16_RevA03/g16/l303.exe)
 DipDrv:  MaxL=1.
 Leave Link  303 at Sat Aug 13 20:22:14 2022, MaxMem=  2684354560 cpu:               2.0 elap:               0.2
 (Enter /storage/apps/GAUSSIAN/G16_RevA03/g16/l401.exe)
 ExpMin= 9.52D-02 ExpMax= 6.07D+04 ExpMxC= 2.07D+03 IAcc=3 IRadAn=         5 AccDes= 0.00D+00
 Harris functional with IExCor= 1009 and IRadAn=       5 diagonalized for initial guess.
 HarFok:  IExCor= 1009 AccDes= 0.00D+00 IRadAn=         5 IDoV= 1 UseB2=F ITyADJ=14
 ICtDFT=  3500011 ScaDFX=  1.000000  1.000000  1.000000  1.000000
 FoFCou: FMM=F IPFlag=           0 FMFlag=      100000 FMFlg1=           0
         NFxFlg=           0 DoJE=T BraDBF=F KetDBF=T FulRan=T
         wScrn=  0.000000 ICntrl=       500 IOpCl=  0 I1Cent=   200000004 NGrid=           0
         NMat0=    1 NMatS0=      1 NMatT0=    0 NMatD0=    1 NMtDS0=    0 NMtDT0=    0
 Petite list used in FoFCou.
 Harris En= -1507.25824521386    
 JPrj=0 DoOrth=F DoCkMO=F.
 Leave Link  401 at Sat Aug 13 20:22:18 2022, MaxMem=  2684354560 cpu:              59.4 elap:               3.7
 (Enter /storage/apps/GAUSSIAN/G16_RevA03/g16/l502.exe)
 Integral symmetry usage will be decided dynamically.
 Closed shell SCF:
 Using DIIS extrapolation, IDIIS=  1040.
 NGot=  2684354560 LenX=  2682272944 LenY=  2681243734
 Requested convergence on RMS density matrix=1.00D-08 within 128 cycles.
 Requested convergence on MAX density matrix=1.00D-06.
 Requested convergence on             energy=1.00D-06.
 No special actions if energy rises.
 Fock matrices will be formed incrementally for  20 cycles.
 Integral accuracy reduced to 1.0D-05 until final iterations.

 Cycle   1  Pass 0  IDiag  1:
 FoFJK:  IHMeth= 1 ICntrl=       0 DoSepK=F KAlg= 0 I1Cent=           0 FoldK=F
 IRaf= 790000000 NMat=       1 IRICut=       1 DoRegI=T DoRafI=F ISym2E= 0 IDoP0=0 IntGTp=1.
 FoFCou: FMM=F IPFlag=           0 FMFlag=      100000 FMFlg1=           0
         NFxFlg=           0 DoJE=F BraDBF=F KetDBF=F FulRan=T
         wScrn=  0.000000 ICntrl=         0 IOpCl=  0 I1Cent=           0 NGrid=           0
         NMat0=    1 NMatS0=      1 NMatT0=    0 NMatD0=    1 NMtDS0=    0 NMtDT0=    0
 Symmetry not used in FoFCou.
 E= -1507.18902762518    
 DIIS: error= 1.44D-02 at cycle   1 NSaved=   1.
 NSaved= 1 IEnMin= 1 EnMin= -1507.18902762518     IErMin= 1 ErrMin= 1.44D-02
 ErrMax= 1.44D-02  0.00D+00 EMaxC= 1.00D-01 BMatC= 1.00D+00 BMatP= 1.00D+00
 IDIUse=3 WtCom= 8.56D-01 WtEn= 1.44D-01
 Coeff-Com:  0.100D+01
 Coeff-En:   0.100D+01
 Coeff:      0.100D+01
 Gap=     0.308 Goal=   None    Shift=    0.000
 GapD=    0.308 DampG=1.000 DampE=0.500 DampFc=0.5000 IDamp=-1.
 Damping current iteration by 5.00D-01
 RMSDP=4.42D-03 MaxDP=1.73D+00              OVMax= 2.67D-01

 Cycle   2  Pass 0  IDiag  1:
 RMSU=  2.21D-03    CP:  1.02D+00
 E= -1507.53407151635     Delta-E=       -0.345043891172 Rises=F Damp=T
 DIIS: error= 3.57D-03 at cycle   2 NSaved=   2.
 NSaved= 2 IEnMin= 2 EnMin= -1507.53407151635     IErMin= 2 ErrMin= 3.57D-03
 ErrMax= 3.57D-03  0.00D+00 EMaxC= 1.00D-01 BMatC= 8.62D-02 BMatP= 1.00D+00
 IDIUse=3 WtCom= 9.64D-01 WtEn= 3.57D-02
 Coeff-Com: -0.171D-01 0.102D+01
 Coeff-En:   0.142D-01 0.986D+00
 Coeff:     -0.159D-01 0.102D+01
 Gap=     0.307 Goal=   None    Shift=    0.000
 RMSDP=1.30D-03 MaxDP=4.88D-01 DE=-3.45D-01 OVMax= 1.71D-01

 Cycle   3  Pass 0  IDiag  1:
 RMSU=  1.03D-03    CP:  1.00D+00  6.46D-01
 E= -1507.89278660608     Delta-E=       -0.358715089723 Rises=F Damp=F
 DIIS: error= 5.49D-03 at cycle   3 NSaved=   3.
 NSaved= 3 IEnMin= 3 EnMin= -1507.89278660608     IErMin= 2 ErrMin= 3.57D-03
 ErrMax= 5.49D-03  0.00D+00 EMaxC= 1.00D-01 BMatC= 5.09D-02 BMatP= 8.62D-02
 IDIUse=3 WtCom= 9.45D-01 WtEn= 5.49D-02
 Coeff-Com: -0.836D-01 0.457D+00 0.627D+00
 Coeff-En:   0.000D+00 0.000D+00 0.100D+01
 Coeff:     -0.790D-01 0.432D+00 0.647D+00
 Gap=     0.213 Goal=   None    Shift=    0.000
 RMSDP=3.65D-04 MaxDP=6.54D-02 DE=-3.59D-01 OVMax= 6.86D-02

 Cycle   4  Pass 0  IDiag  1:
 RMSU=  3.05D-04    CP:  1.01D+00  7.26D-01  9.15D-01
 E= -1507.92505881324     Delta-E=       -0.032272207162 Rises=F Damp=F
 DIIS: error= 2.04D-03 at cycle   4 NSaved=   4.
 NSaved= 4 IEnMin= 4 EnMin= -1507.92505881324     IErMin= 4 ErrMin= 2.04D-03
 ErrMax= 2.04D-03  0.00D+00 EMaxC= 1.00D-01 BMatC= 1.08D-02 BMatP= 5.09D-02
 IDIUse=3 WtCom= 9.80D-01 WtEn= 2.04D-02
 Coeff-Com: -0.358D-01 0.967D-01 0.353D+00 0.586D+00
 Coeff-En:   0.000D+00 0.000D+00 0.151D+00 0.849D+00
 Coeff:     -0.351D-01 0.947D-01 0.349D+00 0.592D+00
 Gap=     0.212 Goal=   None    Shift=    0.000
 RMSDP=1.26D-04 MaxDP=1.56D-02 DE=-3.23D-02 OVMax= 1.83D-02

 Cycle   5  Pass 0  IDiag  1:
 RMSU=  7.96D-05    CP:  1.01D+00  7.11D-01  9.43D-01  7.18D-01
 E= -1507.93305381678     Delta-E=       -0.007995003545 Rises=F Damp=F
 DIIS: error= 3.95D-04 at cycle   5 NSaved=   5.
 NSaved= 5 IEnMin= 5 EnMin= -1507.93305381678     IErMin= 5 ErrMin= 3.95D-04
 ErrMax= 3.95D-04  0.00D+00 EMaxC= 1.00D-01 BMatC= 3.92D-04 BMatP= 1.08D-02
 IDIUse=3 WtCom= 9.96D-01 WtEn= 3.95D-03
 Coeff-Com: -0.987D-02 0.168D-01 0.122D+00 0.261D+00 0.611D+00
 Coeff-En:   0.000D+00 0.000D+00 0.000D+00 0.000D+00 0.100D+01
 Coeff:     -0.983D-02 0.168D-01 0.121D+00 0.260D+00 0.613D+00
 Gap=     0.212 Goal=   None    Shift=    0.000
 RMSDP=4.92D-05 MaxDP=1.75D-02 DE=-8.00D-03 OVMax= 3.89D-03

 Cycle   6  Pass 0  IDiag  1:
 RMSU=  3.14D-05    CP:  1.00D+00  6.96D-01  9.55D-01  7.35D-01  8.88D-01
 E= -1507.93336617510     Delta-E=       -0.000312358316 Rises=F Damp=F
 DIIS: error= 1.78D-04 at cycle   6 NSaved=   6.
 NSaved= 6 IEnMin= 6 EnMin= -1507.93336617510     IErMin= 6 ErrMin= 1.78D-04
 ErrMax= 1.78D-04  0.00D+00 EMaxC= 1.00D-01 BMatC= 5.13D-05 BMatP= 3.92D-04
 IDIUse=3 WtCom= 9.98D-01 WtEn= 1.78D-03
 Coeff-Com:  0.324D-03-0.448D-02 0.126D-01 0.413D-01 0.274D+00 0.676D+00
 Coeff-En:   0.000D+00 0.000D+00 0.000D+00 0.000D+00 0.000D+00 0.100D+01
 Coeff:      0.323D-03-0.447D-02 0.125D-01 0.413D-01 0.273D+00 0.677D+00
 Gap=     0.213 Goal=   None    Shift=    0.000
 RMSDP=1.85D-05 MaxDP=2.86D-03 DE=-3.12D-04 OVMax= 3.20D-03

 Cycle   7  Pass 0  IDiag  1:
 RMSU=  1.60D-05    CP:  1.00D+00  6.93D-01  9.60D-01  7.39D-01  9.55D-01
                    CP:  1.02D+00
 E= -1507.93342655325     Delta-E=       -0.000060378154 Rises=F Damp=F
 DIIS: error= 6.36D-05 at cycle   7 NSaved=   7.
 NSaved= 7 IEnMin= 7 EnMin= -1507.93342655325     IErMin= 7 ErrMin= 6.36D-05
 ErrMax= 6.36D-05  0.00D+00 EMaxC= 1.00D-01 BMatC= 8.75D-06 BMatP= 5.13D-05
 IDIUse=1 WtCom= 1.00D+00 WtEn= 0.00D+00
 Coeff-Com:  0.179D-02-0.484D-02-0.122D-01-0.246D-01 0.120D-01 0.288D+00
 Coeff-Com:  0.740D+00
 Coeff:      0.179D-02-0.484D-02-0.122D-01-0.246D-01 0.120D-01 0.288D+00
 Coeff:      0.740D+00
 Gap=     0.213 Goal=   None    Shift=    0.000
 RMSDP=1.73D-05 MaxDP=5.93D-03 DE=-6.04D-05 OVMax= 2.06D-03

 Cycle   8  Pass 0  IDiag  1:
 RMSU=  9.90D-06    CP:  1.00D+00  6.88D-01  9.61D-01  7.44D-01  1.01D+00
                    CP:  1.22D+00  1.26D+00
 E= -1507.93343439831     Delta-E=       -0.000007845059 Rises=F Damp=F
 DIIS: error= 3.12D-05 at cycle   8 NSaved=   8.
 NSaved= 8 IEnMin= 8 EnMin= -1507.93343439831     IErMin= 8 ErrMin= 3.12D-05
 ErrMax= 3.12D-05  0.00D+00 EMaxC= 1.00D-01 BMatC= 1.95D-06 BMatP= 8.75D-06
 IDIUse=1 WtCom= 1.00D+00 WtEn= 0.00D+00
 Coeff-Com:  0.894D-03-0.162D-02-0.805D-02-0.218D-01-0.471D-01 0.872D-02
 Coeff-Com:  0.358D+00 0.711D+00
 Coeff:      0.894D-03-0.162D-02-0.805D-02-0.218D-01-0.471D-01 0.872D-02
 Coeff:      0.358D+00 0.711D+00
 Gap=     0.213 Goal=   None    Shift=    0.000
 RMSDP=1.45D-05 MaxDP=1.91D-03 DE=-7.85D-06 OVMax= 7.06D-04

 Cycle   9  Pass 0  IDiag  1:
 RMSU=  8.72D-06    CP:  1.00D+00  6.86D-01  9.60D-01  7.43D-01  1.04D+00
                    CP:  1.33D+00  1.63D+00  1.79D+00
 E= -1507.93342381861     Delta-E=        0.000010579698 Rises=F Damp=F
 DIIS: error= 2.22D-05 at cycle   9 NSaved=   9.
 NSaved= 9 IEnMin= 8 EnMin= -1507.93343439831     IErMin= 9 ErrMin= 2.22D-05
 ErrMax= 2.22D-05  0.00D+00 EMaxC= 1.00D-01 BMatC= 3.43D-07 BMatP= 1.95D-06
 IDIUse=1 WtCom= 1.00D+00 WtEn= 0.00D+00
 Coeff-Com:  0.213D-03-0.258D-03-0.190D-02-0.720D-02-0.203D-01-0.249D-01
 Coeff-Com:  0.821D-01 0.309D+00 0.663D+00
 Coeff:      0.213D-03-0.258D-03-0.190D-02-0.720D-02-0.203D-01-0.249D-01
 Coeff:      0.821D-01 0.309D+00 0.663D+00
 Gap=     0.213 Goal=   None    Shift=    0.000
 RMSDP=1.71D-05 MaxDP=1.60D-03 DE= 1.06D-05 OVMax= 2.32D-04

 Cycle  10  Pass 0  IDiag  1:
 RMSU=  6.07D-06    CP:  1.00D+00  6.85D-01  9.59D-01  7.42D-01  1.07D+00
                    CP:  1.40D+00  1.97D+00  2.74D+00  2.28D+00
 E= -1507.93340882698     Delta-E=        0.000014991632 Rises=F Damp=F
 DIIS: error= 3.55D-05 at cycle  10 NSaved=  10.
 NSaved=10 IEnMin= 8 EnMin= -1507.93343439831     IErMin= 9 ErrMin= 2.22D-05
 ErrMax= 3.55D-05  0.00D+00 EMaxC= 1.00D-01 BMatC= 5.05D-07 BMatP= 3.43D-07
 IDIUse=1 WtCom= 1.00D+00 WtEn= 0.00D+00
 Coeff-Com:  0.231D-03-0.248D-03-0.213D-02-0.827D-02-0.241D-01-0.325D-01
 Coeff-Com:  0.896D-01 0.369D+00 0.854D+00-0.245D+00
 Coeff:      0.231D-03-0.248D-03-0.213D-02-0.827D-02-0.241D-01-0.325D-01
 Coeff:      0.896D-01 0.369D+00 0.854D+00-0.245D+00
 Gap=     0.213 Goal=   None    Shift=    0.000
 RMSDP=9.23D-06 MaxDP=1.11D-03 DE= 1.50D-05 OVMax= 2.25D-05

 Cycle  11  Pass 0  IDiag  1:
 RMSU=  1.75D-06    CP:  1.00D+00  6.86D-01  9.59D-01  7.42D-01  1.05D+00
                    CP:  1.37D+00  1.83D+00  2.32D+00  1.54D+00  3.40D-01
 E= -1507.93341096221     Delta-E=       -0.000002135230 Rises=F Damp=F
 DIIS: error= 2.82D-05 at cycle  11 NSaved=  11.
 NSaved=11 IEnMin= 8 EnMin= -1507.93343439831     IErMin= 9 ErrMin= 2.22D-05
 ErrMax= 2.82D-05  0.00D+00 EMaxC= 1.00D-01 BMatC= 3.35D-07 BMatP= 3.43D-07
 IDIUse=1 WtCom= 1.00D+00 WtEn= 0.00D+00
 Coeff-Com: -0.519D-04 0.253D-03 0.571D-03-0.119D-02-0.851D-02-0.335D-01
 Coeff-Com: -0.236D-01 0.127D+00 0.806D+00-0.191D+01 0.204D+01
 Coeff:     -0.519D-04 0.253D-03 0.571D-03-0.119D-02-0.851D-02-0.335D-01
 Coeff:     -0.236D-01 0.127D+00 0.806D+00-0.191D+01 0.204D+01
 Gap=     0.213 Goal=   None    Shift=    0.000
 RMSDP=1.89D-05 MaxDP=2.06D-03 DE=-2.14D-06 OVMax= 1.11D-04

 Cycle  12  Pass 0  IDiag  1:
 RMSU=  7.09D-06    CP:  1.00D+00  6.84D-01  9.59D-01  7.40D-01  1.04D+00
                    CP:  1.35D+00  1.61D+00  1.75D+00  3.25D-01 -1.45D+00
                    CP:  3.00D+00
 E= -1507.93340849053     Delta-E=        0.000002471685 Rises=F Damp=F
 DIIS: error= 1.75D-05 at cycle  12 NSaved=  12.
 NSaved=12 IEnMin= 8 EnMin= -1507.93343439831     IErMin=12 ErrMin= 1.75D-05
 ErrMax= 1.75D-05  0.00D+00 EMaxC= 1.00D-01 BMatC= 1.03D-07 BMatP= 3.35D-07
 IDIUse=1 WtCom= 1.00D+00 WtEn= 0.00D+00
 Coeff-Com: -0.502D-04 0.192D-03 0.592D-03-0.273D-03-0.428D-02-0.218D-01
 Coeff-Com: -0.237D-01 0.620D-01 0.516D+00-0.134D+01 0.143D+01 0.388D+00
 Coeff:     -0.502D-04 0.192D-03 0.592D-03-0.273D-03-0.428D-02-0.218D-01
 Coeff:     -0.237D-01 0.620D-01 0.516D+00-0.134D+01 0.143D+01 0.388D+00
 Gap=     0.213 Goal=   None    Shift=    0.000
 RMSDP=6.08D-06 MaxDP=8.18D-04 DE= 2.47D-06 OVMax= 2.25D-05

 Initial convergence to 1.0D-05 achieved.  Increase integral accuracy.
 Cycle  13  Pass 1  IDiag  1:
 E= -1507.93343775855     Delta-E=       -0.000029268020 Rises=F Damp=F
 DIIS: error= 2.65D-04 at cycle   1 NSaved=   1.
 NSaved= 1 IEnMin= 1 EnMin= -1507.93343775855     IErMin= 1 ErrMin= 2.65D-04
 ErrMax= 2.65D-04  0.00D+00 EMaxC= 1.00D-01 BMatC= 8.58D-05 BMatP= 8.58D-05
 IDIUse=3 WtCom= 9.97D-01 WtEn= 2.65D-03
 Coeff-Com:  0.100D+01
 Coeff-En:   0.100D+01
 Coeff:      0.100D+01
 Gap=     0.213 Goal=   None    Shift=    0.000
 RMSDP=6.08D-06 MaxDP=8.18D-04 DE=-2.93D-05 OVMax= 1.00D-03

 Cycle  14  Pass 1  IDiag  1:
 RMSU=  3.99D-04    CP:  9.96D-01
 E= -1507.93349125331     Delta-E=       -0.000053494764 Rises=F Damp=F
 DIIS: error= 7.69D-06 at cycle   2 NSaved=   2.
 NSaved= 2 IEnMin= 2 EnMin= -1507.93349125331     IErMin= 2 ErrMin= 7.69D-06
 ErrMax= 7.69D-06  0.00D+00 EMaxC= 1.00D-01 BMatC= 6.74D-08 BMatP= 8.58D-05
 IDIUse=1 WtCom= 1.00D+00 WtEn= 0.00D+00
 Coeff-Com: -0.165D-01 0.102D+01
 Coeff:     -0.165D-01 0.102D+01
 Gap=     0.213 Goal=   None    Shift=    0.000
 RMSDP=1.47D-05 MaxDP=1.06D-03 DE=-5.35D-05 OVMax= 8.90D-05

 Cycle  15  Pass 1  IDiag  1:
 RMSU=  4.93D-06    CP:  9.96D-01  1.03D+00
 E= -1507.93349132328     Delta-E=       -0.000000069971 Rises=F Damp=F
 DIIS: error= 3.50D-06 at cycle   3 NSaved=   3.
 NSaved= 3 IEnMin= 3 EnMin= -1507.93349132328     IErMin= 3 ErrMin= 3.50D-06
 ErrMax= 3.50D-06  0.00D+00 EMaxC= 1.00D-01 BMatC= 3.02D-08 BMatP= 6.74D-08
 IDIUse=1 WtCom= 1.00D+00 WtEn= 0.00D+00
 Coeff-Com: -0.759D-02 0.443D+00 0.564D+00
 Coeff:     -0.759D-02 0.443D+00 0.564D+00
 Gap=     0.213 Goal=   None    Shift=    0.000
 RMSDP=4.33D-07 MaxDP=4.32D-05 DE=-7.00D-08 OVMax= 5.14D-05

 Cycle  16  Pass 1  IDiag  1:
 RMSU=  3.37D-07    CP:  9.96D-01  1.04D+00  1.03D+00
 E= -1507.93349134427     Delta-E=       -0.000000020988 Rises=F Damp=F
 DIIS: error= 1.53D-06 at cycle   4 NSaved=   4.
 NSaved= 4 IEnMin= 4 EnMin= -1507.93349134427     IErMin= 4 ErrMin= 1.53D-06
 ErrMax= 1.53D-06  0.00D+00 EMaxC= 1.00D-01 BMatC= 4.90D-09 BMatP= 3.02D-08
 IDIUse=1 WtCom= 1.00D+00 WtEn= 0.00D+00
 Coeff-Com: -0.140D-03-0.340D-02 0.274D+00 0.729D+00
 Coeff:     -0.140D-03-0.340D-02 0.274D+00 0.729D+00
 Gap=     0.213 Goal=   None    Shift=    0.000
 RMSDP=2.84D-07 MaxDP=2.24D-05 DE=-2.10D-08 OVMax= 1.79D-05

 Cycle  17  Pass 1  IDiag  1:
 RMSU=  1.39D-07    CP:  9.96D-01  1.04D+00  1.06D+00  9.56D-01
 E= -1507.93349134787     Delta-E=       -0.000000003596 Rises=F Damp=F
 DIIS: error= 5.89D-07 at cycle   5 NSaved=   5.
 NSaved= 5 IEnMin= 5 EnMin= -1507.93349134787     IErMin= 5 ErrMin= 5.89D-07
 ErrMax= 5.89D-07  0.00D+00 EMaxC= 1.00D-01 BMatC= 5.59D-10 BMatP= 4.90D-09
 IDIUse=1 WtCom= 1.00D+00 WtEn= 0.00D+00
 Coeff-Com:  0.442D-03-0.316D-01 0.103D+00 0.373D+00 0.556D+00
 Coeff:      0.442D-03-0.316D-01 0.103D+00 0.373D+00 0.556D+00
 Gap=     0.213 Goal=   None    Shift=    0.000
 RMSDP=5.01D-08 MaxDP=3.16D-06 DE=-3.60D-09 OVMax= 4.54D-06

 Cycle  18  Pass 1  IDiag  1:
 RMSU=  3.75D-08    CP:  9.96D-01  1.04D+00  1.06D+00  9.82D-01  1.03D+00
 E= -1507.93349134833     Delta-E=       -0.000000000462 Rises=F Damp=F
 DIIS: error= 1.17D-07 at cycle   6 NSaved=   6.
 NSaved= 6 IEnMin= 6 EnMin= -1507.93349134833     IErMin= 6 ErrMin= 1.17D-07
 ErrMax= 1.17D-07  0.00D+00 EMaxC= 1.00D-01 BMatC= 3.84D-11 BMatP= 5.59D-10
 IDIUse=1 WtCom= 1.00D+00 WtEn= 0.00D+00
 Coeff-Com:  0.203D-03-0.132D-01 0.164D-01 0.818D-01 0.239D+00 0.676D+00
 Coeff:      0.203D-03-0.132D-01 0.164D-01 0.818D-01 0.239D+00 0.676D+00
 Gap=     0.213 Goal=   None    Shift=    0.000
 RMSDP=1.27D-08 MaxDP=1.53D-06 DE=-4.62D-10 OVMax= 1.98D-06

 Cycle  19  Pass 1  IDiag  1:
 RMSU=  1.00D-08    CP:  9.96D-01  1.04D+00  1.06D+00  9.86D-01  1.08D+00
                    CP:  1.04D+00
 E= -1507.93349134836     Delta-E=       -0.000000000037 Rises=F Damp=F
 DIIS: error= 4.74D-08 at cycle   7 NSaved=   7.
 NSaved= 7 IEnMin= 7 EnMin= -1507.93349134836     IErMin= 7 ErrMin= 4.74D-08
 ErrMax= 4.74D-08  0.00D+00 EMaxC= 1.00D-01 BMatC= 5.36D-12 BMatP= 3.84D-11
 IDIUse=1 WtCom= 1.00D+00 WtEn= 0.00D+00
 Coeff-Com:  0.133D-04-0.324D-03-0.106D-01-0.307D-01 0.123D-01 0.291D+00
 Coeff-Com:  0.739D+00
 Coeff:      0.133D-04-0.324D-03-0.106D-01-0.307D-01 0.123D-01 0.291D+00
 Coeff:      0.739D+00
 Gap=     0.213 Goal=   None    Shift=    0.000
 RMSDP=8.40D-09 MaxDP=2.31D-06 DE=-3.68D-11 OVMax= 7.47D-07

 Cycle  20  Pass 1  IDiag  1:
 RMSU=  5.40D-09    CP:  9.96D-01  1.04D+00  1.06D+00  9.90D-01  1.12D+00
                    CP:  1.09D+00  1.00D+00
 E= -1507.93349134833     Delta-E=        0.000000000036 Rises=F Damp=F
 DIIS: error= 1.81D-08 at cycle   8 NSaved=   8.
 NSaved= 8 IEnMin= 7 EnMin= -1507.93349134836     IErMin= 8 ErrMin= 1.81D-08
 ErrMax= 1.81D-08  0.00D+00 EMaxC= 1.00D-01 BMatC= 6.85D-13 BMatP= 5.36D-12
 IDIUse=1 WtCom= 1.00D+00 WtEn= 0.00D+00
 Coeff-Com: -0.130D-04 0.110D-02-0.653D-02-0.223D-01-0.161D-01 0.620D-01
 Coeff-Com:  0.331D+00 0.650D+00
 Coeff:     -0.130D-04 0.110D-02-0.653D-02-0.223D-01-0.161D-01 0.620D-01
 Coeff:      0.331D+00 0.650D+00
 Gap=     0.213 Goal=   None    Shift=    0.000
 RMSDP=2.00D-09 MaxDP=1.22D-07 DE= 3.59D-11 OVMax= 4.28D-07

 SCF Done:  E(RM062X) =  -1507.93349135     A.U. after   20 cycles
            NFock= 20  Conv=0.20D-08     -V/T= 2.0037
 KE= 1.502330431977D+03 PE=-8.481457266648D+03 EE= 2.999760465108D+03
 Leave Link  502 at Sat Aug 13 20:30:50 2022, MaxMem=  2684354560 cpu:            8180.5 elap:             512.1
 (Enter /storage/apps/GAUSSIAN/G16_RevA03/g16/l601.exe)
 Copying SCF densities to generalized density rwf, IOpCl= 0 IROHF=0.

 **********************************************************************

            Population analysis using the SCF density.

 **********************************************************************

 Orbital symmetries:
       Occupied  (A) (A) (A) (A) (A) (A) (A) (A) (A) (A) (A) (A)
                 (A) (A) (A) (A) (A) (A) (A) (A) (A) (A) (A) (A)
                 (A) (A) (A) (A) (A) (A) (A) (A) (A) (A) (A) (A)
                 (A) (A) (A) (A) (A) (A) (A) (A) (A) (A) (A) (A)
                 (A) (A) (A) (A) (A) (A) (A) (A) (A) (A) (A) (A)
                 (A) (A) (A) (A) (A) (A) (A) (A) (A) (A) (A) (A)
                 (A) (A) (A) (A) (A) (A) (A) (A) (A) (A) (A) (A)
                 (A) (A) (A) (A) (A) (A) (A) (A) (A) (A) (A)
       Virtual   (A) (A) (A) (A) (A) (A) (A) (A) (A) (A) (A) (A)
                 (A) (A) (A) (A) (A) (A) (A) (A) (A) (A) (A) (A)
                 (A) (A) (A) (A) (A) (A) (A) (A) (A) (A) (A) (A)
                 (A) (A) (A) (A) (A) (A) (A) (A) (A) (A) (A) (A)
                 (A) (A) (A) (A) (A) (A) (A) (A) (A) (A) (A) (A)
                 (A) (A) (A) (A) (A) (A) (A) (A) (A) (A) (A) (A)
                 (A) (A) (A) (A) (A) (A) (A) (A) (A) (A) (A) (A)
                 (A) (A) (A) (A) (A) (A) (A) (A) (A) (A) (A) (A)
                 (A) (A) (A) (A) (A) (A) (A) (A) (A) (A) (A) (A)
                 (A) (A) (A) (A) (A) (A) (A) (A) (A) (A) (A) (A)
                 (A) (A) (A) (A) (A) (A) (A) (A) (A) (A) (A) (A)
                 (A) (A) (A) (A) (A) (A) (A) (A) (A) (A) (A) (A)
                 (A) (A) (A) (A) (A) (A) (A) (A) (A) (A) (A) (A)
                 (A) (A) (A) (A) (A) (A) (A) (A) (A) (A) (A) (A)
                 (A) (A) (A) (A) (A) (A) (A) (A) (A) (A) (A) (A)
                 (A) (A) (A) (A) (A) (A) (A) (A) (A) (A) (A) (A)
                 (A) (A) (A) (A) (A) (A) (A) (A) (A) (A) (A) (A)
                 (A) (A) (A) (A) (A) (A) (A) (A) (A) (A) (A) (A)
                 (A) (A) (A) (A) (A) (A) (A) (A) (A) (A) (A) (A)
                 (A) (A) (A) (A) (A) (A) (A) (A) (A) (A) (A) (A)
                 (A) (A) (A) (A) (A) (A) (A) (A) (A) (A) (A) (A)
                 (A) (A) (A) (A) (A) (A) (A) (A) (A) (A) (A) (A)
                 (A) (A) (A) (A) (A) (A) (A) (A) (A) (A) (A) (A)
                 (A) (A) (A) (A) (A) (A) (A) (A) (A) (A) (A) (A)
                 (A) (A) (A) (A) (A) (A) (A) (A) (A) (A) (A) (A)
                 (A) (A) (A) (A) (A) (A) (A) (A) (A) (A) (A) (A)
                 (A) (A) (A) (A) (A) (A) (A) (A) (A) (A) (A) (A)
                 (A) (A) (A) (A) (A) (A) (A) (A) (A) (A) (A) (A)
                 (A) (A) (A) (A) (A) (A) (A) (A) (A) (A) (A) (A)
                 (A) (A) (A) (A) (A) (A) (A) (A) (A) (A) (A) (A)
                 (A) (A) (A) (A) (A) (A) (A) (A) (A) (A) (A) (A)
                 (A) (A) (A) (A) (A) (A) (A) (A) (A) (A) (A) (A)
                 (A) (A) (A) (A) (A) (A) (A) (A) (A) (A) (A) (A)
                 (A) (A) (A) (A) (A) (A) (A) (A) (A) (A) (A) (A)
                 (A) (A) (A) (A) (A) (A) (A) (A) (A) (A) (A) (A)
                 (A) (A) (A) (A) (A) (A) (A) (A) (A) (A) (A) (A)
                 (A) (A) (A) (A) (A) (A) (A) (A) (A) (A) (A) (A)
                 (A) (A) (A) (A) (A) (A) (A) (A) (A) (A) (A) (A)
                 (A) (A) (A) (A) (A) (A) (A) (A) (A) (A) (A) (A)
                 (A) (A) (A) (A) (A) (A) (A) (A) (A) (A) (A) (A)
                 (A) (A) (A) (A) (A) (A) (A) (A) (A) (A) (A) (A)
                 (A) (A) (A) (A) (A) (A) (A) (A) (A) (A) (A) (A)
                 (A) (A) (A) (A) (A) (A) (A) (A) (A) (A) (A) (A)
                 (A) (A) (A) (A) (A) (A) (A) (A) (A) (A) (A) (A)
                 (A) (A) (A) (A) (A) (A) (A) (A) (A) (A) (A) (A)
                 (A) (A) (A) (A) (A) (A) (A) (A) (A) (A) (A) (A)
                 (A) (A) (A) (A) (A) (A) (A) (A) (A) (A) (A) (A)
                 (A) (A) (A) (A) (A) (A) (A) (A) (A) (A) (A) (A)
                 (A) (A) (A) (A) (A) (A) (A) (A) (A) (A) (A) (A)
                 (A) (A) (A) (A) (A) (A) (A) (A) (A) (A) (A) (A)
                 (A) (A) (A) (A) (A) (A) (A) (A) (A) (A) (A) (A)
                 (A) (A) (A) (A) (A) (A) (A) (A) (A) (A) (A) (A)
                 (A) (A) (A) (A) (A) (A) (A) (A) (A) (A) (A) (A)
                 (A) (A) (A) (A) (A) (A) (A) (A) (A) (A) (A) (A)
                 (A) (A) (A) (A) (A) (A) (A) (A) (A) (A) (A) (A)
                 (A) (A) (A) (A) (A) (A) (A) (A) (A) (A) (A) (A)
                 (A) (A) (A) (A) (A) (A) (A) (A) (A) (A) (A) (A)
                 (A) (A) (A) (A) (A) (A) (A) (A) (A) (A) (A) (A)
                 (A) (A) (A) (A) (A) (A) (A) (A) (A) (A) (A) (A)
                 (A) (A) (A) (A) (A) (A) (A) (A) (A) (A) (A) (A)
                 (A) (A) (A) (A) (A) (A) (A) (A) (A) (A) (A) (A)
                 (A) (A) (A) (A) (A) (A) (A) (A) (A) (A) (A) (A)
                 (A) (A) (A) (A) (A) (A) (A) (A) (A) (A) (A) (A)
                 (A) (A) (A) (A) (A) (A) (A) (A) (A) (A) (A) (A)
                 (A) (A) (A) (A) (A) (A) (A) (A) (A) (A) (A) (A)
                 (A) (A) (A) (A) (A) (A) (A) (A) (A) (A) (A) (A)
                 (A) (A) (A) (A) (A) (A) (A)
 The electronic state is 1-A.
 Alpha  occ. eigenvalues --  -89.91865 -19.63388 -19.63318 -19.62751 -19.62279
 Alpha  occ. eigenvalues --  -19.57727 -14.79006 -14.76085 -10.66048 -10.63440
 Alpha  occ. eigenvalues --  -10.62910 -10.59497 -10.59115 -10.59050 -10.58375
 Alpha  occ. eigenvalues --  -10.57600 -10.56838 -10.56776 -10.55317 -10.55247
 Alpha  occ. eigenvalues --  -10.55029 -10.53851 -10.53426 -10.53261  -8.27797
 Alpha  occ. eigenvalues --   -6.19734  -6.19498  -6.19305  -1.19249  -1.18684
 Alpha  occ. eigenvalues --   -1.15919  -1.14971  -1.13785  -1.08365  -1.00688
 Alpha  occ. eigenvalues --   -0.92626  -0.91828  -0.90083  -0.88524  -0.87517
 Alpha  occ. eigenvalues --   -0.85598  -0.82782  -0.78885  -0.76512  -0.75532
 Alpha  occ. eigenvalues --   -0.73462  -0.70779  -0.67673  -0.67291  -0.66366
 Alpha  occ. eigenvalues --   -0.63441  -0.63211  -0.61675  -0.60452  -0.58745
 Alpha  occ. eigenvalues --   -0.58122  -0.57037  -0.56545  -0.56014  -0.54975
 Alpha  occ. eigenvalues --   -0.53910  -0.52970  -0.52391  -0.51670  -0.51203
 Alpha  occ. eigenvalues --   -0.50588  -0.50388  -0.49932  -0.49279  -0.48872
 Alpha  occ. eigenvalues --   -0.48415  -0.48142  -0.47835  -0.47146  -0.46575
 Alpha  occ. eigenvalues --   -0.45908  -0.44740  -0.44279  -0.43840  -0.43658
 Alpha  occ. eigenvalues --   -0.43422  -0.43216  -0.41352  -0.41291  -0.37818
 Alpha  occ. eigenvalues --   -0.36184  -0.35643  -0.34409  -0.34351  -0.33777
 Alpha  occ. eigenvalues --   -0.33451  -0.32926  -0.32488  -0.30799  -0.24396
 Alpha virt. eigenvalues --   -0.03106   0.00304   0.04396   0.04725   0.06064
 Alpha virt. eigenvalues --    0.07187   0.07420   0.08078   0.08583   0.09152
 Alpha virt. eigenvalues --    0.09263   0.09593   0.10380   0.10798   0.11217
 Alpha virt. eigenvalues --    0.11726   0.12197   0.12581   0.12944   0.12995
 Alpha virt. eigenvalues --    0.13636   0.13881   0.13927   0.14162   0.14724
 Alpha virt. eigenvalues --    0.15305   0.16007   0.16295   0.17103   0.17287
 Alpha virt. eigenvalues --    0.17943   0.18285   0.18714   0.18945   0.19554
 Alpha virt. eigenvalues --    0.20335   0.20618   0.21218   0.21775   0.22396
 Alpha virt. eigenvalues --    0.22959   0.23308   0.23507   0.24266   0.24812
 Alpha virt. eigenvalues --    0.24975   0.25566   0.25804   0.26260   0.26919
 Alpha virt. eigenvalues --    0.27322   0.27562   0.28127   0.28816   0.28934
 Alpha virt. eigenvalues --    0.29335   0.30146   0.30181   0.30648   0.31103
 Alpha virt. eigenvalues --    0.31492   0.31911   0.32982   0.33309   0.33818
 Alpha virt. eigenvalues --    0.34215   0.35014   0.35251   0.35561   0.36111
 Alpha virt. eigenvalues --    0.36584   0.37062   0.37357   0.37720   0.38387
 Alpha virt. eigenvalues --    0.38455   0.39102   0.39950   0.40151   0.40220
 Alpha virt. eigenvalues --    0.40827   0.41096   0.41615   0.41892   0.42507
 Alpha virt. eigenvalues --    0.42640   0.42969   0.43594   0.43829   0.44096
 Alpha virt. eigenvalues --    0.44486   0.44864   0.45218   0.45459   0.45901
 Alpha virt. eigenvalues --    0.46604   0.46806   0.47287   0.47523   0.47651
 Alpha virt. eigenvalues --    0.47749   0.47993   0.48746   0.49186   0.49308
 Alpha virt. eigenvalues --    0.50128   0.50401   0.50698   0.50877   0.51326
 Alpha virt. eigenvalues --    0.51882   0.51955   0.52337   0.52519   0.52738
 Alpha virt. eigenvalues --    0.53150   0.53445   0.54308   0.54548   0.54996
 Alpha virt. eigenvalues --    0.55373   0.55574   0.56266   0.56934   0.57735
 Alpha virt. eigenvalues --    0.58018   0.58475   0.58633   0.59234   0.59979
 Alpha virt. eigenvalues --    0.60488   0.61254   0.61779   0.62158   0.62462
 Alpha virt. eigenvalues --    0.62927   0.63699   0.64684   0.65276   0.65658
 Alpha virt. eigenvalues --    0.65975   0.66087   0.66830   0.67581   0.67821
 Alpha virt. eigenvalues --    0.68492   0.68710   0.69373   0.70488   0.71198
 Alpha virt. eigenvalues --    0.71266   0.72545   0.72733   0.73594   0.74094
 Alpha virt. eigenvalues --    0.74561   0.74958   0.75330   0.76360   0.76419
 Alpha virt. eigenvalues --    0.76840   0.77798   0.79245   0.80489   0.81106
 Alpha virt. eigenvalues --    0.81434   0.81874   0.82419   0.83204   0.84071
 Alpha virt. eigenvalues --    0.84274   0.84866   0.85948   0.86644   0.87379
 Alpha virt. eigenvalues --    0.87606   0.88087   0.88540   0.89493   0.90040
 Alpha virt. eigenvalues --    0.91001   0.91274   0.91554   0.92485   0.92980
 Alpha virt. eigenvalues --    0.93352   0.93923   0.94974   0.95350   0.96025
 Alpha virt. eigenvalues --    0.96394   0.97247   0.98261   0.98591   0.99318
 Alpha virt. eigenvalues --    0.99838   1.00294   1.00887   1.01974   1.03026
 Alpha virt. eigenvalues --    1.03672   1.04588   1.05123   1.06042   1.06473
 Alpha virt. eigenvalues --    1.07181   1.07427   1.08759   1.09155   1.09743
 Alpha virt. eigenvalues --    1.10565   1.11408   1.11615   1.11810   1.12582
 Alpha virt. eigenvalues --    1.13220   1.13869   1.15125   1.15717   1.15927
 Alpha virt. eigenvalues --    1.16748   1.17940   1.18256   1.19024   1.20214
 Alpha virt. eigenvalues --    1.21085   1.21890   1.22811   1.22910   1.23354
 Alpha virt. eigenvalues --    1.25001   1.25591   1.26266   1.26857   1.28652
 Alpha virt. eigenvalues --    1.29276   1.30102   1.30539   1.31455   1.31642
 Alpha virt. eigenvalues --    1.32731   1.33942   1.34104   1.35413   1.36079
 Alpha virt. eigenvalues --    1.37346   1.37504   1.38198   1.38749   1.39481
 Alpha virt. eigenvalues --    1.40897   1.41767   1.42332   1.43412   1.44723
 Alpha virt. eigenvalues --    1.45707   1.46916   1.48008   1.48464   1.49681
 Alpha virt. eigenvalues --    1.50146   1.50949   1.51303   1.52120   1.52607
 Alpha virt. eigenvalues --    1.53359   1.53717   1.54722   1.54985   1.55153
 Alpha virt. eigenvalues --    1.55905   1.56473   1.57354   1.57916   1.58288
 Alpha virt. eigenvalues --    1.58678   1.59164   1.59917   1.60032   1.60181
 Alpha virt. eigenvalues --    1.60977   1.61248   1.61763   1.61962   1.62204
 Alpha virt. eigenvalues --    1.62945   1.63355   1.63768   1.64431   1.65480
 Alpha virt. eigenvalues --    1.65971   1.67147   1.67804   1.68376   1.68603
 Alpha virt. eigenvalues --    1.69064   1.69425   1.70091   1.70629   1.70765
 Alpha virt. eigenvalues --    1.71508   1.72643   1.73161   1.73783   1.73940
 Alpha virt. eigenvalues --    1.75235   1.75427   1.76060   1.76401   1.77500
 Alpha virt. eigenvalues --    1.78133   1.78375   1.79289   1.79555   1.80006
 Alpha virt. eigenvalues --    1.82182   1.82362   1.83639   1.84428   1.84621
 Alpha virt. eigenvalues --    1.84736   1.85593   1.86647   1.86913   1.87696
 Alpha virt. eigenvalues --    1.88491   1.88761   1.89662   1.91000   1.91611
 Alpha virt. eigenvalues --    1.92254   1.93413   1.93599   1.93833   1.95138
 Alpha virt. eigenvalues --    1.95591   1.96107   1.96841   1.97169   1.97879
 Alpha virt. eigenvalues --    1.98171   1.99397   2.00051   2.01510   2.01813
 Alpha virt. eigenvalues --    2.02629   2.03025   2.03508   2.04082   2.04915
 Alpha virt. eigenvalues --    2.05313   2.06120   2.06633   2.07900   2.08511
 Alpha virt. eigenvalues --    2.09725   2.09816   2.11164   2.12112   2.12902
 Alpha virt. eigenvalues --    2.13176   2.15088   2.15607   2.16574   2.16946
 Alpha virt. eigenvalues --    2.18091   2.19135   2.19777   2.20231   2.20633
 Alpha virt. eigenvalues --    2.20911   2.21613   2.22142   2.22631   2.23613
 Alpha virt. eigenvalues --    2.24094   2.24723   2.25440   2.26366   2.26983
 Alpha virt. eigenvalues --    2.28022   2.28792   2.29428   2.30272   2.31053
 Alpha virt. eigenvalues --    2.31232   2.31501   2.32355   2.32881   2.33931
 Alpha virt. eigenvalues --    2.34444   2.34721   2.35450   2.35977   2.36704
 Alpha virt. eigenvalues --    2.36869   2.37211   2.38367   2.38577   2.39427
 Alpha virt. eigenvalues --    2.40496   2.40615   2.40896   2.41817   2.43054
 Alpha virt. eigenvalues --    2.43534   2.44667   2.45116   2.45196   2.46564
 Alpha virt. eigenvalues --    2.47481   2.48561   2.49700   2.50329   2.50766
 Alpha virt. eigenvalues --    2.52355   2.52804   2.53360   2.55040   2.55185
 Alpha virt. eigenvalues --    2.55686   2.56940   2.57873   2.58433   2.58881
 Alpha virt. eigenvalues --    2.59167   2.59713   2.60565   2.61792   2.62228
 Alpha virt. eigenvalues --    2.62640   2.63336   2.63842   2.64403   2.64572
 Alpha virt. eigenvalues --    2.65336   2.66012   2.66263   2.67339   2.67767
 Alpha virt. eigenvalues --    2.67876   2.68281   2.69313   2.70634   2.71236
 Alpha virt. eigenvalues --    2.71890   2.72338   2.72624   2.73215   2.74030
 Alpha virt. eigenvalues --    2.75157   2.75882   2.76597   2.77096   2.78468
 Alpha virt. eigenvalues --    2.79871   2.80235   2.81014   2.82015   2.82600
 Alpha virt. eigenvalues --    2.83257   2.83773   2.84048   2.85432   2.86082
 Alpha virt. eigenvalues --    2.86358   2.87667   2.88479   2.88806   2.90191
 Alpha virt. eigenvalues --    2.90547   2.90917   2.91751   2.92178   2.92402
 Alpha virt. eigenvalues --    2.92915   2.94438   2.94937   2.95801   2.97115
 Alpha virt. eigenvalues --    2.97981   2.98253   2.98787   3.00089   3.00510
 Alpha virt. eigenvalues --    3.01424   3.02353   3.02924   3.03299   3.03983
 Alpha virt. eigenvalues --    3.05268   3.05407   3.06054   3.06419   3.06995
 Alpha virt. eigenvalues --    3.08119   3.08523   3.08696   3.09127   3.09591
 Alpha virt. eigenvalues --    3.10118   3.10882   3.11675   3.12252   3.12700
 Alpha virt. eigenvalues --    3.13029   3.13635   3.14282   3.14405   3.14933
 Alpha virt. eigenvalues --    3.15816   3.15975   3.16521   3.17629   3.17944
 Alpha virt. eigenvalues --    3.18442   3.18965   3.19161   3.19894   3.20795
 Alpha virt. eigenvalues --    3.21095   3.21520   3.22843   3.23796   3.24260
 Alpha virt. eigenvalues --    3.24508   3.25306   3.25672   3.26631   3.26917
 Alpha virt. eigenvalues --    3.27760   3.29028   3.29749   3.30239   3.30512
 Alpha virt. eigenvalues --    3.31492   3.32208   3.32596   3.33776   3.34251
 Alpha virt. eigenvalues --    3.34679   3.35180   3.35685   3.35890   3.36490
 Alpha virt. eigenvalues --    3.37519   3.38014   3.38126   3.38724   3.39085
 Alpha virt. eigenvalues --    3.40133   3.40723   3.41237   3.41808   3.42402
 Alpha virt. eigenvalues --    3.42662   3.43978   3.45012   3.45071   3.46170
 Alpha virt. eigenvalues --    3.46647   3.46931   3.47550   3.49503   3.49710
 Alpha virt. eigenvalues --    3.50191   3.50466   3.52120   3.52681   3.53495
 Alpha virt. eigenvalues --    3.54208   3.55302   3.55759   3.56306   3.56747
 Alpha virt. eigenvalues --    3.58302   3.58952   3.59512   3.59846   3.60590
 Alpha virt. eigenvalues --    3.61850   3.62832   3.63261   3.64273   3.65459
 Alpha virt. eigenvalues --    3.66241   3.66293   3.66930   3.68108   3.68202
 Alpha virt. eigenvalues --    3.69427   3.69964   3.71666   3.73039   3.73833
 Alpha virt. eigenvalues --    3.74838   3.75232   3.76709   3.77420   3.78086
 Alpha virt. eigenvalues --    3.79280   3.80264   3.81434   3.81874   3.82189
 Alpha virt. eigenvalues --    3.84640   3.84942   3.86661   3.86950   3.88528
 Alpha virt. eigenvalues --    3.89726   3.90791   3.92006   3.93649   3.94461
 Alpha virt. eigenvalues --    3.95252   3.96511   3.97608   3.98541   4.00284
 Alpha virt. eigenvalues --    4.01489   4.02194   4.03183   4.04994   4.05958
 Alpha virt. eigenvalues --    4.07947   4.09890   4.11180   4.12846   4.13476
 Alpha virt. eigenvalues --    4.14346   4.15746   4.16427   4.18097   4.18447
 Alpha virt. eigenvalues --    4.19220   4.20034   4.21057   4.21954   4.24245
 Alpha virt. eigenvalues --    4.25665   4.26962   4.29086   4.30588   4.33011
 Alpha virt. eigenvalues --    4.34118   4.35563   4.37098   4.38298   4.38561
 Alpha virt. eigenvalues --    4.39942   4.40423   4.41195   4.41967   4.43273
 Alpha virt. eigenvalues --    4.44285   4.47225   4.47349   4.49470   4.50985
 Alpha virt. eigenvalues --    4.52487   4.52841   4.53665   4.56397   4.59094
 Alpha virt. eigenvalues --    4.62418   4.64951   4.65425   4.66851   4.68159
 Alpha virt. eigenvalues --    4.69375   4.69856   4.72046   4.73527   4.74205
 Alpha virt. eigenvalues --    4.75708   4.76372   4.79275   4.82450   4.84403
 Alpha virt. eigenvalues --    4.86229   4.87757   4.89981   4.90636   4.92658
 Alpha virt. eigenvalues --    4.93269   4.94645   4.97525   4.99293   5.00570
 Alpha virt. eigenvalues --    5.02943   5.04451   5.05096   5.06879   5.08462
 Alpha virt. eigenvalues --    5.13313   5.13957   5.14537   5.19918   5.21204
 Alpha virt. eigenvalues --    5.21874   5.24007   5.24622   5.25772   5.28852
 Alpha virt. eigenvalues --    5.29970   5.30909   5.31116   5.34384   5.38870
 Alpha virt. eigenvalues --    5.40306   5.41887   5.44346   5.47295   5.49272
 Alpha virt. eigenvalues --    5.49974   5.51060   5.53602   5.55388   5.56115
 Alpha virt. eigenvalues --    5.64350   5.68584   5.75944   5.77139   5.79534
 Alpha virt. eigenvalues --    5.79913   5.81775   5.82396   5.83841   5.88445
 Alpha virt. eigenvalues --    5.89587   5.91437   5.93964   5.96325   5.97277
 Alpha virt. eigenvalues --    5.99587   6.05891   6.07134   6.15919   6.18583
 Alpha virt. eigenvalues --    6.21798   6.25633   6.28499   6.29549   6.38264
 Alpha virt. eigenvalues --    6.38932   6.43328   6.44301   6.48385   6.53789
 Alpha virt. eigenvalues --    6.56459   6.62286   6.72119   6.76164   6.77239
 Alpha virt. eigenvalues --    6.77524   6.82640   6.84186   6.85580   6.86758
 Alpha virt. eigenvalues --    6.87037   6.98010   7.00447   7.04101   7.08880
 Alpha virt. eigenvalues --    7.11178   7.13189   7.14616   7.18066   7.22788
 Alpha virt. eigenvalues --    7.30777   7.35597   9.02776   9.39842   9.55178
 Alpha virt. eigenvalues --   19.98719  22.33785  22.46223  22.48688  22.51622
 Alpha virt. eigenvalues --   22.57810  22.66394  22.74459  22.77048  22.84819
 Alpha virt. eigenvalues --   22.91739  23.00716  23.01922  23.08587  23.09793
 Alpha virt. eigenvalues --   23.28101  23.49873  32.18170  33.23782  44.16637
[...]
 (Enter /storage/apps/GAUSSIAN/G16_RevA03/g16/l716.exe)
 Dipole        =-9.03266057D-01-8.16349133D-01 1.59430464D+00
 ***** Axes restored to original set *****
 -------------------------------------------------------------------
 Center     Atomic                   Forces (Hartrees/Bohr)
 Number     Number              X              Y              Z
 -------------------------------------------------------------------
      1        6           0.000269215   -0.000031221    0.000037791
      2        1           0.000021687   -0.000004690    0.000000698
      3        1           0.000013432   -0.000008583    0.000004045
      4        6           0.000015464   -0.000069089   -0.000071430
      5        1          -0.000003629   -0.000023586    0.000011037
      6        8          -0.000070616   -0.000084760   -0.000159638
      7        1          -0.000045007   -0.000011049   -0.000005003
      8        6           0.000019223    0.000008726   -0.000002350
      9        1          -0.000009392    0.000006574    0.000016511
     10        8          -0.000034626    0.000097266   -0.000024710
     11        1          -0.000016000   -0.000011006    0.000021941
     12        6           0.000082049   -0.000078345   -0.000087295
     13        1           0.000020210   -0.000006663   -0.000028519
     14        6           0.000103134    0.000033829    0.000018013
     15        1          -0.000006027    0.000012229   -0.000007824
     16        8           0.000058551   -0.000162622   -0.000071661
     17        7           0.000046775   -0.000029822   -0.000075036
     18        6           0.000065025   -0.000068222   -0.000105329
     19        1          -0.000010839    0.000016197   -0.000032478
     20        6           0.000071600   -0.000005569   -0.000133184
     21        1           0.000009817    0.000023352    0.000011421
     22        6           0.000115737   -0.000000379    0.000088297
     23        1           0.000021122   -0.000007825   -0.000088977
     24        1           0.000009922   -0.000025772   -0.000042097
     25        6           0.000074730    0.000055193    0.000051760
     26        6           0.000012531   -0.000027453    0.000059457
     27        1           0.000001831    0.000010491    0.000011523
     28        6           0.000306699    0.000689426    0.000643363
     29        8          -0.000585960   -0.000774064    0.000493704
     30        7           0.000369265   -0.000034657   -0.000310717
     31        1          -0.000003028    0.000045789   -0.000037827
     32        1           0.000059324    0.000106212   -0.000112783
     33        1          -0.000014678   -0.000001021    0.000013403
     34        6           0.000024896    0.000068040   -0.000312124
     35        6          -0.000126832    0.000049326    0.000097958
     36        6          -0.000120222    0.000036961    0.000056410
     37        6          -0.000118726    0.000127906    0.000151237
     38        6          -0.000274022    0.000001887    0.000213243
     39        8          -0.000330256   -0.000009740    0.000307799
     40       16          -0.000025029    0.000134160   -0.000628770
     41        1           0.000035331    0.000053908   -0.000026830
     42        1           0.000009250   -0.000015671   -0.000057052
     43        1          -0.000065248    0.000008886    0.000054873
     44        1          -0.000008678   -0.000055625    0.000022700
     45        1          -0.000011358   -0.000003497    0.000016568
     46        1           0.000042191    0.000003856    0.000019019
     47        1           0.000011919   -0.000021232    0.000008636
     48        1          -0.000010758   -0.000018050   -0.000009771
 -------------------------------------------------------------------
 Cartesian Forces:  Max     0.000774064 RMS     0.000160517
 Leave Link  716 at Sat Aug 13 20:34:00 2022, MaxMem=  2684354560 cpu:               0.4 elap:               0.0
 (Enter /storage/apps/GAUSSIAN/G16_RevA03/g16/l103.exe)

 GradGradGradGradGradGradGradGradGradGradGradGradGradGradGradGradGradGrad
 Berny optimization.
 Search for a local minimum.
 Step number   1 out of a maximum of    2
 All quantities printed in internal units (Hartrees-Bohrs-Radians)
 Second derivative matrix not updated -- first step.
 ITU=  0
     Eigenvalues ---    0.00039   0.00092   0.00104   0.00126   0.00187
     Eigenvalues ---    0.00235   0.00307   0.00393   0.00419   0.00457
     Eigenvalues ---    0.00523   0.00728   0.00839   0.00908   0.00937
     Eigenvalues ---    0.00995   0.01084   0.01176   0.01381   0.01527
     Eigenvalues ---    0.01697   0.01884   0.02358   0.02498   0.02633
     Eigenvalues ---    0.02945   0.03211   0.03355   0.03759   0.03893
     Eigenvalues ---    0.04367   0.04630   0.04917   0.05080   0.05239
     Eigenvalues ---    0.05322   0.05546   0.05736   0.05834   0.05894
     Eigenvalues ---    0.06074   0.06176   0.06313   0.06394   0.06665
     Eigenvalues ---    0.06949   0.07348   0.07634   0.07821   0.08085
     Eigenvalues ---    0.08475   0.08778   0.09016   0.09658   0.10295
     Eigenvalues ---    0.10525   0.11557   0.12120   0.12206   0.12504
     Eigenvalues ---    0.12953   0.13124   0.13214   0.13552   0.13658
     Eigenvalues ---    0.14026   0.14083   0.15376   0.15987   0.16577
     Eigenvalues ---    0.16947   0.18175   0.18893   0.19638   0.19858
     Eigenvalues ---    0.19939   0.20383   0.21717   0.21852   0.22216
     Eigenvalues ---    0.24221   0.26827   0.27404   0.27696   0.31864
     Eigenvalues ---    0.32974   0.34216   0.34747   0.35356   0.37097
     Eigenvalues ---    0.38072   0.38072   0.38072   0.38072   0.40174
     Eigenvalues ---    0.43161   0.45153   0.48064   0.56605   0.56743
     Eigenvalues ---    0.61585   0.66422   0.69455   0.70060   0.74180
     Eigenvalues ---    0.79013   0.82502   0.87513   0.89174   0.91156
     Eigenvalues ---    0.91308   0.91975   0.93892   0.94473   0.94904
     Eigenvalues ---    0.95561   0.97140   0.99586   1.01438   1.02977
     Eigenvalues ---    1.05445   1.06775   1.09653   1.11388   1.14072
     Eigenvalues ---    1.19495   1.19973   1.24687   1.26005   1.29950
     Eigenvalues ---    1.33963   1.42406   1.51668   1.63667   1.70024
     Eigenvalues ---    1.79460   2.17850   2.26629
 Quadratic step=1.211D+00 exceeds max=3.000D-01 adjusted using Lamda=-1.725D-03.
 Angle between NR and scaled steps=  25.57 degrees.
 Angle between quadratic step and forces=  59.01 degrees.
 Linear search not attempted -- first point.
 Variable       Old X    -DE/DX   Delta X   Delta X   Delta X     New X
                                 (Linear)    (Quad)   (Total)
    X1        6.93173   0.00027   0.00000   0.00505   0.00505   6.93677
    Y1       -6.85648  -0.00003   0.00000  -0.01067  -0.01067  -6.86716
    Z1       -0.83380   0.00004   0.00000   0.02345   0.02345  -0.81035
    X2        7.24673   0.00002   0.00000   0.00570   0.00570   7.25243
    Y2       -7.05002  -0.00000   0.00000  -0.02844  -0.02844  -7.07846
    Z2       -2.85856   0.00000   0.00000   0.02550   0.02550  -2.83306
    X3        8.30269   0.00001   0.00000   0.00139   0.00139   8.30408
    Y3       -8.02653  -0.00001   0.00000  -0.00449  -0.00449  -8.03102
    Z3        0.16573   0.00000   0.00000   0.03562   0.03562   0.20135
    X4        3.61674   0.00002   0.00000   0.00101   0.00101   3.61774
    Y4       -2.77769  -0.00007   0.00000  -0.00015  -0.00015  -2.77784
    Z4        2.27413  -0.00007   0.00000  -0.01267  -0.01267   2.26146
    X5        2.41729  -0.00000   0.00000   0.00613   0.00613   2.42342
    Y5       -4.44509  -0.00002   0.00000  -0.00504  -0.00504  -4.45013
    Z5        2.01038   0.00001   0.00000  -0.00669  -0.00669   2.00369
    X6        2.81867  -0.00007   0.00000  -0.00893  -0.00893   2.80974
    Y6       -1.33478  -0.00008   0.00000   0.00727   0.00727  -1.32751
    Z6        4.33615  -0.00016   0.00000  -0.02195  -0.02195   4.31420
    X7        1.04445  -0.00005   0.00000  -0.01108  -0.01108   1.03337
    Y7       -0.88788  -0.00001   0.00000  -0.00197  -0.00197  -0.88985
    Z7        4.11775  -0.00001   0.00000  -0.02525  -0.02525   4.09250
    X8        6.35969   0.00002   0.00000   0.00277   0.00277   6.36247
    Y8       -3.57609   0.00001   0.00000   0.01300   0.01300  -3.56309
    Z8        2.63877  -0.00000   0.00000  -0.00294  -0.00294   2.63583
    X9        6.54138  -0.00001   0.00000   0.00534   0.00534   6.54672
    Y9       -5.24340   0.00001   0.00000   0.02280   0.02280  -5.22060
    Z9        3.84904   0.00002   0.00000   0.01055   0.01055   3.85959
   X10        7.77214  -0.00003   0.00000  -0.00663  -0.00663   7.76550
   Y10       -1.53722   0.00010   0.00000   0.02621   0.02621  -1.51101
   Z10        3.60574  -0.00002   0.00000  -0.01672  -0.01672   3.58902
   X11        6.74015  -0.00002   0.00000  -0.01104  -0.01104   6.72911
   Y11       -0.73365  -0.00001   0.00000   0.02779   0.02779  -0.70586
   Z11        4.87933   0.00002   0.00000  -0.02096  -0.02096   4.85837
   X12        3.78125   0.00008   0.00000   0.00501   0.00501   3.78626
   Y12       -1.29973  -0.00008   0.00000  -0.00970  -0.00970  -1.30943
   Z12       -0.22022  -0.00009   0.00000  -0.01701  -0.01701  -0.23723
   X13        4.35170   0.00002   0.00000   0.00450   0.00450   4.35620
   Y13        0.64580  -0.00001   0.00000  -0.00909  -0.00909   0.63672
   Z13        0.19190  -0.00003   0.00000  -0.01952  -0.01952   0.17238
   X14        7.20508   0.00010   0.00000   0.00597   0.00597   7.21105
   Y14       -4.11002   0.00003   0.00000  -0.00468  -0.00468  -4.11470
   Z14       -0.06548   0.00002   0.00000   0.00155   0.00155  -0.06393
   X15        9.15478  -0.00001   0.00000   0.00595   0.00595   9.16073
   Y15       -3.47803   0.00001   0.00000  -0.00628  -0.00628  -3.48431
   Z15       -0.29514  -0.00001   0.00000   0.00015   0.00015  -0.29499
   X16        5.63231   0.00006   0.00000   0.00671   0.00671   5.63902
   Y16       -2.57142  -0.00016   0.00000  -0.01546  -0.01546  -2.58688
   Z16       -1.65306  -0.00007   0.00000  -0.01046  -0.01046  -1.66353
   X17        1.46541   0.00005   0.00000   0.00421   0.00421   1.46962
   Y17       -1.17088  -0.00003   0.00000  -0.00851  -0.00851  -1.17939
   Z17       -1.64318  -0.00008   0.00000  -0.01463  -0.01463  -1.65781
   X18        0.35708   0.00007   0.00000   0.00700   0.00700   0.36408
   Y18       -3.39181  -0.00007   0.00000  -0.00507  -0.00507  -3.39688
   Z18       -2.52849  -0.00011   0.00000  -0.02681  -0.02681  -2.55530
   X19        1.38297  -0.00001   0.00000   0.00749   0.00749   1.39046
   Y19       -5.10074   0.00002   0.00000  -0.00672  -0.00672  -5.10746
   Z19       -2.08509  -0.00003   0.00000  -0.03473  -0.03473  -2.11982
   X20       -1.75440   0.00007   0.00000   0.00618   0.00618  -1.74822
   Y20       -3.41641  -0.00001   0.00000   0.00037   0.00037  -3.41603
   Z20       -3.88646  -0.00013   0.00000  -0.02563  -0.02563  -3.91209
   X21       -2.47589   0.00001   0.00000   0.00582   0.00582  -2.47007
   Y21       -5.21894   0.00002   0.00000   0.00287   0.00287  -5.21607
   Z21       -4.52491   0.00001   0.00000  -0.03230  -0.03230  -4.55720
   X22       -3.15451   0.00012   0.00000   0.00213   0.00213  -3.15239
   Y22       -1.05311  -0.00000   0.00000   0.00283   0.00283  -1.05028
   Z22       -4.60853   0.00009   0.00000  -0.01015  -0.01015  -4.61868
   X23       -3.36345   0.00002   0.00000   0.00470   0.00470  -3.35875
   Y23       -0.97498  -0.00001   0.00000   0.01905   0.01905  -0.95593
   Z23       -6.67306  -0.00009   0.00000  -0.00988  -0.00988  -6.68294
   X24       -5.08645   0.00001   0.00000   0.00083   0.00083  -5.08562
   Y24       -1.11041  -0.00003   0.00000  -0.01039  -0.01039  -1.12080
   Z24       -3.85070  -0.00004   0.00000  -0.01383  -0.01383  -3.86454
   X25       -1.77453   0.00007   0.00000  -0.00847  -0.00847  -1.78299
   Y25        1.24856   0.00006   0.00000  -0.00132  -0.00132   1.24724
   Z25       -3.64293   0.00005   0.00000   0.01592   0.01592  -3.62701
   X26        0.36892   0.00001   0.00000  -0.00576  -0.00576   0.36316
   Y26        1.06952  -0.00003   0.00000  -0.00669  -0.00669   1.06283
   Z26       -2.29068   0.00006   0.00000   0.00998   0.00998  -2.28069
   X27        1.29086   0.00000   0.00000  -0.01309  -0.01309   1.27777
   Y27        2.77639   0.00001   0.00000  -0.00956  -0.00956   2.76683
   Z27       -1.63342   0.00001   0.00000   0.02751   0.02751  -1.60591
   X28       -2.76548   0.00031   0.00000  -0.02327  -0.02327  -2.78876
   Y28        3.81793   0.00069   0.00000  -0.00038  -0.00038   3.81755
   Z28       -4.08796   0.00064   0.00000   0.05578   0.05578  -4.03217
   X29       -1.69913  -0.00059   0.00000  -0.06437  -0.06437  -1.76351
   Y29        5.74895  -0.00077   0.00000  -0.00793  -0.00793   5.74102
   Z29       -3.42826   0.00049   0.00000   0.14150   0.14150  -3.28676
   X30       -5.09214   0.00037   0.00000   0.01005   0.01005  -5.08209
   Y30        3.91592  -0.00003   0.00000   0.00535   0.00535   3.92128
   Z30       -5.23639  -0.00031   0.00000  -0.01130  -0.01130  -5.24769
   X31       -5.67237  -0.00000   0.00000   0.00802   0.00802  -5.66435
   Y31        5.64004   0.00005   0.00000   0.01351   0.01351   5.65354
   Z31       -5.79327  -0.00004   0.00000   0.01583   0.01583  -5.77744
   X32       -5.79918   0.00006   0.00000   0.05196   0.05196  -5.74722
   Y32        2.40820   0.00011   0.00000   0.02188   0.02188   2.43008
   Z32       -6.14713  -0.00011   0.00000  -0.07120  -0.07120  -6.21833
   X33        5.04002  -0.00001   0.00000   0.00333   0.00333   5.04335
   Y33       -7.56112  -0.00000   0.00000  -0.00431  -0.00431  -7.56544
   Z33       -0.40156   0.00001   0.00000   0.02828   0.02828  -0.37328
   X34        0.43398   0.00002   0.00000   0.00093   0.00093   0.43490
   Y34        4.20029   0.00007   0.00000   0.00070   0.00070   4.20099
   Z34        5.14383  -0.00031   0.00000  -0.00850  -0.00850   5.13532
   X35       -3.26438  -0.00013   0.00000  -0.00088  -0.00088  -3.26526
   Y35        1.74688   0.00005   0.00000  -0.00104  -0.00104   1.74584
   Z35        2.53513   0.00010   0.00000   0.00560   0.00560   2.54073
   X36       -5.64591  -0.00012   0.00000   0.00831   0.00831  -5.63760
   Y36        1.66376   0.00004   0.00000  -0.00205  -0.00205   1.66172
   Z36        1.08262   0.00006   0.00000  -0.00892  -0.00892   1.07371
   X37       -9.27037  -0.00012   0.00000   0.00248   0.00248  -9.26789
   Y37       -0.77635   0.00013   0.00000   0.00137   0.00137  -0.77498
   Z37       -0.70098   0.00015   0.00000  -0.00133  -0.00133  -0.70230
   X38       -6.82472  -0.00027   0.00000  -0.00768  -0.00768  -6.83241
   Y38       -0.51639   0.00000   0.00000   0.00182   0.00182  -0.51457
   Z38        0.67347   0.00021   0.00000   0.01645   0.01645   0.68992
   X39       -2.09990  -0.00033   0.00000  -0.04639  -0.04639  -2.14629
   Y39       -0.12413  -0.00001   0.00000  -0.00295  -0.00295  -0.12707
   Z39        3.18997   0.00031   0.00000   0.08108   0.08108   3.27105
   X40       -2.33726  -0.00003   0.00000   0.05851   0.05851  -2.27875
   Y40        4.83747   0.00013   0.00000   0.00508   0.00508   4.84255
   Z40        3.28856  -0.00063   0.00000  -0.09344  -0.09344   3.19513
   X41        1.01032   0.00004   0.00000  -0.00366  -0.00366   1.00666
   Y41        5.99310   0.00005   0.00000   0.00431   0.00431   5.99741
   Z41        5.96577  -0.00003   0.00000  -0.01291  -0.01291   5.95286
   X42        1.94537   0.00001   0.00000   0.02542   0.02542   1.97078
   Y42        3.45779  -0.00002   0.00000  -0.03028  -0.03028   3.42751
   Z42        3.96634  -0.00006   0.00000   0.04287   0.04287   4.00921
   X43      -10.74711  -0.00007   0.00000  -0.01211  -0.01211 -10.75922
   Y43       -1.43121   0.00001   0.00000   0.01962   0.01962  -1.41160
   Z43        0.58521   0.00005   0.00000  -0.00873  -0.00873   0.57649
   X44       -9.86237  -0.00001   0.00000   0.01847   0.01847  -9.84390
   Y44        1.01333  -0.00006   0.00000  -0.00363  -0.00363   1.00970
   Z44       -1.52887   0.00002   0.00000  -0.02319  -0.02319  -1.55206
   X45       -9.12463  -0.00001   0.00000   0.00909   0.00909  -9.11554
   Y45       -2.19265  -0.00000   0.00000  -0.01246  -0.01246  -2.20510
   Z45       -2.19526   0.00002   0.00000   0.01220   0.01220  -2.18307
   X46       -5.94909   0.00004   0.00000  -0.02468  -0.02468  -5.97378
   Y46       -2.22360   0.00000   0.00000   0.00491   0.00491  -2.21869
   Z46        1.40592   0.00002   0.00000   0.04428   0.04428   1.45021
   X47       -6.39360   0.00001   0.00000   0.03057   0.03057  -6.36304
   Y47        3.44623  -0.00002   0.00000  -0.00644  -0.00644   3.43979
   Z47        0.39947   0.00001   0.00000  -0.04425  -0.04425   0.35522
   X48       -0.00584  -0.00001   0.00000  -0.05435  -0.05435  -0.06019
   Y48        2.85476  -0.00002   0.00000   0.02320   0.02320   2.87796
   Z48        6.63435  -0.00001   0.00000  -0.00377  -0.00377   6.63058
         Item               Value     Threshold  Converged?
 Maximum Force            0.000774     0.000450     NO 
 RMS     Force            0.000161     0.000300     YES
 Maximum Displacement     0.141504     0.001800     NO 
 RMS     Displacement     0.025013     0.001200     NO 
 Predicted change in Energy=-2.265705D-04
 GradGradGradGradGradGradGradGradGradGradGradGradGradGradGradGradGradGrad

 Leave Link  103 at Sat Aug 13 20:34:00 2022, MaxMem=  2684354560 cpu:               0.9 elap:               0.1
 (Enter /storage/apps/GAUSSIAN/G16_RevA03/g16/l9999.exe)

 Test job not archived.
 1\1\GINC-T059\Force\RM062X\def2TZVP\C16H24N2O5S1\LV87696\13-Aug-2022\0
 \\#P M062X/Def2TZVP scf=(direct,conver=8) EmpiricalDispersion=GD3 Forc
 e Charge Prop=(Field,Read)\\Gaussian run\\0,1\C,3.668112,-3.628294,-0.
 441229\H,3.834807,-3.730711,-1.512687\H,4.393596,-4.247458,0.087698\C,
 1.913895,-1.469888,1.20342\H,1.279174,-2.352239,1.063849\O,1.491575,-0
 .706337,2.294592\H,0.552699,-0.469846,2.179021\C,3.365405,-1.892384,1.
 396377\H,3.46155,-2.774689,2.036825\O,4.112838,-0.813463,1.908078\H,3.
 566733,-0.388229,2.582031\C,2.000953,-0.687787,-0.116535\H,2.302821,0.
 341743,0.101551\C,3.812764,-2.174931,-0.03465\H,4.844501,-1.840493,-0.
 156182\O,2.980491,-1.360738,-0.874764\N,0.775461,-0.619602,-0.869532\C
 ,0.188956,-1.794867,-1.338018\H,0.731834,-2.699197,-1.10338\C,-0.92838
 8,-1.807884,-2.056625\H,-1.310182,-2.761744,-2.394477\C,-1.669297,-0.5
 57283,-2.438729\H,-1.779862,-0.515937,-3.531231\H,-2.691631,-0.587604,
 -2.037705\C,-0.93904,0.660707,-1.927755\C,0.195224,0.565963,-1.212175\
 H,0.683095,1.469203,-0.86437\C,-1.463431,2.020364,-2.163253\O,-0.89914
 3,3.042214,-1.814159\N,-2.694644,2.072218,-2.77098\H,-3.00169,2.984578
 ,-3.065667\H,-3.068793,1.274365,-3.252921\H,2.667064,-4.001175,-0.2124
 94\C,0.22965,2.222696,2.721996\C,-1.727433,0.924408,1.341534\C,-2.9876
 85,0.880426,0.572899\C,-4.905668,-0.410829,-0.37094\C,-3.611488,-0.273
 262,0.356385\O,-1.11122,-0.065685,1.688062\S,-1.236827,2.559879,1.7402
 32\H,0.534637,3.171412,3.156947\H,1.029443,1.829783,2.098896\H,-5.6871
 25,-0.757366,0.309681\H,-5.21894,0.536231,-0.809043\H,-4.828547,-1.160
 299,-1.161683\H,-3.148125,-1.176677,0.743983\H,-3.38335,1.823666,0.211
 391\H,-0.003089,1.510673,3.510747\\Version=ES64L-G16RevA.03\State=1-A\
 HF=-1507.9334913\RMSD=2.000e-09\RMSF=1.605e-04\Dipole=-1.6313534,-1.16
 32184,-0.0986504\Quadrupole=3.9853425,-3.0353089,-0.9500337,-2.0760083
 ,8.1508499,5.0133471\PG=C01 [X(C16H24N2O5S1)]\\@


 TELEVISION IS CALLED A MEDIUM BECAUSE IT ISN'T
 RARE, AND IT ISN'T WELL DONE.
 Job cpu time:       0 days  3 hours  8 minutes 18.6 seconds.
 Elapsed time:       0 days  0 hours 11 minutes 47.6 seconds.
 File lengths (MBytes):  RWF=    435 Int=      0 D2E=      0 Chk=     48 Scr=      1
 Normal termination of Gaussian 16 at Sat Aug 13 20:34:00 2022.
