 Entering Gaussian System, Link 0=g16
 Initial command:
 /storage/apps/GAUSSIAN/G16_RevA03/g16/l1.exe "/scratch/tmp/1019354/Gau-170831.inp" -scrdir="/scratch/tmp/1019354/"
 Entering Link 1 = /storage/apps/GAUSSIAN/G16_RevA03/g16/l1.exe PID=    170833.
  
 Copyright (c) 1988,1990,1992,1993,1995,1998,2003,2009,2016,
            Gaussian, Inc.  All Rights Reserved.
  
 This is part of the Gaussian(R) 16 program.  It is based on
 the Gaussian(R) 09 system (copyright 2009, Gaussian, Inc.),
 the Gaussian(R) 03 system (copyright 2003, Gaussian, Inc.),
 the Gaussian(R) 98 system (copyright 1998, Gaussian, Inc.),
 the Gaussian(R) 94 system (copyright 1995, Gaussian, Inc.),
 the Gaussian 92(TM) system (copyright 1992, Gaussian, Inc.),
 the Gaussian 90(TM) system (copyright 1990, Gaussian, Inc.),
 the Gaussian 88(TM) system (copyright 1988, Gaussian, Inc.),
 the Gaussian 86(TM) system (copyright 1986, Carnegie Mellon
 University), and the Gaussian 82(TM) system (copyright 1983,
 Carnegie Mellon University). Gaussian is a federally registered
 trademark of Gaussian, Inc.
  
 This software contains proprietary and confidential information,
 including trade secrets, belonging to Gaussian, Inc.
  
 This software is provided under written license and may be
 used, copied, transmitted, or stored only in accord with that
 written license.
  
 The following legend is applicable only to US Government
 contracts under FAR:
  
                    RESTRICTED RIGHTS LEGEND
  
 Use, reproduction and disclosure by the US Government is
 subject to restrictions as set forth in subparagraphs (a)
 and (c) of the Commercial Computer Software - Restricted
 Rights clause in FAR 52.227-19.
  
 Gaussian, Inc.
 340 Quinnipiac St., Bldg. 40, Wallingford CT 06492
  
  
 ---------------------------------------------------------------
 Warning -- This program may not be used in any manner that
 competes with the business of Gaussian, Inc. or will provide
 assistance to any competitor of Gaussian, Inc.  The licensee
 of this program is prohibited from giving any competitor of
 Gaussian, Inc. access to this program.  By using this program,
 the user acknowledges that Gaussian, Inc. is engaged in the
 business of creating and licensing software in the field of
 computational chemistry and represents and warrants to the
 licensee that it is not a competitor of Gaussian, Inc. and that
 it will not use this program in any manner prohibited above.
 ---------------------------------------------------------------
  

 Cite this work as:
 Gaussian 16, Revision A.03,
 M. J. Frisch, G. W. Trucks, H. B. Schlegel, G. E. Scuseria, 
 M. A. Robb, J. R. Cheeseman, G. Scalmani, V. Barone, 
 G. A. Petersson, H. Nakatsuji, X. Li, M. Caricato, A. V. Marenich, 
 J. Bloino, B. G. Janesko, R. Gomperts, B. Mennucci, H. P. Hratchian, 
 J. V. Ortiz, A. F. Izmaylov, J. L. Sonnenberg, D. Williams-Young, 
 F. Ding, F. Lipparini, F. Egidi, J. Goings, B. Peng, A. Petrone, 
 T. Henderson, D. Ranasinghe, V. G. Zakrzewski, J. Gao, N. Rega, 
 G. Zheng, W. Liang, M. Hada, M. Ehara, K. Toyota, R. Fukuda, 
 J. Hasegawa, M. Ishida, T. Nakajima, Y. Honda, O. Kitao, H. Nakai, 
 T. Vreven, K. Throssell, J. A. Montgomery, Jr., J. E. Peralta, 
 F. Ogliaro, M. J. Bearpark, J. J. Heyd, E. N. Brothers, K. N. Kudin, 
 V. N. Staroverov, T. A. Keith, R. Kobayashi, J. Normand, 
 K. Raghavachari, A. P. Rendell, J. C. Burant, S. S. Iyengar, 
 J. Tomasi, M. Cossi, J. M. Millam, M. Klene, C. Adamo, R. Cammi, 
 J. W. Ochterski, R. L. Martin, K. Morokuma, O. Farkas, 
 J. B. Foresman, and D. J. Fox, Gaussian, Inc., Wallingford CT, 2016.
 
 ******************************************
 Gaussian 16:  ES64L-G16RevA.03 25-Dec-2016
                13-Aug-2022 
 ******************************************
 %NProcShared=16
 Will use up to   16 processors via shared memory.
 %mem=20GB
 ----------------------------------------------------------------------
 #P M062X/Def2TZVP scf=(direct,conver=8) EmpiricalDispersion=GD3 Force 
 Charge Prop=(Field,Read)
 ----------------------------------------------------------------------
 1/10=7,18=10,28=-2,30=1,38=1,125=101/1,3;
 2/12=2,17=6,18=5,29=2,40=1/2;
 3/5=44,7=101,11=2,25=1,30=1,71=1,74=-55,124=31/1,2,3;
 4//1;
 5/5=2,6=8,38=5/2;
 6/7=2,8=2,9=2,10=2,14=2,15=1,28=1/1,2;
 7/7=1,16=-2,29=1/1,2,3,16;
 1/10=7,18=10,28=-2,30=1/3;
 99/12=1/99;
 Leave Link    1 at Sat Aug 13 20:46:17 2022, MaxMem=  2684354560 cpu:               0.7 elap:               0.1
 (Enter /storage/apps/GAUSSIAN/G16_RevA03/g16/l101.exe)
 ------------
 Gaussian run
 ------------
 Symbolic Z-matrix:
 Charge =  0 Multiplicity = 1
 C                     3.58837  -3.61805  -0.42373 
 H                     3.74606  -3.70914  -1.4978 
 H                     4.31741  -4.24603   0.08879 
 C                     1.84456  -1.43715   1.25002 
 H                     1.19454  -2.30754   1.08445 
 O                     1.44001  -0.67746   2.32772 
 H                     0.50218  -0.3589    2.14456 
 C                     3.29816  -1.88557   1.42944 
 H                     3.37565  -2.76813   2.07169 
 O                     4.0546   -0.81431   1.93534 
 H                     3.49945  -0.37185   2.59346 
 C                     1.97901  -0.65726  -0.06989 
 H                     2.2565    0.3797    0.13361 
 C                     3.74958  -2.17457   0.00387 
 H                     4.78125  -1.84469  -0.12048 
 O                     2.92735  -1.33012  -0.83436 
 N                     0.73969  -0.60145  -0.87981 
 C                     0.2687   -1.75092  -1.41189 
 H                     0.84755  -2.63749  -1.2063 
 C                    -0.84726  -1.73586  -2.20209 
 H                    -1.20463  -2.65963  -2.63243 
 C                    -1.48993  -0.52653  -2.4531 
 H                    -2.34121  -0.4911   -3.12023 
 H                    -3.00083  -0.84655  -0.85866 
 C                    -1.00151   0.64052  -1.87861 
 C                     0.13517   0.5636   -1.09234 
 H                     0.55498   1.45144  -0.63631 
 C                    -1.54045   2.0117   -2.156 
 O                    -0.8298    2.98311  -2.05888 
 N                    -2.82786   2.04997  -2.61691 
 H                    -3.20931   2.9818   -2.68749 
 H                    -3.46302   1.35635  -2.25102 
 H                     2.5909   -3.99361  -0.18305 
 C                     0.18279   2.19345   2.85128 
 C                    -1.66156   0.88638   1.20894 
 C                    -2.83143   0.83367   0.49895 
 C                    -4.95665  -0.31764  -0.19385 
 C                    -3.4577   -0.44803   0.06224 
 O                    -0.88202  -0.08582   1.45702 
 S                    -1.19865   2.55335   1.75541 
 H                     0.41031   3.12443   3.36737 
 H                     1.06405   1.86482   2.30548 
 H                    -5.48342  -0.02586   0.71604 
 H                    -5.16557   0.45296  -0.94257 
 H                    -5.3845   -1.2515   -0.5553 
 H                    -3.26419  -1.22469   0.80851 
 H                    -3.40371   1.74928   0.39664 
 H                    -0.09317   1.43576   3.58193 
 
 ITRead=  0  0  0  0  0  0  0  0  0  0  0  0  0  0  0  0  0  0  0  0
 ITRead=  0  0  0  0  0  0  0  0  0  0  0  0  0  0  0  0  0  0  0  0
 ITRead=  0  0  0  0  0  0  0  0
 MicOpt= -1 -1 -1 -1 -1 -1 -1 -1 -1 -1 -1 -1 -1 -1 -1 -1 -1 -1 -1 -1
 MicOpt= -1 -1 -1 -1 -1 -1 -1 -1 -1 -1 -1 -1 -1 -1 -1 -1 -1 -1 -1 -1
 MicOpt= -1 -1 -1 -1 -1 -1 -1 -1
 NAtoms=     48 NQM=       48 NQMF=       0 NMMI=      0 NMMIF=      0
                NMic=       0 NMicF=      0.
                    Isotopes and Nuclear Properties:
 (Nuclear quadrupole moments (NQMom) in fm**2, nuclear magnetic moments (NMagM)
  in nuclear magnetons)

  Atom         1           2           3           4           5           6           7           8           9          10
 IAtWgt=          12           1           1          12           1          16           1          12           1          16
 AtmWgt=  12.0000000   1.0078250   1.0078250  12.0000000   1.0078250  15.9949146   1.0078250  12.0000000   1.0078250  15.9949146
 NucSpn=           0           1           1           0           1           0           1           0           1           0
 AtZEff=  -0.0000000  -0.0000000  -0.0000000  -0.0000000  -0.0000000  -0.0000000  -0.0000000  -0.0000000  -0.0000000  -0.0000000
 NQMom=    0.0000000   0.0000000   0.0000000   0.0000000   0.0000000   0.0000000   0.0000000   0.0000000   0.0000000   0.0000000
 NMagM=    0.0000000   2.7928460   2.7928460   0.0000000   2.7928460   0.0000000   2.7928460   0.0000000   2.7928460   0.0000000
 AtZNuc=   6.0000000   1.0000000   1.0000000   6.0000000   1.0000000   8.0000000   1.0000000   6.0000000   1.0000000   8.0000000

  Atom        11          12          13          14          15          16          17          18          19          20
 IAtWgt=           1          12           1          12           1          16          14          12           1          12
 AtmWgt=   1.0078250  12.0000000   1.0078250  12.0000000   1.0078250  15.9949146  14.0030740  12.0000000   1.0078250  12.0000000
 NucSpn=           1           0           1           0           1           0           2           0           1           0
 AtZEff=  -0.0000000  -0.0000000  -0.0000000  -0.0000000  -0.0000000  -0.0000000  -0.0000000  -0.0000000  -0.0000000  -0.0000000
 NQMom=    0.0000000   0.0000000   0.0000000   0.0000000   0.0000000   0.0000000   2.0440000   0.0000000   0.0000000   0.0000000
 NMagM=    2.7928460   0.0000000   2.7928460   0.0000000   2.7928460   0.0000000   0.4037610   0.0000000   2.7928460   0.0000000
 AtZNuc=   1.0000000   6.0000000   1.0000000   6.0000000   1.0000000   8.0000000   7.0000000   6.0000000   1.0000000   6.0000000

  Atom        21          22          23          24          25          26          27          28          29          30
 IAtWgt=           1          12           1           1          12          12           1          12          16          14
 AtmWgt=   1.0078250  12.0000000   1.0078250   1.0078250  12.0000000  12.0000000   1.0078250  12.0000000  15.9949146  14.0030740
 NucSpn=           1           0           1           1           0           0           1           0           0           2
 AtZEff=  -0.0000000  -0.0000000  -0.0000000  -0.0000000  -0.0000000  -0.0000000  -0.0000000  -0.0000000  -0.0000000  -0.0000000
 NQMom=    0.0000000   0.0000000   0.0000000   0.0000000   0.0000000   0.0000000   0.0000000   0.0000000   0.0000000   2.0440000
 NMagM=    2.7928460   0.0000000   2.7928460   2.7928460   0.0000000   0.0000000   2.7928460   0.0000000   0.0000000   0.4037610
 AtZNuc=   1.0000000   6.0000000   1.0000000   1.0000000   6.0000000   6.0000000   1.0000000   6.0000000   8.0000000   7.0000000

  Atom        31          32          33          34          35          36          37          38          39          40
 IAtWgt=           1           1           1          12          12          12          12          12          16          32
 AtmWgt=   1.0078250   1.0078250   1.0078250  12.0000000  12.0000000  12.0000000  12.0000000  12.0000000  15.9949146  31.9720718
 NucSpn=           1           1           1           0           0           0           0           0           0           0
 AtZEff=  -0.0000000  -0.0000000  -0.0000000  -0.0000000  -0.0000000  -0.0000000  -0.0000000  -0.0000000  -0.0000000  -0.0000000
 NQMom=    0.0000000   0.0000000   0.0000000   0.0000000   0.0000000   0.0000000   0.0000000   0.0000000   0.0000000   0.0000000
 NMagM=    2.7928460   2.7928460   2.7928460   0.0000000   0.0000000   0.0000000   0.0000000   0.0000000   0.0000000   0.0000000
 AtZNuc=   1.0000000   1.0000000   1.0000000   6.0000000   6.0000000   6.0000000   6.0000000   6.0000000   8.0000000  16.0000000

  Atom        41          42          43          44          45          46          47          48
 IAtWgt=           1           1           1           1           1           1           1           1
 AtmWgt=   1.0078250   1.0078250   1.0078250   1.0078250   1.0078250   1.0078250   1.0078250   1.0078250
 NucSpn=           1           1           1           1           1           1           1           1
 AtZEff=  -0.0000000  -0.0000000  -0.0000000  -0.0000000  -0.0000000  -0.0000000  -0.0000000  -0.0000000
 NQMom=    0.0000000   0.0000000   0.0000000   0.0000000   0.0000000   0.0000000   0.0000000   0.0000000
 NMagM=    2.7928460   2.7928460   2.7928460   2.7928460   2.7928460   2.7928460   2.7928460   2.7928460
 AtZNuc=   1.0000000   1.0000000   1.0000000   1.0000000   1.0000000   1.0000000   1.0000000   1.0000000
 Background charge distribution read from input stream:
 Leave Link  101 at Sat Aug 13 20:46:17 2022, MaxMem=  2684354560 cpu:               2.4 elap:               0.2
 (Enter /storage/apps/GAUSSIAN/G16_RevA03/g16/l103.exe)

 GradGradGradGradGradGradGradGradGradGradGradGradGradGradGradGradGradGrad
 Berny optimization.
 Initialization pass.
 Trust Radius=3.00D-01 FncErr=1.00D-07 GrdErr=1.00D-07 EigMax=2.50D+02 EigMin=1.00D-04
 Number of steps in this run=      2 maximum allowed number of steps=      2.
 GradGradGradGradGradGradGradGradGradGradGradGradGradGradGradGradGradGrad

 Leave Link  103 at Sat Aug 13 20:46:17 2022, MaxMem=  2684354560 cpu:               0.4 elap:               0.1
 (Enter /storage/apps/GAUSSIAN/G16_RevA03/g16/l202.exe)
 ---------------------------------------------------------------------------------------------------
                            Z-MATRIX (ANGSTROMS AND DEGREES)
   CD    Cent   Atom    N1       Length/X        N2       Alpha/Y        N3        Beta/Z          J
 ---------------------------------------------------------------------------------------------------
      1      1  C        0   3.588369         -3.618050         -0.423729
      2      2  H        0   3.746060         -3.709140         -1.497802
      3      3  H        0   4.317407         -4.246033          0.088792
      4      4  C        0   1.844561         -1.437149          1.250024
      5      5  H        0   1.194544         -2.307540          1.084448
      6      6  O        0   1.440005         -0.677455          2.327716
      7      7  H        0   0.502178         -0.358901          2.144560
      8      8  C        0   3.298155         -1.885565          1.429438
      9      9  H        0   3.375653         -2.768125          2.071688
     10     10  O        0   4.054596         -0.814311          1.935344
     11     11  H        0   3.499451         -0.371854          2.593464
     12     12  C        0   1.979007         -0.657261         -0.069894
     13     13  H        0   2.256500          0.379700          0.133608
     14     14  C        0   3.749578         -2.174566          0.003865
     15     15  H        0   4.781248         -1.844689         -0.120481
     16     16  O        0   2.927350         -1.330120         -0.834363
     17     17  N        0   0.739689         -0.601453         -0.879805
     18     18  C        0   0.268699         -1.750918         -1.411892
     19     19  H        0   0.847549         -2.637494         -1.206303
     20     20  C        0  -0.847264         -1.735864         -2.202091
     21     21  H        0  -1.204629         -2.659625         -2.632430
     22     22  C        0  -1.489932         -0.526532         -2.453100
     23     23  H        0  -2.341209         -0.491098         -3.120227
     24     24  H        0  -3.000830         -0.846545         -0.858659
     25     25  C        0  -1.001509          0.640520         -1.878613
     26     26  C        0   0.135166          0.563596         -1.092338
     27     27  H        0   0.554981          1.451437         -0.636306
     28     28  C        0  -1.540451          2.011698         -2.155999
     29     29  O        0  -0.829798          2.983107         -2.058878
     30     30  N        0  -2.827857          2.049971         -2.616914
     31     31  H        0  -3.209307          2.981800         -2.687494
     32     32  H        0  -3.463023          1.356350         -2.251024
     33     33  H        0   2.590904         -3.993608         -0.183046
     34     34  C        0   0.182788          2.193449          2.851281
     35     35  C        0  -1.661564          0.886382          1.208941
     36     36  C        0  -2.831432          0.833674          0.498950
     37     37  C        0  -4.956646         -0.317636         -0.193854
     38     38  C        0  -3.457695         -0.448028          0.062244
     39     39  O        0  -0.882018         -0.085823          1.457021
     40     40  S        0  -1.198654          2.553350          1.755406
     41     41  H        0   0.410309          3.124427          3.367373
     42     42  H        0   1.064045          1.864818          2.305479
     43     43  H        0  -5.483417         -0.025855          0.716042
     44     44  H        0  -5.165570          0.452963         -0.942568
     45     45  H        0  -5.384500         -1.251498         -0.555295
     46     46  H        0  -3.264191         -1.224692          0.808508
     47     47  H        0  -3.403705          1.749278          0.396643
     48     48  H        0  -0.093165          1.435756          3.581932
 ---------------------------------------------------------------------------------------------------
                         Z-Matrix orientation:                         
 ---------------------------------------------------------------------
 Center     Atomic      Atomic             Coordinates (Angstroms)
 Number     Number       Type             X           Y           Z
 ---------------------------------------------------------------------
      1          6           0        3.588369   -3.618050   -0.423729
      2          1           0        3.746060   -3.709140   -1.497802
      3          1           0        4.317407   -4.246033    0.088792
      4          6           0        1.844561   -1.437149    1.250024
      5          1           0        1.194544   -2.307540    1.084448
      6          8           0        1.440005   -0.677455    2.327716
      7          1           0        0.502178   -0.358901    2.144560
      8          6           0        3.298155   -1.885565    1.429438
      9          1           0        3.375653   -2.768125    2.071688
     10          8           0        4.054596   -0.814311    1.935344
     11          1           0        3.499451   -0.371854    2.593464
     12          6           0        1.979007   -0.657261   -0.069894
     13          1           0        2.256500    0.379700    0.133608
     14          6           0        3.749578   -2.174566    0.003865
     15          1           0        4.781248   -1.844689   -0.120481
     16          8           0        2.927350   -1.330120   -0.834363
     17          7           0        0.739689   -0.601453   -0.879805
     18          6           0        0.268699   -1.750918   -1.411892
     19          1           0        0.847549   -2.637494   -1.206303
     20          6           0       -0.847264   -1.735864   -2.202091
     21          1           0       -1.204629   -2.659625   -2.632430
     22          6           0       -1.489932   -0.526532   -2.453100
     23          1           0       -2.341209   -0.491098   -3.120227
     24          1           0       -3.000830   -0.846545   -0.858659
     25          6           0       -1.001509    0.640520   -1.878613
     26          6           0        0.135166    0.563596   -1.092338
     27          1           0        0.554981    1.451437   -0.636306
     28          6           0       -1.540451    2.011698   -2.155999
     29          8           0       -0.829798    2.983107   -2.058878
     30          7           0       -2.827857    2.049971   -2.616914
     31          1           0       -3.209307    2.981800   -2.687494
     32          1           0       -3.463023    1.356350   -2.251024
     33          1           0        2.590904   -3.993608   -0.183046
     34          6           0        0.182788    2.193449    2.851281
     35          6           0       -1.661564    0.886382    1.208941
     36          6           0       -2.831432    0.833674    0.498950
     37          6           0       -4.956646   -0.317636   -0.193854
     38          6           0       -3.457695   -0.448028    0.062244
     39          8           0       -0.882018   -0.085823    1.457021
     40         16           0       -1.198654    2.553350    1.755406
     41          1           0        0.410309    3.124427    3.367373
     42          1           0        1.064045    1.864818    2.305479
     43          1           0       -5.483417   -0.025855    0.716042
     44          1           0       -5.165570    0.452963   -0.942568
     45          1           0       -5.384500   -1.251498   -0.555295
     46          1           0       -3.264191   -1.224692    0.808508
     47          1           0       -3.403705    1.749278    0.396643
     48          1           0       -0.093165    1.435756    3.581932
 ---------------------------------------------------------------------
                    Distance matrix (angstroms):
                    1          2          3          4          5
     1  C    0.000000
     2  H    1.089402   0.000000
     3  H    1.090200   1.769738   0.000000
     4  C    3.255556   4.040815   3.918323   0.000000
     5  H    3.118082   3.891366   3.808065   1.098871   0.000000
     6  O    4.564320   5.398480   5.101664   1.379210   2.064738
     7  H    5.171338   5.917235   5.821679   1.940311   2.323877
     8  C    2.553421   3.477755   2.899658   1.531732   2.173076
     9  H    2.644755   3.709982   2.646316   2.188806   2.438036
    10  O    3.693717   4.501302   3.905834   2.396215   3.336713
    11  H    4.432736   5.285523   4.685264   2.382928   3.366988
    12  C    3.388439   3.804650   4.286325   1.538988   2.161321
    13  H    4.250471   4.647462   5.064262   2.171870   3.041892
    14  C    1.514091   2.147076   2.149562   2.392861   2.777326
    15  H    2.158641   2.538662   2.454668   3.266267   3.811893
    16  O    2.416649   2.601956   3.359616   2.351288   2.764019
    17  N    4.174068   4.367826   5.198193   2.540729   2.641196
    18  C    3.934826   3.991748   4.986952   3.109275   2.720061
    19  H    3.014300   3.103991   4.037893   2.910052   2.340260
    20  C    5.136150   5.048610   6.182469   4.387739   3.911155
    21  H    5.363746   5.186346   6.357249   5.085809   4.437925
    22  C    6.282115   6.201387   7.349904   5.065688   4.784626
    23  H    7.225567   7.074101   8.290628   6.124931   5.786217
    24  H    7.161560   7.356866   8.124702   5.317252   4.848849
    25  C    6.427992   6.450114   7.485984   4.712239   4.721593
    26  C    5.464230   5.608853   6.482186   3.523020   3.755543
    27  H    5.911542   6.128353   6.866060   3.683095   4.183293
    28  C    7.810225   7.817187   8.860744   5.912178   6.052810
    29  O    8.109820   8.126466   9.130535   6.135120   6.478380
    30  N    8.837674   8.811138   9.900268   6.996049   6.990543
    31  H    9.741204   9.724257  10.798183   7.782849   7.848476
    32  H    8.820759   8.842930   9.868968   6.944885   6.800176
    33  H    1.092661   1.773102   1.765907   3.024269   2.529662
    34  C    7.489806   8.151809   8.135929   4.301948   4.940066
    35  C    7.107553   7.595240   7.958927   4.206352   4.286489
    36  C    7.866577   8.239392   8.779382   5.252205   5.139895
    37  C    9.163125   9.430783  10.075726   7.042337   6.590213
    38  C    7.741591   8.059943   8.653194   5.522961   5.113317
    39  O    5.999851   6.578641   6.798045   3.050109   3.063812
    40  S    8.108662   8.616980   8.912695   5.043873   5.459472
    41  H    8.362626   9.027447   8.963157   5.229553   5.944160
    42  H    6.624397   7.261347   7.269152   3.553333   4.349312
    43  H    9.823454  10.180911  10.689223   7.481721   7.066610
    44  H    9.668184   9.851322  10.633490   7.584321   7.223588
    45  H    9.280639   9.502392  10.173942   7.453386   6.862055
    46  H    7.362347   7.786859   8.193114   5.132195   4.596631
    47  H    8.852701   9.192518   9.780291   6.198861   6.170473
    48  H    7.425629   8.186165   7.996118   4.176860   4.680586
                    6          7          8          9         10
     6  O    0.000000
     7  H    1.007245   0.000000
     8  C    2.391475   3.264903   0.000000
     9  H    2.860627   3.750537   1.094259   0.000000
    10  O    2.647408   3.587596   1.405606   2.072907   0.000000
    11  H    2.098888   3.030731   1.920104   2.455543   0.968027
    12  C    2.457532   2.678404   2.344542   3.315530   2.890279
    13  H    2.568726   2.768954   2.809919   3.862313   2.811595
    14  C    3.602187   4.292414   1.523011   2.183581   2.382004
    15  H    4.303488   5.064427   2.145573   2.762976   2.411663
    16  O    3.554843   3.962159   2.360256   3.273220   3.034472
    17  N    3.283963   3.043358   3.677947   4.511550   4.354191
    18  C    4.063121   3.826300   4.155585   4.777364   5.139478
    19  H    4.084366   4.066885   3.676683   4.141690   4.845523
    20  C    5.183723   4.755039   5.513158   6.096210   6.480421
    21  H    5.960380   5.570113   6.113346   6.566543   7.206191
    22  C    5.609234   5.013490   6.312436   7.012301   7.076938
    23  H    6.634184   5.985007   7.378781   8.051295   8.159019
    24  H    5.468326   4.639848   6.781752   7.275915   7.588579
    25  C    5.038973   4.409744   5.984264   6.810528   6.498230
    26  C    3.865176   3.385736   4.728873   5.622471   5.140760
    27  H    3.755113   3.318633   4.788307   5.752749   4.898398
    28  C    6.018169   5.318541   7.173293   8.055316   7.485317
    29  O    6.147677   5.532817   7.274085   8.235537   7.364204
    30  N    7.078338   6.289947   8.330032   9.147709   8.734719
    31  H    7.756196   6.948680   9.109744   9.953550   9.409855
    32  H    7.010058   6.163284   8.352804   9.081003   8.874235
    33  H    4.315711   4.794958   2.746662   2.683555   4.091198
    34  C    3.177547   2.667575   5.325928   5.951417   4.987630
    35  C    3.649243   2.666063   5.686046   6.282779   6.007870
    36  C    4.886008   3.904257   6.769927   7.346725   7.224712
    37  C    6.885124   5.938741   8.557758   8.975789   9.272683
    38  C    5.401154   4.474883   7.041111   7.491019   7.750947
    39  O    2.549496   1.569484   4.551228   5.069548   5.012948
    40  S    4.210482   3.394919   6.327046   7.024416   6.242608
    41  H    4.073753   3.692870   6.098792   6.722666   5.553845
    42  H    2.570018   2.299242   4.452423   5.182890   4.032137
    43  H    7.138336   6.162705   9.004636   9.372350   9.647904
    44  H    7.456958   6.504833   9.095591   9.613201   9.741654
    45  H    7.430689   6.537501   8.929149   9.270463   9.771947
    46  H    4.973623   4.089030   6.624703   6.932917   7.416388
    47  H    5.751487   4.770278   7.693743   8.316995   8.035287
    48  H    2.896434   2.375135   5.212049   5.655630   4.997797
                   11         12         13         14         15
    11  H    0.000000
    12  C    3.080046   0.000000
    13  H    2.856686   1.092567   0.000000
    14  C    3.165179   2.332933   2.961484   0.000000
    15  H    3.343313   3.043863   3.374436   1.090240   0.000000
    16  O    3.604937   1.391584   2.076172   1.446297   2.052157
    17  N    4.442139   1.481546   2.071324   3.509272   4.296092
    18  C    5.327518   2.433557   3.298402   3.781582   4.694639
    19  H    5.157901   2.548126   3.589424   3.178141   4.157107
    20  C    6.614515   3.701007   4.423172   5.117583   6.002091
    21  H    7.394067   4.550999   5.372883   5.632895   6.542533
    22  C    7.098287   4.210736   4.641990   6.017072   6.819556
    23  H    8.171523   5.291163   5.699532   7.049234   7.846023
    24  H    7.375374   5.045469   5.488879   6.933657   7.880478
    25  C    6.425186   3.720104   3.838187   5.834489   6.535103
    26  C    5.077265   2.436315   2.456994   4.665101   5.322633
    27  H    4.735579   2.606776   2.153266   4.874748   5.384408
    28  C    7.323888   4.884850   4.724675   7.083377   7.679774
    29  O    7.186268   5.009763   4.594557   7.199110   7.651721
    30  N    8.546818   6.076377   6.017131   8.244868   8.905000
    31  H    9.172946   6.856617   6.678667   9.069598   9.681607
    32  H    8.656315   6.199004   6.273218   8.341073   9.096915
    33  H    4.653124   3.393882   4.397490   2.164804   3.069100
    34  C    4.200893   4.459396   3.869847   6.317383   6.803217
    35  C    5.489639   4.155961   4.094422   6.332619   7.122916
    36  C    6.776457   5.068214   5.121193   7.252883   8.093838
    37  C    8.903800   6.945070   7.254170   8.904247   9.857173
    38  C    7.403699   5.442331   5.774275   7.411419   8.358483
    39  O    4.535481   3.292943   3.437794   5.284524   6.136343
    40  S    5.597441   4.872091   4.392388   7.064424   7.656430
    41  H    4.729240   5.345726   4.625925   7.109376   7.480799
    42  H    3.319162   3.583355   2.888693   5.368998   5.784749
    43  H    9.183482   7.530215   7.772388   9.506437  10.458072
    44  H    9.395022   7.282797   7.500043   9.342350  10.241788
    45  H    9.466417   7.403375   7.843486   9.197614  10.192319
    46  H    7.047003   5.346465   5.788574   7.123389   8.122592
    47  H    7.548429   5.914615   5.829481   8.168249   8.954187
    48  H    4.141426   4.691530   4.304314   6.372100   6.944716
                   16         17         18         19         20
    16  O    0.000000
    17  N    2.306270   0.000000
    18  C    2.753005   1.351376   0.000000
    19  H    2.484580   2.064872   1.078588   0.000000
    20  C    4.035222   2.356639   1.367485   2.162619   0.000000
    21  H    4.698285   3.329886   2.118055   2.499152   1.079924
    22  C    4.772677   2.729850   2.382440   3.387400   1.392304
    23  H    5.804037   3.810984   3.364101   4.293984   2.150416
    24  H    5.947920   3.748600   3.437118   4.258917   2.689525
    25  C    4.517722   2.360484   2.747769   3.823139   2.403254
    26  C    3.383638   1.329646   2.340282   3.281380   2.735733
    27  H    3.661205   2.075516   3.307351   4.138822   3.817966
    28  C    5.733735   3.695439   4.240754   5.312198   3.811411
    29  O    5.849746   4.086878   4.902681   5.927186   4.721176
    30  N    6.908322   4.772314   5.048514   6.121337   4.292712
    31  H    7.725627   5.630454   6.010184   7.087205   5.298228
    32  H    7.075374   4.834876   4.927982   5.968523   4.050479
    33  H    2.762531   3.926727   3.454324   2.434212   4.582025
    34  C    5.790693   4.694957   5.808619   6.343808   6.483601
    35  C    5.490547   3.513194   4.189276   4.954468   4.378858
    36  C    6.294704   4.088210   4.465674   5.337771   4.223159
    37  C    7.974507   5.744503   5.553570   6.332099   4.788675
    38  C    6.507748   4.304536   4.213859   4.993806   3.687829
    39  O    4.616276   2.890772   3.511033   4.073785   4.014093
    40  S    6.229940   4.544699   5.541807   6.316924   5.846590
    41  H    6.620655   5.659434   6.828647   7.369493   7.498190
    42  H    4.851612   4.041501   5.246424   5.714044   6.077516
    43  H    8.651350   6.450201   6.371090   7.113171   5.738776
    44  H    8.287729   5.998985   5.882911   6.765950   5.002512
    45  H    8.316905   6.167135   5.739498   6.417416   4.851088
    46  H    6.406662   4.389747   4.205758   4.791855   3.894424
    47  H    7.147050   4.931832   5.385975   6.315565   5.043315
    48  H    6.023059   4.975034   5.934991   6.356375   6.639485
                   21         22         23         24         25
    21  H    0.000000
    22  C    2.159547   0.000000
    23  H    2.496451   1.082121   0.000000
    24  H    3.108032   2.219789   2.382463   0.000000
    25  C    3.391232   1.389461   2.148711   2.692388   0.000000
    26  C    3.815244   2.383484   3.370037   3.446386   1.384260
    27  H    4.897098   3.375614   4.281498   4.239570   2.150250
    28  C    4.707549   2.556058   2.799096   3.461987   1.499177
    29  O    5.684178   3.592875   3.934581   4.562909   2.355779
    30  N    4.981506   2.907791   2.635751   3.392814   2.422228
    31  H    5.987273   3.914024   3.605811   4.247861   3.318170
    32  H    4.623188   2.734807   2.329602   2.646705   2.590396
    33  H    4.710102   5.816097   6.724608   6.451972   6.103730
    34  C    7.453076   6.191344   7.016856   5.756791   5.117230
    35  C    5.247770   3.928909   4.593589   3.011916   3.166877
    36  C    4.965397   3.516302   3.885072   2.166780   3.006448
    37  C    5.050663   4.143179   3.928646   2.132352   4.404496
    38  C    4.150751   3.194559   3.372909   1.102544   3.314319
    39  O    4.842741   3.981561   4.821274   3.229619   3.415890
    40  S    6.813828   5.223221   5.860537   4.651931   4.111433
    41  H    8.488870   7.128697   7.920343   6.727840   5.973558
    42  H    7.071097   5.906389   6.825275   5.821208   4.824111
    43  H    6.037966   5.122701   4.980651   3.052287   5.221474
    44  H    5.313463   4.092851   3.689236   2.526235   4.272091
    45  H    4.875309   4.392596   4.052000   2.436781   4.953939
    46  H    4.259212   3.778030   4.101831   1.729682   3.977357
    47  H    5.783567   4.118601   4.303087   2.911424   3.489510
    48  H    7.525011   6.497934   7.327032   5.777738   5.592409
                   26         27         28         29         30
    26  C    0.000000
    27  H    1.082807   0.000000
    28  C    2.456841   2.648432   0.000000
    29  O    2.778379   2.507456   1.207516   0.000000
    30  N    3.648719   3.965431   1.367963   2.274728   0.000000
    31  H    4.424673   4.551840   2.002165   2.461143   1.009352
    32  H    3.862380   4.331364   2.033419   3.101150   1.009169
    33  H    5.256003   5.830861   7.551446   7.993404   8.474168
    34  C    4.267414   3.585021   5.298626   5.075288   6.243855
    35  C    2.937399   2.938928   3.550187   3.970734   4.165495
    36  C    3.377254   3.624670   3.178542   3.894751   3.344847
    37  C    5.245035   5.805464   4.576702   5.603936   4.001066
    38  C    3.907057   4.494164   3.827098   4.814321   3.716797
    39  O    2.820574   2.968190   4.229307   4.667184   4.994482
    40  S    3.721269   3.163816   3.963496   3.856100   4.693067
    41  H    5.150008   4.341575   5.962488   5.567947   6.888531
    42  H    3.755150   3.013989   5.168149   4.887210   6.277829
    43  H    5.931793   6.361878   5.286513   6.197597   4.740216
    44  H    5.304005   5.815105   4.128384   5.142635   3.289190
    45  H    5.835212   6.526090   5.290313   6.398277   4.656865
    46  H    4.285653   4.882134   4.715273   5.643912   4.758920
    47  H    4.018273   4.102059   3.171208   3.765224   3.082782
    48  H    4.760420   4.267771   5.945603   5.895393   6.803050
                   31         32         33         34         35
    31  H    0.000000
    32  H    1.702047   0.000000
    33  H    9.411218   8.339581   0.000000
    34  C    6.542617   6.326625   7.299715   0.000000
    35  C    4.687056   3.929056   6.620832   2.794162   0.000000
    36  C    3.861432   2.869574   7.291742   4.058075   1.369473
    37  C    4.489734   3.043861   8.395141   6.480137   3.778235
    38  C    4.403008   2.933772   7.015473   5.292376   2.514289
    39  O    5.657172   4.742473   5.479214   2.876257   1.270598
    40  S    4.895473   4.755172   7.809034   1.799681   1.814302
    41  H    7.055734   7.049481   8.247842   1.088502   3.736353
    42  H    6.666256   6.443183   6.545625   1.087434   3.096559
    43  H    5.079530   3.846552   9.041354   6.449065   3.960011
    44  H    3.642355   2.329556   8.972834   6.784358   4.134598
    45  H    5.215223   3.656288   8.441848   7.380184   4.641477
    46  H    5.469883   4.007748   6.552268   5.266714   2.680558
    47  H    3.326981   2.677322   8.321786   4.368692   2.107006
    48  H    7.169818   6.736885   7.131429   1.088163   2.897028
                   36         37         38         39         40
    36  C    0.000000
    37  C    2.514364   0.000000
    38  C    1.491870   1.526251   0.000000
    39  O    2.358726   4.402467   2.951391   0.000000
    40  S    2.683641   5.115142   4.120477   2.674795   0.000000
    41  H    4.897375   7.303036   6.216733   3.952880   2.348048
    42  H    4.416055   6.874481   5.552251   2.883061   2.428263
    43  H    2.796237   1.091116   2.170076   4.661064   5.108010
    44  H    2.769678   1.094552   2.176757   4.939346   5.237090
    45  H    3.460857   1.088943   2.177038   5.067599   6.110443
    46  H    2.126024   2.166076   1.094331   2.718886   4.408703
    47  H    1.084571   2.651876   2.223261   3.294071   2.712014
    48  H    4.167180   6.401905   5.220815   2.729970   2.409838
                   41         42         43         44         45
    41  H    0.000000
    42  H    1.772457   0.000000
    43  H    7.189565   6.997872   0.000000
    44  H    7.536759   7.165978   1.755358   0.000000
    45  H    8.253233   7.712275   1.768695   1.761561   0.000000
    46  H    6.242161   5.524457   2.524029   3.081564   2.521188
    47  H    5.026229   4.859814   2.752874   2.564778   3.719461
    48  H    1.775143   1.775545   6.277296   6.867771   7.234377
                   46         47         48
    46  H    0.000000
    47  H    3.005594   0.000000
    48  H    4.982496   4.604784   0.000000
 Stoichiometry    C16H24N2O5S
 Framework group  C1[X(C16H24N2O5S)]
 Deg. of freedom   138
 Full point group                 C1      NOp   1
 Largest Abelian subgroup         C1      NOp   1
 Largest concise Abelian subgroup C1      NOp   1
                         Standard orientation:                         
 ---------------------------------------------------------------------
 Center     Atomic      Atomic             Coordinates (Angstroms)
 Number     Number       Type             X           Y           Z
 ---------------------------------------------------------------------
      1          6           0        4.688660   -1.908621    0.628652
      2          1           0        4.661466   -2.860885    0.100210
      3          1           0        5.707349   -1.732494    0.974758
      4          6           0        2.496661    0.497216    0.704332
      5          1           0        2.299441   -0.142933    1.575441
      6          8           0        2.003982    1.774783    0.869598
      7          1           0        1.008921    1.704879    1.009269
      8          6           0        3.998184    0.539437    0.404584
      9          1           0        4.592810    0.643100    1.317314
     10          8           0        4.260974    1.582117   -0.500672
     11          1           0        3.702516    2.326213   -0.233234
     12          6           0        2.003191   -0.221245   -0.564048
     13          1           0        1.808019    0.506279   -1.355452
     14          6           0        4.249263   -0.790809   -0.293246
     15          1           0        4.969817   -0.644231   -1.098194
     16          8           0        2.988116   -1.142222   -0.907893
     17          7           0        0.746707   -0.986178   -0.387686
     18          6           0        0.762501   -2.068042    0.421968
     19          1           0        1.710477   -2.299006    0.881695
     20          6           0       -0.364464   -2.826939    0.577016
     21          1           0       -0.333941   -3.696985    1.216018
     22          6           0       -1.524390   -2.474766   -0.107862
     23          1           0       -2.407361   -3.096431   -0.037989
     24          1           0       -2.383756   -1.398203    1.632818
     25          6           0       -1.524985   -1.346222   -0.918410
     26          6           0       -0.352451   -0.620670   -1.040535
     27          1           0       -0.307389    0.258043   -1.671649
     28          6           0       -2.674073   -0.925296   -1.784407
     29          8           0       -2.483613   -0.287027   -2.791598
     30          7           0       -3.897395   -1.404687   -1.403634
     31          1           0       -4.668888   -1.019028   -1.927902
     32          1           0       -4.060869   -1.498653   -0.412237
     33          1           0        4.041014   -1.976318    1.506080
     34          6           0       -0.302125    3.589959   -0.348518
     35          6           0       -1.618951    1.366153    0.713554
     36          6           0       -2.746296    0.636762    0.982882
     37          6           0       -4.196326   -0.718199    2.526748
     38          6           0       -2.786426   -0.443887    2.010629
     39          8           0       -0.449402    1.144028    1.157664
     40         16           0       -1.876071    2.724605   -0.461261
     41          1           0       -0.432229    4.526456   -0.887854
     42          1           0        0.508776    3.026745   -0.804303
     43          1           0       -4.612889    0.166365    3.011059
     44          1           0       -4.874141   -0.980927    1.708466
     45          1           0       -4.209160   -1.540241    3.240806
     46          1           0       -2.119687   -0.187615    2.839691
     47          1           0       -3.682071    0.971443    0.548592
     48          1           0       -0.054559    3.804361    0.689192
 ---------------------------------------------------------------------
 Rotational constants (GHZ):           0.3318994           0.1641260           0.1400094
 Leave Link  202 at Sat Aug 13 20:46:17 2022, MaxMem=  2684354560 cpu:               0.4 elap:               0.1
 (Enter /storage/apps/GAUSSIAN/G16_RevA03/g16/l301.exe)
 Standard basis: def2TZVP (5D, 7F)
 Ernie: Thresh=  0.10000D-02 Tol=  0.10000D-05 Strict=F.
 There are  1014 symmetry adapted cartesian basis functions of A   symmetry.
 There are   894 symmetry adapted basis functions of A   symmetry.
   894 basis functions,  1434 primitive gaussians,  1014 cartesian basis functions
    95 alpha electrons       95 beta electrons
       nuclear repulsion energy      2495.0956089169 Hartrees.
 IExCor= 4336 DFT=T Ex+Corr=M062X ExCW=0 ScaHFX=  0.540000
 ScaDFX=  1.000000  1.000000  1.000000  1.000000 ScalE2=  1.000000  1.000000
 IRadAn=      5 IRanWt=     -1 IRanGd=            0 ICorTp=0 IEmpDi=131
 NAtoms=   48 NActive=   48 NUniq=   48 SFac= 1.00D+00 NAtFMM=   60 NAOKFM=F Big=F
 Integral buffers will be    131072 words long.
 Raffenetti 2 integral format.
 Two-electron integral symmetry is turned on.
 R6Disp:  Grimme-D3 Dispersion energy=       -0.0042734033 Hartrees.
 Nuclear repulsion after empirical dispersion term =     2495.0913355136 Hartrees.
 Leave Link  301 at Sat Aug 13 20:46:18 2022, MaxMem=  2684354560 cpu:               1.6 elap:               0.1
 (Enter /storage/apps/GAUSSIAN/G16_RevA03/g16/l302.exe)
 NPDir=0 NMtPBC=     1 NCelOv=     1 NCel=       1 NClECP=     1 NCelD=      1
         NCelK=      1 NCelE2=     1 NClLst=     1 CellRange=     0.0.
 One-electron integrals computed using PRISM.
 One-electron integral symmetry used in STVInt
   1 Symmetry operations used in ECPInt.
 ECPInt:  NShTT=   65703 NPrTT=  200010 LenC2=   56926 LenP2D=  121247.
 LDataN:  DoStor=T MaxTD1= 6 Len=  172
 NBasis=   894 RedAO= T EigKep=  1.87D-05  NBF=   894
 NBsUse=   894 1.00D-06 EigRej= -1.00D+00 NBFU=   894
 Precomputing XC quadrature grid using
 IXCGrd= 4 IRadAn=           5 IRanWt=          -1 IRanGd=           0 AccXCQ= 0.00D+00.
 Generated NRdTot=       0 NPtTot=           0 NUsed=           0 NTot=          32
 NSgBfM=  1000  1000  1000  1000  1000 MxSgAt=    48 MxSgA2=    48.
 Leave Link  302 at Sat Aug 13 20:46:19 2022, MaxMem=  2684354560 cpu:              19.1 elap:               1.3
 (Enter /storage/apps/GAUSSIAN/G16_RevA03/g16/l303.exe)
 DipDrv:  MaxL=1.
 Leave Link  303 at Sat Aug 13 20:46:19 2022, MaxMem=  2684354560 cpu:               2.1 elap:               0.2
 (Enter /storage/apps/GAUSSIAN/G16_RevA03/g16/l401.exe)
 ExpMin= 9.52D-02 ExpMax= 6.07D+04 ExpMxC= 2.07D+03 IAcc=3 IRadAn=         5 AccDes= 0.00D+00
 Harris functional with IExCor= 1009 and IRadAn=       5 diagonalized for initial guess.
 HarFok:  IExCor= 1009 AccDes= 0.00D+00 IRadAn=         5 IDoV= 1 UseB2=F ITyADJ=14
 ICtDFT=  3500011 ScaDFX=  1.000000  1.000000  1.000000  1.000000
 FoFCou: FMM=F IPFlag=           0 FMFlag=      100000 FMFlg1=           0
         NFxFlg=           0 DoJE=T BraDBF=F KetDBF=T FulRan=T
         wScrn=  0.000000 ICntrl=       500 IOpCl=  0 I1Cent=   200000004 NGrid=           0
         NMat0=    1 NMatS0=      1 NMatT0=    0 NMatD0=    1 NMtDS0=    0 NMtDT0=    0
 Petite list used in FoFCou.
 Harris En= -1507.24497924576    
 JPrj=0 DoOrth=F DoCkMO=F.
 Leave Link  401 at Sat Aug 13 20:46:23 2022, MaxMem=  2684354560 cpu:              61.0 elap:               3.9
 (Enter /storage/apps/GAUSSIAN/G16_RevA03/g16/l502.exe)
 Integral symmetry usage will be decided dynamically.
 Closed shell SCF:
 Using DIIS extrapolation, IDIIS=  1040.
 NGot=  2684354560 LenX=  2682272944 LenY=  2681243734
 Requested convergence on RMS density matrix=1.00D-08 within 128 cycles.
 Requested convergence on MAX density matrix=1.00D-06.
 Requested convergence on             energy=1.00D-06.
 No special actions if energy rises.
 Fock matrices will be formed incrementally for  20 cycles.
 Integral accuracy reduced to 1.0D-05 until final iterations.

 Cycle   1  Pass 0  IDiag  1:
 FoFJK:  IHMeth= 1 ICntrl=       0 DoSepK=F KAlg= 0 I1Cent=           0 FoldK=F
 IRaf= 790000000 NMat=       1 IRICut=       1 DoRegI=T DoRafI=F ISym2E= 0 IDoP0=0 IntGTp=1.
 FoFCou: FMM=F IPFlag=           0 FMFlag=      100000 FMFlg1=           0
         NFxFlg=           0 DoJE=F BraDBF=F KetDBF=F FulRan=T
         wScrn=  0.000000 ICntrl=         0 IOpCl=  0 I1Cent=           0 NGrid=           0
         NMat0=    1 NMatS0=      1 NMatT0=    0 NMatD0=    1 NMtDS0=    0 NMtDT0=    0
 Symmetry not used in FoFCou.
 E= -1507.16599550822    
 DIIS: error= 1.77D-02 at cycle   1 NSaved=   1.
 NSaved= 1 IEnMin= 1 EnMin= -1507.16599550822     IErMin= 1 ErrMin= 1.77D-02
 ErrMax= 1.77D-02  0.00D+00 EMaxC= 1.00D-01 BMatC= 9.93D-01 BMatP= 9.93D-01
 IDIUse=3 WtCom= 8.23D-01 WtEn= 1.77D-01
 Coeff-Com:  0.100D+01
 Coeff-En:   0.100D+01
 Coeff:      0.100D+01
 Gap=     0.169 Goal=   None    Shift=    0.000
 GapD=    0.169 DampG=1.000 DampE=0.500 DampFc=0.5000 IDamp=-1.
 Damping current iteration by 5.00D-01
 RMSDP=3.96D-03 MaxDP=8.15D-01              OVMax= 5.49D-01

 Cycle   2  Pass 0  IDiag  1:
 RMSU=  1.98D-03    CP:  1.01D+00
 E= -1507.47178992474     Delta-E=       -0.305794416522 Rises=F Damp=T
 DIIS: error= 5.20D-03 at cycle   2 NSaved=   2.
 NSaved= 2 IEnMin= 2 EnMin= -1507.47178992474     IErMin= 2 ErrMin= 5.20D-03
 ErrMax= 5.20D-03  0.00D+00 EMaxC= 1.00D-01 BMatC= 9.69D-02 BMatP= 9.93D-01
 IDIUse=3 WtCom= 9.48D-01 WtEn= 5.20D-02
 Coeff-Com:  0.103D-01 0.990D+00
 Coeff-En:   0.122D+00 0.878D+00
 Coeff:      0.161D-01 0.984D+00
 Gap=     0.155 Goal=   None    Shift=    0.000
 RMSDP=1.35D-03 MaxDP=1.72D-01 DE=-3.06D-01 OVMax= 4.16D-01

 Cycle   3  Pass 0  IDiag  1:
 RMSU=  1.15D-03    CP:  9.98D-01  6.48D-01
 E= -1507.83630145479     Delta-E=       -0.364511530051 Rises=F Damp=F
 DIIS: error= 5.44D-03 at cycle   3 NSaved=   3.
 NSaved= 3 IEnMin= 3 EnMin= -1507.83630145479     IErMin= 2 ErrMin= 5.20D-03
 ErrMax= 5.44D-03  0.00D+00 EMaxC= 1.00D-01 BMatC= 6.97D-02 BMatP= 9.69D-02
 IDIUse=3 WtCom= 9.46D-01 WtEn= 5.44D-02
 Coeff-Com: -0.754D-01 0.484D+00 0.592D+00
 Coeff-En:   0.000D+00 0.000D+00 0.100D+01
 Coeff:     -0.713D-01 0.457D+00 0.614D+00
 Gap=     0.129 Goal=   None    Shift=    0.000
 RMSDP=5.64D-04 MaxDP=2.50D-02 DE=-3.65D-01 OVMax= 1.37D-01

 Cycle   4  Pass 0  IDiag  1:
 RMSU=  4.48D-04    CP:  1.00D+00  7.94D-01  8.43D-01
 E= -1507.89866333553     Delta-E=       -0.062361880734 Rises=F Damp=F
 DIIS: error= 1.96D-03 at cycle   4 NSaved=   4.
 NSaved= 4 IEnMin= 4 EnMin= -1507.89866333553     IErMin= 4 ErrMin= 1.96D-03
 ErrMax= 1.96D-03  0.00D+00 EMaxC= 1.00D-01 BMatC= 7.70D-03 BMatP= 6.97D-02
 IDIUse=3 WtCom= 9.80D-01 WtEn= 1.96D-02
 Coeff-Com: -0.396D-01 0.110D+00 0.282D+00 0.648D+00
 Coeff-En:   0.000D+00 0.000D+00 0.530D-02 0.995D+00
 Coeff:     -0.388D-01 0.108D+00 0.276D+00 0.655D+00
 Gap=     0.144 Goal=   None    Shift=    0.000
 RMSDP=2.04D-04 MaxDP=3.05D-02 DE=-6.24D-02 OVMax= 4.66D-02

 Cycle   5  Pass 0  IDiag  1:
 RMSU=  1.84D-04    CP:  1.00D+00  7.86D-01  9.08D-01  9.07D-01
 E= -1507.90551256519     Delta-E=       -0.006849229668 Rises=F Damp=F
 DIIS: error= 7.46D-04 at cycle   5 NSaved=   5.
 NSaved= 5 IEnMin= 5 EnMin= -1507.90551256519     IErMin= 5 ErrMin= 7.46D-04
 ErrMax= 7.46D-04  0.00D+00 EMaxC= 1.00D-01 BMatC= 7.36D-04 BMatP= 7.70D-03
 IDIUse=3 WtCom= 9.93D-01 WtEn= 7.46D-03
 Coeff-Com: -0.126D-01 0.228D-01 0.807D-01 0.310D+00 0.599D+00
 Coeff-En:   0.000D+00 0.000D+00 0.000D+00 0.000D+00 0.100D+01
 Coeff:     -0.125D-01 0.226D-01 0.801D-01 0.308D+00 0.602D+00
 Gap=     0.144 Goal=   None    Shift=    0.000
 RMSDP=6.87D-05 MaxDP=6.33D-03 DE=-6.85D-03 OVMax= 7.81D-03

 Cycle   6  Pass 0  IDiag  1:
 RMSU=  6.20D-05    CP:  1.00D+00  7.87D-01  8.99D-01  9.66D-01  9.60D-01
 E= -1507.90622870722     Delta-E=       -0.000716142022 Rises=F Damp=F
 DIIS: error= 1.68D-04 at cycle   6 NSaved=   6.
 NSaved= 6 IEnMin= 6 EnMin= -1507.90622870722     IErMin= 6 ErrMin= 1.68D-04
 ErrMax= 1.68D-04  0.00D+00 EMaxC= 1.00D-01 BMatC= 8.43D-05 BMatP= 7.36D-04
 IDIUse=3 WtCom= 9.98D-01 WtEn= 1.68D-03
 Coeff-Com: -0.248D-03-0.373D-02-0.818D-02 0.477D-01 0.278D+00 0.686D+00
 Coeff-En:   0.000D+00 0.000D+00 0.000D+00 0.000D+00 0.000D+00 0.100D+01
 Coeff:     -0.248D-03-0.372D-02-0.817D-02 0.476D-01 0.278D+00 0.687D+00
 Gap=     0.145 Goal=   None    Shift=    0.000
 RMSDP=4.37D-05 MaxDP=6.12D-03 DE=-7.16D-04 OVMax= 6.74D-03

 Cycle   7  Pass 0  IDiag  1:
 RMSU=  2.25D-05    CP:  1.00D+00  7.89D-01  9.05D-01  9.95D-01  1.14D+00
                    CP:  1.07D+00
 E= -1507.90632850754     Delta-E=       -0.000099800327 Rises=F Damp=F
 DIIS: error= 7.04D-05 at cycle   7 NSaved=   7.
 NSaved= 7 IEnMin= 7 EnMin= -1507.90632850754     IErMin= 7 ErrMin= 7.04D-05
 ErrMax= 7.04D-05  0.00D+00 EMaxC= 1.00D-01 BMatC= 1.07D-05 BMatP= 8.43D-05
 IDIUse=1 WtCom= 1.00D+00 WtEn= 0.00D+00
 Coeff-Com:  0.161D-02-0.459D-02-0.164D-01-0.211D-01 0.405D-01 0.293D+00
 Coeff-Com:  0.707D+00
 Coeff:      0.161D-02-0.459D-02-0.164D-01-0.211D-01 0.405D-01 0.293D+00
 Coeff:      0.707D+00
 Gap=     0.145 Goal=   None    Shift=    0.000
 RMSDP=2.09D-05 MaxDP=2.46D-03 DE=-9.98D-05 OVMax= 3.53D-03

 Cycle   8  Pass 0  IDiag  1:
 RMSU=  1.13D-05    CP:  1.00D+00  7.89D-01  9.04D-01  1.01D+00  1.22D+00
                    CP:  1.18D+00  1.23D+00
 E= -1507.90633951053     Delta-E=       -0.000011002991 Rises=F Damp=F
 DIIS: error= 3.02D-05 at cycle   8 NSaved=   8.
 NSaved= 8 IEnMin= 8 EnMin= -1507.90633951053     IErMin= 8 ErrMin= 3.02D-05
 ErrMax= 3.02D-05  0.00D+00 EMaxC= 1.00D-01 BMatC= 2.59D-06 BMatP= 1.07D-05
 IDIUse=1 WtCom= 1.00D+00 WtEn= 0.00D+00
 Coeff-Com:  0.853D-03-0.162D-02-0.810D-02-0.193D-01-0.302D-01 0.279D-01
 Coeff-Com:  0.356D+00 0.675D+00
 Coeff:      0.853D-03-0.162D-02-0.810D-02-0.193D-01-0.302D-01 0.279D-01
 Coeff:      0.356D+00 0.675D+00
 Gap=     0.145 Goal=   None    Shift=    0.000
 RMSDP=1.62D-05 MaxDP=1.68D-03 DE=-1.10D-05 OVMax= 2.37D-03

 Cycle   9  Pass 0  IDiag  1:
 RMSU=  1.17D-05    CP:  1.00D+00  7.88D-01  9.04D-01  1.02D+00  1.24D+00
                    CP:  1.27D+00  1.47D+00  1.57D+00
 E= -1507.90633742330     Delta-E=        0.000002087235 Rises=F Damp=F
 DIIS: error= 1.82D-05 at cycle   9 NSaved=   9.
 NSaved= 9 IEnMin= 8 EnMin= -1507.90633951053     IErMin= 9 ErrMin= 1.82D-05
 ErrMax= 1.82D-05  0.00D+00 EMaxC= 1.00D-01 BMatC= 6.04D-07 BMatP= 2.59D-06
 IDIUse=1 WtCom= 1.00D+00 WtEn= 0.00D+00
 Coeff-Com:  0.250D-03-0.313D-03-0.281D-02-0.760D-02-0.222D-01-0.207D-01
 Coeff-Com:  0.794D-01 0.341D+00 0.633D+00
 Coeff:      0.250D-03-0.313D-03-0.281D-02-0.760D-02-0.222D-01-0.207D-01
 Coeff:      0.794D-01 0.341D+00 0.633D+00
 Gap=     0.145 Goal=   None    Shift=    0.000
 RMSDP=1.99D-05 MaxDP=2.29D-03 DE= 2.09D-06 OVMax= 1.08D-03

 Cycle  10  Pass 0  IDiag  1:
 RMSU=  7.72D-06    CP:  1.00D+00  7.88D-01  9.04D-01  1.02D+00  1.25D+00
                    CP:  1.35D+00  1.65D+00  2.34D+00  2.24D+00
 E= -1507.90633439401     Delta-E=        0.000003029284 Rises=F Damp=F
 DIIS: error= 2.57D-05 at cycle  10 NSaved=  10.
 NSaved=10 IEnMin= 8 EnMin= -1507.90633951053     IErMin= 9 ErrMin= 1.82D-05
 ErrMax= 2.57D-05  0.00D+00 EMaxC= 1.00D-01 BMatC= 4.49D-07 BMatP= 6.04D-07
 IDIUse=1 WtCom= 1.00D+00 WtEn= 0.00D+00
 Coeff-Com:  0.215D-03-0.266D-03-0.250D-02-0.660D-02-0.197D-01-0.185D-01
 Coeff-Com:  0.663D-01 0.297D+00 0.560D+00 0.125D+00
 Coeff:      0.215D-03-0.266D-03-0.250D-02-0.660D-02-0.197D-01-0.185D-01
 Coeff:      0.663D-01 0.297D+00 0.560D+00 0.125D+00
 Gap=     0.145 Goal=   None    Shift=    0.000
 RMSDP=5.87D-06 MaxDP=7.53D-04 DE= 3.03D-06 OVMax= 8.93D-05

 Initial convergence to 1.0D-05 achieved.  Increase integral accuracy.
 Cycle  11  Pass 1  IDiag  1:
 E= -1507.90621985445     Delta-E=        0.000114539559 Rises=F Damp=F
 DIIS: error= 3.27D-04 at cycle   1 NSaved=   1.
 NSaved= 1 IEnMin= 1 EnMin= -1507.90621985445     IErMin= 1 ErrMin= 3.27D-04
 ErrMax= 3.27D-04  0.00D+00 EMaxC= 1.00D-01 BMatC= 9.73D-05 BMatP= 9.73D-05
 IDIUse=3 WtCom= 9.97D-01 WtEn= 3.27D-03
 Coeff-Com:  0.100D+01
 Coeff-En:   0.100D+01
 Coeff:      0.100D+01
 Gap=     0.145 Goal=   None    Shift=    0.000
 RMSDP=5.87D-06 MaxDP=7.53D-04 DE= 1.15D-04 OVMax= 1.09D-03

 Cycle  12  Pass 1  IDiag  1:
 RMSU=  5.88D-04    CP:  9.90D-01
 E= -1507.90628234692     Delta-E=       -0.000062492468 Rises=F Damp=F
 DIIS: error= 1.05D-05 at cycle   2 NSaved=   2.
 NSaved= 2 IEnMin= 2 EnMin= -1507.90628234692     IErMin= 2 ErrMin= 1.05D-05
 ErrMax= 1.05D-05  0.00D+00 EMaxC= 1.00D-01 BMatC= 1.15D-07 BMatP= 9.73D-05
 IDIUse=1 WtCom= 1.00D+00 WtEn= 0.00D+00
 Coeff-Com: -0.158D-01 0.102D+01
 Coeff:     -0.158D-01 0.102D+01
 Gap=     0.145 Goal=   None    Shift=    0.000
 RMSDP=2.24D-05 MaxDP=2.30D-03 DE=-6.25D-05 OVMax= 4.97D-04

 Cycle  13  Pass 1  IDiag  1:
 RMSU=  8.62D-06    CP:  9.90D-01  1.04D+00
 E= -1507.90628239204     Delta-E=       -0.000000045117 Rises=F Damp=F
 DIIS: error= 1.12D-05 at cycle   3 NSaved=   3.
 NSaved= 3 IEnMin= 3 EnMin= -1507.90628239204     IErMin= 2 ErrMin= 1.05D-05
 ErrMax= 1.12D-05  0.00D+00 EMaxC= 1.00D-01 BMatC= 1.63D-07 BMatP= 1.15D-07
 IDIUse=1 WtCom= 1.00D+00 WtEn= 0.00D+00
 Coeff-Com: -0.101D-01 0.591D+00 0.419D+00
 Coeff:     -0.101D-01 0.591D+00 0.419D+00
 Gap=     0.145 Goal=   None    Shift=    0.000
 RMSDP=8.39D-07 MaxDP=4.53D-05 DE=-4.51D-08 OVMax= 9.22D-05

 Cycle  14  Pass 1  IDiag  1:
 RMSU=  7.72D-07    CP:  9.90D-01  1.04D+00  1.01D+00
 E= -1507.90628255258     Delta-E=       -0.000000160540 Rises=F Damp=F
 DIIS: error= 1.52D-06 at cycle   4 NSaved=   4.
 NSaved= 4 IEnMin= 4 EnMin= -1507.90628255258     IErMin= 4 ErrMin= 1.52D-06
 ErrMax= 1.52D-06  0.00D+00 EMaxC= 1.00D-01 BMatC= 1.83D-09 BMatP= 1.15D-07
 IDIUse=1 WtCom= 1.00D+00 WtEn= 0.00D+00
 Coeff-Com:  0.305D-03-0.296D-01 0.302D-01 0.999D+00
 Coeff:      0.305D-03-0.296D-01 0.302D-01 0.999D+00
 Gap=     0.145 Goal=   None    Shift=    0.000
 RMSDP=7.24D-07 MaxDP=9.10D-05 DE=-1.61D-07 OVMax= 1.35D-04

 Cycle  15  Pass 1  IDiag  1:
 RMSU=  4.19D-07    CP:  9.90D-01  1.04D+00  1.06D+00  9.57D-01
 E= -1507.90628256250     Delta-E=       -0.000000009924 Rises=F Damp=F
 DIIS: error= 8.31D-07 at cycle   5 NSaved=   5.
 NSaved= 5 IEnMin= 5 EnMin= -1507.90628256250     IErMin= 5 ErrMin= 8.31D-07
 ErrMax= 8.31D-07  0.00D+00 EMaxC= 1.00D-01 BMatC= 1.16D-09 BMatP= 1.83D-09
 IDIUse=1 WtCom= 1.00D+00 WtEn= 0.00D+00
 Coeff-Com:  0.976D-03-0.624D-01-0.382D-01 0.467D+00 0.632D+00
 Coeff:      0.976D-03-0.624D-01-0.382D-01 0.467D+00 0.632D+00
 Gap=     0.145 Goal=   None    Shift=    0.000
 RMSDP=1.59D-07 MaxDP=1.68D-05 DE=-9.92D-09 OVMax= 5.30D-05

 Cycle  16  Pass 1  IDiag  1:
 RMSU=  8.32D-08    CP:  9.90D-01  1.04D+00  1.07D+00  9.75D-01  1.26D+00
 E= -1507.90628256518     Delta-E=       -0.000000002676 Rises=F Damp=F
 DIIS: error= 4.28D-07 at cycle   6 NSaved=   6.
 NSaved= 6 IEnMin= 6 EnMin= -1507.90628256518     IErMin= 6 ErrMin= 4.28D-07
 ErrMax= 4.28D-07  0.00D+00 EMaxC= 1.00D-01 BMatC= 2.36D-10 BMatP= 1.16D-09
 IDIUse=1 WtCom= 1.00D+00 WtEn= 0.00D+00
 Coeff-Com:  0.230D-03-0.116D-01-0.372D-01-0.146D+00 0.213D+00 0.981D+00
 Coeff:      0.230D-03-0.116D-01-0.372D-01-0.146D+00 0.213D+00 0.981D+00
 Gap=     0.145 Goal=   None    Shift=    0.000
 RMSDP=1.55D-07 MaxDP=1.84D-05 DE=-2.68D-09 OVMax= 5.12D-05

 Cycle  17  Pass 1  IDiag  1:
 RMSU=  5.44D-08    CP:  9.90D-01  1.04D+00  1.07D+00  9.91D-01  1.58D+00
                    CP:  1.33D+00
 E= -1507.90628256623     Delta-E=       -0.000000001052 Rises=F Damp=F
 DIIS: error= 2.30D-07 at cycle   7 NSaved=   7.
 NSaved= 7 IEnMin= 7 EnMin= -1507.90628256623     IErMin= 7 ErrMin= 2.30D-07
 ErrMax= 2.30D-07  0.00D+00 EMaxC= 1.00D-01 BMatC= 9.38D-11 BMatP= 2.36D-10
 IDIUse=1 WtCom= 1.00D+00 WtEn= 0.00D+00
 Coeff-Com: -0.924D-04 0.786D-02-0.174D-01-0.197D+00 0.214D-02 0.633D+00
 Coeff-Com:  0.571D+00
 Coeff:     -0.924D-04 0.786D-02-0.174D-01-0.197D+00 0.214D-02 0.633D+00
 Coeff:      0.571D+00
 Gap=     0.145 Goal=   None    Shift=    0.000
 RMSDP=5.70D-08 MaxDP=7.28D-06 DE=-1.05D-09 OVMax= 1.84D-05

 Cycle  18  Pass 1  IDiag  1:
 RMSU=  1.90D-08    CP:  9.90D-01  1.04D+00  1.07D+00  9.90D-01  1.70D+00
                    CP:  1.52D+00  1.22D+00
 E= -1507.90628256638     Delta-E=       -0.000000000153 Rises=F Damp=F
 DIIS: error= 3.95D-08 at cycle   8 NSaved=   8.
 NSaved= 8 IEnMin= 8 EnMin= -1507.90628256638     IErMin= 8 ErrMin= 3.95D-08
 ErrMax= 3.95D-08  0.00D+00 EMaxC= 1.00D-01 BMatC= 2.89D-12 BMatP= 9.38D-11
 IDIUse=1 WtCom= 1.00D+00 WtEn= 0.00D+00
 Coeff-Com: -0.506D-04 0.357D-02-0.254D-02-0.490D-01-0.186D-01 0.106D+00
 Coeff-Com:  0.183D+00 0.778D+00
 Coeff:     -0.506D-04 0.357D-02-0.254D-02-0.490D-01-0.186D-01 0.106D+00
 Coeff:      0.183D+00 0.778D+00
 Gap=     0.145 Goal=   None    Shift=    0.000
 RMSDP=1.16D-08 MaxDP=8.79D-07 DE=-1.53D-10 OVMax= 3.80D-06

 Cycle  19  Pass 1  IDiag  1:
 RMSU=  4.55D-09    CP:  9.90D-01  1.04D+00  1.07D+00  9.91D-01  1.71D+00
                    CP:  1.56D+00  1.34D+00  1.06D+00
 E= -1507.90628256639     Delta-E=       -0.000000000005 Rises=F Damp=F
 DIIS: error= 1.59D-08 at cycle   9 NSaved=   9.
 NSaved= 9 IEnMin= 9 EnMin= -1507.90628256639     IErMin= 9 ErrMin= 1.59D-08
 ErrMax= 1.59D-08  0.00D+00 EMaxC= 1.00D-01 BMatC= 5.27D-13 BMatP= 2.89D-12
 IDIUse=1 WtCom= 1.00D+00 WtEn= 0.00D+00
 Coeff-Com: -0.875D-05 0.424D-03 0.129D-02 0.700D-02-0.827D-02-0.452D-01
 Coeff-Com:  0.180D-03 0.324D+00 0.720D+00
 Coeff:     -0.875D-05 0.424D-03 0.129D-02 0.700D-02-0.827D-02-0.452D-01
 Coeff:      0.180D-03 0.324D+00 0.720D+00
 Gap=     0.145 Goal=   None    Shift=    0.000
 RMSDP=4.04D-09 MaxDP=4.54D-07 DE=-4.55D-12 OVMax= 1.29D-06

 SCF Done:  E(RM062X) =  -1507.90628257     A.U. after   19 cycles
            NFock= 19  Conv=0.40D-08     -V/T= 2.0037
 KE= 1.502293076691D+03 PE=-8.527611110797D+03 EE= 3.022320416026D+03
 Leave Link  502 at Sat Aug 13 20:55:25 2022, MaxMem=  2684354560 cpu:            8662.3 elap:             542.3
 (Enter /storage/apps/GAUSSIAN/G16_RevA03/g16/l601.exe)
 Copying SCF densities to generalized density rwf, IOpCl= 0 IROHF=0.

 **********************************************************************

            Population analysis using the SCF density.

 **********************************************************************

 Orbital symmetries:
       Occupied  (A) (A) (A) (A) (A) (A) (A) (A) (A) (A) (A) (A)
                 (A) (A) (A) (A) (A) (A) (A) (A) (A) (A) (A) (A)
                 (A) (A) (A) (A) (A) (A) (A) (A) (A) (A) (A) (A)
                 (A) (A) (A) (A) (A) (A) (A) (A) (A) (A) (A) (A)
                 (A) (A) (A) (A) (A) (A) (A) (A) (A) (A) (A) (A)
                 (A) (A) (A) (A) (A) (A) (A) (A) (A) (A) (A) (A)
                 (A) (A) (A) (A) (A) (A) (A) (A) (A) (A) (A) (A)
                 (A) (A) (A) (A) (A) (A) (A) (A) (A) (A) (A)
       Virtual   (A) (A) (A) (A) (A) (A) (A) (A) (A) (A) (A) (A)
                 (A) (A) (A) (A) (A) (A) (A) (A) (A) (A) (A) (A)
                 (A) (A) (A) (A) (A) (A) (A) (A) (A) (A) (A) (A)
                 (A) (A) (A) (A) (A) (A) (A) (A) (A) (A) (A) (A)
                 (A) (A) (A) (A) (A) (A) (A) (A) (A) (A) (A) (A)
                 (A) (A) (A) (A) (A) (A) (A) (A) (A) (A) (A) (A)
                 (A) (A) (A) (A) (A) (A) (A) (A) (A) (A) (A) (A)
                 (A) (A) (A) (A) (A) (A) (A) (A) (A) (A) (A) (A)
                 (A) (A) (A) (A) (A) (A) (A) (A) (A) (A) (A) (A)
                 (A) (A) (A) (A) (A) (A) (A) (A) (A) (A) (A) (A)
                 (A) (A) (A) (A) (A) (A) (A) (A) (A) (A) (A) (A)
                 (A) (A) (A) (A) (A) (A) (A) (A) (A) (A) (A) (A)
                 (A) (A) (A) (A) (A) (A) (A) (A) (A) (A) (A) (A)
                 (A) (A) (A) (A) (A) (A) (A) (A) (A) (A) (A) (A)
                 (A) (A) (A) (A) (A) (A) (A) (A) (A) (A) (A) (A)
                 (A) (A) (A) (A) (A) (A) (A) (A) (A) (A) (A) (A)
                 (A) (A) (A) (A) (A) (A) (A) (A) (A) (A) (A) (A)
                 (A) (A) (A) (A) (A) (A) (A) (A) (A) (A) (A) (A)
                 (A) (A) (A) (A) (A) (A) (A) (A) (A) (A) (A) (A)
                 (A) (A) (A) (A) (A) (A) (A) (A) (A) (A) (A) (A)
                 (A) (A) (A) (A) (A) (A) (A) (A) (A) (A) (A) (A)
                 (A) (A) (A) (A) (A) (A) (A) (A) (A) (A) (A) (A)
                 (A) (A) (A) (A) (A) (A) (A) (A) (A) (A) (A) (A)
                 (A) (A) (A) (A) (A) (A) (A) (A) (A) (A) (A) (A)
                 (A) (A) (A) (A) (A) (A) (A) (A) (A) (A) (A) (A)
                 (A) (A) (A) (A) (A) (A) (A) (A) (A) (A) (A) (A)
                 (A) (A) (A) (A) (A) (A) (A) (A) (A) (A) (A) (A)
                 (A) (A) (A) (A) (A) (A) (A) (A) (A) (A) (A) (A)
                 (A) (A) (A) (A) (A) (A) (A) (A) (A) (A) (A) (A)
                 (A) (A) (A) (A) (A) (A) (A) (A) (A) (A) (A) (A)
                 (A) (A) (A) (A) (A) (A) (A) (A) (A) (A) (A) (A)
                 (A) (A) (A) (A) (A) (A) (A) (A) (A) (A) (A) (A)
                 (A) (A) (A) (A) (A) (A) (A) (A) (A) (A) (A) (A)
                 (A) (A) (A) (A) (A) (A) (A) (A) (A) (A) (A) (A)
                 (A) (A) (A) (A) (A) (A) (A) (A) (A) (A) (A) (A)
                 (A) (A) (A) (A) (A) (A) (A) (A) (A) (A) (A) (A)
                 (A) (A) (A) (A) (A) (A) (A) (A) (A) (A) (A) (A)
                 (A) (A) (A) (A) (A) (A) (A) (A) (A) (A) (A) (A)
                 (A) (A) (A) (A) (A) (A) (A) (A) (A) (A) (A) (A)
                 (A) (A) (A) (A) (A) (A) (A) (A) (A) (A) (A) (A)
                 (A) (A) (A) (A) (A) (A) (A) (A) (A) (A) (A) (A)
                 (A) (A) (A) (A) (A) (A) (A) (A) (A) (A) (A) (A)
                 (A) (A) (A) (A) (A) (A) (A) (A) (A) (A) (A) (A)
                 (A) (A) (A) (A) (A) (A) (A) (A) (A) (A) (A) (A)
                 (A) (A) (A) (A) (A) (A) (A) (A) (A) (A) (A) (A)
                 (A) (A) (A) (A) (A) (A) (A) (A) (A) (A) (A) (A)
                 (A) (A) (A) (A) (A) (A) (A) (A) (A) (A) (A) (A)
                 (A) (A) (A) (A) (A) (A) (A) (A) (A) (A) (A) (A)
                 (A) (A) (A) (A) (A) (A) (A) (A) (A) (A) (A) (A)
                 (A) (A) (A) (A) (A) (A) (A) (A) (A) (A) (A) (A)
                 (A) (A) (A) (A) (A) (A) (A) (A) (A) (A) (A) (A)
                 (A) (A) (A) (A) (A) (A) (A) (A) (A) (A) (A) (A)
                 (A) (A) (A) (A) (A) (A) (A) (A) (A) (A) (A) (A)
                 (A) (A) (A) (A) (A) (A) (A) (A) (A) (A) (A) (A)
                 (A) (A) (A) (A) (A) (A) (A) (A) (A) (A) (A) (A)
                 (A) (A) (A) (A) (A) (A) (A) (A) (A) (A) (A) (A)
                 (A) (A) (A) (A) (A) (A) (A) (A) (A) (A) (A) (A)
                 (A) (A) (A) (A) (A) (A) (A) (A) (A) (A) (A) (A)
                 (A) (A) (A) (A) (A) (A) (A) (A) (A) (A) (A) (A)
                 (A) (A) (A) (A) (A) (A) (A) (A) (A) (A) (A) (A)
                 (A) (A) (A) (A) (A) (A) (A) (A) (A) (A) (A) (A)
                 (A) (A) (A) (A) (A) (A) (A) (A) (A) (A) (A) (A)
                 (A) (A) (A) (A) (A) (A) (A) (A) (A) (A) (A) (A)
                 (A) (A) (A) (A) (A) (A) (A) (A) (A) (A) (A) (A)
                 (A) (A) (A) (A) (A) (A) (A) (A) (A) (A) (A) (A)
                 (A) (A) (A) (A) (A) (A) (A) (A) (A) (A) (A) (A)
                 (A) (A) (A) (A) (A) (A) (A)
 The electronic state is 1-A.
 Alpha  occ. eigenvalues --  -89.86649 -19.66614 -19.63250 -19.61594 -19.61358
 Alpha  occ. eigenvalues --  -19.56806 -14.88223 -14.77851 -10.66681 -10.66364
 Alpha  occ. eigenvalues --  -10.64364 -10.63752 -10.61245 -10.61127 -10.60829
 Alpha  occ. eigenvalues --  -10.60501 -10.59972 -10.59920 -10.58785 -10.55215
 Alpha  occ. eigenvalues --  -10.53605 -10.52139 -10.52039 -10.48819  -8.22549
 Alpha  occ. eigenvalues --   -6.14518  -6.14293  -6.14022  -1.22629  -1.18655
 Alpha  occ. eigenvalues --   -1.17088  -1.15815  -1.13896  -1.10170  -1.03288
 Alpha  occ. eigenvalues --   -0.97950  -0.93432  -0.90745  -0.88080  -0.87432
 Alpha  occ. eigenvalues --   -0.85272  -0.81588  -0.80872  -0.78881  -0.76981
 Alpha  occ. eigenvalues --   -0.73297  -0.71588  -0.70022  -0.69199  -0.67197
 Alpha  occ. eigenvalues --   -0.65956  -0.64075  -0.62928  -0.62531  -0.61319
 Alpha  occ. eigenvalues --   -0.60095  -0.58315  -0.58003  -0.57421  -0.56130
 Alpha  occ. eigenvalues --   -0.56051  -0.54348  -0.53359  -0.52588  -0.51921
 Alpha  occ. eigenvalues --   -0.51640  -0.50938  -0.50184  -0.50021  -0.48953
 Alpha  occ. eigenvalues --   -0.48682  -0.48077  -0.47815  -0.47239  -0.45983
 Alpha  occ. eigenvalues --   -0.45731  -0.45611  -0.44707  -0.43544  -0.43256
 Alpha  occ. eigenvalues --   -0.42558  -0.40331  -0.39626  -0.38449  -0.38132
 Alpha  occ. eigenvalues --   -0.37775  -0.37304  -0.36842  -0.36713  -0.36234
 Alpha  occ. eigenvalues --   -0.34975  -0.34477  -0.29150  -0.27877  -0.21174
 Alpha virt. eigenvalues --   -0.06712  -0.04207   0.03800   0.04644   0.05061
 Alpha virt. eigenvalues --    0.06302   0.07097   0.07283   0.08233   0.08825
 Alpha virt. eigenvalues --    0.09344   0.09962   0.10354   0.10860   0.11273
 Alpha virt. eigenvalues --    0.11398   0.11892   0.12541   0.13018   0.13242
 Alpha virt. eigenvalues --    0.13658   0.14004   0.14229   0.14560   0.15182
 Alpha virt. eigenvalues --    0.15425   0.15529   0.16145   0.16483   0.16672
 Alpha virt. eigenvalues --    0.17428   0.17693   0.18599   0.18808   0.19511
 Alpha virt. eigenvalues --    0.20285   0.20707   0.21440   0.21498   0.22386
 Alpha virt. eigenvalues --    0.22615   0.22878   0.23346   0.23773   0.24263
 Alpha virt. eigenvalues --    0.24598   0.25190   0.25597   0.25897   0.25979
 Alpha virt. eigenvalues --    0.26691   0.27110   0.27796   0.28005   0.28547
 Alpha virt. eigenvalues --    0.29311   0.29530   0.29836   0.30404   0.31110
 Alpha virt. eigenvalues --    0.31533   0.31977   0.32554   0.33087   0.33747
 Alpha virt. eigenvalues --    0.34223   0.34594   0.34931   0.35833   0.36051
 Alpha virt. eigenvalues --    0.36561   0.37103   0.37429   0.37693   0.38448
 Alpha virt. eigenvalues --    0.38564   0.38742   0.39165   0.39672   0.39865
 Alpha virt. eigenvalues --    0.40265   0.40671   0.41103   0.41832   0.42078
 Alpha virt. eigenvalues --    0.42906   0.42944   0.43044   0.43761   0.44084
 Alpha virt. eigenvalues --    0.44284   0.44754   0.44846   0.45493   0.45719
 Alpha virt. eigenvalues --    0.45948   0.46056   0.46636   0.46772   0.47458
 Alpha virt. eigenvalues --    0.47844   0.48004   0.48529   0.48705   0.49061
 Alpha virt. eigenvalues --    0.49418   0.49679   0.50096   0.50319   0.50679
 Alpha virt. eigenvalues --    0.51294   0.51909   0.52026   0.52846   0.53064
 Alpha virt. eigenvalues --    0.53571   0.53905   0.54091   0.54411   0.55204
 Alpha virt. eigenvalues --    0.55586   0.55778   0.56116   0.56410   0.57224
 Alpha virt. eigenvalues --    0.57578   0.58774   0.59150   0.59489   0.60184
 Alpha virt. eigenvalues --    0.60691   0.60810   0.61463   0.61967   0.62283
 Alpha virt. eigenvalues --    0.62762   0.63466   0.64050   0.64651   0.65334
 Alpha virt. eigenvalues --    0.65501   0.66331   0.66397   0.66827   0.67123
 Alpha virt. eigenvalues --    0.67543   0.68165   0.68426   0.69694   0.70465
 Alpha virt. eigenvalues --    0.70991   0.71659   0.71991   0.72517   0.72901
 Alpha virt. eigenvalues --    0.74007   0.74830   0.75175   0.75929   0.76308
 Alpha virt. eigenvalues --    0.77196   0.78417   0.79231   0.79748   0.80858
 Alpha virt. eigenvalues --    0.81002   0.81432   0.82479   0.83268   0.83459
 Alpha virt. eigenvalues --    0.84213   0.86057   0.86701   0.87087   0.87316
 Alpha virt. eigenvalues --    0.87735   0.88654   0.89784   0.90083   0.90346
 Alpha virt. eigenvalues --    0.90499   0.91223   0.91855   0.92483   0.92941
 Alpha virt. eigenvalues --    0.93688   0.94081   0.94936   0.95584   0.96300
 Alpha virt. eigenvalues --    0.96652   0.97069   0.97593   0.98814   0.99576
 Alpha virt. eigenvalues --    1.00577   1.00794   1.01378   1.01847   1.03005
 Alpha virt. eigenvalues --    1.03358   1.03813   1.04459   1.05720   1.06484
 Alpha virt. eigenvalues --    1.06854   1.07995   1.08260   1.08745   1.10092
 Alpha virt. eigenvalues --    1.10585   1.11115   1.12216   1.12586   1.13366
 Alpha virt. eigenvalues --    1.14156   1.15148   1.15392   1.16183   1.17371
 Alpha virt. eigenvalues --    1.17709   1.18523   1.18843   1.19226   1.20190
 Alpha virt. eigenvalues --    1.21037   1.21165   1.22888   1.23277   1.24552
 Alpha virt. eigenvalues --    1.25049   1.25643   1.25865   1.27129   1.27696
 Alpha virt. eigenvalues --    1.28228   1.28754   1.29467   1.29521   1.30750
 Alpha virt. eigenvalues --    1.31916   1.32103   1.33622   1.33697   1.34276
 Alpha virt. eigenvalues --    1.34810   1.35937   1.36955   1.39097   1.39689
 Alpha virt. eigenvalues --    1.40025   1.41314   1.42443   1.42548   1.43417
 Alpha virt. eigenvalues --    1.45062   1.45467   1.46669   1.47151   1.49724
 Alpha virt. eigenvalues --    1.50460   1.50978   1.52480   1.52844   1.53529
 Alpha virt. eigenvalues --    1.53730   1.54684   1.54863   1.55165   1.55931
 Alpha virt. eigenvalues --    1.56471   1.56899   1.57217   1.58145   1.58560
 Alpha virt. eigenvalues --    1.59046   1.59270   1.60141   1.60534   1.60622
 Alpha virt. eigenvalues --    1.61191   1.61312   1.62593   1.62803   1.63153
 Alpha virt. eigenvalues --    1.63465   1.63721   1.64332   1.64550   1.65026
 Alpha virt. eigenvalues --    1.65844   1.66795   1.67242   1.68109   1.68724
 Alpha virt. eigenvalues --    1.68789   1.69908   1.71003   1.71452   1.71897
 Alpha virt. eigenvalues --    1.72208   1.72629   1.73321   1.74253   1.74385
 Alpha virt. eigenvalues --    1.75755   1.76448   1.77033   1.77535   1.77845
 Alpha virt. eigenvalues --    1.78198   1.78945   1.79352   1.80593   1.80859
 Alpha virt. eigenvalues --    1.82338   1.82558   1.83668   1.84234   1.85181
 Alpha virt. eigenvalues --    1.85967   1.86111   1.87225   1.87676   1.88927
 Alpha virt. eigenvalues --    1.89445   1.89833   1.90299   1.91170   1.91612
 Alpha virt. eigenvalues --    1.92288   1.92780   1.94020   1.94161   1.94509
 Alpha virt. eigenvalues --    1.95228   1.95646   1.96653   1.97426   1.97899
 Alpha virt. eigenvalues --    1.99127   1.99700   2.00045   2.01527   2.02404
 Alpha virt. eigenvalues --    2.02841   2.03338   2.04378   2.04675   2.05134
 Alpha virt. eigenvalues --    2.05727   2.06009   2.07261   2.07629   2.09159
 Alpha virt. eigenvalues --    2.09427   2.10586   2.10931   2.12372   2.13856
 Alpha virt. eigenvalues --    2.14433   2.14706   2.15864   2.16204   2.17289
 Alpha virt. eigenvalues --    2.17831   2.18021   2.18215   2.19225   2.19931
 Alpha virt. eigenvalues --    2.21168   2.21255   2.21610   2.22509   2.22909
 Alpha virt. eigenvalues --    2.23303   2.23822   2.25121   2.25252   2.26261
 Alpha virt. eigenvalues --    2.26799   2.27596   2.28526   2.29289   2.30044
 Alpha virt. eigenvalues --    2.30423   2.31944   2.32482   2.33933   2.33946
 Alpha virt. eigenvalues --    2.34446   2.35072   2.35542   2.36422   2.36600
 Alpha virt. eigenvalues --    2.37552   2.37766   2.38140   2.38757   2.39644
 Alpha virt. eigenvalues --    2.40612   2.40741   2.41925   2.42759   2.43769
 Alpha virt. eigenvalues --    2.44656   2.45158   2.46106   2.46895   2.47414
 Alpha virt. eigenvalues --    2.47787   2.49062   2.49881   2.50991   2.51970
 Alpha virt. eigenvalues --    2.52815   2.53509   2.54329   2.54804   2.56040
 Alpha virt. eigenvalues --    2.56463   2.57479   2.58214   2.58330   2.58436
 Alpha virt. eigenvalues --    2.59856   2.60216   2.60447   2.60646   2.61815
 Alpha virt. eigenvalues --    2.62032   2.62538   2.63189   2.64098   2.64852
 Alpha virt. eigenvalues --    2.65867   2.66397   2.66580   2.67407   2.67708
 Alpha virt. eigenvalues --    2.68456   2.68832   2.69544   2.69882   2.70682
 Alpha virt. eigenvalues --    2.71677   2.71893   2.72795   2.73311   2.73861
 Alpha virt. eigenvalues --    2.74403   2.75396   2.76163   2.76754   2.77718
 Alpha virt. eigenvalues --    2.79422   2.79650   2.80096   2.80836   2.81227
 Alpha virt. eigenvalues --    2.82039   2.82771   2.82935   2.83654   2.83989
 Alpha virt. eigenvalues --    2.85034   2.85847   2.85887   2.86851   2.87786
 Alpha virt. eigenvalues --    2.88988   2.89279   2.89671   2.90406   2.91915
 Alpha virt. eigenvalues --    2.92554   2.93141   2.94006   2.94525   2.94832
 Alpha virt. eigenvalues --    2.96369   2.97397   2.97939   2.98425   2.99521
 Alpha virt. eigenvalues --    3.00073   3.01196   3.01545   3.01786   3.03052
 Alpha virt. eigenvalues --    3.03577   3.04444   3.04926   3.06242   3.06577
 Alpha virt. eigenvalues --    3.07240   3.07702   3.08844   3.09679   3.09903
 Alpha virt. eigenvalues --    3.10224   3.11209   3.11426   3.11846   3.12571
 Alpha virt. eigenvalues --    3.12841   3.13557   3.14029   3.14598   3.15151
 Alpha virt. eigenvalues --    3.16210   3.16342   3.17387   3.17814   3.18447
 Alpha virt. eigenvalues --    3.18885   3.19408   3.19769   3.20846   3.21232
 Alpha virt. eigenvalues --    3.22017   3.22670   3.23073   3.23535   3.24463
 Alpha virt. eigenvalues --    3.25455   3.25983   3.26539   3.26895   3.27902
 Alpha virt. eigenvalues --    3.28346   3.29469   3.30373   3.30551   3.31028
 Alpha virt. eigenvalues --    3.31606   3.31929   3.32752   3.32891   3.33557
 Alpha virt. eigenvalues --    3.34474   3.35241   3.35611   3.36101   3.36734
 Alpha virt. eigenvalues --    3.37530   3.38316   3.39293   3.39714   3.40205
 Alpha virt. eigenvalues --    3.41239   3.41369   3.41821   3.42152   3.42837
 Alpha virt. eigenvalues --    3.43157   3.44562   3.45146   3.45482   3.45910
 Alpha virt. eigenvalues --    3.46354   3.47351   3.48025   3.48735   3.49859
 Alpha virt. eigenvalues --    3.50314   3.51123   3.51465   3.52951   3.53339
 Alpha virt. eigenvalues --    3.54336   3.54796   3.55759   3.56478   3.57037
 Alpha virt. eigenvalues --    3.57388   3.57644   3.58534   3.59132   3.60122
 Alpha virt. eigenvalues --    3.60496   3.61753   3.62652   3.63909   3.64578
 Alpha virt. eigenvalues --    3.66053   3.67141   3.67622   3.69591   3.69972
 Alpha virt. eigenvalues --    3.70618   3.71768   3.72827   3.73541   3.75413
 Alpha virt. eigenvalues --    3.75570   3.76935   3.77761   3.78591   3.79788
 Alpha virt. eigenvalues --    3.79935   3.80380   3.82253   3.83568   3.85410
 Alpha virt. eigenvalues --    3.85720   3.86478   3.86995   3.87642   3.88850
 Alpha virt. eigenvalues --    3.90555   3.91175   3.92297   3.93100   3.94297
 Alpha virt. eigenvalues --    3.95936   3.97007   3.97686   3.97915   3.98836
 Alpha virt. eigenvalues --    3.99847   4.01397   4.02546   4.05751   4.06660
 Alpha virt. eigenvalues --    4.08035   4.10573   4.11094   4.12392   4.13344
 Alpha virt. eigenvalues --    4.14291   4.15684   4.16701   4.17127   4.17766
 Alpha virt. eigenvalues --    4.18261   4.19980   4.20948   4.22957   4.23867
 Alpha virt. eigenvalues --    4.26847   4.27097   4.28863   4.29529   4.31186
 Alpha virt. eigenvalues --    4.32125   4.33609   4.35344   4.36617   4.37699
 Alpha virt. eigenvalues --    4.39229   4.40076   4.40793   4.42192   4.43759
 Alpha virt. eigenvalues --    4.43971   4.44791   4.45449   4.47477   4.48977
 Alpha virt. eigenvalues --    4.50230   4.51354   4.54511   4.57042   4.57804
 Alpha virt. eigenvalues --    4.58880   4.60018   4.61922   4.63624   4.66633
 Alpha virt. eigenvalues --    4.67798   4.71587   4.73417   4.75613   4.76261
 Alpha virt. eigenvalues --    4.77381   4.79771   4.80705   4.81483   4.83602
 Alpha virt. eigenvalues --    4.85437   4.86429   4.88434   4.89073   4.90012
 Alpha virt. eigenvalues --    4.91172   4.93220   4.94881   4.96194   4.98010
 Alpha virt. eigenvalues --    4.99977   5.02099   5.03459   5.04676   5.05396
 Alpha virt. eigenvalues --    5.08349   5.12893   5.14621   5.18258   5.20060
 Alpha virt. eigenvalues --    5.21135   5.24790   5.26990   5.27215   5.29110
 Alpha virt. eigenvalues --    5.30548   5.31006   5.32319   5.33756   5.37713
 Alpha virt. eigenvalues --    5.39548   5.42228   5.43434   5.45214   5.46750
 Alpha virt. eigenvalues --    5.48783   5.49338   5.50247   5.53129   5.58662
 Alpha virt. eigenvalues --    5.64674   5.67349   5.72105   5.74401   5.77521
 Alpha virt. eigenvalues --    5.80175   5.81292   5.83485   5.84827   5.86831
 Alpha virt. eigenvalues --    5.88328   5.90549   5.91815   5.94262   5.95230
 Alpha virt. eigenvalues --    5.97440   6.03062   6.05746   6.15140   6.17976
 Alpha virt. eigenvalues --    6.20323   6.22279   6.26087   6.26734   6.37953
 Alpha virt. eigenvalues --    6.41928   6.44543   6.47954   6.50161   6.55735
 Alpha virt. eigenvalues --    6.58006   6.69038   6.73658   6.75563   6.76373
 Alpha virt. eigenvalues --    6.77091   6.80636   6.83872   6.85074   6.87478
 Alpha virt. eigenvalues --    6.90040   6.95134   6.99991   7.08129   7.08453
 Alpha virt. eigenvalues --    7.09939   7.11271   7.16953   7.19235   7.23719
 Alpha virt. eigenvalues --    7.32349   7.41586   9.06856   9.42372   9.59221
 Alpha virt. eigenvalues --   19.80961  22.36486  22.46567  22.49710  22.57270
 Alpha virt. eigenvalues --   22.64744  22.68027  22.74434  22.75434  22.82132
 Alpha virt. eigenvalues --   22.86773  22.94754  22.96981  23.07237  23.18939
 Alpha virt. eigenvalues --   23.28635  23.51526  32.18698  33.16325  44.13274
 Alpha virt. eigenvalues --   44.23322  44.26347  44.37674  44.51275
          Condensed to atoms (all electrons):
               1          2          3          4          5          6
     1  C    5.153888   0.430454   0.411899   0.003971  -0.006956  -0.000237
     2  H    0.430454   0.495687  -0.013099  -0.002404   0.000478  -0.000005
     3  H    0.411899  -0.013099   0.502714  -0.000453   0.000208  -0.000009
     4  C    0.003971  -0.002404  -0.000453   5.572711   0.540168   0.237302
     5  H   -0.006956   0.000478   0.000208   0.540168   0.528189  -0.035033
     6  O   -0.000237  -0.000005  -0.000009   0.237302  -0.035033   8.182537
     7  H   -0.000007  -0.000003  -0.000003  -0.059039  -0.006754   0.304321
     8  C   -0.004642   0.011153  -0.001224  -0.042627  -0.106302  -0.061277
     9  H    0.007277  -0.000320  -0.001941  -0.075818   0.002186   0.001278
    10  O    0.005214  -0.000192  -0.000014   0.050224   0.005642  -0.023113
[...]
 (Enter /storage/apps/GAUSSIAN/G16_RevA03/g16/l716.exe)
 Dipole        = 7.53797875D-01-2.73821734D+00 7.89050000D-01
 ***** Axes restored to original set *****
 -------------------------------------------------------------------
 Center     Atomic                   Forces (Hartrees/Bohr)
 Number     Number              X              Y              Z
 -------------------------------------------------------------------
      1        6          -0.000136403   -0.000049132    0.000271692
      2        1          -0.000002183   -0.000001202    0.000012277
      3        1          -0.000022763   -0.000019605    0.000015221
      4        6          -0.000164838   -0.000008545   -0.000040829
      5        1          -0.000058790    0.000004170   -0.000008733
      6        8          -0.000402255   -0.000085899   -0.000059853
      7        1          -0.000036826   -0.000012619   -0.000014878
      8        6          -0.000233778   -0.000046950    0.000227799
      9        1          -0.000032762    0.000003284    0.000031306
     10        8          -0.000389088   -0.000034507    0.000432189
     11        1          -0.000034377    0.000004729    0.000033349
     12        6           0.000132968    0.000063532   -0.000030705
     13        1           0.000018544    0.000009015   -0.000031437
     14        6           0.000018238   -0.000023338    0.000333718
     15        1          -0.000002917   -0.000010085    0.000017930
     16        8           0.000435013    0.000112945    0.000270429
     17        7           0.000416127   -0.000042596   -0.000413476
     18        6           0.000642261    0.000168396   -0.000877083
     19        1           0.000022127    0.000016417   -0.000056978
     20        6           0.000784063    0.000047878   -0.000880115
     21        1           0.000049284    0.000035238   -0.000051969
     22        6           0.000214050    0.000165064   -0.000547636
     23        1           0.000109931   -0.000004455    0.000026678
     24        1          -0.000020460   -0.000011006   -0.000021239
     25        6           0.000085845    0.000061478   -0.000056840
     26        6           0.000126987    0.000125035    0.000046911
     27        1          -0.000028964   -0.000049411    0.000055984
     28        6          -0.000124492   -0.000062325    0.000186705
     29        8          -0.000063961   -0.000031728   -0.000223956
     30        7           0.000064458    0.000246291    0.000501754
     31        1          -0.000034595   -0.000000623    0.000054872
     32        1          -0.000303112   -0.000348480    0.000244225
     33        1          -0.000046349    0.000017821    0.000023575
     34        6          -0.000261838   -0.000107535    0.000080634
     35        6           0.000076377   -0.000123817   -0.000205495
     36        6          -0.000407329   -0.000122103    0.000437263
     37        6          -0.000221639    0.001551561    0.001854353
     38        6          -0.000603644   -0.000079412    0.000684238
     39        8           0.000153739   -0.000103479   -0.000741078
     40       16           0.000791635   -0.000015891   -0.001438037
     41        1          -0.000013530   -0.000016252   -0.000007928
     42        1          -0.000020005    0.000001663    0.000033969
     43        1           0.000162158   -0.000170990   -0.000280281
     44        1          -0.000003659    0.000002059    0.000144369
     45        1          -0.000616748   -0.001038301   -0.000074568
     46        1           0.000013908    0.000000883    0.000015989
     47        1           0.000003283   -0.000010998    0.000053804
     48        1          -0.000033687   -0.000006176   -0.000028116
 -------------------------------------------------------------------
 Cartesian Forces:  Max     0.001854353 RMS     0.000347953
 Leave Link  716 at Sat Aug 13 20:58:43 2022, MaxMem=  2684354560 cpu:               0.4 elap:               0.0
 (Enter /storage/apps/GAUSSIAN/G16_RevA03/g16/l103.exe)

 GradGradGradGradGradGradGradGradGradGradGradGradGradGradGradGradGradGrad
 Berny optimization.
 Search for a local minimum.
 Step number   1 out of a maximum of    2
 All quantities printed in internal units (Hartrees-Bohrs-Radians)
 Second derivative matrix not updated -- first step.
 ITU=  0
     Eigenvalues ---    0.00023   0.00087   0.00106   0.00127   0.00181
     Eigenvalues ---    0.00212   0.00304   0.00341   0.00445   0.00476
     Eigenvalues ---    0.00595   0.00623   0.00806   0.00918   0.00959
     Eigenvalues ---    0.00966   0.01127   0.01182   0.01350   0.01503
     Eigenvalues ---    0.01719   0.02148   0.02305   0.02425   0.02667
     Eigenvalues ---    0.02986   0.03125   0.03302   0.03691   0.04239
     Eigenvalues ---    0.04394   0.04592   0.04775   0.05006   0.05244
     Eigenvalues ---    0.05301   0.05441   0.05734   0.05822   0.05970
     Eigenvalues ---    0.06153   0.06296   0.06451   0.06762   0.07039
     Eigenvalues ---    0.07071   0.07118   0.07663   0.08100   0.08342
     Eigenvalues ---    0.08676   0.08819   0.09195   0.09352   0.10435
     Eigenvalues ---    0.10745   0.10848   0.11214   0.12150   0.12548
     Eigenvalues ---    0.12830   0.13059   0.13225   0.13302   0.13687
     Eigenvalues ---    0.13898   0.14022   0.15621   0.16236   0.16456
     Eigenvalues ---    0.17547   0.18132   0.18641   0.19207   0.19904
     Eigenvalues ---    0.20352   0.20641   0.21153   0.21946   0.22566
     Eigenvalues ---    0.25184   0.25539   0.27338   0.28079   0.30616
     Eigenvalues ---    0.33213   0.33650   0.34405   0.34672   0.37722
     Eigenvalues ---    0.37861   0.37861   0.37861   0.37861   0.39929
     Eigenvalues ---    0.43845   0.48074   0.49228   0.57108   0.58607
     Eigenvalues ---    0.60030   0.61768   0.69576   0.72144   0.73853
     Eigenvalues ---    0.79206   0.81740   0.82670   0.87444   0.90833
     Eigenvalues ---    0.91192   0.92164   0.92550   0.93353   0.95331
     Eigenvalues ---    0.96790   0.99840   0.99943   1.02121   1.04177
     Eigenvalues ---    1.05995   1.08563   1.11421   1.11658   1.12615
     Eigenvalues ---    1.20072   1.20699   1.27442   1.27835   1.28929
     Eigenvalues ---    1.33561   1.37318   1.43287   1.56432   1.72493
     Eigenvalues ---    1.84260   1.87460   2.35955
 Quadratic step=3.751D+00 exceeds max=3.000D-01 adjusted using Lamda=-3.160D-03.
 Angle between NR and scaled steps=  26.38 degrees.
 Angle between quadratic step and forces=  65.51 degrees.
 Linear search not attempted -- first point.
 Variable       Old X    -DE/DX   Delta X   Delta X   Delta X     New X
                                 (Linear)    (Quad)   (Total)
    X1        6.78103  -0.00014   0.00000  -0.02080  -0.02080   6.76023
    Y1       -6.83712  -0.00005   0.00000  -0.02326  -0.02326  -6.86038
    Z1       -0.80073   0.00027   0.00000   0.03079   0.03079  -0.76994
    X2        7.07903  -0.00000   0.00000  -0.01508  -0.01508   7.06394
    Y2       -7.00926  -0.00000   0.00000  -0.03305  -0.03305  -7.04231
    Z2       -2.83044   0.00001   0.00000   0.03182   0.03182  -2.79861
    X3        8.15872  -0.00002   0.00000  -0.02838  -0.02838   8.13034
    Y3       -8.02384  -0.00002   0.00000  -0.02773  -0.02773  -8.05157
    Z3        0.16779   0.00002   0.00000   0.03638   0.03638   0.20417
    X4        3.48572  -0.00016   0.00000  -0.00760  -0.00760   3.47812
    Y4       -2.71582  -0.00001   0.00000   0.01738   0.01738  -2.69844
    Z4        2.36220  -0.00004   0.00000  -0.00611  -0.00611   2.35609
    X5        2.25736  -0.00006   0.00000  -0.01361  -0.01361   2.24375
    Y5       -4.36062   0.00000   0.00000   0.02236   0.02236  -4.33826
    Z5        2.04931  -0.00001   0.00000  -0.00658  -0.00658   2.04273
    X6        2.72122  -0.00040   0.00000  -0.01251  -0.01251   2.70870
    Y6       -1.28020  -0.00009   0.00000   0.03281   0.03281  -1.24740
    Z6        4.39875  -0.00006   0.00000  -0.01848  -0.01848   4.38026
    X7        0.94898  -0.00004   0.00000  -0.00317  -0.00317   0.94581
    Y7       -0.67822  -0.00001   0.00000   0.04692   0.04692  -0.63130
    Z7        4.05263  -0.00001   0.00000  -0.03888  -0.03888   4.01375
    X8        6.23261  -0.00023   0.00000  -0.01426  -0.01426   6.21835
    Y8       -3.56320  -0.00005   0.00000   0.00263   0.00263  -3.56057
    Z8        2.70125   0.00023   0.00000   0.01297   0.01297   2.71422
    X9        6.37906  -0.00003   0.00000  -0.02611  -0.02611   6.35295
    Y9       -5.23100   0.00000   0.00000   0.00889   0.00889  -5.22211
    Z9        3.91492   0.00003   0.00000   0.02249   0.02249   3.93741
   X10        7.66208  -0.00039   0.00000  -0.00656  -0.00656   7.65551
   Y10       -1.53882  -0.00003   0.00000   0.00079   0.00079  -1.53803
   Z10        3.65727   0.00043   0.00000   0.00554   0.00554   3.66281
   X11        6.61300  -0.00003   0.00000  -0.00486  -0.00486   6.60814
   Y11       -0.70270   0.00000   0.00000   0.01911   0.01911  -0.68359
   Z11        4.90094   0.00003   0.00000  -0.00626  -0.00626   4.89468
   X12        3.73978   0.00013   0.00000   0.01422   0.01422   3.75400
   Y12       -1.24204   0.00006   0.00000   0.00201   0.00201  -1.24003
   Z12       -0.13208  -0.00003   0.00000  -0.01359  -0.01359  -0.14567
   X13        4.26417   0.00002   0.00000   0.02672   0.02672   4.29089
   Y13        0.71753   0.00001   0.00000   0.00097   0.00097   0.71849
   Z13        0.25248  -0.00003   0.00000  -0.02528  -0.02528   0.22720
   X14        7.08568   0.00002   0.00000  -0.00597  -0.00597   7.07970
   Y14       -4.10933  -0.00002   0.00000  -0.02078  -0.02078  -4.13011
   Z14        0.00730   0.00033   0.00000   0.01972   0.01972   0.02702
   X15        9.03525  -0.00000   0.00000  -0.00015  -0.00015   9.03510
   Y15       -3.48596  -0.00001   0.00000  -0.03671  -0.03671  -3.52267
   Z15       -0.22768   0.00002   0.00000   0.02052   0.02052  -0.20716
   X16        5.53189   0.00044   0.00000   0.01293   0.01293   5.54482
   Y16       -2.51356   0.00011   0.00000  -0.01850  -0.01850  -2.53206
   Z16       -1.57672   0.00027   0.00000   0.00378   0.00378  -1.57294
   X17        1.39781   0.00042   0.00000   0.02087   0.02087   1.41868
   Y17       -1.13658  -0.00004   0.00000   0.00446   0.00446  -1.13213
   Z17       -1.66259  -0.00041   0.00000  -0.02441  -0.02441  -1.68700
   X18        0.50777   0.00064   0.00000   0.04133   0.04133   0.54910
   Y18       -3.30876   0.00017   0.00000   0.00990   0.00990  -3.29885
   Z18       -2.66809  -0.00088   0.00000  -0.05429  -0.05429  -2.72238
   X19        1.60164   0.00002   0.00000   0.05473   0.05473   1.65636
   Y19       -4.98414   0.00002   0.00000   0.01404   0.01404  -4.97010
   Z19       -2.27958  -0.00006   0.00000  -0.07337  -0.07337  -2.35295
   X20       -1.60110   0.00078   0.00000   0.04308   0.04308  -1.55801
   Y20       -3.28031   0.00005   0.00000   0.01076   0.01076  -3.26955
   Z20       -4.16135  -0.00088   0.00000  -0.05653  -0.05653  -4.21788
   X21       -2.27642   0.00005   0.00000   0.06002   0.06002  -2.21640
   Y21       -5.02596   0.00004   0.00000   0.01516   0.01516  -5.01081
   Z21       -4.97457  -0.00005   0.00000  -0.07984  -0.07984  -5.05441
   X22       -2.81556   0.00021   0.00000   0.01922   0.01922  -2.79634
   Y22       -0.99500   0.00017   0.00000   0.00540   0.00540  -0.98960
   Z22       -4.63569  -0.00055   0.00000  -0.02259  -0.02259  -4.65827
   X23       -4.42424   0.00011   0.00000   0.02140   0.02140  -4.40284
   Y23       -0.92804  -0.00000   0.00000   0.00750   0.00750  -0.92054
   Z23       -5.89637   0.00003   0.00000  -0.02454  -0.02454  -5.92092
   X24       -5.67075  -0.00002   0.00000  -0.00731  -0.00731  -5.67805
   Y24       -1.59974  -0.00001   0.00000  -0.01174  -0.01174  -1.61148
   Z24       -1.62263  -0.00002   0.00000   0.02713   0.02713  -1.59550
   X25       -1.89258   0.00009   0.00000  -0.00365  -0.00365  -1.89623
   Y25        1.21041   0.00006   0.00000  -0.00083  -0.00083   1.20958
   Z25       -3.55006  -0.00006   0.00000   0.00996   0.00996  -3.54011
   X26        0.25543   0.00013   0.00000   0.00346   0.00346   0.25888
   Y26        1.06504   0.00013   0.00000   0.00028   0.00028   1.06533
   Z26       -2.06422   0.00005   0.00000   0.00077   0.00077  -2.06345
   X27        1.04876  -0.00003   0.00000  -0.00374  -0.00374   1.04502
   Y27        2.74282  -0.00005   0.00000  -0.00307  -0.00307   2.73975
   Z27       -1.20244   0.00006   0.00000   0.01378   0.01378  -1.18866
   X28       -2.91103  -0.00012   0.00000  -0.03077  -0.03077  -2.94180
   Y28        3.80156  -0.00006   0.00000  -0.00392  -0.00392   3.79764
   Z28       -4.07425   0.00019   0.00000   0.04634   0.04634  -4.02791
   X29       -1.56809  -0.00006   0.00000  -0.04450  -0.04450  -1.61259
   Y29        5.63726  -0.00003   0.00000   0.00513   0.00513   5.64239
   Z29       -3.89072  -0.00022   0.00000   0.05240   0.05240  -3.83832
   X30       -5.34388   0.00006   0.00000  -0.03370  -0.03370  -5.37757
   Y30        3.87388   0.00025   0.00000  -0.01183  -0.01183   3.86205
   Z30       -4.94525   0.00050   0.00000   0.05582   0.05582  -4.88943
   X31       -6.06471  -0.00003   0.00000  -0.03807  -0.03807  -6.10278
   Y31        5.63479  -0.00000   0.00000  -0.01371  -0.01371   5.62107
   Z31       -5.07863   0.00005   0.00000   0.05546   0.05546  -5.02317
   X32       -6.54417  -0.00030   0.00000  -0.02704  -0.02704  -6.57120
   Y32        2.56313  -0.00035   0.00000  -0.02235  -0.02235   2.54078
   Z32       -4.25382   0.00024   0.00000   0.04738   0.04738  -4.20644
   X33        4.89610  -0.00005   0.00000  -0.02556  -0.02556   4.87054
   Y33       -7.54683   0.00002   0.00000  -0.01177  -0.01177  -7.55860
   Z33       -0.34591   0.00002   0.00000   0.02699   0.02699  -0.31892
   X34        0.34542  -0.00026   0.00000  -0.00525  -0.00525   0.34017
   Y34        4.14502  -0.00011   0.00000   0.00280   0.00280   4.14781
   Z34        5.38814   0.00008   0.00000  -0.00303  -0.00303   5.38511
   X35       -3.13990   0.00008   0.00000   0.01005   0.01005  -3.12985
   Y35        1.67502  -0.00012   0.00000  -0.00587  -0.00587   1.66914
   Z35        2.28457  -0.00021   0.00000  -0.00934  -0.00934   2.27523
   X36       -5.35063  -0.00041   0.00000  -0.00072  -0.00072  -5.35135
   Y36        1.57542  -0.00012   0.00000  -0.00634  -0.00634   1.56907
   Z36        0.94288   0.00044   0.00000   0.00964   0.00964   0.95252
   X37       -9.36670  -0.00022   0.00000  -0.00550  -0.00550  -9.37221
   Y37       -0.60025   0.00155   0.00000   0.00664   0.00664  -0.59360
   Z37       -0.36633   0.00185   0.00000   0.01130   0.01130  -0.35503
   X38       -6.53410  -0.00060   0.00000  -0.01005  -0.01005  -6.54414
   Y38       -0.84665  -0.00008   0.00000  -0.00604  -0.00604  -0.85269
   Z38        0.11762   0.00068   0.00000   0.02539   0.02539   0.14301
   X39       -1.66677   0.00015   0.00000   0.00297   0.00297  -1.66380
   Y39       -0.16218  -0.00010   0.00000  -0.01029  -0.01029  -0.17247
   Z39        2.75337  -0.00074   0.00000  -0.00475  -0.00475   2.74862
   X40       -2.26513   0.00079   0.00000   0.04583   0.04583  -2.21930
   Y40        4.82513  -0.00002   0.00000   0.00273   0.00273   4.82786
   Z40        3.31724  -0.00144   0.00000  -0.06684  -0.06684   3.25040
   X41        0.77537  -0.00001   0.00000  -0.01666  -0.01666   0.75871
   Y41        5.90431  -0.00002   0.00000   0.00686   0.00686   5.91117
   Z41        6.36341  -0.00001   0.00000  -0.00563  -0.00563   6.35779
   X42        2.01075  -0.00002   0.00000   0.01410   0.01410   2.02485
   Y42        3.52400   0.00000   0.00000  -0.01172  -0.01172   3.51228
   Z42        4.35672   0.00003   0.00000   0.03650   0.03650   4.39322
   X43      -10.36216   0.00016   0.00000  -0.01499  -0.01499 -10.37715
   Y43       -0.04886  -0.00017   0.00000   0.02152   0.02152  -0.02733
   Z43        1.35312  -0.00028   0.00000  -0.00256  -0.00256   1.35056
   X44       -9.76151  -0.00000   0.00000   0.01844   0.01844  -9.74308
   Y44        0.85598   0.00000   0.00000  -0.00076  -0.00076   0.85522
   Z44       -1.78120   0.00014   0.00000  -0.00401  -0.00401  -1.78520
   X45      -10.17523  -0.00062   0.00000  -0.00762  -0.00762 -10.18285
   Y45       -2.36499  -0.00104   0.00000   0.00444   0.00444  -2.36055
   Z45       -1.04936  -0.00007   0.00000   0.00893   0.00893  -1.04043
   X46       -6.16843   0.00001   0.00000  -0.01291  -0.01291  -6.18134
   Y46       -2.31433   0.00000   0.00000  -0.00434  -0.00434  -2.31867
   Z46        1.52786   0.00002   0.00000   0.02665   0.02665   1.55451
   X47       -6.43207   0.00000   0.00000   0.01171   0.01171  -6.42036
   Y47        3.30566  -0.00001   0.00000  -0.00097  -0.00097   3.30469
   Z47        0.74955   0.00005   0.00000  -0.00865  -0.00865   0.74089
   X48       -0.17606  -0.00003   0.00000  -0.04203  -0.04203  -0.21809
   Y48        2.71319  -0.00001   0.00000   0.01323   0.01323   2.72641
   Z48        6.76887  -0.00003   0.00000  -0.00649  -0.00649   6.76238
         Item               Value     Threshold  Converged?
 Maximum Force            0.001854     0.000450     NO 
 RMS     Force            0.000348     0.000300     NO 
 Maximum Displacement     0.079838     0.001800     NO 
 RMS     Displacement     0.025006     0.001200     NO 
 Predicted change in Energy=-4.019175D-04
 GradGradGradGradGradGradGradGradGradGradGradGradGradGradGradGradGradGrad

 Leave Link  103 at Sat Aug 13 20:58:43 2022, MaxMem=  2684354560 cpu:               0.9 elap:               0.1
 (Enter /storage/apps/GAUSSIAN/G16_RevA03/g16/l9999.exe)

 Test job not archived.
 1\1\GINC-T041\Force\RM062X\def2TZVP\C16H24N2O5S1\LV87696\13-Aug-2022\0
 \\#P M062X/Def2TZVP scf=(direct,conver=8) EmpiricalDispersion=GD3 Forc
 e Charge Prop=(Field,Read)\\Gaussian run\\0,1\C,3.588369,-3.61805,-0.4
 23729\H,3.74606,-3.70914,-1.497802\H,4.317407,-4.246033,0.088792\C,1.8
 44561,-1.437149,1.250024\H,1.194544,-2.30754,1.084448\O,1.440005,-0.67
 7455,2.327716\H,0.502178,-0.358901,2.14456\C,3.298155,-1.885565,1.4294
 38\H,3.375653,-2.768125,2.071688\O,4.054596,-0.814311,1.935344\H,3.499
 451,-0.371854,2.593464\C,1.979007,-0.657261,-0.069894\H,2.2565,0.3797,
 0.133608\C,3.749578,-2.174566,0.003865\H,4.781248,-1.844689,-0.120481\
 O,2.92735,-1.33012,-0.834363\N,0.739689,-0.601453,-0.879805\C,0.268699
 ,-1.750918,-1.411892\H,0.847549,-2.637494,-1.206303\C,-0.847264,-1.735
 864,-2.202091\H,-1.204629,-2.659625,-2.63243\C,-1.489932,-0.526532,-2.
 4531\H,-2.341209,-0.491098,-3.120227\H,-3.00083,-0.846545,-0.858659\C,
 -1.001509,0.64052,-1.878613\C,0.135166,0.563596,-1.092338\H,0.554981,1
 .451437,-0.636306\C,-1.540451,2.011698,-2.155999\O,-0.829798,2.983107,
 -2.058878\N,-2.827857,2.049971,-2.616914\H,-3.209307,2.9818,-2.687494\
 H,-3.463023,1.35635,-2.251024\H,2.590904,-3.993608,-0.183046\C,0.18278
 8,2.193449,2.851281\C,-1.661564,0.886382,1.208941\C,-2.831432,0.833674
 ,0.49895\C,-4.956646,-0.317636,-0.193854\C,-3.457695,-0.448028,0.06224
 4\O,-0.882018,-0.085823,1.457021\S,-1.198654,2.55335,1.755406\H,0.4103
 09,3.124427,3.367373\H,1.064045,1.864818,2.305479\H,-5.483417,-0.02585
 5,0.716042\H,-5.16557,0.452963,-0.942568\H,-5.3845,-1.251498,-0.555295
 \H,-3.264191,-1.224692,0.808508\H,-3.403705,1.749278,0.396643\H,-0.093
 165,1.435756,3.581932\\Version=ES64L-G16RevA.03\State=1-A\HF=-1507.906
 2826\RMSD=4.040e-09\RMSF=3.480e-04\Dipole=0.0448014,-2.3205927,-1.8169
 997\Quadrupole=1.0969493,1.2261482,-2.3230976,-4.3001395,9.1222676,5.1
 399798\PG=C01 [X(C16H24N2O5S1)]\\@


 ... THE UNIVERSE IS NOT ONLY QUEERER THAN WE SUPPOSE,
 BUT QUEERER THAN WE CAN SUPPOSE ... 

                                   -- J. B. S. HALDANE
 Job cpu time:       0 days  3 hours 18 minutes 18.6 seconds.
 Elapsed time:       0 days  0 hours 12 minutes 25.5 seconds.
 File lengths (MBytes):  RWF=    435 Int=      0 D2E=      0 Chk=     48 Scr=      1
 Normal termination of Gaussian 16 at Sat Aug 13 20:58:43 2022.
