 Entering Gaussian System, Link 0=g16
 Initial command:
 /storage/apps/GAUSSIAN/G16_RevA03/g16/l1.exe "/scratch/tmp/1019363/Gau-137055.inp" -scrdir="/scratch/tmp/1019363/"
 Entering Link 1 = /storage/apps/GAUSSIAN/G16_RevA03/g16/l1.exe PID=    137056.
  
 Copyright (c) 1988,1990,1992,1993,1995,1998,2003,2009,2016,
            Gaussian, Inc.  All Rights Reserved.
  
 This is part of the Gaussian(R) 16 program.  It is based on
 the Gaussian(R) 09 system (copyright 2009, Gaussian, Inc.),
 the Gaussian(R) 03 system (copyright 2003, Gaussian, Inc.),
 the Gaussian(R) 98 system (copyright 1998, Gaussian, Inc.),
 the Gaussian(R) 94 system (copyright 1995, Gaussian, Inc.),
 the Gaussian 92(TM) system (copyright 1992, Gaussian, Inc.),
 the Gaussian 90(TM) system (copyright 1990, Gaussian, Inc.),
 the Gaussian 88(TM) system (copyright 1988, Gaussian, Inc.),
 the Gaussian 86(TM) system (copyright 1986, Carnegie Mellon
 University), and the Gaussian 82(TM) system (copyright 1983,
 Carnegie Mellon University). Gaussian is a federally registered
 trademark of Gaussian, Inc.
  
 This software contains proprietary and confidential information,
 including trade secrets, belonging to Gaussian, Inc.
  
 This software is provided under written license and may be
 used, copied, transmitted, or stored only in accord with that
 written license.
  
 The following legend is applicable only to US Government
 contracts under FAR:
  
                    RESTRICTED RIGHTS LEGEND
  
 Use, reproduction and disclosure by the US Government is
 subject to restrictions as set forth in subparagraphs (a)
 and (c) of the Commercial Computer Software - Restricted
 Rights clause in FAR 52.227-19.
  
 Gaussian, Inc.
 340 Quinnipiac St., Bldg. 40, Wallingford CT 06492
  
  
 ---------------------------------------------------------------
 Warning -- This program may not be used in any manner that
 competes with the business of Gaussian, Inc. or will provide
 assistance to any competitor of Gaussian, Inc.  The licensee
 of this program is prohibited from giving any competitor of
 Gaussian, Inc. access to this program.  By using this program,
 the user acknowledges that Gaussian, Inc. is engaged in the
 business of creating and licensing software in the field of
 computational chemistry and represents and warrants to the
 licensee that it is not a competitor of Gaussian, Inc. and that
 it will not use this program in any manner prohibited above.
 ---------------------------------------------------------------
  

 Cite this work as:
 Gaussian 16, Revision A.03,
 M. J. Frisch, G. W. Trucks, H. B. Schlegel, G. E. Scuseria, 
 M. A. Robb, J. R. Cheeseman, G. Scalmani, V. Barone, 
 G. A. Petersson, H. Nakatsuji, X. Li, M. Caricato, A. V. Marenich, 
 J. Bloino, B. G. Janesko, R. Gomperts, B. Mennucci, H. P. Hratchian, 
 J. V. Ortiz, A. F. Izmaylov, J. L. Sonnenberg, D. Williams-Young, 
 F. Ding, F. Lipparini, F. Egidi, J. Goings, B. Peng, A. Petrone, 
 T. Henderson, D. Ranasinghe, V. G. Zakrzewski, J. Gao, N. Rega, 
 G. Zheng, W. Liang, M. Hada, M. Ehara, K. Toyota, R. Fukuda, 
 J. Hasegawa, M. Ishida, T. Nakajima, Y. Honda, O. Kitao, H. Nakai, 
 T. Vreven, K. Throssell, J. A. Montgomery, Jr., J. E. Peralta, 
 F. Ogliaro, M. J. Bearpark, J. J. Heyd, E. N. Brothers, K. N. Kudin, 
 V. N. Staroverov, T. A. Keith, R. Kobayashi, J. Normand, 
 K. Raghavachari, A. P. Rendell, J. C. Burant, S. S. Iyengar, 
 J. Tomasi, M. Cossi, J. M. Millam, M. Klene, C. Adamo, R. Cammi, 
 J. W. Ochterski, R. L. Martin, K. Morokuma, O. Farkas, 
 J. B. Foresman, and D. J. Fox, Gaussian, Inc., Wallingford CT, 2016.
 
 ******************************************
 Gaussian 16:  ES64L-G16RevA.03 25-Dec-2016
                13-Aug-2022 
 ******************************************
 %NProcShared=16
 Will use up to   16 processors via shared memory.
 %mem=20GB
 ----------------------------------------------------------------------
 #P M062X/Def2TZVP scf=(direct,conver=8) EmpiricalDispersion=GD3 Force 
 Charge Prop=(Field,Read)
 ----------------------------------------------------------------------
 1/10=7,18=10,28=-2,30=1,38=1,125=101/1,3;
 2/12=2,17=6,18=5,29=2,40=1/2;
 3/5=44,7=101,11=2,25=1,30=1,71=1,74=-55,124=31/1,2,3;
 4//1;
 5/5=2,6=8,38=5/2;
 6/7=2,8=2,9=2,10=2,14=2,15=1,28=1/1,2;
 7/7=1,16=-2,29=1/1,2,3,16;
 1/10=7,18=10,28=-2,30=1/3;
 99/12=1/99;
 Leave Link    1 at Sat Aug 13 20:46:46 2022, MaxMem=  2684354560 cpu:               0.6 elap:               0.0
 (Enter /storage/apps/GAUSSIAN/G16_RevA03/g16/l101.exe)
 ------------
 Gaussian run
 ------------
 Symbolic Z-matrix:
 Charge =  0 Multiplicity = 1
 C                     3.58498  -3.6194   -0.41647 
 H                     3.74687  -3.71083  -1.48991 
 H                     4.3093   -4.2506    0.09878 
 C                     1.84012  -1.43715   1.24861 
 H                     1.18972  -2.3064    1.07781 
 O                     1.43184  -0.67903   2.32552 
 H                     0.49443  -0.35873   2.13704 
 C                     3.29237  -1.887     1.43533 
 H                     3.36553  -2.7694    2.07834 
 O                     4.04676  -0.81603   1.94476 
 H                     3.48799  -0.37324   2.59965 
 C                     1.98293  -0.65596  -0.07047 
 H                     2.25831   0.38111   0.13514 
 C                     3.75047  -2.17676   0.0125 
 H                     4.7841   -1.85124  -0.10664 
 O                     2.93636  -1.32764  -0.8292 
 N                     0.74813  -0.59977  -0.889 
 C                     0.28591  -1.74603  -1.43314 
 H                     0.87084  -2.63062  -1.236 
 C                    -0.83095  -1.73104  -2.22339 
 H                    -1.18135  -2.65296  -2.66324 
 C                    -1.48038  -0.52383  -2.46311 
 H                    -2.33523  -0.48726  -3.12703 
 H                    -3.02552  -0.84389  -0.85236 
 C                    -0.99869   0.64082  -1.87967 
 C                     0.13718   0.56387  -1.09187 
 H                     0.55127   1.45     -0.62785 
 C                    -1.54316   2.01116  -2.15152 
 O                    -0.83207   2.9829   -2.06287 
 N                    -2.8353    2.04667  -2.59921 
 H                    -3.21845   2.97811  -2.66666 
 H                    -3.46527   1.35463  -2.21993 
 H                     2.5851   -3.99111  -0.17985 
 C                     0.17655   2.19062   2.85408 
 C                    -1.66242   0.88491   1.20352 
 C                    -2.83977   0.83231   0.50946 
 C                    -4.97282  -0.31276  -0.15887 
 C                    -3.47048  -0.44932   0.07438 
 O                    -0.87814  -0.08763   1.44097 
 S                    -1.18974   2.55287   1.73979 
 H                     0.40207   3.12236   3.36967 
 H                     1.06285   1.85577   2.32051 
 H                    -5.48205  -0.01082   0.7573 
 H                    -5.18959   0.45259  -0.91065 
 H                    -5.4143   -1.2493   -0.50351 
 H                    -3.26932  -1.22752   0.81752 
 H                    -3.41568   1.74682   0.41864 
 H                    -0.11196   1.43695   3.5841 
 
 ITRead=  0  0  0  0  0  0  0  0  0  0  0  0  0  0  0  0  0  0  0  0
 ITRead=  0  0  0  0  0  0  0  0  0  0  0  0  0  0  0  0  0  0  0  0
 ITRead=  0  0  0  0  0  0  0  0
 MicOpt= -1 -1 -1 -1 -1 -1 -1 -1 -1 -1 -1 -1 -1 -1 -1 -1 -1 -1 -1 -1
 MicOpt= -1 -1 -1 -1 -1 -1 -1 -1 -1 -1 -1 -1 -1 -1 -1 -1 -1 -1 -1 -1
 MicOpt= -1 -1 -1 -1 -1 -1 -1 -1
 NAtoms=     48 NQM=       48 NQMF=       0 NMMI=      0 NMMIF=      0
                NMic=       0 NMicF=      0.
                    Isotopes and Nuclear Properties:
 (Nuclear quadrupole moments (NQMom) in fm**2, nuclear magnetic moments (NMagM)
  in nuclear magnetons)

  Atom         1           2           3           4           5           6           7           8           9          10
 IAtWgt=          12           1           1          12           1          16           1          12           1          16
 AtmWgt=  12.0000000   1.0078250   1.0078250  12.0000000   1.0078250  15.9949146   1.0078250  12.0000000   1.0078250  15.9949146
 NucSpn=           0           1           1           0           1           0           1           0           1           0
 AtZEff=  -0.0000000  -0.0000000  -0.0000000  -0.0000000  -0.0000000  -0.0000000  -0.0000000  -0.0000000  -0.0000000  -0.0000000
 NQMom=    0.0000000   0.0000000   0.0000000   0.0000000   0.0000000   0.0000000   0.0000000   0.0000000   0.0000000   0.0000000
 NMagM=    0.0000000   2.7928460   2.7928460   0.0000000   2.7928460   0.0000000   2.7928460   0.0000000   2.7928460   0.0000000
 AtZNuc=   6.0000000   1.0000000   1.0000000   6.0000000   1.0000000   8.0000000   1.0000000   6.0000000   1.0000000   8.0000000

  Atom        11          12          13          14          15          16          17          18          19          20
 IAtWgt=           1          12           1          12           1          16          14          12           1          12
 AtmWgt=   1.0078250  12.0000000   1.0078250  12.0000000   1.0078250  15.9949146  14.0030740  12.0000000   1.0078250  12.0000000
 NucSpn=           1           0           1           0           1           0           2           0           1           0
 AtZEff=  -0.0000000  -0.0000000  -0.0000000  -0.0000000  -0.0000000  -0.0000000  -0.0000000  -0.0000000  -0.0000000  -0.0000000
 NQMom=    0.0000000   0.0000000   0.0000000   0.0000000   0.0000000   0.0000000   2.0440000   0.0000000   0.0000000   0.0000000
 NMagM=    2.7928460   0.0000000   2.7928460   0.0000000   2.7928460   0.0000000   0.4037610   0.0000000   2.7928460   0.0000000
 AtZNuc=   1.0000000   6.0000000   1.0000000   6.0000000   1.0000000   8.0000000   7.0000000   6.0000000   1.0000000   6.0000000

  Atom        21          22          23          24          25          26          27          28          29          30
 IAtWgt=           1          12           1           1          12          12           1          12          16          14
 AtmWgt=   1.0078250  12.0000000   1.0078250   1.0078250  12.0000000  12.0000000   1.0078250  12.0000000  15.9949146  14.0030740
 NucSpn=           1           0           1           1           0           0           1           0           0           2
 AtZEff=  -0.0000000  -0.0000000  -0.0000000  -0.0000000  -0.0000000  -0.0000000  -0.0000000  -0.0000000  -0.0000000  -0.0000000
 NQMom=    0.0000000   0.0000000   0.0000000   0.0000000   0.0000000   0.0000000   0.0000000   0.0000000   0.0000000   2.0440000
 NMagM=    2.7928460   0.0000000   2.7928460   2.7928460   0.0000000   0.0000000   2.7928460   0.0000000   0.0000000   0.4037610
 AtZNuc=   1.0000000   6.0000000   1.0000000   1.0000000   6.0000000   6.0000000   1.0000000   6.0000000   8.0000000   7.0000000

  Atom        31          32          33          34          35          36          37          38          39          40
 IAtWgt=           1           1           1          12          12          12          12          12          16          32
 AtmWgt=   1.0078250   1.0078250   1.0078250  12.0000000  12.0000000  12.0000000  12.0000000  12.0000000  15.9949146  31.9720718
 NucSpn=           1           1           1           0           0           0           0           0           0           0
 AtZEff=  -0.0000000  -0.0000000  -0.0000000  -0.0000000  -0.0000000  -0.0000000  -0.0000000  -0.0000000  -0.0000000  -0.0000000
 NQMom=    0.0000000   0.0000000   0.0000000   0.0000000   0.0000000   0.0000000   0.0000000   0.0000000   0.0000000   0.0000000
 NMagM=    2.7928460   2.7928460   2.7928460   0.0000000   0.0000000   0.0000000   0.0000000   0.0000000   0.0000000   0.0000000
 AtZNuc=   1.0000000   1.0000000   1.0000000   6.0000000   6.0000000   6.0000000   6.0000000   6.0000000   8.0000000  16.0000000

  Atom        41          42          43          44          45          46          47          48
 IAtWgt=           1           1           1           1           1           1           1           1
 AtmWgt=   1.0078250   1.0078250   1.0078250   1.0078250   1.0078250   1.0078250   1.0078250   1.0078250
 NucSpn=           1           1           1           1           1           1           1           1
 AtZEff=  -0.0000000  -0.0000000  -0.0000000  -0.0000000  -0.0000000  -0.0000000  -0.0000000  -0.0000000
 NQMom=    0.0000000   0.0000000   0.0000000   0.0000000   0.0000000   0.0000000   0.0000000   0.0000000
 NMagM=    2.7928460   2.7928460   2.7928460   2.7928460   2.7928460   2.7928460   2.7928460   2.7928460
 AtZNuc=   1.0000000   1.0000000   1.0000000   1.0000000   1.0000000   1.0000000   1.0000000   1.0000000
 Background charge distribution read from input stream:
 Leave Link  101 at Sat Aug 13 20:46:46 2022, MaxMem=  2684354560 cpu:               1.5 elap:               0.1
 (Enter /storage/apps/GAUSSIAN/G16_RevA03/g16/l103.exe)

 GradGradGradGradGradGradGradGradGradGradGradGradGradGradGradGradGradGrad
 Berny optimization.
 Initialization pass.
 Trust Radius=3.00D-01 FncErr=1.00D-07 GrdErr=1.00D-07 EigMax=2.50D+02 EigMin=1.00D-04
 Number of steps in this run=      2 maximum allowed number of steps=      2.
 GradGradGradGradGradGradGradGradGradGradGradGradGradGradGradGradGradGrad

 Leave Link  103 at Sat Aug 13 20:46:46 2022, MaxMem=  2684354560 cpu:               0.3 elap:               0.0
 (Enter /storage/apps/GAUSSIAN/G16_RevA03/g16/l202.exe)
 ---------------------------------------------------------------------------------------------------
                            Z-MATRIX (ANGSTROMS AND DEGREES)
   CD    Cent   Atom    N1       Length/X        N2       Alpha/Y        N3        Beta/Z          J
 ---------------------------------------------------------------------------------------------------
      1      1  C        0   3.584978         -3.619398         -0.416469
      2      2  H        0   3.746874         -3.710833         -1.489908
      3      3  H        0   4.309299         -4.250596          0.098782
      4      4  C        0   1.840116         -1.437152          1.248607
      5      5  H        0   1.189724         -2.306396          1.077805
      6      6  O        0   1.431841         -0.679033          2.325522
      7      7  H        0   0.494432         -0.358728          2.137041
      8      8  C        0   3.292366         -1.887004          1.435330
      9      9  H        0   3.365530         -2.769397          2.078337
     10     10  O        0   4.046764         -0.816030          1.944761
     11     11  H        0   3.487993         -0.373238          2.599652
     12     12  C        0   1.982931         -0.655964         -0.070468
     13     13  H        0   2.258311          0.381113          0.135141
     14     14  C        0   3.750467         -2.176756          0.012497
     15     15  H        0   4.784104         -1.851244         -0.106641
     16     16  O        0   2.936357         -1.327641         -0.829196
     17     17  N        0   0.748126         -0.599773         -0.889001
     18     18  C        0   0.285909         -1.746029         -1.433141
     19     19  H        0   0.870840         -2.630624         -1.235997
     20     20  C        0  -0.830950         -1.731044         -2.223388
     21     21  H        0  -1.181347         -2.652962         -2.663237
     22     22  C        0  -1.480378         -0.523828         -2.463113
     23     23  H        0  -2.335234         -0.487263         -3.127029
     24     24  H        0  -3.025518         -0.843885         -0.852356
     25     25  C        0  -0.998686          0.640816         -1.879674
     26     26  C        0   0.137177          0.563872         -1.091866
     27     27  H        0   0.551267          1.450004         -0.627848
     28     28  C        0  -1.543160          2.011164         -2.151524
     29     29  O        0  -0.832067          2.982897         -2.062866
     30     30  N        0  -2.835298          2.046671         -2.599212
     31     31  H        0  -3.218448          2.978105         -2.666656
     32     32  H        0  -3.465268          1.354631         -2.219931
     33     33  H        0   2.585097         -3.991105         -0.179846
     34     34  C        0   0.176545          2.190617          2.854078
     35     35  C        0  -1.662417          0.884911          1.203516
     36     36  C        0  -2.839768          0.832310          0.509464
     37     37  C        0  -4.972816         -0.312755         -0.158870
     38     38  C        0  -3.470484         -0.449323          0.074378
     39     39  O        0  -0.878138         -0.087627          1.440970
     40     40  S        0  -1.189737          2.552868          1.739789
     41     41  H        0   0.402067          3.122357          3.369673
     42     42  H        0   1.062849          1.855773          2.320505
     43     43  H        0  -5.482049         -0.010817          0.757302
     44     44  H        0  -5.189595          0.452586         -0.910645
     45     45  H        0  -5.414301         -1.249300         -0.503506
     46     46  H        0  -3.269317         -1.227523          0.817518
     47     47  H        0  -3.415680          1.746822          0.418644
     48     48  H        0  -0.111960          1.436951          3.584100
 ---------------------------------------------------------------------------------------------------
                         Z-Matrix orientation:                         
 ---------------------------------------------------------------------
 Center     Atomic      Atomic             Coordinates (Angstroms)
 Number     Number       Type             X           Y           Z
 ---------------------------------------------------------------------
      1          6           0        3.584978   -3.619398   -0.416469
      2          1           0        3.746874   -3.710833   -1.489908
      3          1           0        4.309299   -4.250596    0.098782
      4          6           0        1.840116   -1.437152    1.248607
      5          1           0        1.189724   -2.306396    1.077805
      6          8           0        1.431841   -0.679033    2.325522
      7          1           0        0.494432   -0.358728    2.137041
      8          6           0        3.292366   -1.887004    1.435330
      9          1           0        3.365530   -2.769397    2.078337
     10          8           0        4.046764   -0.816030    1.944761
     11          1           0        3.487993   -0.373238    2.599652
     12          6           0        1.982931   -0.655964   -0.070468
     13          1           0        2.258311    0.381113    0.135141
     14          6           0        3.750467   -2.176756    0.012497
     15          1           0        4.784104   -1.851244   -0.106641
     16          8           0        2.936357   -1.327641   -0.829196
     17          7           0        0.748126   -0.599773   -0.889001
     18          6           0        0.285909   -1.746029   -1.433141
     19          1           0        0.870840   -2.630624   -1.235997
     20          6           0       -0.830950   -1.731044   -2.223388
     21          1           0       -1.181347   -2.652962   -2.663237
     22          6           0       -1.480378   -0.523828   -2.463113
     23          1           0       -2.335234   -0.487263   -3.127029
     24          1           0       -3.025518   -0.843885   -0.852356
     25          6           0       -0.998686    0.640816   -1.879674
     26          6           0        0.137177    0.563872   -1.091866
     27          1           0        0.551267    1.450004   -0.627848
     28          6           0       -1.543160    2.011164   -2.151524
     29          8           0       -0.832067    2.982897   -2.062866
     30          7           0       -2.835298    2.046671   -2.599212
     31          1           0       -3.218448    2.978105   -2.666656
     32          1           0       -3.465268    1.354631   -2.219931
     33          1           0        2.585097   -3.991105   -0.179846
     34          6           0        0.176545    2.190617    2.854078
     35          6           0       -1.662417    0.884911    1.203516
     36          6           0       -2.839768    0.832310    0.509464
     37          6           0       -4.972816   -0.312755   -0.158870
     38          6           0       -3.470484   -0.449323    0.074378
     39          8           0       -0.878138   -0.087627    1.440970
     40         16           0       -1.189737    2.552868    1.739789
     41          1           0        0.402067    3.122357    3.369673
     42          1           0        1.062849    1.855773    2.320505
     43          1           0       -5.482049   -0.010817    0.757302
     44          1           0       -5.189595    0.452586   -0.910645
     45          1           0       -5.414301   -1.249300   -0.503506
     46          1           0       -3.269317   -1.227523    0.817518
     47          1           0       -3.415680    1.746822    0.418644
     48          1           0       -0.111960    1.436951    3.584100
 ---------------------------------------------------------------------
                    Distance matrix (angstroms):
                    1          2          3          4          5
     1  C    0.000000
     2  H    1.089423   0.000000
     3  H    1.090200   1.769633   0.000000
     4  C    3.252571   4.037922   3.915920   0.000000
     5  H    3.113530   3.886465   3.803965   1.098985   0.000000
     6  O    4.560730   5.395247   5.098451   1.378832   2.064880
     7  H    5.167577   5.913522   5.818449   1.939891   2.323537
     8  C    2.552640   3.477060   2.899497   1.531751   2.173664
     9  H    2.644753   3.710000   2.646373   2.188656   2.439173
    10  O    3.694256   4.501863   3.908044   2.395771   3.336987
    11  H    4.432149   5.284984   4.686448   2.381750   3.366773
    12  C    3.386475   3.802437   4.285092   1.539678   2.161396
    13  H    4.250695   4.647647   5.065629   2.172736   3.041907
    14  C    1.514138   2.147237   2.149547   2.392577   2.776525
    15  H    2.158765   2.539162   2.454491   3.267298   3.811777
    16  O    2.417272   2.602515   3.360027   2.351808   2.765021
    17  N    4.170030   4.362599   5.194822   2.542246   2.641192
    18  C    3.927721   3.980195   4.980694   3.114922   2.726856
    19  H    3.002640   3.082676   4.028516   2.921836   2.358069
    20  C    5.131399   5.041233   6.177603   4.390412   3.913059
    21  H    5.357221   5.175244   6.350463   5.090182   4.442688
    22  C    6.279262   6.199056   7.346596   5.063270   4.779654
    23  H    7.225394   7.075564   8.289653   6.122257   5.780588
    24  H    7.182766   7.381813   8.143088   5.332955   4.861350
    25  C    6.426536   6.450512   7.484311   4.707748   4.714009
    26  C    5.462897   5.609051   6.480999   3.518794   3.748835
    27  H    5.911592   6.131011   6.866414   3.676668   4.174616
    28  C    7.810982   7.820706   8.861422   5.907481   6.044712
    29  O    8.112411   8.130252   9.133991   6.135409   6.475189
    30  N    8.836778   8.815010   9.898485   6.985859   6.976421
    31  H    9.740482   9.728429  10.796700   7.772570   7.834470
    32  H    8.814727   8.843464   9.860978   6.926176   6.778431
    33  H    1.092666   1.773285   1.765741   3.019628   2.523291
    34  C    7.488002   8.151354   8.133913   4.301827   4.940122
    35  C    7.102697   7.591826   7.953318   4.202588   4.281933
    36  C    7.870986   8.247514   8.781444   5.253390   5.139192
    37  C    9.178022   9.452597  10.086161   7.047078   6.594002
    38  C    7.750474   8.073085   8.658828   5.527847   5.115968
    39  O    5.986893   6.565699   6.785373   3.040909   3.054649
    40  S    8.095938   8.604361   8.900529   5.034037   5.450918
    41  H    8.361642   9.027499   8.962456   5.230299   5.945117
    42  H    6.620397   7.260189   7.263830   3.549150   4.345578
    43  H    9.829068  10.193777  10.690176   7.475956   7.062929
    44  H    9.685990   9.875732  10.647434   7.592780   7.229220
    45  H    9.306555   9.537256  10.194063   7.465370   6.872492
    46  H    7.363773   7.792174   8.190908   5.131870   4.595080
    47  H    8.860189   9.204931   9.785021   6.200800   6.170317
    48  H    7.432265   8.193646   8.002697   4.186358   4.689194
                    6          7          8          9         10
     6  O    0.000000
     7  H    1.008393   0.000000
     8  C    2.390228   3.264423   0.000000
     9  H    2.858299   3.749397   1.094271   0.000000
    10  O    2.646048   3.586804   1.405568   2.073057   0.000000
    11  H    2.096764   3.029130   1.919740   2.455269   0.968076
    12  C    2.458658   2.679006   2.344676   3.315953   2.888975
    13  H    2.569967   2.768797   2.811426   3.863633   2.811839
    14  C    3.601289   4.291932   1.522585   2.183368   2.381808
    15  H    4.304319   5.065866   2.145748   2.762152   2.413211
    16  O    3.554786   3.962367   2.359599   3.273622   3.031433
    17  N    3.287386   3.046210   3.678673   4.512557   4.354077
    18  C    4.071755   3.835920   4.157738   4.781404   5.139956
    19  H    4.099737   4.084187   3.681406   4.150608   4.847315
    20  C    5.188404   4.759541   5.514733   6.098644   6.480958
    21  H    5.967651   5.578030   6.115476   6.570401   7.207018
    22  C    5.606793   5.008847   6.311513   7.010718   7.075594
    23  H    6.630079   5.977789   7.378636   8.050011   8.158495
    24  H    5.476690   4.643481   6.799799   7.289860   7.605380
    25  C    5.033203   4.400283   5.982663   6.807480   6.496558
    26  C    3.859988   3.377079   4.727444   5.619887   5.139076
    27  H    3.745745   3.304444   4.786016   5.748640   4.896093
    28  C    6.010968   5.306596   7.172416   8.052374   7.484639
    29  O    6.147598   5.528587   7.277655   8.237613   7.368576
    30  N    7.063352   6.269381   8.324638   9.139160   8.729578
    31  H    7.740910   6.927874   9.104190   9.944722   9.404463
    32  H    6.984168   6.131723   8.338750   9.063251   8.859292
    33  H    4.310068   4.788842   2.745226   2.683475   4.090419
    34  C    3.176481   2.667275   5.324301   5.947532   4.984514
    35  C    3.644071   2.658967   5.682176   6.276904   6.003115
    36  C    4.881482   3.896725   6.771629   7.344343   7.225055
    37  C    6.879389   5.929934   8.563467   8.975979   9.275310
    38  C    5.399371   4.470273   7.046649   7.491975   7.755116
    39  O    2.543265   1.562677   4.542124   5.060321   5.003902
    40  S    4.202492   3.386979   6.316202   7.013671   6.229962
    41  H    4.074463   3.694031   6.098296   6.720300   5.552034
    42  H    2.561527   2.293637   4.445521   5.172348   4.022868
    43  H    7.120934   6.143537   8.998342   9.361333   9.636218
    44  H    7.456323   6.500368   9.106094   9.617970   9.750541
    45  H    7.429553   6.532896   8.942695   9.276963   9.782305
    46  H    4.967475   4.081881   6.623616   6.927354   7.413841
    47  H    5.746252   4.761849   7.696507   8.314783   8.036499
    48  H    2.905981   2.384566   5.220663   5.661592   5.005831
                   11         12         13         14         15
    11  H    0.000000
    12  C    3.078098   0.000000
    13  H    2.855692   1.092537   0.000000
    14  C    3.164639   2.333211   2.963826   0.000000
    15  H    3.344911   3.045747   3.379572   1.090210   0.000000
    16  O    3.601692   1.391344   2.075941   1.446450   2.051930
    17  N    4.441721   1.482531   2.071633   3.509078   4.297370
    18  C    5.329289   2.434133   3.297668   3.778698   4.690888
    19  H    5.163089   2.548428   3.588266   3.171275   4.146868
    20  C    6.615030   3.702538   4.423505   5.117345   6.001991
    21  H    7.395801   4.552264   5.372874   5.631085   6.539537
    22  C    7.094997   4.211498   4.641943   6.018518   6.823396
    23  H    8.168100   5.293163   5.700569   7.053139   7.852908
    24  H    7.386724   5.072595   5.513132   6.959776   7.909555
    25  C    6.420511   3.720874   3.838614   5.837249   6.541763
    26  C    5.072815   2.436814   2.457266   4.667604   5.328920
    27  H    4.729199   2.606806   2.153759   4.878351   5.393218
    28  C    7.319259   4.886480   4.726213   7.088311   7.689864
    29  O    7.187881   5.013499   4.599016   7.206162   7.664014
    30  N    8.536285   6.075699   6.016280   8.248070   8.914143
    31  H    9.161979   6.855727   6.677524   9.072829   9.691085
    32  H    8.634915   6.192379   6.265258   8.337941   9.099218
    33  H    4.650784   3.390831   4.395713   2.164935   3.069201
    34  C    4.195685   4.463073   3.873070   6.318342   6.806768
    35  C    5.482596   4.157631   4.094795   6.331796   7.124654
    36  C    6.772207   5.080325   5.131677   7.261725   8.105829
    37  C    8.899348   6.964770   7.270288   8.921857   9.877609
    38  C    7.402918   5.459251   5.788990   7.424957   8.374746
    39  O    4.526281   3.285296   3.429609   5.275318   6.129146
    40  S    5.584140   4.862042   4.379549   7.053970   7.648025
    41  H    4.725998   5.348777   4.628418   7.110767   7.484899
    42  H    3.305713   3.587774   2.894748   5.367633   5.786255
    43  H    9.164456   7.538391   7.775208   9.512380  10.465537
    44  H    9.397058   7.306156   7.521308   9.364312  10.267849
    45  H    9.468258   7.433614   7.869885   9.226018  10.223859
    46  H    7.040387   5.357360   5.797242   7.129269   8.130233
    47  H    7.544014   5.929385   5.842920   8.180042   8.969864
    48  H    4.147961   4.703693   4.316051   6.382286   6.957387
                   16         17         18         19         20
    16  O    0.000000
    17  N    2.306886   0.000000
    18  C    2.750395   1.350421   0.000000
    19  H    2.475805   2.063933   1.078665   0.000000
    20  C    4.037215   2.356659   1.368243   2.163394   0.000000
    21  H    4.698475   3.329619   2.118609   2.499797   1.079897
    22  C    4.777379   2.729437   2.382097   3.387127   1.391616
    23  H    5.811707   3.811632   3.365136   4.295219   2.150913
    24  H    5.981514   3.781709   3.480908   4.303629   2.735491
    25  C    4.523593   2.360476   2.747108   3.822534   2.402498
    26  C    3.388543   1.329843   2.339708   3.280829   2.735736
    27  H    3.666675   2.075702   3.306590   4.138055   3.817766
    28  C    5.741275   3.696072   4.240055   5.311476   3.810056
    29  O    5.856936   4.087847   4.899915   5.924122   4.716673
    30  N    6.915992   4.771731   5.048389   6.121348   4.292993
    31  H    7.732873   5.629829   6.009952   7.087094   5.298369
    32  H    7.078808   4.831538   4.929955   5.970948   4.057220
    33  H    2.763888   3.921543   3.449258   2.430029   4.577479
    34  C    5.793204   4.703575   5.821459   6.360434   6.494238
    35  C    5.493271   3.520459   4.203544   4.972685   4.390698
    36  C    6.310390   4.108473   4.493484   5.367230   4.251425
    37  C    8.002146   5.774482   5.597520   6.378169   4.840334
    38  C    6.529587   4.329827   4.250241   5.032122   3.726886
    39  O    4.608868   2.887177   3.516506   4.085573   4.016288
    40  S    6.219541   4.539273   5.543062   6.322173   5.846999
    41  H    6.622357   5.666596   6.839715   7.384357   7.507207
    42  H    4.854356   4.053355   5.259893   5.728292   6.090870
    43  H    8.667212   6.470878   6.409239   7.155126   5.785881
    44  H    8.319071   6.030295   5.923517   6.807416   5.048695
    45  H    8.357374   6.208542   5.796840   6.476696   4.919063
    46  H    6.421221   4.409776   4.239569   4.829753   3.930175
    47  H    7.166436   4.955171   5.415799   6.346190   5.075107
    48  H    6.034268   4.989652   5.955029   6.383134   6.654326
                   21         22         23         24         25
    21  H    0.000000
    22  C    2.159324   0.000000
    23  H    2.497361   1.083005   0.000000
    24  H    3.154840   2.254869   2.403707   0.000000
    25  C    3.390621   1.388821   2.148213   2.714363   0.000000
    26  C    3.815198   2.383253   3.370399   3.470127   1.384466
    27  H    4.896845   3.375173   4.281448   4.255082   2.150397
    28  C    4.706042   2.554841   2.796628   3.469370   1.499403
    29  O    5.678499   3.588541   3.928608   4.573929   2.355136
    30  N    4.982590   2.908917   2.636186   3.382751   2.422252
    31  H    5.988214   3.914825   3.605660   4.235152   3.318072
    32  H    4.633963   2.743635   2.343582   2.626236   2.590238
    33  H    4.705737   5.810629   6.721046   6.468096   6.098164
    34  C    7.466250   6.195654   7.018099   5.761863   5.117759
    35  C    5.263055   3.932156   4.592294   3.012207   3.163255
    36  C    4.996350   3.538823   3.901270   2.167645   3.022289
    37  C    5.111131   4.189417   3.974577   2.134243   4.434430
    38  C    4.194128   3.225668   3.396946   1.101140   3.334143
    39  O    4.849474   3.974271   4.811388   3.231487   3.401740
    40  S    6.818165   5.216792   5.851536   4.650509   4.097921
    41  H    8.500442   7.131596   7.920184   6.730895   5.972922
    42  H    7.085393   5.917221   6.834648   5.836947   4.833999
    43  H    6.097299   5.162134   5.021700   3.052793   5.242024
    44  H    5.364891   4.137854   3.734039   2.523383   4.305597
    45  H    4.955058   4.454449   4.116337   2.447926   4.996402
    46  H    4.301994   3.802372   4.120673   1.730634   3.990150
    47  H    5.817932   4.147984   4.327851   2.911946   3.513883
    48  H    7.543222   6.502769   7.326991   5.776952   5.592221
                   26         27         28         29         30
    26  C    0.000000
    27  H    1.082596   0.000000
    28  C    2.457857   2.650116   0.000000
    29  O    2.780999   2.514488   1.207385   0.000000
    30  N    3.647793   3.963724   1.367957   2.275329   0.000000
    31  H    4.423653   4.550009   2.001731   2.461585   1.009417
    32  H    3.856869   4.321617   2.032293   3.099946   1.009770
    33  H    5.250896   5.826048   7.547003   7.991213   8.466921
    34  C    4.268293   3.579488   5.295813   5.081471   6.231396
    35  C    2.934345   2.928075   3.541040   3.969922   4.145609
    36  C    3.390947   3.629620   3.186181   3.908039   3.337448
    37  C    5.267920   5.817452   4.597152   5.624262   4.011377
    38  C    3.924526   4.502782   3.837084   4.827959   3.712348
    39  O    2.805454   2.947459   4.213454   4.659089   4.970792
    40  S    3.706086   3.138966   3.944701   3.843571   4.668087
    41  H    5.149888   4.335804   5.958378   5.572703   6.874971
    42  H    3.764326   3.019793   5.178269   4.906634   6.279778
    43  H    5.943517   6.360310   5.297596   6.207898   4.743915
    44  H    5.331015   5.833722   4.155170   5.168959   3.306823
    45  H    5.869640   6.549023   5.322811   6.429616   4.680456
    46  H    4.296399   4.884168   4.720585   5.653710   4.752132
    47  H    4.037797   4.113382   3.190920   3.789569   3.087751
    48  H    4.763297   4.263865   5.939313   5.898875   6.783928
                   31         32         33         34         35
    31  H    0.000000
    32  H    1.701808   0.000000
    33  H    9.404002   8.327410   0.000000
    34  C    6.528753   6.301368   7.295170   0.000000
    35  C    4.667004   3.897550   6.612911   2.794817   0.000000
    36  C    3.851697   2.848450   7.291752   4.054671   1.367710
    37  C    4.494058   3.049729   8.405519   6.469980   3.774817
    38  C    4.395913   2.918584   7.019894   5.291204   2.514804
    39  O    5.634568   4.709092   5.464264   2.880907   1.271734
    40  S    4.869625   4.721567   7.794739   1.799887   1.814689
    41  H    7.040327   7.023162   8.244152   1.088503   3.736375
    42  H    6.667901   6.431994   6.538729   1.087362   3.101179
    43  H    5.077503   3.846527   9.044323   6.423587   3.948547
    44  H    3.653388   2.345468   8.984781   6.781545   4.134920
    45  H    5.231820   3.677676   8.462424   7.373192   4.641704
    46  H    5.461626   3.991493   6.550289   5.263575   2.682070
    47  H    3.327767   2.668024   8.324141   4.362611   2.105432
    48  H    7.148243   6.703598   7.134788   1.088200   2.894105
                   36         37         38         39         40
    36  C    0.000000
    37  C    2.511521   0.000000
    38  C    1.493213   1.526452   0.000000
    39  O    2.358385   4.401881   2.952737   0.000000
    40  S    2.682652   5.111593   4.121717   2.675556   0.000000
    41  H    4.892301   7.289717   6.213897   3.957628   2.348335
    42  H    4.422416   6.875977   5.559646   2.884062   2.428439
    43  H    2.784589   1.090805   2.169117   4.655029   5.095263
    44  H    2.771748   1.094489   2.176937   4.940707   5.237829
    45  H    3.462287   1.091238   2.179986   5.070231   6.110302
    46  H    2.126575   2.166112   1.094678   2.721359   4.412096
    47  H    1.084553   2.645761   2.223640   3.293854   2.711080
    48  H    4.154505   6.379594   5.211129   2.739411   2.410053
                   41         42         43         44         45
    41  H    0.000000
    42  H    1.772462   0.000000
    43  H    7.159894   6.983083   0.000000
    44  H    7.530968   7.176512   1.755653   0.000000
    45  H    8.242757   7.718160   1.768634   1.764276   0.000000
    46  H    6.238110   5.525699   2.525902   3.081685   2.519233
    47  H    5.017555   4.866844   2.733837   2.566872   3.717740
    48  H    1.775048   1.775461   6.238964   6.852305   7.213826
                   46         47         48
    46  H    0.000000
    47  H    3.004538   0.000000
    48  H    4.972153   4.585924   0.000000
 Stoichiometry    C16H24N2O5S
 Framework group  C1[X(C16H24N2O5S)]
 Deg. of freedom   138
 Full point group                 C1      NOp   1
 Largest Abelian subgroup         C1      NOp   1
 Largest concise Abelian subgroup C1      NOp   1
                         Standard orientation:                         
 ---------------------------------------------------------------------
 Center     Atomic      Atomic             Coordinates (Angstroms)
 Number     Number       Type             X           Y           Z
 ---------------------------------------------------------------------
      1          6           0        4.690350   -1.893943    0.646085
      2          1           0        4.669100   -2.847571    0.119793
      3          1           0        5.706324   -1.714534    0.998426
      4          6           0        2.491279    0.501833    0.705800
      5          1           0        2.292409   -0.139193    1.576033
      6          8           0        1.993758    1.777472    0.868268
      7          1           0        0.997227    1.702881    1.003242
      8          6           0        3.993894    0.550717    0.412508
      9          1           0        4.583794    0.659230    1.327752
     10          8           0        4.254907    1.593029   -0.493626
     11          1           0        3.691099    2.334369   -0.229602
     12          6           0        2.006985   -0.220239   -0.564901
     13          1           0        1.809919    0.505608   -1.357332
     14          6           0        4.254412   -0.779301   -0.281356
     15          1           0        4.980191   -0.632277   -1.081473
     16          8           0        2.998661   -1.135031   -0.904865
     17          7           0        0.753659   -0.993320   -0.393386
     18          6           0        0.774267   -2.080018    0.408050
     19          1           0        1.724942   -2.313436    0.861096
     20          6           0       -0.352392   -2.840254    0.565430
     21          1           0       -0.317691   -3.714432    1.198508
     22          6           0       -1.514987   -2.484525   -0.111642
     23          1           0       -2.400051   -3.104283   -0.037739
     24          1           0       -2.404328   -1.391433    1.648658
     25          6           0       -1.519650   -1.353211   -0.917205
     26          6           0       -0.348561   -0.625030   -1.039880
     27          1           0       -0.306971    0.256826   -1.666467
     28          6           0       -2.671957   -0.933584   -1.779939
     29          8           0       -2.482931   -0.305957   -2.793908
     30          7           0       -3.895207   -1.403903   -1.387809
     31          1           0       -4.667515   -1.019148   -1.911666
     32          1           0       -4.053142   -1.481600   -0.393498
     33          1           0        4.037348   -1.961005    1.519589
     34          6           0       -0.310888    3.588057   -0.356649
     35          6           0       -1.622685    1.360347    0.705190
     36          6           0       -2.752645    0.643317    0.987481
     37          6           0       -4.207002   -0.684469    2.546189
     38          6           0       -2.795622   -0.432359    2.022256
     39          8           0       -0.450960    1.132905    1.144096
     40         16           0       -1.874755    2.706403   -0.485478
     41          1           0       -0.444148    4.522057   -0.899533
     42          1           0        0.510891    3.032115   -0.801581
     43          1           0       -4.613663    0.213255    3.013708
     44          1           0       -4.888615   -0.957364    1.734502
     45          1           0       -4.226622   -1.491830    3.280070
     46          1           0       -2.123312   -0.174667    2.846826
     47          1           0       -3.689019    0.983827    0.559097
     48          1           0       -0.077510    3.807346    0.683364
 ---------------------------------------------------------------------
 Rotational constants (GHZ):           0.3319866           0.1639639           0.1400291
 Leave Link  202 at Sat Aug 13 20:46:46 2022, MaxMem=  2684354560 cpu:               0.3 elap:               0.0
 (Enter /storage/apps/GAUSSIAN/G16_RevA03/g16/l301.exe)
 Standard basis: def2TZVP (5D, 7F)
 Ernie: Thresh=  0.10000D-02 Tol=  0.10000D-05 Strict=F.
 There are  1014 symmetry adapted cartesian basis functions of A   symmetry.
 There are   894 symmetry adapted basis functions of A   symmetry.
   894 basis functions,  1434 primitive gaussians,  1014 cartesian basis functions
    95 alpha electrons       95 beta electrons
       nuclear repulsion energy      2494.8492430406 Hartrees.
 IExCor= 4336 DFT=T Ex+Corr=M062X ExCW=0 ScaHFX=  0.540000
 ScaDFX=  1.000000  1.000000  1.000000  1.000000 ScalE2=  1.000000  1.000000
 IRadAn=      5 IRanWt=     -1 IRanGd=            0 ICorTp=0 IEmpDi=131
 NAtoms=   48 NActive=   48 NUniq=   48 SFac= 1.00D+00 NAtFMM=   60 NAOKFM=F Big=F
 Integral buffers will be    131072 words long.
 Raffenetti 2 integral format.
 Two-electron integral symmetry is turned on.
 R6Disp:  Grimme-D3 Dispersion energy=       -0.0042715401 Hartrees.
 Nuclear repulsion after empirical dispersion term =     2494.8449715005 Hartrees.
 Leave Link  301 at Sat Aug 13 20:46:47 2022, MaxMem=  2684354560 cpu:               0.9 elap:               0.1
 (Enter /storage/apps/GAUSSIAN/G16_RevA03/g16/l302.exe)
 NPDir=0 NMtPBC=     1 NCelOv=     1 NCel=       1 NClECP=     1 NCelD=      1
         NCelK=      1 NCelE2=     1 NClLst=     1 CellRange=     0.0.
 One-electron integrals computed using PRISM.
 One-electron integral symmetry used in STVInt
   1 Symmetry operations used in ECPInt.
 ECPInt:  NShTT=   65703 NPrTT=  200010 LenC2=   56917 LenP2D=  121195.
 LDataN:  DoStor=T MaxTD1= 6 Len=  172
 NBasis=   894 RedAO= T EigKep=  1.90D-05  NBF=   894
 NBsUse=   894 1.00D-06 EigRej= -1.00D+00 NBFU=   894
 Precomputing XC quadrature grid using
 IXCGrd= 4 IRadAn=           5 IRanWt=          -1 IRanGd=           0 AccXCQ= 0.00D+00.
 Generated NRdTot=       0 NPtTot=           0 NUsed=           0 NTot=          32
 NSgBfM=  1000  1000  1000  1000  1000 MxSgAt=    48 MxSgA2=    48.
 Leave Link  302 at Sat Aug 13 20:46:48 2022, MaxMem=  2684354560 cpu:              18.5 elap:               1.2
 (Enter /storage/apps/GAUSSIAN/G16_RevA03/g16/l303.exe)
 DipDrv:  MaxL=1.
 Leave Link  303 at Sat Aug 13 20:46:48 2022, MaxMem=  2684354560 cpu:               2.0 elap:               0.2
 (Enter /storage/apps/GAUSSIAN/G16_RevA03/g16/l401.exe)
 ExpMin= 9.52D-02 ExpMax= 6.07D+04 ExpMxC= 2.07D+03 IAcc=3 IRadAn=         5 AccDes= 0.00D+00
 Harris functional with IExCor= 1009 and IRadAn=       5 diagonalized for initial guess.
 HarFok:  IExCor= 1009 AccDes= 0.00D+00 IRadAn=         5 IDoV= 1 UseB2=F ITyADJ=14
 ICtDFT=  3500011 ScaDFX=  1.000000  1.000000  1.000000  1.000000
 FoFCou: FMM=F IPFlag=           0 FMFlag=      100000 FMFlg1=           0
         NFxFlg=           0 DoJE=T BraDBF=F KetDBF=T FulRan=T
         wScrn=  0.000000 ICntrl=       500 IOpCl=  0 I1Cent=   200000004 NGrid=           0
         NMat0=    1 NMatS0=      1 NMatT0=    0 NMatD0=    1 NMtDS0=    0 NMtDT0=    0
 Petite list used in FoFCou.
 Harris En= -1507.24512288964    
 JPrj=0 DoOrth=F DoCkMO=F.
 Leave Link  401 at Sat Aug 13 20:46:52 2022, MaxMem=  2684354560 cpu:              59.8 elap:               3.8
 (Enter /storage/apps/GAUSSIAN/G16_RevA03/g16/l502.exe)
 Integral symmetry usage will be decided dynamically.
 Closed shell SCF:
 Using DIIS extrapolation, IDIIS=  1040.
 NGot=  2684354560 LenX=  2682272944 LenY=  2681243734
 Requested convergence on RMS density matrix=1.00D-08 within 128 cycles.
 Requested convergence on MAX density matrix=1.00D-06.
 Requested convergence on             energy=1.00D-06.
 No special actions if energy rises.
 Fock matrices will be formed incrementally for  20 cycles.
 Integral accuracy reduced to 1.0D-05 until final iterations.

 Cycle   1  Pass 0  IDiag  1:
 FoFJK:  IHMeth= 1 ICntrl=       0 DoSepK=F KAlg= 0 I1Cent=           0 FoldK=F
 IRaf= 790000000 NMat=       1 IRICut=       1 DoRegI=T DoRafI=F ISym2E= 0 IDoP0=0 IntGTp=1.
 FoFCou: FMM=F IPFlag=           0 FMFlag=      100000 FMFlg1=           0
         NFxFlg=           0 DoJE=F BraDBF=F KetDBF=F FulRan=T
         wScrn=  0.000000 ICntrl=         0 IOpCl=  0 I1Cent=           0 NGrid=           0
         NMat0=    1 NMatS0=      1 NMatT0=    0 NMatD0=    1 NMtDS0=    0 NMtDT0=    0
 Symmetry not used in FoFCou.
 E= -1507.16722275143    
 DIIS: error= 1.74D-02 at cycle   1 NSaved=   1.
 NSaved= 1 IEnMin= 1 EnMin= -1507.16722275143     IErMin= 1 ErrMin= 1.74D-02
 ErrMax= 1.74D-02  0.00D+00 EMaxC= 1.00D-01 BMatC= 9.92D-01 BMatP= 9.92D-01
 IDIUse=3 WtCom= 8.26D-01 WtEn= 1.74D-01
 Coeff-Com:  0.100D+01
 Coeff-En:   0.100D+01
 Coeff:      0.100D+01
 Gap=     0.169 Goal=   None    Shift=    0.000
 GapD=    0.169 DampG=1.000 DampE=0.500 DampFc=0.5000 IDamp=-1.
 Damping current iteration by 5.00D-01
 RMSDP=3.96D-03 MaxDP=7.91D-01              OVMax= 5.42D-01

 Cycle   2  Pass 0  IDiag  1:
 RMSU=  1.98D-03    CP:  1.01D+00
 E= -1507.47446486223     Delta-E=       -0.307242110807 Rises=F Damp=T
 DIIS: error= 5.04D-03 at cycle   2 NSaved=   2.
 NSaved= 2 IEnMin= 2 EnMin= -1507.47446486223     IErMin= 2 ErrMin= 5.04D-03
 ErrMax= 5.04D-03  0.00D+00 EMaxC= 1.00D-01 BMatC= 9.60D-02 BMatP= 9.92D-01
 IDIUse=3 WtCom= 9.50D-01 WtEn= 5.04D-02
 Coeff-Com:  0.856D-02 0.991D+00
 Coeff-En:   0.118D+00 0.882D+00
 Coeff:      0.141D-01 0.986D+00
 Gap=     0.157 Goal=   None    Shift=    0.000
 RMSDP=1.35D-03 MaxDP=1.74D-01 DE=-3.07D-01 OVMax= 4.05D-01

 Cycle   3  Pass 0  IDiag  1:
 RMSU=  1.15D-03    CP:  9.98D-01  6.47D-01
 E= -1507.83948108811     Delta-E=       -0.365016225877 Rises=F Damp=F
 DIIS: error= 5.19D-03 at cycle   3 NSaved=   3.
 NSaved= 3 IEnMin= 3 EnMin= -1507.83948108811     IErMin= 2 ErrMin= 5.04D-03
 ErrMax= 5.19D-03  0.00D+00 EMaxC= 1.00D-01 BMatC= 6.75D-02 BMatP= 9.60D-02
 IDIUse=3 WtCom= 9.48D-01 WtEn= 5.19D-02
 Coeff-Com: -0.762D-01 0.480D+00 0.596D+00
 Coeff-En:   0.000D+00 0.000D+00 0.100D+01
 Coeff:     -0.722D-01 0.455D+00 0.617D+00
 Gap=     0.130 Goal=   None    Shift=    0.000
 RMSDP=5.53D-04 MaxDP=2.46D-02 DE=-3.65D-01 OVMax= 1.30D-01

 Cycle   4  Pass 0  IDiag  1:
 RMSU=  4.39D-04    CP:  1.00D+00  7.93D-01  8.50D-01
 E= -1507.89947817605     Delta-E=       -0.059997087937 Rises=F Damp=F
 DIIS: error= 1.83D-03 at cycle   4 NSaved=   4.
 NSaved= 4 IEnMin= 4 EnMin= -1507.89947817605     IErMin= 4 ErrMin= 1.83D-03
 ErrMax= 1.83D-03  0.00D+00 EMaxC= 1.00D-01 BMatC= 7.41D-03 BMatP= 6.75D-02
 IDIUse=3 WtCom= 9.82D-01 WtEn= 1.83D-02
 Coeff-Com: -0.396D-01 0.109D+00 0.282D+00 0.649D+00
 Coeff-En:   0.000D+00 0.000D+00 0.110D-02 0.999D+00
 Coeff:     -0.389D-01 0.107D+00 0.277D+00 0.655D+00
 Gap=     0.144 Goal=   None    Shift=    0.000
 RMSDP=1.98D-04 MaxDP=2.96D-02 DE=-6.00D-02 OVMax= 4.40D-02

 Cycle   5  Pass 0  IDiag  1:
 RMSU=  1.80D-04    CP:  1.00D+00  7.85D-01  9.12D-01  9.11D-01
 E= -1507.90604973582     Delta-E=       -0.006571559770 Rises=F Damp=F
 DIIS: error= 7.16D-04 at cycle   5 NSaved=   5.
 NSaved= 5 IEnMin= 5 EnMin= -1507.90604973582     IErMin= 5 ErrMin= 7.16D-04
 ErrMax= 7.16D-04  0.00D+00 EMaxC= 1.00D-01 BMatC= 6.84D-04 BMatP= 7.41D-03
 IDIUse=3 WtCom= 9.93D-01 WtEn= 7.16D-03
 Coeff-Com: -0.125D-01 0.224D-01 0.799D-01 0.306D+00 0.604D+00
 Coeff-En:   0.000D+00 0.000D+00 0.000D+00 0.000D+00 0.100D+01
 Coeff:     -0.124D-01 0.223D-01 0.794D-01 0.304D+00 0.607D+00
 Gap=     0.144 Goal=   None    Shift=    0.000
 RMSDP=6.68D-05 MaxDP=6.46D-03 DE=-6.57D-03 OVMax= 7.34D-03

 Cycle   6  Pass 0  IDiag  1:
 RMSU=  6.10D-05    CP:  1.00D+00  7.86D-01  9.04D-01  9.67D-01  9.60D-01
 E= -1507.90671749167     Delta-E=       -0.000667755850 Rises=F Damp=F
 DIIS: error= 1.74D-04 at cycle   6 NSaved=   6.
 NSaved= 6 IEnMin= 6 EnMin= -1507.90671749167     IErMin= 6 ErrMin= 1.74D-04
 ErrMax= 1.74D-04  0.00D+00 EMaxC= 1.00D-01 BMatC= 7.90D-05 BMatP= 6.84D-04
 IDIUse=3 WtCom= 9.98D-01 WtEn= 1.74D-03
 Coeff-Com: -0.174D-03-0.380D-02-0.833D-02 0.455D-01 0.278D+00 0.688D+00
 Coeff-En:   0.000D+00 0.000D+00 0.000D+00 0.000D+00 0.000D+00 0.100D+01
 Coeff:     -0.174D-03-0.380D-02-0.831D-02 0.454D-01 0.278D+00 0.689D+00
 Gap=     0.145 Goal=   None    Shift=    0.000
 RMSDP=4.40D-05 MaxDP=6.41D-03 DE=-6.68D-04 OVMax= 6.67D-03

 Cycle   7  Pass 0  IDiag  1:
 RMSU=  2.23D-05    CP:  1.00D+00  7.88D-01  9.10D-01  9.96D-01  1.15D+00
                    CP:  1.07D+00
 E= -1507.90681426269     Delta-E=       -0.000096771028 Rises=F Damp=F
 DIIS: error= 6.78D-05 at cycle   7 NSaved=   7.
 NSaved= 7 IEnMin= 7 EnMin= -1507.90681426269     IErMin= 7 ErrMin= 6.78D-05
 ErrMax= 6.78D-05  0.00D+00 EMaxC= 1.00D-01 BMatC= 9.57D-06 BMatP= 7.90D-05
 IDIUse=1 WtCom= 1.00D+00 WtEn= 0.00D+00
 Coeff-Com:  0.163D-02-0.456D-02-0.162D-01-0.221D-01 0.369D-01 0.283D+00
 Coeff-Com:  0.721D+00
 Coeff:      0.163D-02-0.456D-02-0.162D-01-0.221D-01 0.369D-01 0.283D+00
 Coeff:      0.721D+00
 Gap=     0.145 Goal=   None    Shift=    0.000
 RMSDP=1.99D-05 MaxDP=2.21D-03 DE=-9.68D-05 OVMax= 3.58D-03

 Cycle   8  Pass 0  IDiag  1:
 RMSU=  1.12D-05    CP:  1.00D+00  7.87D-01  9.09D-01  1.01D+00  1.22D+00
                    CP:  1.18D+00  1.22D+00
 E= -1507.90682366413     Delta-E=       -0.000009401432 Rises=F Damp=F
 DIIS: error= 2.69D-05 at cycle   8 NSaved=   8.
 NSaved= 8 IEnMin= 8 EnMin= -1507.90682366413     IErMin= 8 ErrMin= 2.69D-05
 ErrMax= 2.69D-05  0.00D+00 EMaxC= 1.00D-01 BMatC= 2.43D-06 BMatP= 9.57D-06
 IDIUse=1 WtCom= 1.00D+00 WtEn= 0.00D+00
 Coeff-Com:  0.847D-03-0.160D-02-0.793D-02-0.193D-01-0.307D-01 0.238D-01
 Coeff-Com:  0.362D+00 0.673D+00
 Coeff:      0.847D-03-0.160D-02-0.793D-02-0.193D-01-0.307D-01 0.238D-01
 Coeff:      0.362D+00 0.673D+00
 Gap=     0.145 Goal=   None    Shift=    0.000
 RMSDP=1.59D-05 MaxDP=1.77D-03 DE=-9.40D-06 OVMax= 2.37D-03

 Cycle   9  Pass 0  IDiag  1:
 RMSU=  1.18D-05    CP:  1.00D+00  7.86D-01  9.08D-01  1.01D+00  1.23D+00
                    CP:  1.27D+00  1.42D+00  1.61D+00
 E= -1507.90682135773     Delta-E=        0.000002306391 Rises=F Damp=F
 DIIS: error= 1.83D-05 at cycle   9 NSaved=   9.
 NSaved= 9 IEnMin= 8 EnMin= -1507.90682366413     IErMin= 9 ErrMin= 1.83D-05
 ErrMax= 1.83D-05  0.00D+00 EMaxC= 1.00D-01 BMatC= 5.78D-07 BMatP= 2.43D-06
 IDIUse=1 WtCom= 1.00D+00 WtEn= 0.00D+00
 Coeff-Com:  0.251D-03-0.318D-03-0.274D-02-0.755D-02-0.221D-01-0.223D-01
 Coeff-Com:  0.822D-01 0.345D+00 0.628D+00
 Coeff:      0.251D-03-0.318D-03-0.274D-02-0.755D-02-0.221D-01-0.223D-01
 Coeff:      0.822D-01 0.345D+00 0.628D+00
 Gap=     0.145 Goal=   None    Shift=    0.000
 RMSDP=1.94D-05 MaxDP=2.42D-03 DE= 2.31D-06 OVMax= 1.07D-03

 Cycle  10  Pass 0  IDiag  1:
 RMSU=  8.47D-06    CP:  1.00D+00  7.85D-01  9.07D-01  1.02D+00  1.24D+00
                    CP:  1.35D+00  1.58D+00  2.34D+00  2.18D+00
 E= -1507.90681941368     Delta-E=        0.000001944052 Rises=F Damp=F
 DIIS: error= 2.65D-05 at cycle  10 NSaved=  10.
 NSaved=10 IEnMin= 8 EnMin= -1507.90682366413     IErMin= 9 ErrMin= 1.83D-05
 ErrMax= 2.65D-05  0.00D+00 EMaxC= 1.00D-01 BMatC= 4.37D-07 BMatP= 5.78D-07
 IDIUse=1 WtCom= 1.00D+00 WtEn= 0.00D+00
 Coeff-Com:  0.217D-03-0.274D-03-0.245D-02-0.661D-02-0.197D-01-0.201D-01
 Coeff-Com:  0.694D-01 0.303D+00 0.557D+00 0.120D+00
 Coeff:      0.217D-03-0.274D-03-0.245D-02-0.661D-02-0.197D-01-0.201D-01
 Coeff:      0.694D-01 0.303D+00 0.557D+00 0.120D+00
 Gap=     0.145 Goal=   None    Shift=    0.000
 RMSDP=5.58D-06 MaxDP=7.75D-04 DE= 1.94D-06 OVMax= 8.53D-05

 Initial convergence to 1.0D-05 achieved.  Increase integral accuracy.
 Cycle  11  Pass 1  IDiag  1:
 E= -1507.90670978861     Delta-E=        0.000109625071 Rises=F Damp=F
 DIIS: error= 3.28D-04 at cycle   1 NSaved=   1.
 NSaved= 1 IEnMin= 1 EnMin= -1507.90670978861     IErMin= 1 ErrMin= 3.28D-04
 ErrMax= 3.28D-04  0.00D+00 EMaxC= 1.00D-01 BMatC= 9.68D-05 BMatP= 9.68D-05
 IDIUse=3 WtCom= 9.97D-01 WtEn= 3.28D-03
 Coeff-Com:  0.100D+01
 Coeff-En:   0.100D+01
 Coeff:      0.100D+01
 Gap=     0.144 Goal=   None    Shift=    0.000
 RMSDP=5.58D-06 MaxDP=7.75D-04 DE= 1.10D-04 OVMax= 1.09D-03

 Cycle  12  Pass 1  IDiag  1:
 RMSU=  5.86D-04    CP:  9.91D-01
 E= -1507.90677233215     Delta-E=       -0.000062543535 Rises=F Damp=F
 DIIS: error= 1.06D-05 at cycle   2 NSaved=   2.
 NSaved= 2 IEnMin= 2 EnMin= -1507.90677233215     IErMin= 2 ErrMin= 1.06D-05
 ErrMax= 1.06D-05  0.00D+00 EMaxC= 1.00D-01 BMatC= 1.19D-07 BMatP= 9.68D-05
 IDIUse=1 WtCom= 1.00D+00 WtEn= 0.00D+00
 Coeff-Com: -0.159D-01 0.102D+01
 Coeff:     -0.159D-01 0.102D+01
 Gap=     0.145 Goal=   None    Shift=    0.000
 RMSDP=2.25D-05 MaxDP=2.23D-03 DE=-6.25D-05 OVMax= 4.76D-04

 Cycle  13  Pass 1  IDiag  1:
 RMSU=  8.74D-06    CP:  9.90D-01  1.04D+00
 E= -1507.90677237679     Delta-E=       -0.000000044638 Rises=F Damp=F
 DIIS: error= 1.08D-05 at cycle   3 NSaved=   3.
 NSaved= 3 IEnMin= 3 EnMin= -1507.90677237679     IErMin= 2 ErrMin= 1.06D-05
 ErrMax= 1.08D-05  0.00D+00 EMaxC= 1.00D-01 BMatC= 1.71D-07 BMatP= 1.19D-07
 IDIUse=1 WtCom= 1.00D+00 WtEn= 0.00D+00
 Coeff-Com: -0.101D-01 0.591D+00 0.419D+00
 Coeff:     -0.101D-01 0.591D+00 0.419D+00
 Gap=     0.144 Goal=   None    Shift=    0.000
 RMSDP=8.45D-07 MaxDP=5.03D-05 DE=-4.46D-08 OVMax= 8.31D-05

 Cycle  14  Pass 1  IDiag  1:
 RMSU=  7.78D-07    CP:  9.90D-01  1.04D+00  1.01D+00
 E= -1507.90677253919     Delta-E=       -0.000000162405 Rises=F Damp=F
 DIIS: error= 1.57D-06 at cycle   4 NSaved=   4.
 NSaved= 4 IEnMin= 4 EnMin= -1507.90677253919     IErMin= 4 ErrMin= 1.57D-06
 ErrMax= 1.57D-06  0.00D+00 EMaxC= 1.00D-01 BMatC= 2.10D-09 BMatP= 1.19D-07
 IDIUse=1 WtCom= 1.00D+00 WtEn= 0.00D+00
 Coeff-Com:  0.164D-03-0.214D-01 0.412D-01 0.980D+00
 Coeff:      0.164D-03-0.214D-01 0.412D-01 0.980D+00
 Gap=     0.144 Goal=   None    Shift=    0.000
 RMSDP=7.06D-07 MaxDP=9.17D-05 DE=-1.62D-07 OVMax= 1.32D-04

 Cycle  15  Pass 1  IDiag  1:
 RMSU=  3.90D-07    CP:  9.90D-01  1.04D+00  1.06D+00  9.65D-01
 E= -1507.90677254902     Delta-E=       -0.000000009832 Rises=F Damp=F
 DIIS: error= 8.56D-07 at cycle   5 NSaved=   5.
 NSaved= 5 IEnMin= 5 EnMin= -1507.90677254902     IErMin= 5 ErrMin= 8.56D-07
 ErrMax= 8.56D-07  0.00D+00 EMaxC= 1.00D-01 BMatC= 1.32D-09 BMatP= 2.10D-09
 IDIUse=1 WtCom= 1.00D+00 WtEn= 0.00D+00
 Coeff-Com:  0.976D-03-0.626D-01-0.310D-01 0.485D+00 0.607D+00
 Coeff:      0.976D-03-0.626D-01-0.310D-01 0.485D+00 0.607D+00
 Gap=     0.144 Goal=   None    Shift=    0.000
 RMSDP=1.65D-07 MaxDP=1.91D-05 DE=-9.83D-09 OVMax= 5.44D-05

 Cycle  16  Pass 1  IDiag  1:
 RMSU=  8.98D-08    CP:  9.90D-01  1.04D+00  1.07D+00  9.78D-01  1.28D+00
 E= -1507.90677255189     Delta-E=       -0.000000002869 Rises=F Damp=F
 DIIS: error= 4.68D-07 at cycle   6 NSaved=   6.
 NSaved= 6 IEnMin= 6 EnMin= -1507.90677255189     IErMin= 6 ErrMin= 4.68D-07
 ErrMax= 4.68D-07  0.00D+00 EMaxC= 1.00D-01 BMatC= 2.65D-10 BMatP= 1.32D-09
 IDIUse=1 WtCom= 1.00D+00 WtEn= 0.00D+00
 Coeff-Com:  0.314D-03-0.170D-01-0.357D-01-0.105D+00 0.238D+00 0.920D+00
 Coeff:      0.314D-03-0.170D-01-0.357D-01-0.105D+00 0.238D+00 0.920D+00
 Gap=     0.144 Goal=   None    Shift=    0.000
 RMSDP=1.44D-07 MaxDP=1.68D-05 DE=-2.87D-09 OVMax= 4.91D-05

 Cycle  17  Pass 1  IDiag  1:
 RMSU=  5.49D-08    CP:  9.90D-01  1.04D+00  1.07D+00  9.93D-01  1.60D+00
                    CP:  1.29D+00
 E= -1507.90677255299     Delta-E=       -0.000000001101 Rises=F Damp=F
 DIIS: error= 1.98D-07 at cycle   7 NSaved=   7.
 NSaved= 7 IEnMin= 7 EnMin= -1507.90677255299     IErMin= 7 ErrMin= 1.98D-07
 ErrMax= 1.98D-07  0.00D+00 EMaxC= 1.00D-01 BMatC= 8.64D-11 BMatP= 2.65D-10
 IDIUse=1 WtCom= 1.00D+00 WtEn= 0.00D+00
 Coeff-Com: -0.910D-04 0.775D-02-0.163D-01-0.198D+00-0.323D-02 0.571D+00
 Coeff-Com:  0.639D+00
 Coeff:     -0.910D-04 0.775D-02-0.163D-01-0.198D+00-0.323D-02 0.571D+00
 Coeff:      0.639D+00
 Gap=     0.144 Goal=   None    Shift=    0.000
 RMSDP=6.86D-08 MaxDP=9.08D-06 DE=-1.10D-09 OVMax= 2.26D-05

 Cycle  18  Pass 1  IDiag  1:
 RMSU=  2.11D-08    CP:  9.90D-01  1.04D+00  1.07D+00  9.91D-01  1.74D+00
                    CP:  1.50D+00  1.30D+00
 E= -1507.90677255320     Delta-E=       -0.000000000202 Rises=F Damp=F
 DIIS: error= 3.77D-08 at cycle   8 NSaved=   8.
 NSaved= 8 IEnMin= 8 EnMin= -1507.90677255320     IErMin= 8 ErrMin= 3.77D-08
 ErrMax= 3.77D-08  0.00D+00 EMaxC= 1.00D-01 BMatC= 2.75D-12 BMatP= 8.64D-11
 IDIUse=1 WtCom= 1.00D+00 WtEn= 0.00D+00
 Coeff-Com: -0.521D-04 0.362D-02-0.219D-02-0.469D-01-0.186D-01 0.835D-01
 Coeff-Com:  0.190D+00 0.791D+00
 Coeff:     -0.521D-04 0.362D-02-0.219D-02-0.469D-01-0.186D-01 0.835D-01
 Coeff:      0.190D+00 0.791D+00
 Gap=     0.144 Goal=   None    Shift=    0.000
 RMSDP=1.18D-08 MaxDP=8.59D-07 DE=-2.02D-10 OVMax= 3.85D-06

 Cycle  19  Pass 1  IDiag  1:
 RMSU=  4.44D-09    CP:  9.90D-01  1.04D+00  1.07D+00  9.91D-01  1.76D+00
                    CP:  1.54D+00  1.43D+00  1.05D+00
 E= -1507.90677255316     Delta-E=        0.000000000030 Rises=F Damp=F
 DIIS: error= 1.75D-08 at cycle   9 NSaved=   9.
 NSaved= 9 IEnMin= 8 EnMin= -1507.90677255320     IErMin= 9 ErrMin= 1.75D-08
 ErrMax= 1.75D-08  0.00D+00 EMaxC= 1.00D-01 BMatC= 4.84D-13 BMatP= 2.75D-12
 IDIUse=1 WtCom= 1.00D+00 WtEn= 0.00D+00
 Coeff-Com: -0.864D-05 0.416D-03 0.117D-02 0.696D-02-0.727D-02-0.443D-01
 Coeff-Com: -0.387D-02 0.312D+00 0.735D+00
 Coeff:     -0.864D-05 0.416D-03 0.117D-02 0.696D-02-0.727D-02-0.443D-01
 Coeff:     -0.387D-02 0.312D+00 0.735D+00
 Gap=     0.144 Goal=   None    Shift=    0.000
 RMSDP=4.42D-09 MaxDP=5.82D-07 DE= 3.05D-11 OVMax= 1.38D-06

 SCF Done:  E(RM062X) =  -1507.90677255     A.U. after   19 cycles
            NFock= 19  Conv=0.44D-08     -V/T= 2.0037
 KE= 1.502290079269D+03 PE=-8.527124489665D+03 EE= 3.022082666342D+03
 Leave Link  502 at Sat Aug 13 20:55:55 2022, MaxMem=  2684354560 cpu:            8684.5 elap:             543.5
 (Enter /storage/apps/GAUSSIAN/G16_RevA03/g16/l601.exe)
 Copying SCF densities to generalized density rwf, IOpCl= 0 IROHF=0.

 **********************************************************************

            Population analysis using the SCF density.

 **********************************************************************

 Orbital symmetries:
       Occupied  (A) (A) (A) (A) (A) (A) (A) (A) (A) (A) (A) (A)
                 (A) (A) (A) (A) (A) (A) (A) (A) (A) (A) (A) (A)
                 (A) (A) (A) (A) (A) (A) (A) (A) (A) (A) (A) (A)
                 (A) (A) (A) (A) (A) (A) (A) (A) (A) (A) (A) (A)
                 (A) (A) (A) (A) (A) (A) (A) (A) (A) (A) (A) (A)
                 (A) (A) (A) (A) (A) (A) (A) (A) (A) (A) (A) (A)
                 (A) (A) (A) (A) (A) (A) (A) (A) (A) (A) (A) (A)
                 (A) (A) (A) (A) (A) (A) (A) (A) (A) (A) (A)
       Virtual   (A) (A) (A) (A) (A) (A) (A) (A) (A) (A) (A) (A)
                 (A) (A) (A) (A) (A) (A) (A) (A) (A) (A) (A) (A)
                 (A) (A) (A) (A) (A) (A) (A) (A) (A) (A) (A) (A)
                 (A) (A) (A) (A) (A) (A) (A) (A) (A) (A) (A) (A)
                 (A) (A) (A) (A) (A) (A) (A) (A) (A) (A) (A) (A)
                 (A) (A) (A) (A) (A) (A) (A) (A) (A) (A) (A) (A)
                 (A) (A) (A) (A) (A) (A) (A) (A) (A) (A) (A) (A)
                 (A) (A) (A) (A) (A) (A) (A) (A) (A) (A) (A) (A)
                 (A) (A) (A) (A) (A) (A) (A) (A) (A) (A) (A) (A)
                 (A) (A) (A) (A) (A) (A) (A) (A) (A) (A) (A) (A)
                 (A) (A) (A) (A) (A) (A) (A) (A) (A) (A) (A) (A)
                 (A) (A) (A) (A) (A) (A) (A) (A) (A) (A) (A) (A)
                 (A) (A) (A) (A) (A) (A) (A) (A) (A) (A) (A) (A)
                 (A) (A) (A) (A) (A) (A) (A) (A) (A) (A) (A) (A)
                 (A) (A) (A) (A) (A) (A) (A) (A) (A) (A) (A) (A)
                 (A) (A) (A) (A) (A) (A) (A) (A) (A) (A) (A) (A)
                 (A) (A) (A) (A) (A) (A) (A) (A) (A) (A) (A) (A)
                 (A) (A) (A) (A) (A) (A) (A) (A) (A) (A) (A) (A)
                 (A) (A) (A) (A) (A) (A) (A) (A) (A) (A) (A) (A)
                 (A) (A) (A) (A) (A) (A) (A) (A) (A) (A) (A) (A)
                 (A) (A) (A) (A) (A) (A) (A) (A) (A) (A) (A) (A)
                 (A) (A) (A) (A) (A) (A) (A) (A) (A) (A) (A) (A)
                 (A) (A) (A) (A) (A) (A) (A) (A) (A) (A) (A) (A)
                 (A) (A) (A) (A) (A) (A) (A) (A) (A) (A) (A) (A)
                 (A) (A) (A) (A) (A) (A) (A) (A) (A) (A) (A) (A)
                 (A) (A) (A) (A) (A) (A) (A) (A) (A) (A) (A) (A)
                 (A) (A) (A) (A) (A) (A) (A) (A) (A) (A) (A) (A)
                 (A) (A) (A) (A) (A) (A) (A) (A) (A) (A) (A) (A)
                 (A) (A) (A) (A) (A) (A) (A) (A) (A) (A) (A) (A)
                 (A) (A) (A) (A) (A) (A) (A) (A) (A) (A) (A) (A)
                 (A) (A) (A) (A) (A) (A) (A) (A) (A) (A) (A) (A)
                 (A) (A) (A) (A) (A) (A) (A) (A) (A) (A) (A) (A)
                 (A) (A) (A) (A) (A) (A) (A) (A) (A) (A) (A) (A)
                 (A) (A) (A) (A) (A) (A) (A) (A) (A) (A) (A) (A)
                 (A) (A) (A) (A) (A) (A) (A) (A) (A) (A) (A) (A)
                 (A) (A) (A) (A) (A) (A) (A) (A) (A) (A) (A) (A)
                 (A) (A) (A) (A) (A) (A) (A) (A) (A) (A) (A) (A)
                 (A) (A) (A) (A) (A) (A) (A) (A) (A) (A) (A) (A)
                 (A) (A) (A) (A) (A) (A) (A) (A) (A) (A) (A) (A)
                 (A) (A) (A) (A) (A) (A) (A) (A) (A) (A) (A) (A)
                 (A) (A) (A) (A) (A) (A) (A) (A) (A) (A) (A) (A)
                 (A) (A) (A) (A) (A) (A) (A) (A) (A) (A) (A) (A)
                 (A) (A) (A) (A) (A) (A) (A) (A) (A) (A) (A) (A)
                 (A) (A) (A) (A) (A) (A) (A) (A) (A) (A) (A) (A)
                 (A) (A) (A) (A) (A) (A) (A) (A) (A) (A) (A) (A)
                 (A) (A) (A) (A) (A) (A) (A) (A) (A) (A) (A) (A)
                 (A) (A) (A) (A) (A) (A) (A) (A) (A) (A) (A) (A)
                 (A) (A) (A) (A) (A) (A) (A) (A) (A) (A) (A) (A)
                 (A) (A) (A) (A) (A) (A) (A) (A) (A) (A) (A) (A)
                 (A) (A) (A) (A) (A) (A) (A) (A) (A) (A) (A) (A)
                 (A) (A) (A) (A) (A) (A) (A) (A) (A) (A) (A) (A)
                 (A) (A) (A) (A) (A) (A) (A) (A) (A) (A) (A) (A)
                 (A) (A) (A) (A) (A) (A) (A) (A) (A) (A) (A) (A)
                 (A) (A) (A) (A) (A) (A) (A) (A) (A) (A) (A) (A)
                 (A) (A) (A) (A) (A) (A) (A) (A) (A) (A) (A) (A)
                 (A) (A) (A) (A) (A) (A) (A) (A) (A) (A) (A) (A)
                 (A) (A) (A) (A) (A) (A) (A) (A) (A) (A) (A) (A)
                 (A) (A) (A) (A) (A) (A) (A) (A) (A) (A) (A) (A)
                 (A) (A) (A) (A) (A) (A) (A) (A) (A) (A) (A) (A)
                 (A) (A) (A) (A) (A) (A) (A) (A) (A) (A) (A) (A)
                 (A) (A) (A) (A) (A) (A) (A) (A) (A) (A) (A) (A)
                 (A) (A) (A) (A) (A) (A) (A) (A) (A) (A) (A) (A)
                 (A) (A) (A) (A) (A) (A) (A) (A) (A) (A) (A) (A)
                 (A) (A) (A) (A) (A) (A) (A) (A) (A) (A) (A) (A)
                 (A) (A) (A) (A) (A) (A) (A) (A) (A) (A) (A) (A)
                 (A) (A) (A) (A) (A) (A) (A) (A) (A) (A) (A) (A)
                 (A) (A) (A) (A) (A) (A) (A)
 The electronic state is 1-A.
 Alpha  occ. eigenvalues --  -89.86611 -19.66634 -19.63236 -19.61528 -19.61392
 Alpha  occ. eigenvalues --  -19.56745 -14.88282 -14.77844 -10.66695 -10.66385
 Alpha  occ. eigenvalues --  -10.64388 -10.63847 -10.61254 -10.61118 -10.60889
 Alpha  occ. eigenvalues --  -10.60489 -10.60030 -10.59957 -10.58703 -10.55234
 Alpha  occ. eigenvalues --  -10.53576 -10.52125 -10.52014 -10.48759  -8.22510
 Alpha  occ. eigenvalues --   -6.14480  -6.14255  -6.13983  -1.22649  -1.18683
 Alpha  occ. eigenvalues --   -1.17084  -1.15849  -1.13864  -1.10081  -1.03290
 Alpha  occ. eigenvalues --   -0.97992  -0.93474  -0.90765  -0.88059  -0.87405
 Alpha  occ. eigenvalues --   -0.85236  -0.81601  -0.80913  -0.78847  -0.77010
 Alpha  occ. eigenvalues --   -0.73298  -0.71537  -0.70028  -0.69189  -0.67204
 Alpha  occ. eigenvalues --   -0.65939  -0.64065  -0.62929  -0.62562  -0.61340
 Alpha  occ. eigenvalues --   -0.60093  -0.58311  -0.58023  -0.57432  -0.56120
 Alpha  occ. eigenvalues --   -0.56078  -0.54355  -0.53392  -0.52568  -0.51924
 Alpha  occ. eigenvalues --   -0.51607  -0.50921  -0.50173  -0.49997  -0.48978
 Alpha  occ. eigenvalues --   -0.48696  -0.48063  -0.47821  -0.47230  -0.45956
 Alpha  occ. eigenvalues --   -0.45725  -0.45602  -0.44675  -0.43464  -0.43254
 Alpha  occ. eigenvalues --   -0.42503  -0.40295  -0.39624  -0.38440  -0.38182
 Alpha  occ. eigenvalues --   -0.37787  -0.37299  -0.36858  -0.36697  -0.36230
 Alpha  occ. eigenvalues --   -0.34976  -0.34466  -0.29125  -0.27838  -0.21191
 Alpha virt. eigenvalues --   -0.06745  -0.04225   0.03815   0.04647   0.05040
 Alpha virt. eigenvalues --    0.06317   0.07096   0.07289   0.08237   0.08795
 Alpha virt. eigenvalues --    0.09347   0.09922   0.10359   0.10899   0.11294
 Alpha virt. eigenvalues --    0.11384   0.11879   0.12525   0.13029   0.13221
 Alpha virt. eigenvalues --    0.13635   0.13999   0.14205   0.14525   0.15163
 Alpha virt. eigenvalues --    0.15429   0.15541   0.16118   0.16521   0.16655
 Alpha virt. eigenvalues --    0.17389   0.17692   0.18599   0.18814   0.19465
 Alpha virt. eigenvalues --    0.20217   0.20712   0.21423   0.21509   0.22406
 Alpha virt. eigenvalues --    0.22560   0.22864   0.23343   0.23790   0.24290
 Alpha virt. eigenvalues --    0.24593   0.25127   0.25603   0.25876   0.25976
 Alpha virt. eigenvalues --    0.26675   0.27088   0.27825   0.28011   0.28477
 Alpha virt. eigenvalues --    0.29376   0.29507   0.29850   0.30424   0.31088
 Alpha virt. eigenvalues --    0.31563   0.31978   0.32555   0.33083   0.33784
 Alpha virt. eigenvalues --    0.34267   0.34608   0.34832   0.35841   0.36068
 Alpha virt. eigenvalues --    0.36528   0.37079   0.37419   0.37717   0.38466
 Alpha virt. eigenvalues --    0.38515   0.38780   0.39137   0.39647   0.39897
 Alpha virt. eigenvalues --    0.40251   0.40682   0.41083   0.41822   0.42078
 Alpha virt. eigenvalues --    0.42882   0.42943   0.43038   0.43750   0.44075
 Alpha virt. eigenvalues --    0.44283   0.44756   0.44848   0.45464   0.45734
 Alpha virt. eigenvalues --    0.45944   0.46064   0.46598   0.46817   0.47409
 Alpha virt. eigenvalues --    0.47885   0.47985   0.48503   0.48685   0.49018
 Alpha virt. eigenvalues --    0.49455   0.49692   0.50104   0.50258   0.50694
 Alpha virt. eigenvalues --    0.51277   0.51915   0.52045   0.52841   0.52998
 Alpha virt. eigenvalues --    0.53581   0.53888   0.54041   0.54392   0.55238
 Alpha virt. eigenvalues --    0.55587   0.55788   0.56141   0.56373   0.57230
 Alpha virt. eigenvalues --    0.57521   0.58709   0.59082   0.59400   0.60099
 Alpha virt. eigenvalues --    0.60676   0.60823   0.61465   0.62007   0.62175
 Alpha virt. eigenvalues --    0.62788   0.63433   0.64032   0.64573   0.65281
 Alpha virt. eigenvalues --    0.65504   0.66285   0.66560   0.66845   0.67121
 Alpha virt. eigenvalues --    0.67544   0.68124   0.68443   0.69700   0.70428
 Alpha virt. eigenvalues --    0.70961   0.71636   0.71970   0.72611   0.72917
 Alpha virt. eigenvalues --    0.73980   0.74857   0.75090   0.75801   0.76370
 Alpha virt. eigenvalues --    0.77225   0.78328   0.79256   0.79719   0.80657
 Alpha virt. eigenvalues --    0.80970   0.81357   0.82542   0.83293   0.83498
 Alpha virt. eigenvalues --    0.84266   0.85963   0.86720   0.87024   0.87292
 Alpha virt. eigenvalues --    0.87819   0.88645   0.89725   0.90075   0.90406
 Alpha virt. eigenvalues --    0.90478   0.91082   0.91831   0.92447   0.92945
 Alpha virt. eigenvalues --    0.93743   0.94060   0.94860   0.95533   0.96293
 Alpha virt. eigenvalues --    0.96756   0.97084   0.97501   0.98741   0.99649
 Alpha virt. eigenvalues --    1.00373   1.00779   1.01420   1.01800   1.02975
 Alpha virt. eigenvalues --    1.03383   1.03785   1.04519   1.05713   1.06518
 Alpha virt. eigenvalues --    1.06915   1.07924   1.08247   1.08747   1.10072
 Alpha virt. eigenvalues --    1.10548   1.11202   1.12197   1.12596   1.13379
 Alpha virt. eigenvalues --    1.14171   1.15124   1.15281   1.16191   1.17331
 Alpha virt. eigenvalues --    1.17728   1.18488   1.18828   1.19200   1.20326
 Alpha virt. eigenvalues --    1.21062   1.21154   1.22798   1.23278   1.24586
 Alpha virt. eigenvalues --    1.25143   1.25589   1.25826   1.27093   1.27748
 Alpha virt. eigenvalues --    1.28153   1.28771   1.29481   1.29525   1.30736
 Alpha virt. eigenvalues --    1.31914   1.31977   1.33594   1.33740   1.34331
 Alpha virt. eigenvalues --    1.34739   1.35985   1.36920   1.39101   1.39712
 Alpha virt. eigenvalues --    1.40016   1.41279   1.42430   1.42529   1.43484
 Alpha virt. eigenvalues --    1.45087   1.45468   1.46510   1.47212   1.49583
 Alpha virt. eigenvalues --    1.50292   1.50940   1.52434   1.52800   1.53577
 Alpha virt. eigenvalues --    1.53690   1.54738   1.54878   1.55134   1.55964
 Alpha virt. eigenvalues --    1.56421   1.57025   1.57229   1.58104   1.58618
 Alpha virt. eigenvalues --    1.59107   1.59297   1.60189   1.60399   1.60607
 Alpha virt. eigenvalues --    1.61154   1.61258   1.62566   1.62855   1.63154
 Alpha virt. eigenvalues --    1.63441   1.63720   1.64262   1.64478   1.65045
 Alpha virt. eigenvalues --    1.65858   1.66755   1.67161   1.68083   1.68733
 Alpha virt. eigenvalues --    1.68769   1.69953   1.71006   1.71418   1.71931
 Alpha virt. eigenvalues --    1.72266   1.72690   1.73344   1.74257   1.74371
 Alpha virt. eigenvalues --    1.75742   1.76415   1.76940   1.77424   1.77811
 Alpha virt. eigenvalues --    1.78161   1.78933   1.79354   1.80506   1.80929
 Alpha virt. eigenvalues --    1.82148   1.82531   1.83671   1.84294   1.85379
 Alpha virt. eigenvalues --    1.85906   1.86174   1.87145   1.87787   1.88872
 Alpha virt. eigenvalues --    1.89488   1.89813   1.90220   1.91167   1.91610
 Alpha virt. eigenvalues --    1.92513   1.92660   1.93865   1.94001   1.94503
 Alpha virt. eigenvalues --    1.95246   1.95690   1.96702   1.97371   1.97822
 Alpha virt. eigenvalues --    1.99096   1.99607   2.00054   2.01594   2.02357
 Alpha virt. eigenvalues --    2.02789   2.03415   2.04274   2.04715   2.05106
 Alpha virt. eigenvalues --    2.05585   2.06053   2.07293   2.07591   2.09166
 Alpha virt. eigenvalues --    2.09231   2.10451   2.10961   2.12523   2.13937
 Alpha virt. eigenvalues --    2.14434   2.14706   2.15885   2.16221   2.17328
 Alpha virt. eigenvalues --    2.17830   2.17956   2.18091   2.19205   2.19910
 Alpha virt. eigenvalues --    2.21087   2.21179   2.21681   2.22434   2.22818
 Alpha virt. eigenvalues --    2.23294   2.23765   2.24981   2.25250   2.26207
 Alpha virt. eigenvalues --    2.26691   2.27622   2.28499   2.29233   2.30121
 Alpha virt. eigenvalues --    2.30328   2.31998   2.32594   2.33737   2.33925
 Alpha virt. eigenvalues --    2.34450   2.35097   2.35409   2.36392   2.36419
 Alpha virt. eigenvalues --    2.37567   2.37779   2.38145   2.38719   2.39670
 Alpha virt. eigenvalues --    2.40531   2.40869   2.41841   2.42829   2.43742
 Alpha virt. eigenvalues --    2.44541   2.45069   2.46061   2.46839   2.47397
 Alpha virt. eigenvalues --    2.47796   2.48778   2.49874   2.51060   2.52056
 Alpha virt. eigenvalues --    2.52794   2.53580   2.54297   2.54815   2.56061
 Alpha virt. eigenvalues --    2.56562   2.57483   2.58258   2.58414   2.58495
 Alpha virt. eigenvalues --    2.59877   2.60233   2.60425   2.60595   2.61814
 Alpha virt. eigenvalues --    2.61953   2.62564   2.63124   2.64110   2.64780
 Alpha virt. eigenvalues --    2.65867   2.66364   2.66604   2.67303   2.67715
 Alpha virt. eigenvalues --    2.68354   2.68872   2.69386   2.69846   2.70503
 Alpha virt. eigenvalues --    2.71684   2.71815   2.72706   2.73346   2.73811
 Alpha virt. eigenvalues --    2.74288   2.75398   2.76111   2.76654   2.77614
 Alpha virt. eigenvalues --    2.79401   2.79639   2.80221   2.80728   2.81134
 Alpha virt. eigenvalues --    2.82058   2.82660   2.82897   2.83517   2.83975
 Alpha virt. eigenvalues --    2.85091   2.85735   2.85826   2.86740   2.87751
 Alpha virt. eigenvalues --    2.88976   2.89198   2.89720   2.90412   2.91979
 Alpha virt. eigenvalues --    2.92624   2.93086   2.93933   2.94564   2.94818
 Alpha virt. eigenvalues --    2.96353   2.97411   2.97855   2.98481   2.99437
 Alpha virt. eigenvalues --    3.00001   3.01169   3.01405   3.01813   3.03045
 Alpha virt. eigenvalues --    3.03622   3.04459   3.04847   3.06269   3.06599
 Alpha virt. eigenvalues --    3.07062   3.07699   3.08791   3.09637   3.09854
 Alpha virt. eigenvalues --    3.10338   3.11178   3.11494   3.11830   3.12449
 Alpha virt. eigenvalues --    3.12887   3.13527   3.13958   3.14544   3.15010
 Alpha virt. eigenvalues --    3.16182   3.16329   3.17267   3.17765   3.18470
 Alpha virt. eigenvalues --    3.18654   3.19388   3.19698   3.20829   3.21116
 Alpha virt. eigenvalues --    3.22247   3.22689   3.22930   3.23485   3.24411
 Alpha virt. eigenvalues --    3.25271   3.25910   3.26505   3.26952   3.27811
 Alpha virt. eigenvalues --    3.28348   3.29423   3.30343   3.30446   3.31189
 Alpha virt. eigenvalues --    3.31547   3.31859   3.32640   3.32840   3.33503
 Alpha virt. eigenvalues --    3.34423   3.35195   3.35605   3.36049   3.36645
 Alpha virt. eigenvalues --    3.37463   3.38328   3.39278   3.39652   3.40254
 Alpha virt. eigenvalues --    3.41252   3.41262   3.41869   3.42172   3.42721
 Alpha virt. eigenvalues --    3.43112   3.44498   3.45337   3.45497   3.45876
 Alpha virt. eigenvalues --    3.46358   3.47380   3.48018   3.48677   3.49909
 Alpha virt. eigenvalues --    3.50373   3.51089   3.51430   3.52858   3.53317
 Alpha virt. eigenvalues --    3.54353   3.54750   3.55802   3.56476   3.56989
 Alpha virt. eigenvalues --    3.57374   3.57482   3.58521   3.59128   3.60197
 Alpha virt. eigenvalues --    3.60472   3.61754   3.62693   3.63820   3.64560
 Alpha virt. eigenvalues --    3.65965   3.67177   3.67715   3.69513   3.69971
 Alpha virt. eigenvalues --    3.70664   3.71789   3.72858   3.73516   3.75415
 Alpha virt. eigenvalues --    3.75587   3.76994   3.77836   3.78539   3.79843
 Alpha virt. eigenvalues --    3.79946   3.80375   3.82135   3.83671   3.85357
 Alpha virt. eigenvalues --    3.85699   3.86427   3.87042   3.87622   3.88736
 Alpha virt. eigenvalues --    3.90479   3.91207   3.92130   3.92979   3.94120
 Alpha virt. eigenvalues --    3.95830   3.96953   3.97625   3.97897   3.98682
 Alpha virt. eigenvalues --    3.99912   4.01357   4.02478   4.05732   4.06705
 Alpha virt. eigenvalues --    4.08008   4.10554   4.11132   4.12471   4.13314
 Alpha virt. eigenvalues --    4.14251   4.15719   4.16681   4.17136   4.17691
 Alpha virt. eigenvalues --    4.18187   4.20008   4.20860   4.22904   4.23919
 Alpha virt. eigenvalues --    4.26794   4.27093   4.28911   4.29520   4.31140
 Alpha virt. eigenvalues --    4.32058   4.33466   4.35360   4.36573   4.37580
 Alpha virt. eigenvalues --    4.39073   4.40138   4.40754   4.42134   4.43594
 Alpha virt. eigenvalues --    4.43954   4.44767   4.45369   4.47418   4.48712
 Alpha virt. eigenvalues --    4.50160   4.51233   4.54458   4.57020   4.57853
 Alpha virt. eigenvalues --    4.58831   4.60116   4.61796   4.63471   4.66577
 Alpha virt. eigenvalues --    4.67834   4.71595   4.73322   4.75609   4.76274
 Alpha virt. eigenvalues --    4.77371   4.79647   4.80839   4.81453   4.83669
 Alpha virt. eigenvalues --    4.85489   4.86465   4.88272   4.89023   4.89983
 Alpha virt. eigenvalues --    4.91055   4.93184   4.94710   4.95958   4.98117
 Alpha virt. eigenvalues --    4.99962   5.02077   5.03116   5.04674   5.05113
 Alpha virt. eigenvalues --    5.08183   5.12780   5.14396   5.18112   5.20000
 Alpha virt. eigenvalues --    5.21029   5.24742   5.26990   5.27227   5.29263
 Alpha virt. eigenvalues --    5.30441   5.31015   5.32389   5.33647   5.37713
 Alpha virt. eigenvalues --    5.39567   5.42186   5.43496   5.45147   5.46732
 Alpha virt. eigenvalues --    5.48777   5.49335   5.50144   5.53067   5.58764
 Alpha virt. eigenvalues --    5.64754   5.67373   5.72015   5.74355   5.77529
 Alpha virt. eigenvalues --    5.80208   5.81373   5.83483   5.84919   5.86789
 Alpha virt. eigenvalues --    5.88143   5.90551   5.91791   5.94314   5.95171
 Alpha virt. eigenvalues --    5.97465   6.02957   6.05609   6.15076   6.18066
 Alpha virt. eigenvalues --    6.20306   6.22246   6.26190   6.26726   6.37892
 Alpha virt. eigenvalues --    6.41970   6.44494   6.47978   6.50396   6.55865
 Alpha virt. eigenvalues --    6.57833   6.69300   6.73757   6.75631   6.76416
 Alpha virt. eigenvalues --    6.76958   6.80658   6.83868   6.85055   6.87557
 Alpha virt. eigenvalues --    6.90166   6.95103   7.00037   7.08192   7.08376
 Alpha virt. eigenvalues --    7.10001   7.11180   7.16981   7.19180   7.24040
 Alpha virt. eigenvalues --    7.32304   7.41804   9.07008   9.42220   9.59315
 Alpha virt. eigenvalues --   19.80792  22.36448  22.46273  22.49844  22.56808
 Alpha virt. eigenvalues --   22.64731  22.67770  22.74320  22.75417  22.81973
 Alpha virt. eigenvalues --   22.86769  22.94597  22.96878  23.07212  23.19169
 Alpha virt. eigenvalues --   23.28498  23.51391  32.18713  33.16214  44.13199
 Alpha virt. eigenvalues --   44.23492  44.26383  44.38055  44.51171
          Condensed to atoms (all electrons):
               1          2          3          4          5          6
     1  C    5.156586   0.430755   0.411529   0.003525  -0.007093  -0.000235
     2  H    0.430755   0.495417  -0.012857  -0.002456   0.000484  -0.000005
     3  H    0.411529  -0.012857   0.502003  -0.000421   0.000215  -0.000009
     4  C    0.003525  -0.002456  -0.000421   5.568637   0.539410   0.237625
     5  H   -0.007093   0.000484   0.000215   0.539410   0.528239  -0.034965
     6  O   -0.000235  -0.000005  -0.000009   0.237625  -0.034965   8.186162
     7  H   -0.000006  -0.000003  -0.000003  -0.059238  -0.006737   0.303454
     8  C   -0.004269   0.011212  -0.001277  -0.040741  -0.106042  -0.061380
     9  H    0.007373  -0.000324  -0.001931  -0.076070   0.002226   0.001305
    10  O    0.005199  -0.000192  -0.000013   0.050043   0.005641  -0.023317
[...]
 (Enter /storage/apps/GAUSSIAN/G16_RevA03/g16/l716.exe)
 Dipole        = 7.68953401D-01-2.74787576D+00 7.95997007D-01
 ***** Axes restored to original set *****
 -------------------------------------------------------------------
 Center     Atomic                   Forces (Hartrees/Bohr)
 Number     Number              X              Y              Z
 -------------------------------------------------------------------
      1        6          -0.000115995   -0.000052198    0.000237904
      2        1           0.000000000   -0.000002746    0.000009421
      3        1          -0.000020176   -0.000018045    0.000013575
      4        6          -0.000126308   -0.000007303   -0.000106773
      5        1          -0.000061836    0.000006926   -0.000002368
      6        8          -0.000431205   -0.000052879   -0.000111412
      7        1          -0.000031739   -0.000010428   -0.000012212
      8        6          -0.000241488   -0.000064381    0.000196549
      9        1          -0.000030630    0.000003672    0.000028531
     10        8          -0.000365728   -0.000087862    0.000437724
     11        1          -0.000031109    0.000008229    0.000028620
     12        6           0.000108636    0.000078531   -0.000076192
     13        1           0.000017101    0.000012284   -0.000035643
     14        6           0.000026887   -0.000023246    0.000290350
     15        1          -0.000008756   -0.000004759    0.000007433
     16        8           0.000445922    0.000077513    0.000217506
     17        7           0.000556706   -0.000029652   -0.000304889
     18        6           0.000416465    0.000101816   -0.000800767
     19        1           0.000006277    0.000000308   -0.000010741
     20        6           0.000909885   -0.000159505   -0.000617669
     21        1           0.000005844    0.000031241   -0.000014341
     22        6          -0.000732207    0.000270098   -0.000672879
     23        1           0.000616038   -0.000030034    0.000299381
     24        1           0.000404211   -0.000371902   -0.000811255
     25        6           0.000292987    0.000201292    0.000045850
     26        6          -0.000013692    0.000153574   -0.000135430
     27        1           0.000025728    0.000060640    0.000137193
     28        6          -0.000065684   -0.000107703    0.000196444
     29        8          -0.000096954    0.000018384   -0.000188599
     30        7          -0.000238390    0.000025111    0.000638211
     31        1          -0.000020919    0.000008099    0.000042541
     32        1          -0.000065890   -0.000119267    0.000072442
     33        1          -0.000044799    0.000020436    0.000018146
     34        6          -0.000243678   -0.000125429    0.000131884
     35        6           0.000439402   -0.000142187    0.000022701
     36        6          -0.000689856   -0.000196393    0.000179739
     37        6          -0.000670132   -0.000085001    0.001264586
     38        6          -0.000836100    0.000303961    0.001520500
     39        8          -0.000047450   -0.000006332   -0.000652021
     40       16           0.000842162    0.000016337   -0.001444750
     41        1          -0.000008336   -0.000015468   -0.000004151
     42        1          -0.000018383    0.000001628    0.000029190
     43        1           0.000123677   -0.000035781   -0.000092273
     44        1          -0.000056941   -0.000067841    0.000116224
     45        1           0.000102685    0.000278594    0.000133008
     46        1          -0.000003185    0.000163489   -0.000244356
     47        1           0.000005777   -0.000015725    0.000047286
     48        1          -0.000028824   -0.000010096   -0.000024217
 -------------------------------------------------------------------
 Cartesian Forces:  Max     0.001520500 RMS     0.000336785
 Leave Link  716 at Sat Aug 13 20:59:09 2022, MaxMem=  2684354560 cpu:               0.4 elap:               0.0
 (Enter /storage/apps/GAUSSIAN/G16_RevA03/g16/l103.exe)

 GradGradGradGradGradGradGradGradGradGradGradGradGradGradGradGradGradGrad
 Berny optimization.
 Search for a local minimum.
 Step number   1 out of a maximum of    2
 All quantities printed in internal units (Hartrees-Bohrs-Radians)
 Second derivative matrix not updated -- first step.
 ITU=  0
     Eigenvalues ---    0.00023   0.00087   0.00106   0.00127   0.00181
     Eigenvalues ---    0.00212   0.00303   0.00339   0.00446   0.00473
     Eigenvalues ---    0.00592   0.00623   0.00804   0.00917   0.00961
     Eigenvalues ---    0.00965   0.01131   0.01189   0.01347   0.01503
     Eigenvalues ---    0.01719   0.02145   0.02292   0.02427   0.02663
     Eigenvalues ---    0.02978   0.03125   0.03303   0.03685   0.04237
     Eigenvalues ---    0.04395   0.04589   0.04766   0.05006   0.05238
     Eigenvalues ---    0.05298   0.05436   0.05730   0.05820   0.05968
     Eigenvalues ---    0.06149   0.06293   0.06444   0.06751   0.07033
     Eigenvalues ---    0.07072   0.07116   0.07658   0.08106   0.08343
     Eigenvalues ---    0.08682   0.08827   0.09198   0.09356   0.10461
     Eigenvalues ---    0.10746   0.10861   0.11221   0.12116   0.12548
     Eigenvalues ---    0.12829   0.13055   0.13220   0.13300   0.13663
     Eigenvalues ---    0.13900   0.14014   0.15656   0.16261   0.16441
     Eigenvalues ---    0.17552   0.18123   0.18626   0.19183   0.19908
     Eigenvalues ---    0.20344   0.20627   0.21142   0.21953   0.22569
     Eigenvalues ---    0.25189   0.25541   0.27350   0.28076   0.30610
     Eigenvalues ---    0.33213   0.33649   0.34427   0.34661   0.37725
     Eigenvalues ---    0.37851   0.37851   0.37851   0.37851   0.39906
     Eigenvalues ---    0.43869   0.48038   0.49261   0.57087   0.58513
     Eigenvalues ---    0.60023   0.61770   0.69561   0.72097   0.73877
     Eigenvalues ---    0.79146   0.81853   0.82670   0.87434   0.90805
     Eigenvalues ---    0.91162   0.91965   0.92371   0.93339   0.95318
     Eigenvalues ---    0.96881   0.99748   0.99805   1.02076   1.04129
     Eigenvalues ---    1.05938   1.08548   1.11300   1.11674   1.12582
     Eigenvalues ---    1.19837   1.20682   1.27420   1.27834   1.28997
     Eigenvalues ---    1.33581   1.37339   1.43173   1.56566   1.72439
     Eigenvalues ---    1.84343   1.87121   2.36034
 Quadratic step=3.137D+00 exceeds max=3.000D-01 adjusted using Lamda=-2.630D-03.
 Angle between NR and scaled steps=  27.45 degrees.
 Angle between quadratic step and forces=  67.41 degrees.
 Linear search not attempted -- first point.
 Variable       Old X    -DE/DX   Delta X   Delta X   Delta X     New X
                                 (Linear)    (Quad)   (Total)
    X1        6.77463  -0.00012   0.00000  -0.01831  -0.01831   6.75632
    Y1       -6.83967  -0.00005   0.00000  -0.02361  -0.02361  -6.86328
    Z1       -0.78701   0.00024   0.00000   0.03043   0.03043  -0.75658
    X2        7.08057   0.00000   0.00000  -0.00967  -0.00967   7.07089
    Y2       -7.01246  -0.00000   0.00000  -0.03326  -0.03326  -7.04572
    Z2       -2.81552   0.00001   0.00000   0.03193   0.03193  -2.78359
    X3        8.14339  -0.00002   0.00000  -0.02792  -0.02792   8.11547
    Y3       -8.03246  -0.00002   0.00000  -0.02864  -0.02864  -8.06110
    Z3        0.18667   0.00001   0.00000   0.03804   0.03804   0.22471
    X4        3.47732  -0.00013   0.00000  -0.00827  -0.00827   3.46905
    Y4       -2.71582  -0.00001   0.00000   0.01870   0.01870  -2.69713
    Z4        2.35953  -0.00011   0.00000  -0.01035  -0.01035   2.34917
    X5        2.24825  -0.00006   0.00000  -0.01527  -0.01527   2.23298
    Y5       -4.35846   0.00001   0.00000   0.02476   0.02476  -4.33370
    Z5        2.03676  -0.00000   0.00000  -0.01271  -0.01271   2.02405
    X6        2.70579  -0.00043   0.00000  -0.01605  -0.01605   2.68974
    Y6       -1.28319  -0.00005   0.00000   0.03498   0.03498  -1.24820
    Z6        4.39460  -0.00011   0.00000  -0.02444  -0.02444   4.37016
    X7        0.93434  -0.00003   0.00000  -0.00567  -0.00567   0.92867
    Y7       -0.67790  -0.00001   0.00000   0.04989   0.04989  -0.62801
    Z7        4.03842  -0.00001   0.00000  -0.04799  -0.04799   3.99043
    X8        6.22167  -0.00024   0.00000  -0.01649  -0.01649   6.20518
    Y8       -3.56592  -0.00006   0.00000   0.00121   0.00121  -3.56471
    Z8        2.71238   0.00020   0.00000   0.01271   0.01271   2.72509
    X9        6.35993  -0.00003   0.00000  -0.03230  -0.03230   6.32763
    Y9       -5.23340   0.00000   0.00000   0.00651   0.00651  -5.22690
    Z9        3.92749   0.00003   0.00000   0.02129   0.02129   3.94878
   X10        7.64728  -0.00037   0.00000  -0.00858  -0.00858   7.63870
   Y10       -1.54207  -0.00009   0.00000  -0.00294  -0.00294  -1.54501
   Z10        3.67507   0.00044   0.00000   0.00986   0.00986   3.68493
   X11        6.59135  -0.00003   0.00000  -0.00864  -0.00864   6.58272
   Y11       -0.70532   0.00001   0.00000   0.01562   0.01562  -0.68970
   Z11        4.91263   0.00003   0.00000  -0.00363  -0.00363   4.90901
   X12        3.74720   0.00011   0.00000   0.01780   0.01780   3.76499
   Y12       -1.23959   0.00008   0.00000   0.00308   0.00308  -1.23651
   Z12       -0.13317  -0.00008   0.00000  -0.01698  -0.01698  -0.15015
   X13        4.26759   0.00002   0.00000   0.03104   0.03104   4.29863
   Y13        0.72020   0.00001   0.00000   0.00181   0.00181   0.72201
   Z13        0.25538  -0.00004   0.00000  -0.02829  -0.02829   0.22709
   X14        7.08736   0.00003   0.00000  -0.00431  -0.00431   7.08305
   Y14       -4.11347  -0.00002   0.00000  -0.02137  -0.02137  -4.13484
   Z14        0.02362   0.00029   0.00000   0.02038   0.02038   0.04399
   X15        9.04065  -0.00001   0.00000   0.00181   0.00181   9.04246
   Y15       -3.49834  -0.00000   0.00000  -0.03757  -0.03757  -3.53592
   Z15       -0.20152   0.00001   0.00000   0.02423   0.02423  -0.17729
   X16        5.54891   0.00045   0.00000   0.01706   0.01706   5.56597
   Y16       -2.50888   0.00008   0.00000  -0.01890  -0.01890  -2.52778
   Z16       -1.56695   0.00022   0.00000   0.00227   0.00227  -1.56469
   X17        1.41375   0.00056   0.00000   0.02429   0.02429   1.43805
   Y17       -1.13341  -0.00003   0.00000   0.00636   0.00636  -1.12705
   Z17       -1.67997  -0.00030   0.00000  -0.02687  -0.02687  -1.70684
   X18        0.54029   0.00042   0.00000   0.04153   0.04153   0.58182
   Y18       -3.29952   0.00010   0.00000   0.01118   0.01118  -3.28833
   Z18       -2.70824  -0.00080   0.00000  -0.05204  -0.05204  -2.76028
   X19        1.64565   0.00001   0.00000   0.05486   0.05486   1.70051
   Y19       -4.97116   0.00000   0.00000   0.01554   0.01554  -4.95562
   Z19       -2.33570  -0.00001   0.00000  -0.07105  -0.07105  -2.40675
   X20       -1.57027   0.00091   0.00000   0.04078   0.04078  -1.52949
   Y20       -3.27120  -0.00016   0.00000   0.01109   0.01109  -3.26011
   Z20       -4.20159  -0.00062   0.00000  -0.05041  -0.05041  -4.25200
   X21       -2.23242   0.00001   0.00000   0.05622   0.05622  -2.17620
   Y21       -5.01337   0.00003   0.00000   0.01549   0.01549  -4.99789
   Z21       -5.03279  -0.00001   0.00000  -0.07179  -0.07179  -5.10458
   X22       -2.79751  -0.00073   0.00000   0.01647   0.01647  -2.78104
   Y22       -0.98989   0.00027   0.00000   0.00555   0.00555  -0.98434
   Z22       -4.65461  -0.00067   0.00000  -0.01683  -0.01683  -4.67143
   X23       -4.41295   0.00062   0.00000   0.01958   0.01958  -4.39338
   Y23       -0.92079  -0.00003   0.00000   0.00700   0.00700  -0.91379
   Z23       -5.90923   0.00030   0.00000  -0.01747  -0.01747  -5.92669
   X24       -5.71740   0.00040   0.00000  -0.00550  -0.00550  -5.72290
   Y24       -1.59471  -0.00037   0.00000  -0.00796  -0.00796  -1.60267
   Z24       -1.61072  -0.00081   0.00000   0.01994   0.01994  -1.59078
   X25       -1.88724   0.00029   0.00000  -0.00261  -0.00261  -1.88985
   Y25        1.21097   0.00020   0.00000   0.00012   0.00012   1.21109
   Z25       -3.55207   0.00005   0.00000   0.01090   0.01090  -3.54117
   X26        0.25923  -0.00001   0.00000   0.00712   0.00712   0.26635
   Y26        1.06556   0.00015   0.00000   0.00218   0.00218   1.06774
   Z26       -2.06333  -0.00014   0.00000  -0.00216  -0.00216  -2.06549
   X27        1.04174   0.00003   0.00000   0.00141   0.00141   1.04315
   Y27        2.74011   0.00006   0.00000  -0.00075  -0.00075   2.73936
   Z27       -1.18646   0.00014   0.00000   0.00930   0.00930  -1.17716
   X28       -2.91615  -0.00007   0.00000  -0.03113  -0.03113  -2.94728
   Y28        3.80055  -0.00011   0.00000  -0.00390  -0.00390   3.79664
   Z28       -4.06579   0.00020   0.00000   0.04691   0.04691  -4.01888
   X29       -1.57238  -0.00010   0.00000  -0.04705  -0.04705  -1.61943
   Y29        5.63686   0.00002   0.00000   0.00667   0.00667   5.64353
   Z29       -3.89825  -0.00019   0.00000   0.05465   0.05465  -3.84361
   X30       -5.35794  -0.00024   0.00000  -0.03387  -0.03387  -5.39181
   Y30        3.86765   0.00003   0.00000  -0.01395  -0.01395   3.85370
   Z30       -4.91180   0.00064   0.00000   0.05559   0.05559  -4.85621
   X31       -6.08199  -0.00002   0.00000  -0.04014  -0.04014  -6.12212
   Y31        5.62780   0.00001   0.00000  -0.01645  -0.01645   5.61136
   Z31       -5.03925   0.00004   0.00000   0.05706   0.05706  -4.98219
   X32       -6.54841  -0.00007   0.00000  -0.02559  -0.02559  -6.57399
   Y32        2.55988  -0.00012   0.00000  -0.02605  -0.02605   2.53384
   Z32       -4.19506   0.00007   0.00000   0.04517   0.04517  -4.14989
   X33        4.88513  -0.00004   0.00000  -0.02396  -0.02396   4.86117
   Y33       -7.54210   0.00002   0.00000  -0.01165  -0.01165  -7.55374
   Z33       -0.33986   0.00002   0.00000   0.02353   0.02353  -0.31633
   X34        0.33362  -0.00024   0.00000  -0.00482  -0.00482   0.32880
   Y34        4.13967  -0.00013   0.00000   0.00251   0.00251   4.14218
   Z34        5.39343   0.00013   0.00000  -0.00346  -0.00346   5.38996
   X35       -3.14151   0.00044   0.00000   0.00734   0.00734  -3.13418
   Y35        1.67224  -0.00014   0.00000  -0.00546  -0.00546   1.66678
   Z35        2.27432   0.00002   0.00000  -0.00704  -0.00704   2.26727
   X36       -5.36638  -0.00069   0.00000  -0.00125  -0.00125  -5.36764
   Y36        1.57284  -0.00020   0.00000  -0.00392  -0.00392   1.56892
   Z36        0.96275   0.00018   0.00000   0.00740   0.00740   0.97015
   X37       -9.39726  -0.00067   0.00000  -0.00549  -0.00549  -9.40275
   Y37       -0.59102  -0.00009   0.00000   0.00330   0.00330  -0.58772
   Z37       -0.30022   0.00126   0.00000   0.01265   0.01265  -0.28757
   X38       -6.55826  -0.00084   0.00000  -0.00871  -0.00871  -6.56697
   Y38       -0.84910   0.00030   0.00000  -0.00371  -0.00371  -0.85281
   Z38        0.14055   0.00152   0.00000   0.02170   0.02170   0.16226
   X39       -1.65944  -0.00005   0.00000  -0.00640  -0.00640  -1.66584
   Y39       -0.16559  -0.00001   0.00000  -0.01315  -0.01315  -0.17874
   Z39        2.72304  -0.00065   0.00000   0.00521   0.00521   2.72825
   X40       -2.24828   0.00084   0.00000   0.04986   0.04986  -2.19842
   Y40        4.82422   0.00002   0.00000   0.00253   0.00253   4.82675
   Z40        3.28772  -0.00144   0.00000  -0.07045  -0.07045   3.21728
   X41        0.75980  -0.00001   0.00000  -0.01452  -0.01452   0.74528
   Y41        5.90040  -0.00002   0.00000   0.00734   0.00734   5.90774
   Z41        6.36776  -0.00000   0.00000  -0.00815  -0.00815   6.35961
   X42        2.00849  -0.00002   0.00000   0.01422   0.01422   2.02271
   Y42        3.50690   0.00000   0.00000  -0.01544  -0.01544   3.49146
   Z42        4.38512   0.00003   0.00000   0.03889   0.03889   4.42401
   X43      -10.35957   0.00012   0.00000  -0.01343  -0.01343 -10.37300
   Y43       -0.02044  -0.00004   0.00000   0.00982   0.00982  -0.01062
   Z43        1.43109  -0.00009   0.00000   0.00362   0.00362   1.43471
   X44       -9.80691  -0.00006   0.00000   0.01185   0.01185  -9.79506
   Y44        0.85526  -0.00007   0.00000   0.00084   0.00084   0.85611
   Z44       -1.72087   0.00012   0.00000   0.00432   0.00432  -1.71655
   X45      -10.23155   0.00010   0.00000  -0.00218  -0.00218 -10.23373
   Y45       -2.36083   0.00028   0.00000   0.00619   0.00619  -2.35465
   Z45       -0.95149   0.00013   0.00000   0.00335   0.00335  -0.94814
   X46       -6.17811  -0.00000   0.00000  -0.00790  -0.00790  -6.18602
   Y46       -2.31968   0.00016   0.00000  -0.00236  -0.00236  -2.32204
   Z46        1.54489  -0.00024   0.00000   0.02056   0.02056   1.56545
   X47       -6.45470   0.00001   0.00000   0.01204   0.01204  -6.44266
   Y47        3.30102  -0.00002   0.00000   0.00217   0.00217   3.30318
   Z47        0.79112   0.00005   0.00000  -0.01225  -0.01225   0.77887
   X48       -0.21157  -0.00003   0.00000  -0.04444  -0.04444  -0.25601
   Y48        2.71544  -0.00001   0.00000   0.01571   0.01571   2.73116
   Z48        6.77297  -0.00002   0.00000  -0.00588  -0.00588   6.76709
         Item               Value     Threshold  Converged?
 Maximum Force            0.001521     0.000450     NO 
 RMS     Force            0.000337     0.000300     NO 
 Maximum Displacement     0.071791     0.001800     NO 
 RMS     Displacement     0.025040     0.001200     NO 
 Predicted change in Energy=-3.519909D-04
 GradGradGradGradGradGradGradGradGradGradGradGradGradGradGradGradGradGrad

 Leave Link  103 at Sat Aug 13 20:59:09 2022, MaxMem=  2684354560 cpu:               1.0 elap:               0.1
 (Enter /storage/apps/GAUSSIAN/G16_RevA03/g16/l9999.exe)

 Test job not archived.
 1\1\GINC-T076\Force\RM062X\def2TZVP\C16H24N2O5S1\LV87696\13-Aug-2022\0
 \\#P M062X/Def2TZVP scf=(direct,conver=8) EmpiricalDispersion=GD3 Forc
 e Charge Prop=(Field,Read)\\Gaussian run\\0,1\C,3.584978,-3.619398,-0.
 416469\H,3.746874,-3.710833,-1.489908\H,4.309299,-4.250596,0.098782\C,
 1.840116,-1.437152,1.248607\H,1.189724,-2.306396,1.077805\O,1.431841,-
 0.679033,2.325522\H,0.494432,-0.358728,2.137041\C,3.292366,-1.887004,1
 .43533\H,3.36553,-2.769397,2.078337\O,4.046764,-0.81603,1.944761\H,3.4
 87993,-0.373238,2.599652\C,1.982931,-0.655964,-0.070468\H,2.258311,0.3
 81113,0.135141\C,3.750467,-2.176756,0.012497\H,4.784104,-1.851244,-0.1
 06641\O,2.936357,-1.327641,-0.829196\N,0.748126,-0.599773,-0.889001\C,
 0.285909,-1.746029,-1.433141\H,0.87084,-2.630624,-1.235997\C,-0.83095,
 -1.731044,-2.223388\H,-1.181347,-2.652962,-2.663237\C,-1.480378,-0.523
 828,-2.463113\H,-2.335234,-0.487263,-3.127029\H,-3.025518,-0.843885,-0
 .852356\C,-0.998686,0.640816,-1.879674\C,0.137177,0.563872,-1.091866\H
 ,0.551267,1.450004,-0.627848\C,-1.54316,2.011164,-2.151524\O,-0.832067
 ,2.982897,-2.062866\N,-2.835298,2.046671,-2.599212\H,-3.218448,2.97810
 5,-2.666656\H,-3.465268,1.354631,-2.219931\H,2.585097,-3.991105,-0.179
 846\C,0.176545,2.190617,2.854078\C,-1.662417,0.884911,1.203516\C,-2.83
 9768,0.83231,0.509464\C,-4.972816,-0.312755,-0.15887\C,-3.470484,-0.44
 9323,0.074378\O,-0.878138,-0.087627,1.44097\S,-1.189737,2.552868,1.739
 789\H,0.402067,3.122357,3.369673\H,1.062849,1.855773,2.320505\H,-5.482
 049,-0.010817,0.757302\H,-5.189595,0.452586,-0.910645\H,-5.414301,-1.2
 493,-0.503506\H,-3.269317,-1.227523,0.817518\H,-3.41568,1.746822,0.418
 644\H,-0.11196,1.436951,3.5841\\Version=ES64L-G16RevA.03\State=1-A\HF=
 -1507.9067726\RMSD=4.419e-09\RMSF=3.368e-04\Dipole=0.0558188,-2.329815
 9,-1.828815\Quadrupole=0.9997567,1.2066487,-2.2064054,-4.3858658,8.955
 461,5.2840764\PG=C01 [X(C16H24N2O5S1)]\\@


 The arm of the moral universe is long, but it bends toward justice.
 -- Martin Luther King, Jr.
 Job cpu time:       0 days  3 hours 17 minutes 46.5 seconds.
 Elapsed time:       0 days  0 hours 12 minutes 23.0 seconds.
 File lengths (MBytes):  RWF=    435 Int=      0 D2E=      0 Chk=     48 Scr=      1
 Normal termination of Gaussian 16 at Sat Aug 13 20:59:09 2022.
