 Entering Gaussian System, Link 0=g16
 Initial command:
 /storage/apps/GAUSSIAN/G16_RevA03/g16/l1.exe "/scratch/tmp/1019368/Gau-106685.inp" -scrdir="/scratch/tmp/1019368/"
 Entering Link 1 = /storage/apps/GAUSSIAN/G16_RevA03/g16/l1.exe PID=    106687.
  
 Copyright (c) 1988,1990,1992,1993,1995,1998,2003,2009,2016,
            Gaussian, Inc.  All Rights Reserved.
  
 This is part of the Gaussian(R) 16 program.  It is based on
 the Gaussian(R) 09 system (copyright 2009, Gaussian, Inc.),
 the Gaussian(R) 03 system (copyright 2003, Gaussian, Inc.),
 the Gaussian(R) 98 system (copyright 1998, Gaussian, Inc.),
 the Gaussian(R) 94 system (copyright 1995, Gaussian, Inc.),
 the Gaussian 92(TM) system (copyright 1992, Gaussian, Inc.),
 the Gaussian 90(TM) system (copyright 1990, Gaussian, Inc.),
 the Gaussian 88(TM) system (copyright 1988, Gaussian, Inc.),
 the Gaussian 86(TM) system (copyright 1986, Carnegie Mellon
 University), and the Gaussian 82(TM) system (copyright 1983,
 Carnegie Mellon University). Gaussian is a federally registered
 trademark of Gaussian, Inc.
  
 This software contains proprietary and confidential information,
 including trade secrets, belonging to Gaussian, Inc.
  
 This software is provided under written license and may be
 used, copied, transmitted, or stored only in accord with that
 written license.
  
 The following legend is applicable only to US Government
 contracts under FAR:
  
                    RESTRICTED RIGHTS LEGEND
  
 Use, reproduction and disclosure by the US Government is
 subject to restrictions as set forth in subparagraphs (a)
 and (c) of the Commercial Computer Software - Restricted
 Rights clause in FAR 52.227-19.
  
 Gaussian, Inc.
 340 Quinnipiac St., Bldg. 40, Wallingford CT 06492
  
  
 ---------------------------------------------------------------
 Warning -- This program may not be used in any manner that
 competes with the business of Gaussian, Inc. or will provide
 assistance to any competitor of Gaussian, Inc.  The licensee
 of this program is prohibited from giving any competitor of
 Gaussian, Inc. access to this program.  By using this program,
 the user acknowledges that Gaussian, Inc. is engaged in the
 business of creating and licensing software in the field of
 computational chemistry and represents and warrants to the
 licensee that it is not a competitor of Gaussian, Inc. and that
 it will not use this program in any manner prohibited above.
 ---------------------------------------------------------------
  

 Cite this work as:
 Gaussian 16, Revision A.03,
 M. J. Frisch, G. W. Trucks, H. B. Schlegel, G. E. Scuseria, 
 M. A. Robb, J. R. Cheeseman, G. Scalmani, V. Barone, 
 G. A. Petersson, H. Nakatsuji, X. Li, M. Caricato, A. V. Marenich, 
 J. Bloino, B. G. Janesko, R. Gomperts, B. Mennucci, H. P. Hratchian, 
 J. V. Ortiz, A. F. Izmaylov, J. L. Sonnenberg, D. Williams-Young, 
 F. Ding, F. Lipparini, F. Egidi, J. Goings, B. Peng, A. Petrone, 
 T. Henderson, D. Ranasinghe, V. G. Zakrzewski, J. Gao, N. Rega, 
 G. Zheng, W. Liang, M. Hada, M. Ehara, K. Toyota, R. Fukuda, 
 J. Hasegawa, M. Ishida, T. Nakajima, Y. Honda, O. Kitao, H. Nakai, 
 T. Vreven, K. Throssell, J. A. Montgomery, Jr., J. E. Peralta, 
 F. Ogliaro, M. J. Bearpark, J. J. Heyd, E. N. Brothers, K. N. Kudin, 
 V. N. Staroverov, T. A. Keith, R. Kobayashi, J. Normand, 
 K. Raghavachari, A. P. Rendell, J. C. Burant, S. S. Iyengar, 
 J. Tomasi, M. Cossi, J. M. Millam, M. Klene, C. Adamo, R. Cammi, 
 J. W. Ochterski, R. L. Martin, K. Morokuma, O. Farkas, 
 J. B. Foresman, and D. J. Fox, Gaussian, Inc., Wallingford CT, 2016.
 
 ******************************************
 Gaussian 16:  ES64L-G16RevA.03 25-Dec-2016
                13-Aug-2022 
 ******************************************
 %NProcShared=16
 Will use up to   16 processors via shared memory.
 %mem=20GB
 ----------------------------------------------------------------------
 #P M062X/Def2TZVP scf=(direct,conver=8) EmpiricalDispersion=GD3 Force 
 Charge Prop=(Field,Read)
 ----------------------------------------------------------------------
 1/10=7,18=10,28=-2,30=1,38=1,125=101/1,3;
 2/12=2,17=6,18=5,29=2,40=1/2;
 3/5=44,7=101,11=2,25=1,30=1,71=1,74=-55,124=31/1,2,3;
 4//1;
 5/5=2,6=8,38=5/2;
 6/7=2,8=2,9=2,10=2,14=2,15=1,28=1/1,2;
 7/7=1,16=-2,29=1/1,2,3,16;
 1/10=7,18=10,28=-2,30=1/3;
 99/12=1/99;
 Leave Link    1 at Sat Aug 13 20:47:17 2022, MaxMem=  2684354560 cpu:               0.7 elap:               0.1
 (Enter /storage/apps/GAUSSIAN/G16_RevA03/g16/l101.exe)
 ------------
 Gaussian run
 ------------
 Symbolic Z-matrix:
 Charge =  0 Multiplicity = 1
 C                     3.58326  -3.62024  -0.4125 
 H                     3.74766  -3.71175  -1.48558 
 H                     4.30491  -4.25323   0.10427 
 C                     1.83763  -1.43706   1.24726 
 H                     1.18695  -2.30555   1.07345 
 O                     1.42682  -0.67978   2.32366 
 H                     0.48969  -0.35878   2.1322 
 C                     3.28885  -1.88807   1.4386 
 H                     3.3593   -2.77056   2.08177 
 O                     4.04217  -0.81758   1.95061 
 H                     3.48126  -0.37446   2.60345 
 C                     1.98551  -0.65505  -0.07118 
 H                     2.26      0.38201   0.13575 
 C                     3.75107  -2.17808   0.01735 
 H                     4.78582  -1.85504  -0.0987 
 O                     2.9419   -1.32632  -0.82646 
 N                     0.75345  -0.59836  -0.89415 
 C                     0.29521  -1.74318  -1.44436 
 H                     0.88266  -2.62689  -1.25053 
 C                    -0.82225  -1.72848  -2.23385 
 H                    -1.17026  -2.64956  -2.67732 
 C                    -1.47697  -0.52222  -2.46655 
 H                    -2.33132  -0.48528  -3.12966 
 H                    -3.03814  -0.8401   -0.85304 
 C                    -0.99682   0.64138  -1.88004 
 C                     0.13882   0.5646   -1.09215 
 H                     0.55034   1.4498   -0.62428 
 C                    -1.54471   2.01093  -2.14874 
 O                    -0.83383   2.98325  -2.06512 
 N                    -2.83974   2.04477  -2.58834 
 H                    -3.22398   2.97582  -2.65502 
 H                    -3.46668   1.35296  -2.20347 
 H                     2.582    -3.98986  -0.17842 
 C                     0.17251   2.18876   2.85626 
 C                    -1.66253   0.88432   1.20054 
 C                    -2.8451    0.83189   0.51524 
 C                    -4.98152  -0.31201  -0.13923 
 C                    -3.47739  -0.44877   0.08079 
 O                    -0.87695  -0.08878   1.43218 
 S                    -1.18389   2.55255   1.73013 
 H                     0.39697   3.12094   3.37156 
 H                     1.06183   1.85012   2.3302 
 H                    -5.48215  -0.01099   0.78133 
 H                    -5.20441   0.45383  -0.88858 
 H                    -5.42602  -1.24761  -0.4811 
 H                    -3.26885  -1.22951   0.81844 
 H                    -3.42185   1.74619   0.42944 
 H                    -0.12379   1.43754   3.58571 
 
 ITRead=  0  0  0  0  0  0  0  0  0  0  0  0  0  0  0  0  0  0  0  0
 ITRead=  0  0  0  0  0  0  0  0  0  0  0  0  0  0  0  0  0  0  0  0
 ITRead=  0  0  0  0  0  0  0  0
 MicOpt= -1 -1 -1 -1 -1 -1 -1 -1 -1 -1 -1 -1 -1 -1 -1 -1 -1 -1 -1 -1
 MicOpt= -1 -1 -1 -1 -1 -1 -1 -1 -1 -1 -1 -1 -1 -1 -1 -1 -1 -1 -1 -1
 MicOpt= -1 -1 -1 -1 -1 -1 -1 -1
 NAtoms=     48 NQM=       48 NQMF=       0 NMMI=      0 NMMIF=      0
                NMic=       0 NMicF=      0.
                    Isotopes and Nuclear Properties:
 (Nuclear quadrupole moments (NQMom) in fm**2, nuclear magnetic moments (NMagM)
  in nuclear magnetons)

  Atom         1           2           3           4           5           6           7           8           9          10
 IAtWgt=          12           1           1          12           1          16           1          12           1          16
 AtmWgt=  12.0000000   1.0078250   1.0078250  12.0000000   1.0078250  15.9949146   1.0078250  12.0000000   1.0078250  15.9949146
 NucSpn=           0           1           1           0           1           0           1           0           1           0
 AtZEff=  -0.0000000  -0.0000000  -0.0000000  -0.0000000  -0.0000000  -0.0000000  -0.0000000  -0.0000000  -0.0000000  -0.0000000
 NQMom=    0.0000000   0.0000000   0.0000000   0.0000000   0.0000000   0.0000000   0.0000000   0.0000000   0.0000000   0.0000000
 NMagM=    0.0000000   2.7928460   2.7928460   0.0000000   2.7928460   0.0000000   2.7928460   0.0000000   2.7928460   0.0000000
 AtZNuc=   6.0000000   1.0000000   1.0000000   6.0000000   1.0000000   8.0000000   1.0000000   6.0000000   1.0000000   8.0000000

  Atom        11          12          13          14          15          16          17          18          19          20
 IAtWgt=           1          12           1          12           1          16          14          12           1          12
 AtmWgt=   1.0078250  12.0000000   1.0078250  12.0000000   1.0078250  15.9949146  14.0030740  12.0000000   1.0078250  12.0000000
 NucSpn=           1           0           1           0           1           0           2           0           1           0
 AtZEff=  -0.0000000  -0.0000000  -0.0000000  -0.0000000  -0.0000000  -0.0000000  -0.0000000  -0.0000000  -0.0000000  -0.0000000
 NQMom=    0.0000000   0.0000000   0.0000000   0.0000000   0.0000000   0.0000000   2.0440000   0.0000000   0.0000000   0.0000000
 NMagM=    2.7928460   0.0000000   2.7928460   0.0000000   2.7928460   0.0000000   0.4037610   0.0000000   2.7928460   0.0000000
 AtZNuc=   1.0000000   6.0000000   1.0000000   6.0000000   1.0000000   8.0000000   7.0000000   6.0000000   1.0000000   6.0000000

  Atom        21          22          23          24          25          26          27          28          29          30
 IAtWgt=           1          12           1           1          12          12           1          12          16          14
 AtmWgt=   1.0078250  12.0000000   1.0078250   1.0078250  12.0000000  12.0000000   1.0078250  12.0000000  15.9949146  14.0030740
 NucSpn=           1           0           1           1           0           0           1           0           0           2
 AtZEff=  -0.0000000  -0.0000000  -0.0000000  -0.0000000  -0.0000000  -0.0000000  -0.0000000  -0.0000000  -0.0000000  -0.0000000
 NQMom=    0.0000000   0.0000000   0.0000000   0.0000000   0.0000000   0.0000000   0.0000000   0.0000000   0.0000000   2.0440000
 NMagM=    2.7928460   0.0000000   2.7928460   2.7928460   0.0000000   0.0000000   2.7928460   0.0000000   0.0000000   0.4037610
 AtZNuc=   1.0000000   6.0000000   1.0000000   1.0000000   6.0000000   6.0000000   1.0000000   6.0000000   8.0000000   7.0000000

  Atom        31          32          33          34          35          36          37          38          39          40
 IAtWgt=           1           1           1          12          12          12          12          12          16          32
 AtmWgt=   1.0078250   1.0078250   1.0078250  12.0000000  12.0000000  12.0000000  12.0000000  12.0000000  15.9949146  31.9720718
 NucSpn=           1           1           1           0           0           0           0           0           0           0
 AtZEff=  -0.0000000  -0.0000000  -0.0000000  -0.0000000  -0.0000000  -0.0000000  -0.0000000  -0.0000000  -0.0000000  -0.0000000
 NQMom=    0.0000000   0.0000000   0.0000000   0.0000000   0.0000000   0.0000000   0.0000000   0.0000000   0.0000000   0.0000000
 NMagM=    2.7928460   2.7928460   2.7928460   0.0000000   0.0000000   0.0000000   0.0000000   0.0000000   0.0000000   0.0000000
 AtZNuc=   1.0000000   1.0000000   1.0000000   6.0000000   6.0000000   6.0000000   6.0000000   6.0000000   8.0000000  16.0000000

  Atom        41          42          43          44          45          46          47          48
 IAtWgt=           1           1           1           1           1           1           1           1
 AtmWgt=   1.0078250   1.0078250   1.0078250   1.0078250   1.0078250   1.0078250   1.0078250   1.0078250
 NucSpn=           1           1           1           1           1           1           1           1
 AtZEff=  -0.0000000  -0.0000000  -0.0000000  -0.0000000  -0.0000000  -0.0000000  -0.0000000  -0.0000000
 NQMom=    0.0000000   0.0000000   0.0000000   0.0000000   0.0000000   0.0000000   0.0000000   0.0000000
 NMagM=    2.7928460   2.7928460   2.7928460   2.7928460   2.7928460   2.7928460   2.7928460   2.7928460
 AtZNuc=   1.0000000   1.0000000   1.0000000   1.0000000   1.0000000   1.0000000   1.0000000   1.0000000
 Background charge distribution read from input stream:
 Leave Link  101 at Sat Aug 13 20:47:17 2022, MaxMem=  2684354560 cpu:               2.2 elap:               0.2
 (Enter /storage/apps/GAUSSIAN/G16_RevA03/g16/l103.exe)

 GradGradGradGradGradGradGradGradGradGradGradGradGradGradGradGradGradGrad
 Berny optimization.
 Initialization pass.
 Trust Radius=3.00D-01 FncErr=1.00D-07 GrdErr=1.00D-07 EigMax=2.50D+02 EigMin=1.00D-04
 Number of steps in this run=      2 maximum allowed number of steps=      2.
 GradGradGradGradGradGradGradGradGradGradGradGradGradGradGradGradGradGrad

 Leave Link  103 at Sat Aug 13 20:47:18 2022, MaxMem=  2684354560 cpu:               0.4 elap:               0.1
 (Enter /storage/apps/GAUSSIAN/G16_RevA03/g16/l202.exe)
 ---------------------------------------------------------------------------------------------------
                            Z-MATRIX (ANGSTROMS AND DEGREES)
   CD    Cent   Atom    N1       Length/X        N2       Alpha/Y        N3        Beta/Z          J
 ---------------------------------------------------------------------------------------------------
      1      1  C        0   3.583255         -3.620238         -0.412500
      2      2  H        0   3.747655         -3.711751         -1.485575
      3      3  H        0   4.304912         -4.253232          0.104272
      4      4  C        0   1.837626         -1.437057          1.247259
      5      5  H        0   1.186954         -2.305547          1.073450
      6      6  O        0   1.426822         -0.679777          2.323659
      7      7  H        0   0.489693         -0.358781          2.132201
      8      8  C        0   3.288849         -1.888066          1.438600
      9      9  H        0   3.359304         -2.770555          2.081767
     10     10  O        0   4.042166         -0.817578          1.950606
     11     11  H        0   3.481262         -0.374456          2.603447
     12     12  C        0   1.985506         -0.655047         -0.071179
     13     13  H        0   2.259997          0.382005          0.135752
     14     14  C        0   3.751069         -2.178076          0.017346
     15     15  H        0   4.785818         -1.855042         -0.098701
     16     16  O        0   2.941898         -1.326317         -0.826460
     17     17  N        0   0.753450         -0.598361         -0.894151
     18     18  C        0   0.295209         -1.743178         -1.444355
     19     19  H        0   0.882663         -2.626887         -1.250534
     20     20  C        0  -0.822246         -1.728484         -2.233852
     21     21  H        0  -1.170260         -2.649555         -2.677324
     22     22  C        0  -1.476965         -0.522221         -2.466545
     23     23  H        0  -2.331318         -0.485275         -3.129663
     24     24  H        0  -3.038140         -0.840099         -0.853039
     25     25  C        0  -0.996818          0.641375         -1.880043
     26     26  C        0   0.138815          0.564604         -1.092149
     27     27  H        0   0.550335          1.449795         -0.624275
     28     28  C        0  -1.544711          2.010928         -2.148744
     29     29  O        0  -0.833827          2.983248         -2.065120
     30     30  N        0  -2.839744          2.044773         -2.588336
     31     31  H        0  -3.223979          2.975823         -2.655019
     32     32  H        0  -3.466682          1.352955         -2.203473
     33     33  H        0   2.582002         -3.989856         -0.178422
     34     34  C        0   0.172510          2.188761          2.856264
     35     35  C        0  -1.662528          0.884315          1.200544
     36     36  C        0  -2.845102          0.831890          0.515237
     37     37  C        0  -4.981521         -0.312011         -0.139225
     38     38  C        0  -3.477393         -0.448768          0.080790
     39     39  O        0  -0.876948         -0.088776          1.432178
     40     40  S        0  -1.183893          2.552545          1.730126
     41     41  H        0   0.396968          3.120935          3.371558
     42     42  H        0   1.061834          1.850123          2.330201
     43     43  H        0  -5.482154         -0.010988          0.781329
     44     44  H        0  -5.204407          0.453826         -0.888579
     45     45  H        0  -5.426019         -1.247611         -0.481102
     46     46  H        0  -3.268852         -1.229507          0.818436
     47     47  H        0  -3.421847          1.746187          0.429444
     48     48  H        0  -0.123786          1.437541          3.585710
 ---------------------------------------------------------------------------------------------------
                         Z-Matrix orientation:                         
 ---------------------------------------------------------------------
 Center     Atomic      Atomic             Coordinates (Angstroms)
 Number     Number       Type             X           Y           Z
 ---------------------------------------------------------------------
      1          6           0        3.583255   -3.620238   -0.412500
      2          1           0        3.747655   -3.711751   -1.485575
      3          1           0        4.304912   -4.253232    0.104272
      4          6           0        1.837626   -1.437057    1.247259
      5          1           0        1.186954   -2.305547    1.073450
      6          8           0        1.426822   -0.679777    2.323659
      7          1           0        0.489693   -0.358781    2.132201
      8          6           0        3.288849   -1.888066    1.438600
      9          1           0        3.359304   -2.770555    2.081767
     10          8           0        4.042166   -0.817578    1.950606
     11          1           0        3.481262   -0.374456    2.603447
     12          6           0        1.985506   -0.655047   -0.071179
     13          1           0        2.259997    0.382005    0.135752
     14          6           0        3.751069   -2.178076    0.017346
     15          1           0        4.785818   -1.855042   -0.098701
     16          8           0        2.941898   -1.326317   -0.826460
     17          7           0        0.753450   -0.598361   -0.894151
     18          6           0        0.295209   -1.743178   -1.444355
     19          1           0        0.882663   -2.626887   -1.250534
     20          6           0       -0.822246   -1.728484   -2.233852
     21          1           0       -1.170260   -2.649555   -2.677324
     22          6           0       -1.476965   -0.522221   -2.466545
     23          1           0       -2.331318   -0.485275   -3.129663
     24          1           0       -3.038140   -0.840099   -0.853039
     25          6           0       -0.996818    0.641375   -1.880043
     26          6           0        0.138815    0.564604   -1.092149
     27          1           0        0.550335    1.449795   -0.624275
     28          6           0       -1.544711    2.010928   -2.148744
     29          8           0       -0.833827    2.983248   -2.065120
     30          7           0       -2.839744    2.044773   -2.588336
     31          1           0       -3.223979    2.975823   -2.655019
     32          1           0       -3.466682    1.352955   -2.203473
     33          1           0        2.582002   -3.989856   -0.178422
     34          6           0        0.172510    2.188761    2.856264
     35          6           0       -1.662528    0.884315    1.200544
     36          6           0       -2.845102    0.831890    0.515237
     37          6           0       -4.981521   -0.312011   -0.139225
     38          6           0       -3.477393   -0.448768    0.080790
     39          8           0       -0.876948   -0.088776    1.432178
     40         16           0       -1.183893    2.552545    1.730126
     41          1           0        0.396968    3.120935    3.371558
     42          1           0        1.061834    1.850123    2.330201
     43          1           0       -5.482154   -0.010988    0.781329
     44          1           0       -5.204407    0.453826   -0.888579
     45          1           0       -5.426019   -1.247611   -0.481102
     46          1           0       -3.268852   -1.229507    0.818436
     47          1           0       -3.421847    1.746187    0.429444
     48          1           0       -0.123786    1.437541    3.585710
 ---------------------------------------------------------------------
                    Distance matrix (angstroms):
                    1          2          3          4          5
     1  C    0.000000
     2  H    1.089446   0.000000
     3  H    1.090194   1.769562   0.000000
     4  C    3.250892   4.036189   3.914685   0.000000
     5  H    3.111064   3.883711   3.801900   1.099026   0.000000
     6  O    4.558846   5.393459   5.096927   1.378720   2.064870
     7  H    5.165533   5.911432   5.816798   1.939774   2.323150
     8  C    2.552188   3.476655   2.899453   1.531688   2.173842
     9  H    2.644519   3.709797   2.646317   2.188635   2.439680
    10  O    3.694560   4.502257   3.909182   2.395506   3.337018
    11  H    4.431866   5.284752   4.687129   2.381156   3.366579
    12  C    3.385507   3.801200   4.284549   1.540028   2.161484
    13  H    4.250828   4.647652   5.066369   2.173208   3.041979
    14  C    1.514186   2.147310   2.149551   2.392292   2.776021
    15  H    2.158829   2.539404   2.454340   3.267745   3.811655
    16  O    2.417597   2.602686   3.360194   2.352018   2.765570
    17  N    4.167916   4.359844   5.193054   2.542535   2.640807
    18  C    3.924197   3.974464   4.977583   3.117298   2.729617
    19  H    2.997039   3.072516   4.023964   2.926879   2.365746
    20  C    5.128791   5.037585   6.174862   4.390670   3.912561
    21  H    5.354209   5.170533   6.347170   5.091157   4.443321
    22  C    6.278745   6.199359   7.345723   5.061203   4.775802
    23  H    7.224482   7.075810   8.288268   6.119104   5.775620
    24  H    7.194868   7.395505   8.153915   5.342350   4.869324
    25  C    6.425893   6.450995   7.483517   4.704675   4.709175
    26  C    5.462508   5.609432   6.480689   3.516452   3.745154
    27  H    5.911741   6.132393   6.866742   3.673373   4.170150
    28  C    7.811569   7.822914   8.861934   5.904375   6.039576
    29  O    8.114665   8.133195   9.136714   6.135765   6.473448
    30  N    8.836375   8.817453   9.897531   6.979450   6.967658
    31  H    9.740398   9.731132  10.796162   7.766668   7.826281
    32  H    8.811461   8.843827   9.856607   6.915736   6.766032
    33  H    1.092665   1.773341   1.765701   3.017192   2.519968
    34  C    7.487487   8.151642   8.133233   4.302100   4.940276
    35  C    7.100081   7.590068   7.950254   4.200241   4.279126
    36  C    7.874383   8.253022   8.783511   5.254704   5.139318
    37  C    9.185556   9.464111  10.091103   7.049031   6.595063
    38  C    7.755921   8.080958   8.662492   5.530533   5.117532
    39  O    5.980591   6.559435   6.779211   3.036605   3.049992
    40  S    8.088251   8.596645   8.893199   5.027888   5.445475
    41  H    8.361515   9.027981   8.962451   5.231007   5.945762
    42  H    6.618521   7.260043   7.261078   3.546853   4.343348
    43  H    9.830237  10.199210  10.688391   7.471944   7.058848
    44  H    9.697817   9.891807  10.656890   7.597860   7.232786
    45  H    9.316710   9.551819  10.201345   7.468846   6.875120
    46  H    7.360854   7.791109   8.186259   5.128653   4.590980
    47  H    8.864471   9.211848   9.787828   6.201929   6.170279
    48  H    7.437000   8.198853   8.007414   4.192708   4.694699
                    6          7          8          9         10
     6  O    0.000000
     7  H    1.008913   0.000000
     8  C    2.389652   3.264210   0.000000
     9  H    2.857333   3.748848   1.094264   0.000000
    10  O    2.645408   3.586577   1.405554   2.073071   0.000000
    11  H    2.095764   3.028499   1.919611   2.455263   0.968076
    12  C    2.459266   2.679573   2.344882   3.316304   2.888578
    13  H    2.570700   2.769214   2.812325   3.864464   2.812263
    14  C    3.600848   4.291739   1.522405   2.183196   2.381845
    15  H    4.304873   5.066795   2.145997   2.761801   2.414334
    16  O    3.554816   3.962715   2.359329   3.273811   3.030099
    17  N    3.288519   3.047257   3.678765   4.512759   4.353889
    18  C    4.075451   3.840069   4.158642   4.783066   5.140251
    19  H    4.106361   4.091653   3.683345   4.154350   4.848026
    20  C    5.189316   4.760219   5.514841   6.098839   6.480891
    21  H    5.969480   5.579841   6.115909   6.571190   7.207167
    22  C    5.603825   5.004290   6.310996   7.009397   7.075257
    23  H    6.625720   5.971710   7.377203   8.047651   8.157258
    24  H    5.482062   4.646389   6.810333   7.298427   7.615226
    25  C    5.028974   4.394102   5.981505   6.805366   6.495674
    26  C    3.856837   3.372268   4.726838   5.618592   5.138573
    27  H    3.740805   3.297391   4.785000   5.746679   4.895291
    28  C    6.006021   5.299133   7.171785   8.050414   7.484538
    29  O    6.147330   5.526153   7.280262   8.239252   7.372085
    30  N    7.053684   6.256652   8.321243   9.133753   8.726725
    31  H    7.731791   6.915809   9.101212   9.939699   9.402050
    32  H    6.969455   6.114001   8.331033   9.053215   8.851575
    33  H    4.307142   4.785545   2.744433   2.683160   4.090011
    34  C    3.175764   2.667366   5.323707   5.945613   4.983225
    35  C    3.640310   2.654304   5.679692   6.273231   6.000214
    36  C    4.879023   3.892702   6.773191   7.343452   7.226029
    37  C    6.875166   5.924166   8.565775   8.974776   9.276310
    38  C    5.397699   4.467008   7.049628   7.492331   7.757319
    39  O    2.539956   1.559052   4.537769   5.055664   4.999760
    40  S    4.197144   3.382066   6.309472   7.007117   6.222382
    41  H    4.074813   3.695000   6.098311   6.719275   5.551437
    42  H    2.556101   2.290373   4.441689   5.166309   4.017848
    43  H    7.110556   6.132599   8.993660   9.352953   9.629666
    44  H    7.454980   6.496785   9.112388   9.620641   9.755847
    45  H    7.426342   6.528018   8.946752   9.277368   9.784920
    46  H    4.961578   4.075635   6.619800   6.921220   7.409621
    47  H    5.743078   4.757144   7.698028   8.313551   8.037308
    48  H    2.912077   2.390778   5.226454   5.665848   5.011415
                   11         12         13         14         15
    11  H    0.000000
    12  C    3.077278   0.000000
    13  H    2.855388   1.092540   0.000000
    14  C    3.164452   2.333381   2.965018   0.000000
    15  H    3.345983   3.046718   3.382177   1.090194   0.000000
    16  O    3.600169   1.391308   2.075862   1.446465   2.051639
    17  N    4.441203   1.482720   2.071594   3.508853   4.297904
    18  C    5.330013   2.434491   3.297504   3.777390   4.689229
    19  H    5.165204   2.548587   3.587794   3.168076   4.142111
    20  C    6.614608   3.703092   4.423732   5.117151   6.002105
    21  H    7.395896   4.552902   5.373120   5.630543   6.538762
    22  C    7.093001   4.212378   4.642678   6.020292   6.826826
    23  H    8.164981   5.293214   5.700463   7.054408   7.855992
    24  H    7.393695   5.087491   5.526437   6.974318   7.925494
    25  C    6.417694   3.721150   3.838951   5.838820   6.545545
    26  C    5.070623   2.437252   2.457742   4.669224   5.332566
    27  H    4.726142   2.606912   2.154242   4.880351   5.397916
    28  C    7.316678   4.887344   4.727379   7.091191   7.695713
    29  O    7.189554   5.016137   4.602396   7.210909   7.671784
    30  N    8.530088   6.075207   6.016046   8.249900   8.919419
    31  H    9.156205   6.855522   6.677596   9.074993   9.696848
    32  H    8.623477   6.189112   6.261755   8.336435   9.100828
    33  H    4.649579   3.389434   4.394947   2.165084   3.069298
    34  C    4.193070   4.465884   3.875971   6.319399   6.809315
    35  C    5.478249   4.158734   4.095400   6.331290   7.125537
    36  C    6.770434   5.088186   5.138914   7.267549   8.113413
    37  C    8.896339   6.975799   7.279894   8.931116   9.888554
    38  C    7.402175   5.468904   5.797486   7.432711   8.383942
    39  O    4.521889   3.282436   3.426774   5.271192   6.126190
    40  S    5.576172   4.855763   4.371916   7.047428   7.642570
    41  H    4.724471   5.351068   4.630665   7.111979   7.487660
    42  H    3.298037   3.591055   2.899409   5.367278   5.787562
    43  H    9.153964   7.543708   7.778953   9.514849  10.469300
    44  H    9.397933   7.320696   7.534702   9.378068  10.283938
    45  H    9.466599   7.446467   7.881053   9.237595  10.237032
    46  H    7.034303   5.360009   5.799241   7.128872   8.130814
    47  H    7.541640   5.937678   5.850692   8.186598   8.978505
    48  H    4.152655   4.711780   4.324210   6.389085   6.965644
                   16         17         18         19         20
    16  O    0.000000
    17  N    2.307338   0.000000
    18  C    2.749642   1.350302   0.000000
    19  H    2.472199   2.063643   1.078708   0.000000
    20  C    4.038721   2.356861   1.368294   2.163506   0.000000
    21  H    4.699628   3.329829   2.118804   2.500147   1.079886
    22  C    4.781506   2.730013   2.382480   3.387646   1.392075
    23  H    5.815402   3.811312   3.364703   4.295032   2.150661
    24  H    5.999831   3.799511   3.503773   4.327044   2.757908
    25  C    4.527177   2.360586   2.746862   3.822338   2.402475
    26  C    3.391673   1.330213   2.339736   3.280855   2.735942
    27  H    3.669775   2.075821   3.306463   4.137871   3.817876
    28  C    5.745894   3.696476   4.239668   5.311144   3.809515
    29  O    5.861973   4.088831   4.898895   5.923133   4.714766
    30  N    6.920682   4.771526   5.048286   6.121310   4.293417
    31  H    7.737576   5.629866   6.009939   7.087132   5.298699
    32  H    7.081282   4.830266   4.930935   5.971937   4.060693
    33  H    2.764764   3.918942   3.446675   2.427934   4.574658
    34  C    5.795493   4.708625   5.828424   6.368718   6.499510
    35  C    5.495123   3.524631   4.210932   4.981397   4.396347
    36  C    6.320394   4.120870   4.509161   5.383058   4.266726
    37  C    8.017586   5.791528   5.620986   6.401743   4.867589
    38  C    6.542208   4.344297   4.270139   5.052397   3.747672
    39  O    4.606141   2.886119   3.519295   4.090866   4.016393
    40  S    6.213200   4.535233   5.542410   6.323093   5.845607
    41  H    6.624053   5.670672   6.845653   7.391691   7.511589
    42  H    4.856843   4.060372   5.267523   5.735624   6.098095
    43  H    8.676389   6.483440   6.429003   7.175116   5.809979
    44  H    8.338768   6.050057   5.948234   6.831854   5.076965
    45  H    8.375411   6.227196   5.822877   6.503376   4.949555
    46  H    6.425611   4.417037   4.252836   4.844418   3.943516
    47  H    7.177383   4.968090   5.431694   6.361989   5.091602
    48  H    6.041901   4.998359   5.966078   6.397013   6.661746
                   21         22         23         24         25
    21  H    0.000000
    22  C    2.159640   0.000000
    23  H    2.497353   1.082132   0.000000
    24  H    3.176653   2.267535   2.410086   0.000000
    25  C    3.390569   1.388698   2.147506   2.723325   0.000000
    26  C    3.815400   2.383463   3.369758   3.481868   1.384317
    27  H    4.896951   3.375315   4.280816   4.262992   2.150390
    28  C    4.705286   2.553905   2.794992   3.469515   1.499354
    29  O    5.675954   3.586514   3.925097   4.576693   2.354822
    30  N    4.983153   2.908859   2.636793   3.372403   2.422309
    31  H    5.988584   3.914574   3.605736   4.224089   3.318205
    32  H    4.638769   2.746719   2.350738   2.610901   2.590595
    33  H    4.703232   5.808202   6.718082   6.477814   6.095225
    34  C    7.472144   6.196974   7.017902   5.765518   5.118040
    35  C    5.269575   3.931961   4.590615   3.013821   3.161045
    36  C    5.011786   3.549146   3.909500   2.169099   3.031471
    37  C    5.141184   4.212187   3.999539   2.136618   4.451657
    38  C    4.215865   3.239757   3.409080   1.103685   3.344627
    39  O    4.850941   3.968367   4.804456   3.233799   3.393862
    40  S    6.818185   5.210770   5.844868   4.649839   4.089118
    41  H    8.505512   7.132157   7.919228   6.733274   5.972451
    42  H    7.092577   5.923030   6.839421   5.846375   4.839966
    43  H    6.125092   5.181851   5.044658   3.054798   5.256112
    44  H    5.394898   4.163708   3.762846   2.523533   4.326890
    45  H    4.990022   4.479197   4.144057   2.450790   5.014292
    46  H    4.317518   3.808177   4.125571   1.731674   3.993010
    47  H    5.834741   4.161129   4.340037   2.912193   3.526344
    48  H    7.551494   6.503964   7.325753   5.777854   5.592005
                   26         27         28         29         30
    26  C    0.000000
    27  H    1.082505   0.000000
    28  C    2.458151   2.651055   0.000000
    29  O    2.782543   2.518614   1.207375   0.000000
    30  N    3.647093   3.962849   1.368027   2.275564   0.000000
    31  H    4.423225   4.549520   2.001819   2.461882   1.009424
    32  H    3.854367   4.317368   2.032215   3.099826   1.009843
    33  H    5.248539   5.823767   7.544623   7.990726   8.462846
    34  C    4.269542   3.578124   5.294391   5.085661   6.223992
    35  C    2.933171   2.923439   3.535657   3.969487   4.133777
    36  C    3.399837   3.634458   3.190289   3.915586   3.332158
    37  C    5.281511   5.825862   4.609325   5.636592   4.017435
    38  C    3.934421   4.508243   3.841378   4.834470   3.707907
    39  O    2.798376   2.938254   4.204482   4.655135   4.956726
    40  S    3.696850   3.125189   3.933087   3.835615   4.652826
    41  H    5.150354   4.333926   5.956171   5.575956   6.866933
    42  H    3.770544   3.025033   5.184678   4.918979   6.281099
    43  H    5.952858   6.364003   5.308195   6.218896   4.750066
    44  H    5.348246   5.846269   4.172045   5.184997   3.318421
    45  H    5.884291   6.558453   5.335134   6.441856   4.687115
    46  H    4.298996   4.883264   4.719877   5.656107   4.744590
    47  H    4.048419   4.120243   3.200122   3.801449   3.087878
    48  H    4.765852   4.263633   5.935635   5.901292   6.772297
                   31         32         33         34         35
    31  H    0.000000
    32  H    1.701910   0.000000
    33  H    9.400193   8.320639   0.000000
    34  C    6.521491   6.288341   7.293167   0.000000
    35  C    4.655953   3.880970   6.608716   2.794701   0.000000
    36  C    3.845844   2.837121   7.292726   4.053084   1.367799
    37  C    4.497558   3.054172   8.410408   6.464584   3.773843
    38  C    4.390523   2.909326   7.023017   5.289764   2.514894
    39  O    5.621877   4.690764   5.456812   2.883844   1.271887
    40  S    4.854957   4.703546   7.786368   1.800099   1.814536
    41  H    7.032208   7.009602   8.242577   1.088512   3.735946
    42  H    6.669918   6.427195   6.535247   1.087343   3.103395
    43  H    5.082212   3.851170   9.043402   6.412447   3.945485
    44  H    3.660994   2.357343   8.993264   6.778280   4.134569
    45  H    5.235675   3.683545   8.469942   7.368188   4.640787
    46  H    5.454512   3.979972   6.545666   5.261204   2.682262
    47  H    3.326420   2.662498   8.325737   4.359441   2.105379
    48  H    7.136120   6.685563   7.137690   1.088216   2.891851
                   36         37         38         39         40
    36  C    0.000000
    37  C    2.510202   0.000000
    38  C    1.492857   1.526273   0.000000
    39  O    2.358397   4.400757   2.952653   0.000000
    40  S    2.682578   5.110982   4.121690   2.675736   0.000000
    41  H    4.889715   7.282778   6.211490   3.960594   2.348720
    42  H    4.426629   6.877138   5.563212   2.885247   2.428328
    43  H    2.781239   1.090260   2.168288   4.651621   5.093816
    44  H    2.771273   1.094402   2.176449   4.940368   5.237057
    45  H    3.460946   1.090782   2.179683   5.069279   6.109529
    46  H    2.126229   2.166137   1.094150   2.720138   4.413859
    47  H    1.084405   2.644267   2.223167   3.293793   2.711167
    48  H    4.147310   6.366605   5.204739   2.744922   2.410447
                   41         42         43         44         45
    41  H    0.000000
    42  H    1.772409   0.000000
    43  H    7.147188   6.977572   0.000000
    44  H    7.525798   7.181641   1.755502   0.000000
    45  H    8.236162   7.719561   1.768084   1.763530   0.000000
    46  H    6.235625   5.524889   2.526830   3.081215   2.518431
    47  H    5.012915   4.871045   2.730632   2.566106   3.715996
    48  H    1.775067   1.775450   6.218914   6.841028   7.201575
                   46         47         48
    46  H    0.000000
    47  H    3.004909   0.000000
    48  H    4.966124   4.575422   0.000000
 Stoichiometry    C16H24N2O5S
 Framework group  C1[X(C16H24N2O5S)]
 Deg. of freedom   138
 Full point group                 C1      NOp   1
 Largest Abelian subgroup         C1      NOp   1
 Largest concise Abelian subgroup C1      NOp   1
                         Standard orientation:                         
 ---------------------------------------------------------------------
 Center     Atomic      Atomic             Coordinates (Angstroms)
 Number     Number       Type             X           Y           Z
 ---------------------------------------------------------------------
      1          6           0        4.691441   -1.886026    0.655176
      2          1           0        4.673582   -2.840200    0.129699
      3          1           0        5.705871   -1.704870    1.011037
      4          6           0        2.488133    0.503768    0.706340
      5          1           0        2.288220   -0.137993    1.575844
      6          8           0        1.987496    1.778205    0.867720
      7          1           0        0.990326    1.700810    1.000260
      8          6           0        3.991366    0.556712    0.417281
      9          1           0        4.578417    0.667360    1.334091
     10          8           0        4.251700    1.599400   -0.488594
     11          1           0        3.684713    2.338979   -0.226452
     12          6           0        2.009276   -0.219782   -0.566004
     13          1           0        1.811469    0.505429   -1.358837
     14          6           0        4.257408   -0.772841   -0.274983
     15          1           0        4.986156   -0.625216   -1.072263
     16          8           0        3.004972   -1.130941   -0.903813
     17          7           0        0.757865   -0.996975   -0.397484
     18          6           0        0.780663   -2.086278    0.400146
     19          1           0        1.732467   -2.320194    0.850661
     20          6           0       -0.345651   -2.846758    0.559257
     21          1           0       -0.309510   -3.722183    1.190507
     22          6           0       -1.511038   -2.488220   -0.112454
     23          1           0       -2.395181   -3.107697   -0.037969
     24          1           0       -2.416659   -1.390387    1.652859
     25          6           0       -1.516564   -1.356476   -0.917195
     26          6           0       -0.346316   -0.627356   -1.040628
     27          1           0       -0.306250    0.255966   -1.665092
     28          6           0       -2.670803   -0.937488   -1.777569
     29          8           0       -2.483206   -0.315670   -2.795363
     30          7           0       -3.894066   -1.402261   -1.378681
     31          1           0       -4.667064   -1.018817   -1.902496
     32          1           0       -4.048862   -1.473052   -0.383287
     33          1           0        4.035417   -1.953234    1.526400
     34          6           0       -0.315980    3.587408   -0.359577
     35          6           0       -1.624508    1.357101    0.700535
     36          6           0       -2.756949    0.646789    0.990208
     37          6           0       -4.211785   -0.667077    2.558112
     38          6           0       -2.801209   -0.426033    2.027375
     39          8           0       -0.452526    1.126359    1.137470
     40         16           0       -1.873363    2.695536   -0.499133
     41          1           0       -0.450961    4.520129   -0.904250
     42          1           0        0.512297    3.036111   -0.798147
     43          1           0       -4.610762    0.235171    3.022261
     44          1           0       -4.897812   -0.940285    1.750375
     45          1           0       -4.233604   -1.470451    3.295622
     46          1           0       -2.123021   -0.171583    2.847425
     47          1           0       -3.693076    0.989794    0.563654
     48          1           0       -0.091330    3.809003    0.681885
 ---------------------------------------------------------------------
 Rotational constants (GHZ):           0.3320874           0.1638673           0.1400534
 Leave Link  202 at Sat Aug 13 20:47:18 2022, MaxMem=  2684354560 cpu:               0.4 elap:               0.1
 (Enter /storage/apps/GAUSSIAN/G16_RevA03/g16/l301.exe)
 Standard basis: def2TZVP (5D, 7F)
 Ernie: Thresh=  0.10000D-02 Tol=  0.10000D-05 Strict=F.
 There are  1014 symmetry adapted cartesian basis functions of A   symmetry.
 There are   894 symmetry adapted basis functions of A   symmetry.
   894 basis functions,  1434 primitive gaussians,  1014 cartesian basis functions
    95 alpha electrons       95 beta electrons
       nuclear repulsion energy      2494.7905850671 Hartrees.
 IExCor= 4336 DFT=T Ex+Corr=M062X ExCW=0 ScaHFX=  0.540000
 ScaDFX=  1.000000  1.000000  1.000000  1.000000 ScalE2=  1.000000  1.000000
 IRadAn=      5 IRanWt=     -1 IRanGd=            0 ICorTp=0 IEmpDi=131
 NAtoms=   48 NActive=   48 NUniq=   48 SFac= 1.00D+00 NAtFMM=   60 NAOKFM=F Big=F
 Integral buffers will be    131072 words long.
 Raffenetti 2 integral format.
 Two-electron integral symmetry is turned on.
 R6Disp:  Grimme-D3 Dispersion energy=       -0.0042704809 Hartrees.
 Nuclear repulsion after empirical dispersion term =     2494.7863145862 Hartrees.
 Leave Link  301 at Sat Aug 13 20:47:18 2022, MaxMem=  2684354560 cpu:               1.6 elap:               0.1
 (Enter /storage/apps/GAUSSIAN/G16_RevA03/g16/l302.exe)
 NPDir=0 NMtPBC=     1 NCelOv=     1 NCel=       1 NClECP=     1 NCelD=      1
         NCelK=      1 NCelE2=     1 NClLst=     1 CellRange=     0.0.
 One-electron integrals computed using PRISM.
 One-electron integral symmetry used in STVInt
   1 Symmetry operations used in ECPInt.
 ECPInt:  NShTT=   65703 NPrTT=  200010 LenC2=   56914 LenP2D=  121186.
 LDataN:  DoStor=T MaxTD1= 6 Len=  172
 NBasis=   894 RedAO= T EigKep=  1.90D-05  NBF=   894
 NBsUse=   894 1.00D-06 EigRej= -1.00D+00 NBFU=   894
 Precomputing XC quadrature grid using
 IXCGrd= 4 IRadAn=           5 IRanWt=          -1 IRanGd=           0 AccXCQ= 0.00D+00.
 Generated NRdTot=       0 NPtTot=           0 NUsed=           0 NTot=          32
 NSgBfM=  1000  1000  1000  1000  1000 MxSgAt=    48 MxSgA2=    48.
 Leave Link  302 at Sat Aug 13 20:47:19 2022, MaxMem=  2684354560 cpu:              19.0 elap:               1.2
 (Enter /storage/apps/GAUSSIAN/G16_RevA03/g16/l303.exe)
 DipDrv:  MaxL=1.
 Leave Link  303 at Sat Aug 13 20:47:19 2022, MaxMem=  2684354560 cpu:               2.1 elap:               0.2
 (Enter /storage/apps/GAUSSIAN/G16_RevA03/g16/l401.exe)
 ExpMin= 9.52D-02 ExpMax= 6.07D+04 ExpMxC= 2.07D+03 IAcc=3 IRadAn=         5 AccDes= 0.00D+00
 Harris functional with IExCor= 1009 and IRadAn=       5 diagonalized for initial guess.
 HarFok:  IExCor= 1009 AccDes= 0.00D+00 IRadAn=         5 IDoV= 1 UseB2=F ITyADJ=14
 ICtDFT=  3500011 ScaDFX=  1.000000  1.000000  1.000000  1.000000
 FoFCou: FMM=F IPFlag=           0 FMFlag=      100000 FMFlg1=           0
         NFxFlg=           0 DoJE=T BraDBF=F KetDBF=T FulRan=T
         wScrn=  0.000000 ICntrl=       500 IOpCl=  0 I1Cent=   200000004 NGrid=           0
         NMat0=    1 NMatS0=      1 NMatT0=    0 NMatD0=    1 NMtDS0=    0 NMtDT0=    0
 Petite list used in FoFCou.
 Harris En= -1507.24523256757    
 JPrj=0 DoOrth=F DoCkMO=F.
 Leave Link  401 at Sat Aug 13 20:47:23 2022, MaxMem=  2684354560 cpu:              61.1 elap:               3.9
 (Enter /storage/apps/GAUSSIAN/G16_RevA03/g16/l502.exe)
 Integral symmetry usage will be decided dynamically.
 Closed shell SCF:
 Using DIIS extrapolation, IDIIS=  1040.
 NGot=  2684354560 LenX=  2682272944 LenY=  2681243734
 Requested convergence on RMS density matrix=1.00D-08 within 128 cycles.
 Requested convergence on MAX density matrix=1.00D-06.
 Requested convergence on             energy=1.00D-06.
 No special actions if energy rises.
 Fock matrices will be formed incrementally for  20 cycles.
 Integral accuracy reduced to 1.0D-05 until final iterations.

 Cycle   1  Pass 0  IDiag  1:
 FoFJK:  IHMeth= 1 ICntrl=       0 DoSepK=F KAlg= 0 I1Cent=           0 FoldK=F
 IRaf= 790000000 NMat=       1 IRICut=       1 DoRegI=T DoRafI=F ISym2E= 0 IDoP0=0 IntGTp=1.
 FoFCou: FMM=F IPFlag=           0 FMFlag=      100000 FMFlg1=           0
         NFxFlg=           0 DoJE=F BraDBF=F KetDBF=F FulRan=T
         wScrn=  0.000000 ICntrl=         0 IOpCl=  0 I1Cent=           0 NGrid=           0
         NMat0=    1 NMatS0=      1 NMatT0=    0 NMatD0=    1 NMtDS0=    0 NMtDT0=    0
 Symmetry not used in FoFCou.
 E= -1507.16764032962    
 DIIS: error= 1.80D-02 at cycle   1 NSaved=   1.
 NSaved= 1 IEnMin= 1 EnMin= -1507.16764032962     IErMin= 1 ErrMin= 1.80D-02
 ErrMax= 1.80D-02  0.00D+00 EMaxC= 1.00D-01 BMatC= 9.92D-01 BMatP= 9.92D-01
 IDIUse=3 WtCom= 8.20D-01 WtEn= 1.80D-01
 Coeff-Com:  0.100D+01
 Coeff-En:   0.100D+01
 Coeff:      0.100D+01
 Gap=     0.169 Goal=   None    Shift=    0.000
 GapD=    0.169 DampG=1.000 DampE=0.500 DampFc=0.5000 IDamp=-1.
 Damping current iteration by 5.00D-01
 RMSDP=3.96D-03 MaxDP=7.87D-01              OVMax= 5.40D-01

 Cycle   2  Pass 0  IDiag  1:
 RMSU=  1.98D-03    CP:  1.01D+00
 E= -1507.47537912227     Delta-E=       -0.307738792653 Rises=F Damp=T
 DIIS: error= 4.96D-03 at cycle   2 NSaved=   2.
 NSaved= 2 IEnMin= 2 EnMin= -1507.47537912227     IErMin= 2 ErrMin= 4.96D-03
 ErrMax= 4.96D-03  0.00D+00 EMaxC= 1.00D-01 BMatC= 9.57D-02 BMatP= 9.92D-01
 IDIUse=3 WtCom= 9.50D-01 WtEn= 4.96D-02
 Coeff-Com:  0.796D-02 0.992D+00
 Coeff-En:   0.116D+00 0.884D+00
 Coeff:      0.133D-01 0.987D+00
 Gap=     0.157 Goal=   None    Shift=    0.000
 RMSDP=1.35D-03 MaxDP=1.74D-01 DE=-3.08D-01 OVMax= 4.02D-01

 Cycle   3  Pass 0  IDiag  1:
 RMSU=  1.15D-03    CP:  9.98D-01  6.48D-01
 E= -1507.84061705025     Delta-E=       -0.365237927976 Rises=F Damp=F
 DIIS: error= 5.09D-03 at cycle   3 NSaved=   3.
 NSaved= 3 IEnMin= 3 EnMin= -1507.84061705025     IErMin= 2 ErrMin= 4.96D-03
 ErrMax= 5.09D-03  0.00D+00 EMaxC= 1.00D-01 BMatC= 6.67D-02 BMatP= 9.57D-02
 IDIUse=3 WtCom= 9.49D-01 WtEn= 5.09D-02
 Coeff-Com: -0.765D-01 0.479D+00 0.598D+00
 Coeff-En:   0.000D+00 0.000D+00 0.100D+01
 Coeff:     -0.726D-01 0.454D+00 0.618D+00
 Gap=     0.130 Goal=   None    Shift=    0.000
 RMSDP=5.52D-04 MaxDP=2.47D-02 DE=-3.65D-01 OVMax= 1.28D-01

 Cycle   4  Pass 0  IDiag  1:
 RMSU=  4.37D-04    CP:  1.00D+00  7.95D-01  8.52D-01
 E= -1507.89984547731     Delta-E=       -0.059228427058 Rises=F Damp=F
 DIIS: error= 1.77D-03 at cycle   4 NSaved=   4.
 NSaved= 4 IEnMin= 4 EnMin= -1507.89984547731     IErMin= 4 ErrMin= 1.77D-03
 ErrMax= 1.77D-03  0.00D+00 EMaxC= 1.00D-01 BMatC= 7.29D-03 BMatP= 6.67D-02
 IDIUse=3 WtCom= 9.82D-01 WtEn= 1.77D-02
 Coeff-Com: -0.396D-01 0.109D+00 0.281D+00 0.650D+00
 Coeff-En:   0.000D+00 0.000D+00 0.000D+00 0.100D+01
 Coeff:     -0.389D-01 0.107D+00 0.276D+00 0.656D+00
 Gap=     0.144 Goal=   None    Shift=    0.000
 RMSDP=1.96D-04 MaxDP=2.96D-02 DE=-5.92D-02 OVMax= 4.31D-02

 Cycle   5  Pass 0  IDiag  1:
 RMSU=  1.78D-04    CP:  1.00D+00  7.88D-01  9.13D-01  9.17D-01
 E= -1507.90630904458     Delta-E=       -0.006463567272 Rises=F Damp=F
 DIIS: error= 7.03D-04 at cycle   5 NSaved=   5.
 NSaved= 5 IEnMin= 5 EnMin= -1507.90630904458     IErMin= 5 ErrMin= 7.03D-04
 ErrMax= 7.03D-04  0.00D+00 EMaxC= 1.00D-01 BMatC= 6.66D-04 BMatP= 7.29D-03
 IDIUse=3 WtCom= 9.93D-01 WtEn= 7.03D-03
 Coeff-Com: -0.124D-01 0.223D-01 0.797D-01 0.305D+00 0.605D+00
 Coeff-En:   0.000D+00 0.000D+00 0.000D+00 0.000D+00 0.100D+01
 Coeff:     -0.123D-01 0.222D-01 0.791D-01 0.303D+00 0.608D+00
 Gap=     0.144 Goal=   None    Shift=    0.000
 RMSDP=6.58D-05 MaxDP=6.28D-03 DE=-6.46D-03 OVMax= 7.15D-03

 Cycle   6  Pass 0  IDiag  1:
 RMSU=  6.03D-05    CP:  1.00D+00  7.88D-01  9.05D-01  9.71D-01  9.61D-01
 E= -1507.90696078085     Delta-E=       -0.000651736265 Rises=F Damp=F
 DIIS: error= 1.77D-04 at cycle   6 NSaved=   6.
 NSaved= 6 IEnMin= 6 EnMin= -1507.90696078085     IErMin= 6 ErrMin= 1.77D-04
 ErrMax= 1.77D-04  0.00D+00 EMaxC= 1.00D-01 BMatC= 7.76D-05 BMatP= 6.66D-04
 IDIUse=3 WtCom= 9.98D-01 WtEn= 1.77D-03
 Coeff-Com: -0.147D-03-0.384D-02-0.837D-02 0.447D-01 0.279D+00 0.689D+00
 Coeff-En:   0.000D+00 0.000D+00 0.000D+00 0.000D+00 0.000D+00 0.100D+01
 Coeff:     -0.146D-03-0.383D-02-0.836D-02 0.447D-01 0.278D+00 0.690D+00
 Gap=     0.145 Goal=   None    Shift=    0.000
 RMSDP=4.40D-05 MaxDP=6.46D-03 DE=-6.52D-04 OVMax= 6.66D-03

 Cycle   7  Pass 0  IDiag  1:
 RMSU=  2.22D-05    CP:  1.00D+00  7.90D-01  9.11D-01  1.00D+00  1.15D+00
                    CP:  1.06D+00
 E= -1507.90705705297     Delta-E=       -0.000096272121 Rises=F Damp=F
 DIIS: error= 6.67D-05 at cycle   7 NSaved=   7.
 NSaved= 7 IEnMin= 7 EnMin= -1507.90705705297     IErMin= 7 ErrMin= 6.67D-05
 ErrMax= 6.67D-05  0.00D+00 EMaxC= 1.00D-01 BMatC= 9.21D-06 BMatP= 7.76D-05
 IDIUse=1 WtCom= 1.00D+00 WtEn= 0.00D+00
 Coeff-Com:  0.164D-02-0.455D-02-0.162D-01-0.225D-01 0.357D-01 0.279D+00
 Coeff-Com:  0.727D+00
 Coeff:      0.164D-02-0.455D-02-0.162D-01-0.225D-01 0.357D-01 0.279D+00
 Coeff:      0.727D+00
 Gap=     0.145 Goal=   None    Shift=    0.000
 RMSDP=1.95D-05 MaxDP=2.18D-03 DE=-9.63D-05 OVMax= 3.62D-03

 Cycle   8  Pass 0  IDiag  1:
 RMSU=  1.16D-05    CP:  1.00D+00  7.89D-01  9.10D-01  1.02D+00  1.22D+00
                    CP:  1.17D+00  1.23D+00
 E= -1507.90706679515     Delta-E=       -0.000009742180 Rises=F Damp=F
 DIIS: error= 2.65D-05 at cycle   8 NSaved=   8.
 NSaved= 8 IEnMin= 8 EnMin= -1507.90706679515     IErMin= 8 ErrMin= 2.65D-05
 ErrMax= 2.65D-05  0.00D+00 EMaxC= 1.00D-01 BMatC= 2.38D-06 BMatP= 9.21D-06
 IDIUse=1 WtCom= 1.00D+00 WtEn= 0.00D+00
 Coeff-Com:  0.847D-03-0.159D-02-0.788D-02-0.193D-01-0.309D-01 0.222D-01
 Coeff-Com:  0.365D+00 0.672D+00
 Coeff:      0.847D-03-0.159D-02-0.788D-02-0.193D-01-0.309D-01 0.222D-01
 Coeff:      0.365D+00 0.672D+00
 Gap=     0.145 Goal=   None    Shift=    0.000
 RMSDP=1.64D-05 MaxDP=1.90D-03 DE=-9.74D-06 OVMax= 2.38D-03

 Cycle   9  Pass 0  IDiag  1:
 RMSU=  1.26D-05    CP:  1.00D+00  7.88D-01  9.10D-01  1.02D+00  1.23D+00
                    CP:  1.25D+00  1.44D+00  1.66D+00
 E= -1507.90706537899     Delta-E=        0.000001416160 Rises=F Damp=F
 DIIS: error= 1.83D-05 at cycle   9 NSaved=   9.
 NSaved= 9 IEnMin= 8 EnMin= -1507.90706679515     IErMin= 9 ErrMin= 1.83D-05
 ErrMax= 1.83D-05  0.00D+00 EMaxC= 1.00D-01 BMatC= 5.68D-07 BMatP= 2.38D-06
 IDIUse=1 WtCom= 1.00D+00 WtEn= 0.00D+00
 Coeff-Com:  0.250D-03-0.320D-03-0.271D-02-0.752D-02-0.221D-01-0.230D-01
 Coeff-Com:  0.827D-01 0.345D+00 0.628D+00
 Coeff:      0.250D-03-0.320D-03-0.271D-02-0.752D-02-0.221D-01-0.230D-01
 Coeff:      0.827D-01 0.345D+00 0.628D+00
 Gap=     0.144 Goal=   None    Shift=    0.000
 RMSDP=2.01D-05 MaxDP=2.65D-03 DE= 1.42D-06 OVMax= 1.07D-03

 Cycle  10  Pass 0  IDiag  1:
 RMSU=  7.92D-06    CP:  1.00D+00  7.87D-01  9.10D-01  1.02D+00  1.23D+00
                    CP:  1.31D+00  1.59D+00  2.41D+00  2.22D+00
 E= -1507.90706222489     Delta-E=        0.000003154100 Rises=F Damp=F
 DIIS: error= 2.62D-05 at cycle  10 NSaved=  10.
 NSaved=10 IEnMin= 8 EnMin= -1507.90706679515     IErMin= 9 ErrMin= 1.83D-05
 ErrMax= 2.62D-05  0.00D+00 EMaxC= 1.00D-01 BMatC= 4.32D-07 BMatP= 5.68D-07
 IDIUse=1 WtCom= 1.00D+00 WtEn= 0.00D+00
 Coeff-Com:  0.216D-03-0.275D-03-0.241D-02-0.654D-02-0.196D-01-0.206D-01
 Coeff-Com:  0.695D-01 0.301D+00 0.555D+00 0.124D+00
 Coeff:      0.216D-03-0.275D-03-0.241D-02-0.654D-02-0.196D-01-0.206D-01
 Coeff:      0.695D-01 0.301D+00 0.555D+00 0.124D+00
 Gap=     0.144 Goal=   None    Shift=    0.000
 RMSDP=5.88D-06 MaxDP=8.63D-04 DE= 3.15D-06 OVMax= 8.87D-05

 Initial convergence to 1.0D-05 achieved.  Increase integral accuracy.
 Cycle  11  Pass 1  IDiag  1:
 E= -1507.90695574841     Delta-E=        0.000106476479 Rises=F Damp=F
 DIIS: error= 3.29D-04 at cycle   1 NSaved=   1.
 NSaved= 1 IEnMin= 1 EnMin= -1507.90695574841     IErMin= 1 ErrMin= 3.29D-04
 ErrMax= 3.29D-04  0.00D+00 EMaxC= 1.00D-01 BMatC= 9.66D-05 BMatP= 9.66D-05
 IDIUse=3 WtCom= 9.97D-01 WtEn= 3.29D-03
 Coeff-Com:  0.100D+01
 Coeff-En:   0.100D+01
 Coeff:      0.100D+01
 Gap=     0.144 Goal=   None    Shift=    0.000
 RMSDP=5.88D-06 MaxDP=8.63D-04 DE= 1.06D-04 OVMax= 1.09D-03

 Cycle  12  Pass 1  IDiag  1:
 RMSU=  5.82D-04    CP:  9.91D-01
 E= -1507.90701820194     Delta-E=       -0.000062453535 Rises=F Damp=F
 DIIS: error= 1.06D-05 at cycle   2 NSaved=   2.
 NSaved= 2 IEnMin= 2 EnMin= -1507.90701820194     IErMin= 2 ErrMin= 1.06D-05
 ErrMax= 1.06D-05  0.00D+00 EMaxC= 1.00D-01 BMatC= 1.23D-07 BMatP= 9.66D-05
 IDIUse=1 WtCom= 1.00D+00 WtEn= 0.00D+00
 Coeff-Com: -0.158D-01 0.102D+01
 Coeff:     -0.158D-01 0.102D+01
 Gap=     0.144 Goal=   None    Shift=    0.000
 RMSDP=2.23D-05 MaxDP=2.17D-03 DE=-6.25D-05 OVMax= 4.68D-04

 Cycle  13  Pass 1  IDiag  1:
 RMSU=  8.76D-06    CP:  9.91D-01  1.04D+00
 E= -1507.90701824354     Delta-E=       -0.000000041598 Rises=F Damp=F
 DIIS: error= 1.06D-05 at cycle   3 NSaved=   3.
 NSaved= 3 IEnMin= 3 EnMin= -1507.90701824354     IErMin= 3 ErrMin= 1.06D-05
 ErrMax= 1.06D-05  0.00D+00 EMaxC= 1.00D-01 BMatC= 1.80D-07 BMatP= 1.23D-07
 IDIUse=1 WtCom= 1.00D+00 WtEn= 0.00D+00
 Coeff-Com: -0.102D-01 0.593D+00 0.417D+00
 Coeff:     -0.102D-01 0.593D+00 0.417D+00
 Gap=     0.144 Goal=   None    Shift=    0.000
 RMSDP=8.64D-07 MaxDP=5.54D-05 DE=-4.16D-08 OVMax= 8.24D-05

 Cycle  14  Pass 1  IDiag  1:
 RMSU=  7.96D-07    CP:  9.91D-01  1.04D+00  1.01D+00
 E= -1507.90701841187     Delta-E=       -0.000000168330 Rises=F Damp=F
 DIIS: error= 1.56D-06 at cycle   4 NSaved=   4.
 NSaved= 4 IEnMin= 4 EnMin= -1507.90701841187     IErMin= 4 ErrMin= 1.56D-06
 ErrMax= 1.56D-06  0.00D+00 EMaxC= 1.00D-01 BMatC= 2.24D-09 BMatP= 1.23D-07
 IDIUse=1 WtCom= 1.00D+00 WtEn= 0.00D+00
 Coeff-Com:  0.752D-04-0.163D-01 0.452D-01 0.971D+00
 Coeff:      0.752D-04-0.163D-01 0.452D-01 0.971D+00
 Gap=     0.144 Goal=   None    Shift=    0.000
 RMSDP=6.92D-07 MaxDP=8.35D-05 DE=-1.68D-07 OVMax= 1.30D-04

 Cycle  15  Pass 1  IDiag  1:
 RMSU=  3.76D-07    CP:  9.91D-01  1.04D+00  1.06D+00  9.72D-01
 E= -1507.90701842162     Delta-E=       -0.000000009744 Rises=F Damp=F
 DIIS: error= 8.42D-07 at cycle   5 NSaved=   5.
 NSaved= 5 IEnMin= 5 EnMin= -1507.90701842162     IErMin= 5 ErrMin= 8.42D-07
 ErrMax= 8.42D-07  0.00D+00 EMaxC= 1.00D-01 BMatC= 1.41D-09 BMatP= 2.24D-09
 IDIUse=1 WtCom= 1.00D+00 WtEn= 0.00D+00
 Coeff-Com:  0.971D-03-0.624D-01-0.286D-01 0.490D+00 0.600D+00
 Coeff:      0.971D-03-0.624D-01-0.286D-01 0.490D+00 0.600D+00
 Gap=     0.144 Goal=   None    Shift=    0.000
 RMSDP=1.69D-07 MaxDP=1.90D-05 DE=-9.74D-09 OVMax= 5.51D-05

 Cycle  16  Pass 1  IDiag  1:
 RMSU=  9.42D-08    CP:  9.91D-01  1.04D+00  1.07D+00  9.84D-01  1.29D+00
 E= -1507.90701842455     Delta-E=       -0.000000002937 Rises=F Damp=F
 DIIS: error= 4.79D-07 at cycle   6 NSaved=   6.
 NSaved= 6 IEnMin= 6 EnMin= -1507.90701842455     IErMin= 6 ErrMin= 4.79D-07
 ErrMax= 4.79D-07  0.00D+00 EMaxC= 1.00D-01 BMatC= 2.72D-10 BMatP= 1.41D-09
 IDIUse=1 WtCom= 1.00D+00 WtEn= 0.00D+00
 Coeff-Com:  0.341D-03-0.187D-01-0.341D-01-0.897D-01 0.240D+00 0.903D+00
 Coeff:      0.341D-03-0.187D-01-0.341D-01-0.897D-01 0.240D+00 0.903D+00
 Gap=     0.144 Goal=   None    Shift=    0.000
 RMSDP=1.40D-07 MaxDP=1.65D-05 DE=-2.94D-09 OVMax= 4.82D-05

 Cycle  17  Pass 1  IDiag  1:
 RMSU=  5.56D-08    CP:  9.91D-01  1.04D+00  1.07D+00  9.97D-01  1.61D+00
                    CP:  1.28D+00
 E= -1507.90701842561     Delta-E=       -0.000000001055 Rises=F Damp=F
 DIIS: error= 1.82D-07 at cycle   7 NSaved=   7.
 NSaved= 7 IEnMin= 7 EnMin= -1507.90701842561     IErMin= 7 ErrMin= 1.82D-07
 ErrMax= 1.82D-07  0.00D+00 EMaxC= 1.00D-01 BMatC= 8.20D-11 BMatP= 2.72D-10
 IDIUse=1 WtCom= 1.00D+00 WtEn= 0.00D+00
 Coeff-Com: -0.908D-04 0.773D-02-0.152D-01-0.196D+00-0.980D-02 0.546D+00
 Coeff-Com:  0.667D+00
 Coeff:     -0.908D-04 0.773D-02-0.152D-01-0.196D+00-0.980D-02 0.546D+00
 Coeff:      0.667D+00
 Gap=     0.144 Goal=   None    Shift=    0.000
 RMSDP=7.22D-08 MaxDP=9.69D-06 DE=-1.05D-09 OVMax= 2.41D-05

 Cycle  18  Pass 1  IDiag  1:
 RMSU=  2.20D-08    CP:  9.91D-01  1.04D+00  1.08D+00  9.93D-01  1.76D+00
                    CP:  1.50D+00  1.34D+00
 E= -1507.90701842586     Delta-E=       -0.000000000257 Rises=F Damp=F
 DIIS: error= 3.76D-08 at cycle   8 NSaved=   8.
 NSaved= 8 IEnMin= 8 EnMin= -1507.90701842586     IErMin= 8 ErrMin= 3.76D-08
 ErrMax= 3.76D-08  0.00D+00 EMaxC= 1.00D-01 BMatC= 2.96D-12 BMatP= 8.20D-11
 IDIUse=1 WtCom= 1.00D+00 WtEn= 0.00D+00
 Coeff-Com: -0.548D-04 0.380D-02-0.206D-02-0.481D-01-0.200D-01 0.795D-01
 Coeff-Com:  0.202D+00 0.785D+00
 Coeff:     -0.548D-04 0.380D-02-0.206D-02-0.481D-01-0.200D-01 0.795D-01
 Coeff:      0.202D+00 0.785D+00
 Gap=     0.144 Goal=   None    Shift=    0.000
 RMSDP=1.21D-08 MaxDP=8.82D-07 DE=-2.57D-10 OVMax= 3.98D-06

 Cycle  19  Pass 1  IDiag  1:
 RMSU=  4.48D-09    CP:  9.91D-01  1.04D+00  1.07D+00  9.93D-01  1.78D+00
                    CP:  1.54D+00  1.48D+00  1.05D+00
 E= -1507.90701842585     Delta-E=        0.000000000017 Rises=F Damp=F
 DIIS: error= 1.78D-08 at cycle   9 NSaved=   9.
 NSaved= 9 IEnMin= 8 EnMin= -1507.90701842586     IErMin= 9 ErrMin= 1.78D-08
 ErrMax= 1.78D-08  0.00D+00 EMaxC= 1.00D-01 BMatC= 4.90D-13 BMatP= 2.96D-12
 IDIUse=1 WtCom= 1.00D+00 WtEn= 0.00D+00
 Coeff-Com: -0.864D-05 0.412D-03 0.111D-02 0.722D-02-0.676D-02-0.458D-01
 Coeff-Com: -0.659D-02 0.299D+00 0.752D+00
 Coeff:     -0.864D-05 0.412D-03 0.111D-02 0.722D-02-0.676D-02-0.458D-01
 Coeff:     -0.659D-02 0.299D+00 0.752D+00
 Gap=     0.144 Goal=   None    Shift=    0.000
 RMSDP=5.02D-09 MaxDP=6.96D-07 DE= 1.73D-11 OVMax= 1.51D-06

 SCF Done:  E(RM062X) =  -1507.90701843     A.U. after   19 cycles
            NFock= 19  Conv=0.50D-08     -V/T= 2.0037
 KE= 1.502289293745D+03 PE=-8.527011025679D+03 EE= 3.022028398921D+03
 Leave Link  502 at Sat Aug 13 20:56:24 2022, MaxMem=  2684354560 cpu:            8643.0 elap:             541.1
 (Enter /storage/apps/GAUSSIAN/G16_RevA03/g16/l601.exe)
 Copying SCF densities to generalized density rwf, IOpCl= 0 IROHF=0.

 **********************************************************************

            Population analysis using the SCF density.

 **********************************************************************

 Orbital symmetries:
       Occupied  (A) (A) (A) (A) (A) (A) (A) (A) (A) (A) (A) (A)
                 (A) (A) (A) (A) (A) (A) (A) (A) (A) (A) (A) (A)
                 (A) (A) (A) (A) (A) (A) (A) (A) (A) (A) (A) (A)
                 (A) (A) (A) (A) (A) (A) (A) (A) (A) (A) (A) (A)
                 (A) (A) (A) (A) (A) (A) (A) (A) (A) (A) (A) (A)
                 (A) (A) (A) (A) (A) (A) (A) (A) (A) (A) (A) (A)
                 (A) (A) (A) (A) (A) (A) (A) (A) (A) (A) (A) (A)
                 (A) (A) (A) (A) (A) (A) (A) (A) (A) (A) (A)
       Virtual   (A) (A) (A) (A) (A) (A) (A) (A) (A) (A) (A) (A)
                 (A) (A) (A) (A) (A) (A) (A) (A) (A) (A) (A) (A)
                 (A) (A) (A) (A) (A) (A) (A) (A) (A) (A) (A) (A)
                 (A) (A) (A) (A) (A) (A) (A) (A) (A) (A) (A) (A)
                 (A) (A) (A) (A) (A) (A) (A) (A) (A) (A) (A) (A)
                 (A) (A) (A) (A) (A) (A) (A) (A) (A) (A) (A) (A)
                 (A) (A) (A) (A) (A) (A) (A) (A) (A) (A) (A) (A)
                 (A) (A) (A) (A) (A) (A) (A) (A) (A) (A) (A) (A)
                 (A) (A) (A) (A) (A) (A) (A) (A) (A) (A) (A) (A)
                 (A) (A) (A) (A) (A) (A) (A) (A) (A) (A) (A) (A)
                 (A) (A) (A) (A) (A) (A) (A) (A) (A) (A) (A) (A)
                 (A) (A) (A) (A) (A) (A) (A) (A) (A) (A) (A) (A)
                 (A) (A) (A) (A) (A) (A) (A) (A) (A) (A) (A) (A)
                 (A) (A) (A) (A) (A) (A) (A) (A) (A) (A) (A) (A)
                 (A) (A) (A) (A) (A) (A) (A) (A) (A) (A) (A) (A)
                 (A) (A) (A) (A) (A) (A) (A) (A) (A) (A) (A) (A)
                 (A) (A) (A) (A) (A) (A) (A) (A) (A) (A) (A) (A)
                 (A) (A) (A) (A) (A) (A) (A) (A) (A) (A) (A) (A)
                 (A) (A) (A) (A) (A) (A) (A) (A) (A) (A) (A) (A)
                 (A) (A) (A) (A) (A) (A) (A) (A) (A) (A) (A) (A)
                 (A) (A) (A) (A) (A) (A) (A) (A) (A) (A) (A) (A)
                 (A) (A) (A) (A) (A) (A) (A) (A) (A) (A) (A) (A)
                 (A) (A) (A) (A) (A) (A) (A) (A) (A) (A) (A) (A)
                 (A) (A) (A) (A) (A) (A) (A) (A) (A) (A) (A) (A)
                 (A) (A) (A) (A) (A) (A) (A) (A) (A) (A) (A) (A)
                 (A) (A) (A) (A) (A) (A) (A) (A) (A) (A) (A) (A)
                 (A) (A) (A) (A) (A) (A) (A) (A) (A) (A) (A) (A)
                 (A) (A) (A) (A) (A) (A) (A) (A) (A) (A) (A) (A)
                 (A) (A) (A) (A) (A) (A) (A) (A) (A) (A) (A) (A)
                 (A) (A) (A) (A) (A) (A) (A) (A) (A) (A) (A) (A)
                 (A) (A) (A) (A) (A) (A) (A) (A) (A) (A) (A) (A)
                 (A) (A) (A) (A) (A) (A) (A) (A) (A) (A) (A) (A)
                 (A) (A) (A) (A) (A) (A) (A) (A) (A) (A) (A) (A)
                 (A) (A) (A) (A) (A) (A) (A) (A) (A) (A) (A) (A)
                 (A) (A) (A) (A) (A) (A) (A) (A) (A) (A) (A) (A)
                 (A) (A) (A) (A) (A) (A) (A) (A) (A) (A) (A) (A)
                 (A) (A) (A) (A) (A) (A) (A) (A) (A) (A) (A) (A)
                 (A) (A) (A) (A) (A) (A) (A) (A) (A) (A) (A) (A)
                 (A) (A) (A) (A) (A) (A) (A) (A) (A) (A) (A) (A)
                 (A) (A) (A) (A) (A) (A) (A) (A) (A) (A) (A) (A)
                 (A) (A) (A) (A) (A) (A) (A) (A) (A) (A) (A) (A)
                 (A) (A) (A) (A) (A) (A) (A) (A) (A) (A) (A) (A)
                 (A) (A) (A) (A) (A) (A) (A) (A) (A) (A) (A) (A)
                 (A) (A) (A) (A) (A) (A) (A) (A) (A) (A) (A) (A)
                 (A) (A) (A) (A) (A) (A) (A) (A) (A) (A) (A) (A)
                 (A) (A) (A) (A) (A) (A) (A) (A) (A) (A) (A) (A)
                 (A) (A) (A) (A) (A) (A) (A) (A) (A) (A) (A) (A)
                 (A) (A) (A) (A) (A) (A) (A) (A) (A) (A) (A) (A)
                 (A) (A) (A) (A) (A) (A) (A) (A) (A) (A) (A) (A)
                 (A) (A) (A) (A) (A) (A) (A) (A) (A) (A) (A) (A)
                 (A) (A) (A) (A) (A) (A) (A) (A) (A) (A) (A) (A)
                 (A) (A) (A) (A) (A) (A) (A) (A) (A) (A) (A) (A)
                 (A) (A) (A) (A) (A) (A) (A) (A) (A) (A) (A) (A)
                 (A) (A) (A) (A) (A) (A) (A) (A) (A) (A) (A) (A)
                 (A) (A) (A) (A) (A) (A) (A) (A) (A) (A) (A) (A)
                 (A) (A) (A) (A) (A) (A) (A) (A) (A) (A) (A) (A)
                 (A) (A) (A) (A) (A) (A) (A) (A) (A) (A) (A) (A)
                 (A) (A) (A) (A) (A) (A) (A) (A) (A) (A) (A) (A)
                 (A) (A) (A) (A) (A) (A) (A) (A) (A) (A) (A) (A)
                 (A) (A) (A) (A) (A) (A) (A) (A) (A) (A) (A) (A)
                 (A) (A) (A) (A) (A) (A) (A) (A) (A) (A) (A) (A)
                 (A) (A) (A) (A) (A) (A) (A) (A) (A) (A) (A) (A)
                 (A) (A) (A) (A) (A) (A) (A) (A) (A) (A) (A) (A)
                 (A) (A) (A) (A) (A) (A) (A) (A) (A) (A) (A) (A)
                 (A) (A) (A) (A) (A) (A) (A) (A) (A) (A) (A) (A)
                 (A) (A) (A) (A) (A) (A) (A) (A) (A) (A) (A) (A)
                 (A) (A) (A) (A) (A) (A) (A)
 The electronic state is 1-A.
 Alpha  occ. eigenvalues --  -89.86605 -19.66638 -19.63226 -19.61494 -19.61398
 Alpha  occ. eigenvalues --  -19.56731 -14.88301 -14.77832 -10.66694 -10.66390
 Alpha  occ. eigenvalues --  -10.64398 -10.63883 -10.61254 -10.61110 -10.60912
 Alpha  occ. eigenvalues --  -10.60480 -10.60054 -10.59963 -10.58684 -10.55239
 Alpha  occ. eigenvalues --  -10.53569 -10.52140 -10.51983 -10.48744  -8.22505
 Alpha  occ. eigenvalues --   -6.14474  -6.14250  -6.13977  -1.22651  -1.18684
 Alpha  occ. eigenvalues --   -1.17076  -1.15852  -1.13846  -1.10070  -1.03280
 Alpha  occ. eigenvalues --   -0.98001  -0.93486  -0.90770  -0.88048  -0.87400
 Alpha  occ. eigenvalues --   -0.85229  -0.81606  -0.80920  -0.78833  -0.77027
 Alpha  occ. eigenvalues --   -0.73294  -0.71530  -0.70027  -0.69180  -0.67204
 Alpha  occ. eigenvalues --   -0.65921  -0.64060  -0.62928  -0.62569  -0.61356
 Alpha  occ. eigenvalues --   -0.60090  -0.58307  -0.58025  -0.57443  -0.56119
 Alpha  occ. eigenvalues --   -0.56081  -0.54354  -0.53397  -0.52558  -0.51926
 Alpha  occ. eigenvalues --   -0.51593  -0.50920  -0.50158  -0.49989  -0.48981
 Alpha  occ. eigenvalues --   -0.48696  -0.48063  -0.47828  -0.47233  -0.45948
 Alpha  occ. eigenvalues --   -0.45719  -0.45599  -0.44672  -0.43435  -0.43267
 Alpha  occ. eigenvalues --   -0.42475  -0.40295  -0.39624  -0.38444  -0.38186
 Alpha  occ. eigenvalues --   -0.37793  -0.37298  -0.36853  -0.36689  -0.36227
 Alpha  occ. eigenvalues --   -0.34969  -0.34455  -0.29126  -0.27824  -0.21196
 Alpha virt. eigenvalues --   -0.06764  -0.04224   0.03828   0.04653   0.05036
 Alpha virt. eigenvalues --    0.06320   0.07100   0.07292   0.08233   0.08774
 Alpha virt. eigenvalues --    0.09350   0.09901   0.10365   0.10919   0.11309
 Alpha virt. eigenvalues --    0.11381   0.11873   0.12518   0.13036   0.13208
 Alpha virt. eigenvalues --    0.13627   0.14000   0.14194   0.14510   0.15156
 Alpha virt. eigenvalues --    0.15429   0.15548   0.16102   0.16536   0.16643
 Alpha virt. eigenvalues --    0.17370   0.17690   0.18601   0.18819   0.19440
 Alpha virt. eigenvalues --    0.20195   0.20715   0.21415   0.21515   0.22410
 Alpha virt. eigenvalues --    0.22525   0.22875   0.23347   0.23803   0.24304
 Alpha virt. eigenvalues --    0.24592   0.25104   0.25604   0.25858   0.25984
 Alpha virt. eigenvalues --    0.26665   0.27079   0.27832   0.28016   0.28450
 Alpha virt. eigenvalues --    0.29401   0.29498   0.29858   0.30431   0.31089
 Alpha virt. eigenvalues --    0.31587   0.31976   0.32555   0.33077   0.33805
 Alpha virt. eigenvalues --    0.34296   0.34610   0.34783   0.35841   0.36071
 Alpha virt. eigenvalues --    0.36514   0.37054   0.37420   0.37726   0.38450
 Alpha virt. eigenvalues --    0.38510   0.38808   0.39131   0.39633   0.39915
 Alpha virt. eigenvalues --    0.40254   0.40690   0.41071   0.41820   0.42071
 Alpha virt. eigenvalues --    0.42851   0.42941   0.43042   0.43747   0.44072
 Alpha virt. eigenvalues --    0.44284   0.44745   0.44854   0.45445   0.45740
 Alpha virt. eigenvalues --    0.45958   0.46069   0.46583   0.46855   0.47388
 Alpha virt. eigenvalues --    0.47909   0.47977   0.48490   0.48677   0.49001
 Alpha virt. eigenvalues --    0.49483   0.49694   0.50102   0.50234   0.50710
 Alpha virt. eigenvalues --    0.51271   0.51919   0.52056   0.52839   0.52979
 Alpha virt. eigenvalues --    0.53587   0.53878   0.54039   0.54384   0.55262
 Alpha virt. eigenvalues --    0.55590   0.55777   0.56157   0.56354   0.57245
 Alpha virt. eigenvalues --    0.57495   0.58673   0.59018   0.59369   0.60032
 Alpha virt. eigenvalues --    0.60657   0.60838   0.61484   0.62007   0.62149
 Alpha virt. eigenvalues --    0.62807   0.63410   0.64007   0.64563   0.65242
 Alpha virt. eigenvalues --    0.65506   0.66265   0.66631   0.66864   0.67138
 Alpha virt. eigenvalues --    0.67526   0.68095   0.68452   0.69697   0.70432
 Alpha virt. eigenvalues --    0.70961   0.71641   0.71958   0.72680   0.72921
 Alpha virt. eigenvalues --    0.73974   0.74868   0.75027   0.75752   0.76414
 Alpha virt. eigenvalues --    0.77264   0.78306   0.79238   0.79708   0.80559
 Alpha virt. eigenvalues --    0.80981   0.81323   0.82580   0.83297   0.83528
 Alpha virt. eigenvalues --    0.84321   0.85896   0.86731   0.86983   0.87272
 Alpha virt. eigenvalues --    0.87853   0.88648   0.89680   0.90048   0.90417
 Alpha virt. eigenvalues --    0.90463   0.91022   0.91811   0.92414   0.92944
 Alpha virt. eigenvalues --    0.93751   0.94062   0.94820   0.95513   0.96294
 Alpha virt. eigenvalues --    0.96808   0.97102   0.97450   0.98703   0.99681
 Alpha virt. eigenvalues --    1.00245   1.00756   1.01443   1.01782   1.02948
 Alpha virt. eigenvalues --    1.03408   1.03778   1.04555   1.05690   1.06546
 Alpha virt. eigenvalues --    1.06955   1.07907   1.08236   1.08765   1.10038
 Alpha virt. eigenvalues --    1.10529   1.11241   1.12178   1.12594   1.13376
 Alpha virt. eigenvalues --    1.14164   1.15075   1.15252   1.16207   1.17294
 Alpha virt. eigenvalues --    1.17752   1.18472   1.18809   1.19159   1.20368
 Alpha virt. eigenvalues --    1.21083   1.21159   1.22760   1.23276   1.24605
 Alpha virt. eigenvalues --    1.25166   1.25560   1.25819   1.27056   1.27775
 Alpha virt. eigenvalues --    1.28145   1.28787   1.29463   1.29523   1.30754
 Alpha virt. eigenvalues --    1.31909   1.31914   1.33572   1.33783   1.34365
 Alpha virt. eigenvalues --    1.34721   1.36040   1.36911   1.39093   1.39711
 Alpha virt. eigenvalues --    1.40023   1.41260   1.42403   1.42527   1.43526
 Alpha virt. eigenvalues --    1.45115   1.45448   1.46434   1.47263   1.49527
 Alpha virt. eigenvalues --    1.50237   1.50932   1.52399   1.52781   1.53571
 Alpha virt. eigenvalues --    1.53693   1.54716   1.54920   1.55115   1.55984
 Alpha virt. eigenvalues --    1.56413   1.57098   1.57248   1.58066   1.58647
 Alpha virt. eigenvalues --    1.59148   1.59334   1.60204   1.60343   1.60615
 Alpha virt. eigenvalues --    1.61154   1.61254   1.62544   1.62893   1.63155
 Alpha virt. eigenvalues --    1.63452   1.63719   1.64231   1.64453   1.65062
 Alpha virt. eigenvalues --    1.65870   1.66738   1.67138   1.68067   1.68681
 Alpha virt. eigenvalues --    1.68782   1.69975   1.70992   1.71407   1.71931
 Alpha virt. eigenvalues --    1.72299   1.72736   1.73340   1.74248   1.74379
 Alpha virt. eigenvalues --    1.75719   1.76428   1.76890   1.77379   1.77807
 Alpha virt. eigenvalues --    1.78138   1.78933   1.79348   1.80443   1.80989
 Alpha virt. eigenvalues --    1.82051   1.82531   1.83665   1.84329   1.85527
 Alpha virt. eigenvalues --    1.85875   1.86186   1.87093   1.87859   1.88853
 Alpha virt. eigenvalues --    1.89504   1.89850   1.90174   1.91176   1.91607
 Alpha virt. eigenvalues --    1.92541   1.92673   1.93764   1.93905   1.94482
 Alpha virt. eigenvalues --    1.95278   1.95711   1.96732   1.97348   1.97794
 Alpha virt. eigenvalues --    1.99084   1.99562   2.00049   2.01632   2.02318
 Alpha virt. eigenvalues --    2.02776   2.03497   2.04201   2.04717   2.05092
 Alpha virt. eigenvalues --    2.05589   2.06087   2.07300   2.07563   2.09103
 Alpha virt. eigenvalues --    2.09209   2.10407   2.10999   2.12616   2.13985
 Alpha virt. eigenvalues --    2.14436   2.14694   2.15921   2.16260   2.17360
 Alpha virt. eigenvalues --    2.17784   2.17978   2.18040   2.19192   2.19908
 Alpha virt. eigenvalues --    2.21066   2.21132   2.21728   2.22429   2.22784
 Alpha virt. eigenvalues --    2.23276   2.23743   2.24932   2.25240   2.26194
 Alpha virt. eigenvalues --    2.26636   2.27629   2.28500   2.29186   2.30166
 Alpha virt. eigenvalues --    2.30296   2.32007   2.32663   2.33664   2.33915
 Alpha virt. eigenvalues --    2.34451   2.35103   2.35359   2.36279   2.36430
 Alpha virt. eigenvalues --    2.37570   2.37796   2.38150   2.38709   2.39690
 Alpha virt. eigenvalues --    2.40526   2.40960   2.41802   2.42843   2.43749
 Alpha virt. eigenvalues --    2.44504   2.45015   2.46032   2.46809   2.47341
 Alpha virt. eigenvalues --    2.47792   2.48716   2.49894   2.51109   2.52113
 Alpha virt. eigenvalues --    2.52794   2.53633   2.54294   2.54830   2.56071
 Alpha virt. eigenvalues --    2.56638   2.57498   2.58269   2.58458   2.58561
 Alpha virt. eigenvalues --    2.59911   2.60267   2.60405   2.60600   2.61817
 Alpha virt. eigenvalues --    2.61960   2.62577   2.63070   2.64147   2.64761
 Alpha virt. eigenvalues --    2.65874   2.66346   2.66645   2.67278   2.67739
 Alpha virt. eigenvalues --    2.68327   2.68907   2.69330   2.69835   2.70440
 Alpha virt. eigenvalues --    2.71648   2.71786   2.72676   2.73371   2.73792
 Alpha virt. eigenvalues --    2.74265   2.75389   2.76115   2.76600   2.77610
 Alpha virt. eigenvalues --    2.79376   2.79601   2.80311   2.80715   2.81109
 Alpha virt. eigenvalues --    2.82071   2.82615   2.82898   2.83484   2.83987
 Alpha virt. eigenvalues --    2.85142   2.85709   2.85808   2.86703   2.87693
 Alpha virt. eigenvalues --    2.88959   2.89165   2.89742   2.90429   2.92030
 Alpha virt. eigenvalues --    2.92661   2.93139   2.93899   2.94560   2.94838
 Alpha virt. eigenvalues --    2.96345   2.97435   2.97825   2.98520   2.99370
 Alpha virt. eigenvalues --    3.00035   3.01189   3.01351   3.01855   3.03015
 Alpha virt. eigenvalues --    3.03652   3.04445   3.04801   3.06237   3.06614
 Alpha virt. eigenvalues --    3.07046   3.07723   3.08747   3.09633   3.09813
 Alpha virt. eigenvalues --    3.10412   3.11154   3.11502   3.11823   3.12411
 Alpha virt. eigenvalues --    3.12921   3.13522   3.13940   3.14514   3.14946
 Alpha virt. eigenvalues --    3.16107   3.16423   3.17236   3.17733   3.18413
 Alpha virt. eigenvalues --    3.18559   3.19370   3.19684   3.20835   3.21080
 Alpha virt. eigenvalues --    3.22356   3.22691   3.22878   3.23451   3.24391
 Alpha virt. eigenvalues --    3.25195   3.25870   3.26483   3.26992   3.27769
 Alpha virt. eigenvalues --    3.28345   3.29386   3.30311   3.30420   3.31279
 Alpha virt. eigenvalues --    3.31548   3.31863   3.32599   3.32796   3.33473
 Alpha virt. eigenvalues --    3.34401   3.35193   3.35592   3.36049   3.36611
 Alpha virt. eigenvalues --    3.37433   3.38342   3.39239   3.39629   3.40295
 Alpha virt. eigenvalues --    3.41210   3.41286   3.41894   3.42176   3.42668
 Alpha virt. eigenvalues --    3.43087   3.44459   3.45390   3.45525   3.45836
 Alpha virt. eigenvalues --    3.46365   3.47397   3.48018   3.48648   3.49925
 Alpha virt. eigenvalues --    3.50399   3.51087   3.51402   3.52821   3.53293
 Alpha virt. eigenvalues --    3.54363   3.54723   3.55841   3.56456   3.56962
 Alpha virt. eigenvalues --    3.57334   3.57463   3.58500   3.59133   3.60245
 Alpha virt. eigenvalues --    3.60466   3.61747   3.62696   3.63771   3.64550
 Alpha virt. eigenvalues --    3.65948   3.67197   3.67772   3.69468   3.69944
 Alpha virt. eigenvalues --    3.70705   3.71778   3.72851   3.73492   3.75322
 Alpha virt. eigenvalues --    3.75657   3.77034   3.77872   3.78515   3.79851
 Alpha virt. eigenvalues --    3.79949   3.80371   3.82080   3.83698   3.85318
 Alpha virt. eigenvalues --    3.85713   3.86427   3.87057   3.87641   3.88680
 Alpha virt. eigenvalues --    3.90484   3.91263   3.92049   3.92933   3.94000
 Alpha virt. eigenvalues --    3.95801   3.96931   3.97603   3.97893   3.98651
 Alpha virt. eigenvalues --    3.99953   4.01342   4.02467   4.05711   4.06766
 Alpha virt. eigenvalues --    4.07992   4.10547   4.11112   4.12501   4.13302
 Alpha virt. eigenvalues --    4.14225   4.15751   4.16672   4.17107   4.17647
 Alpha virt. eigenvalues --    4.18241   4.20051   4.20795   4.22844   4.23947
 Alpha virt. eigenvalues --    4.26747   4.27083   4.28924   4.29504   4.31105
 Alpha virt. eigenvalues --    4.32007   4.33375   4.35360   4.36541   4.37504
 Alpha virt. eigenvalues --    4.39009   4.40112   4.40752   4.42098   4.43607
 Alpha virt. eigenvalues --    4.43939   4.44756   4.45395   4.47399   4.48690
 Alpha virt. eigenvalues --    4.50124   4.51182   4.54371   4.57011   4.57894
 Alpha virt. eigenvalues --    4.58846   4.60176   4.61768   4.63393   4.66548
 Alpha virt. eigenvalues --    4.67850   4.71570   4.73261   4.75590   4.76180
 Alpha virt. eigenvalues --    4.77351   4.79615   4.80918   4.81431   4.83709
 Alpha virt. eigenvalues --    4.85504   4.86498   4.88234   4.89003   4.89988
 Alpha virt. eigenvalues --    4.91030   4.93180   4.94632   4.95897   4.98182
 Alpha virt. eigenvalues --    4.99957   5.02098   5.02945   5.04594   5.05060
 Alpha virt. eigenvalues --    5.08122   5.12718   5.14312   5.18032   5.19949
 Alpha virt. eigenvalues --    5.20971   5.24722   5.26989   5.27222   5.29310
 Alpha virt. eigenvalues --    5.30387   5.31029   5.32422   5.33616   5.37716
 Alpha virt. eigenvalues --    5.39578   5.42157   5.43530   5.45099   5.46707
 Alpha virt. eigenvalues --    5.48758   5.49311   5.50094   5.53037   5.58832
 Alpha virt. eigenvalues --    5.64826   5.67391   5.71978   5.74338   5.77537
 Alpha virt. eigenvalues --    5.80227   5.81416   5.83489   5.84973   5.86756
 Alpha virt. eigenvalues --    5.88115   5.90560   5.91789   5.94343   5.95146
 Alpha virt. eigenvalues --    5.97480   6.02907   6.05564   6.15039   6.18098
 Alpha virt. eigenvalues --    6.20298   6.22260   6.26295   6.26745   6.37860
 Alpha virt. eigenvalues --    6.41997   6.44457   6.47995   6.50527   6.55940
 Alpha virt. eigenvalues --    6.57769   6.69435   6.73810   6.75667   6.76440
 Alpha virt. eigenvalues --    6.76891   6.80673   6.83872   6.85049   6.87597
 Alpha virt. eigenvalues --    6.90228   6.95099   7.00065   7.08219   7.08353
 Alpha virt. eigenvalues --    7.10037   7.11149   7.17001   7.19159   7.24215
 Alpha virt. eigenvalues --    7.32277   7.41925   9.07092   9.42117   9.59367
 Alpha virt. eigenvalues --   19.80773  22.36403  22.46399  22.49915  22.56558
 Alpha virt. eigenvalues --   22.64714  22.67542  22.74242  22.75395  22.81892
 Alpha virt. eigenvalues --   22.86761  22.94520  22.96840  23.07192  23.19196
 Alpha virt. eigenvalues --   23.28458  23.51338  32.18718  33.16159  44.13174
 Alpha virt. eigenvalues --   44.23583  44.26393  44.38249  44.51125
          Condensed to atoms (all electrons):
               1          2          3          4          5          6
     1  C    5.157988   0.430886   0.411330   0.003343  -0.007167  -0.000233
     2  H    0.430886   0.495297  -0.012747  -0.002483   0.000487  -0.000005
     3  H    0.411330  -0.012747   0.501690  -0.000408   0.000219  -0.000009
     4  C    0.003343  -0.002483  -0.000408   5.567035   0.539054   0.237513
     5  H   -0.007167   0.000487   0.000219   0.539054   0.528271  -0.034936
     6  O   -0.000233  -0.000005  -0.000009   0.237513  -0.034936   8.188210
     7  H   -0.000005  -0.000003  -0.000003  -0.059286  -0.006732   0.303017
     8  C   -0.004097   0.011242  -0.001301  -0.039869  -0.105891  -0.061382
     9  H    0.007416  -0.000325  -0.001927  -0.076167   0.002243   0.001321
    10  O    0.005192  -0.000192  -0.000013   0.049986   0.005640  -0.023416
[...]
 (Enter /storage/apps/GAUSSIAN/G16_RevA03/g16/l716.exe)
 Dipole        = 7.74016071D-01-2.74751483D+00 8.01952769D-01
 ***** Axes restored to original set *****
 -------------------------------------------------------------------
 Center     Atomic                   Forces (Hartrees/Bohr)
 Number     Number              X              Y              Z
 -------------------------------------------------------------------
      1        6          -0.000095615   -0.000044285    0.000194458
      2        1           0.000001068   -0.000003048    0.000014416
      3        1          -0.000021829   -0.000021241    0.000019092
      4        6          -0.000144150    0.000010489   -0.000067243
      5        1          -0.000063833    0.000007641   -0.000013515
      6        8          -0.000357843   -0.000061634   -0.000148392
      7        1          -0.000050305   -0.000011045   -0.000018591
      8        6          -0.000209460   -0.000053109    0.000164736
      9        1          -0.000045041   -0.000000823    0.000033858
     10        8          -0.000328003   -0.000116591    0.000412025
     11        1          -0.000047103    0.000009521    0.000038349
     12        6           0.000178231    0.000075884   -0.000053928
     13        1           0.000021350    0.000005358   -0.000030722
     14        6           0.000044638   -0.000031892    0.000270820
     15        1          -0.000004813   -0.000011601    0.000025148
     16        8           0.000376945    0.000095063    0.000178824
     17        7           0.000290466    0.000046865   -0.000419583
     18        6           0.000465771    0.000162776   -0.000554784
     19        1           0.000031765    0.000004337   -0.000054239
     20        6           0.000426686    0.000171310   -0.000495997
     21        1           0.000047486    0.000027074   -0.000039503
     22        6           0.000207659   -0.000088960   -0.000363818
     23        1           0.000072253    0.000005170    0.000027700
     24        1          -0.000133429    0.000090317    0.000187922
     25        6          -0.000001887    0.000178721    0.000035482
     26        6           0.000248890   -0.000087114   -0.000102775
     27        1           0.000038898    0.000128863    0.000151856
     28        6          -0.000143390   -0.000008780    0.000188349
     29        8          -0.000116345    0.000014114   -0.000172937
     30        7          -0.000154427    0.000002642    0.000580851
     31        1          -0.000017522    0.000000302    0.000066619
     32        1          -0.000044914   -0.000111004    0.000072160
     33        1          -0.000043616    0.000025046    0.000022974
     34        6          -0.000186747   -0.000107509    0.000105901
     35        6          -0.000271482   -0.000066959   -0.000300571
     36        6          -0.000030396    0.000013136    0.000508784
     37        6          -0.000435107   -0.000082528    0.000932076
     38        6          -0.000220267   -0.000142939    0.000030309
     39        8           0.000052359   -0.000150648   -0.000502133
     40       16           0.000888713    0.000056614   -0.001388935
     41        1          -0.000023698   -0.000021061   -0.000003632
     42        1          -0.000023564   -0.000005130    0.000052818
     43        1          -0.000041166    0.000049018    0.000201288
     44        1          -0.000056709    0.000005380    0.000117621
     45        1          -0.000011026    0.000008829    0.000069204
     46        1           0.000019474   -0.000003099   -0.000003396
     47        1          -0.000041279    0.000045232    0.000061050
     48        1          -0.000047688   -0.000008700   -0.000029996
 -------------------------------------------------------------------
 Cartesian Forces:  Max     0.001388935 RMS     0.000232543
 Leave Link  716 at Sat Aug 13 20:59:39 2022, MaxMem=  2684354560 cpu:               0.8 elap:               0.1
 (Enter /storage/apps/GAUSSIAN/G16_RevA03/g16/l103.exe)

 GradGradGradGradGradGradGradGradGradGradGradGradGradGradGradGradGradGrad
 Berny optimization.
 Search for a local minimum.
 Step number   1 out of a maximum of    2
 All quantities printed in internal units (Hartrees-Bohrs-Radians)
 Second derivative matrix not updated -- first step.
 ITU=  0
     Eigenvalues ---    0.00044   0.00091   0.00115   0.00143   0.00204
     Eigenvalues ---    0.00213   0.00313   0.00366   0.00459   0.00526
     Eigenvalues ---    0.00614   0.00654   0.00811   0.00918   0.00963
     Eigenvalues ---    0.01097   0.01148   0.01211   0.01490   0.01616
     Eigenvalues ---    0.01832   0.02143   0.02417   0.02491   0.02829
     Eigenvalues ---    0.02991   0.03304   0.03673   0.04131   0.04382
     Eigenvalues ---    0.04578   0.04684   0.04987   0.05054   0.05252
     Eigenvalues ---    0.05376   0.05487   0.05740   0.05951   0.06072
     Eigenvalues ---    0.06148   0.06301   0.06654   0.06758   0.07066
     Eigenvalues ---    0.07095   0.07479   0.08092   0.08251   0.08499
     Eigenvalues ---    0.08698   0.09123   0.09251   0.09777   0.10667
     Eigenvalues ---    0.10840   0.11126   0.11246   0.12098   0.12628
     Eigenvalues ---    0.13029   0.13141   0.13273   0.13649   0.13707
     Eigenvalues ---    0.13987   0.14281   0.16044   0.16256   0.16789
     Eigenvalues ---    0.17957   0.18130   0.18634   0.19820   0.20321
     Eigenvalues ---    0.20564   0.20878   0.21828   0.22565   0.25138
     Eigenvalues ---    0.25519   0.27355   0.28048   0.30590   0.33217
     Eigenvalues ---    0.33653   0.34403   0.34651   0.37730   0.37847
     Eigenvalues ---    0.37847   0.37847   0.37847   0.37847   0.39915
     Eigenvalues ---    0.43882   0.48032   0.49259   0.57101   0.58512
     Eigenvalues ---    0.60041   0.61785   0.69566   0.72078   0.73883
     Eigenvalues ---    0.79137   0.81893   0.82657   0.87442   0.90926
     Eigenvalues ---    0.91169   0.91974   0.92368   0.93331   0.95313
     Eigenvalues ---    0.96856   0.99766   0.99827   1.02063   1.04106
     Eigenvalues ---    1.05952   1.08559   1.11331   1.11710   1.12592
     Eigenvalues ---    1.19863   1.20673   1.27405   1.27839   1.29025
     Eigenvalues ---    1.33591   1.37332   1.43158   1.56520   1.72460
     Eigenvalues ---    1.84233   1.87012   2.36027
 Quadratic step=1.385D+00 exceeds max=3.000D-01 adjusted using Lamda=-2.010D-03.
 Angle between NR and scaled steps=  22.91 degrees.
 Angle between quadratic step and forces=  62.65 degrees.
 Linear search not attempted -- first point.
 Variable       Old X    -DE/DX   Delta X   Delta X   Delta X     New X
                                 (Linear)    (Quad)   (Total)
    X1        6.77137  -0.00010   0.00000  -0.02279  -0.02279   6.74858
    Y1       -6.84126  -0.00004   0.00000  -0.02733  -0.02733  -6.86859
    Z1       -0.77951   0.00019   0.00000   0.03196   0.03196  -0.74755
    X2        7.08204   0.00000   0.00000  -0.02161  -0.02161   7.06043
    Y2       -7.01419  -0.00000   0.00000  -0.03561  -0.03561  -7.04981
    Z2       -2.80733   0.00001   0.00000   0.03199   0.03199  -2.77534
    X3        8.13510  -0.00002   0.00000  -0.02930  -0.02930   8.10580
    Y3       -8.03744  -0.00002   0.00000  -0.03346  -0.03346  -8.07091
    Z3        0.19705   0.00002   0.00000   0.03340   0.03340   0.23045
    X4        3.47261  -0.00014   0.00000  -0.00841  -0.00841   3.46420
    Y4       -2.71564   0.00001   0.00000   0.02398   0.02398  -2.69166
    Z4        2.35698  -0.00007   0.00000  -0.01279  -0.01279   2.34419
    X5        2.24302  -0.00006   0.00000  -0.01816  -0.01816   2.22486
    Y5       -4.35685   0.00001   0.00000   0.03265   0.03265  -4.32420
    Z5        2.02853  -0.00001   0.00000  -0.01639  -0.01639   2.01214
    X6        2.69630  -0.00036   0.00000  -0.01735  -0.01735   2.67895
    Y6       -1.28459  -0.00006   0.00000   0.04325   0.04325  -1.24134
    Z6        4.39108  -0.00015   0.00000  -0.02946  -0.02946   4.36161
    X7        0.92539  -0.00005   0.00000  -0.00268  -0.00268   0.92271
    Y7       -0.67800  -0.00001   0.00000   0.06622   0.06622  -0.61177
    Z7        4.02928  -0.00002   0.00000  -0.05982  -0.05982   3.96946
    X8        6.21502  -0.00021   0.00000  -0.01866  -0.01866   6.19636
    Y8       -3.56793  -0.00005   0.00000   0.00066   0.00066  -3.56727
    Z8        2.71856   0.00016   0.00000   0.01410   0.01410   2.73266
    X9        6.34816  -0.00005   0.00000  -0.03844  -0.03844   6.30972
    Y9       -5.23559  -0.00000   0.00000   0.00702   0.00702  -5.22857
    Z9        3.93397   0.00003   0.00000   0.02370   0.02370   3.95767
   X10        7.63859  -0.00033   0.00000  -0.00720  -0.00720   7.63138
   Y10       -1.54500  -0.00012   0.00000  -0.00625  -0.00625  -1.55125
   Z10        3.68611   0.00041   0.00000   0.01169   0.01169   3.69780
   X11        6.57863  -0.00005   0.00000  -0.00876  -0.00876   6.56988
   Y11       -0.70762   0.00001   0.00000   0.02419   0.02419  -0.68343
   Z11        4.91980   0.00004   0.00000  -0.01154  -0.01154   4.90826
   X12        3.75206   0.00018   0.00000   0.02331   0.02331   3.77537
   Y12       -1.23786   0.00008   0.00000   0.00498   0.00498  -1.23288
   Z12       -0.13451  -0.00005   0.00000  -0.02089  -0.02089  -0.15539
   X13        4.27078   0.00002   0.00000   0.03949   0.03949   4.31027
   Y13        0.72188   0.00001   0.00000   0.00399   0.00399   0.72588
   Z13        0.25653  -0.00003   0.00000  -0.03750  -0.03750   0.21904
   X14        7.08849   0.00004   0.00000  -0.00478  -0.00478   7.08372
   Y14       -4.11597  -0.00003   0.00000  -0.02578  -0.02578  -4.14175
   Z14        0.03278   0.00027   0.00000   0.02247   0.02247   0.05525
   X15        9.04389  -0.00000   0.00000   0.00172   0.00172   9.04561
   Y15       -3.50552  -0.00001   0.00000  -0.04409  -0.04409  -3.54961
   Z15       -0.18652   0.00003   0.00000   0.02350   0.02350  -0.16302
   X16        5.55938   0.00038   0.00000   0.02051   0.02051   5.57989
   Y16       -2.50638   0.00010   0.00000  -0.02291  -0.02291  -2.52929
   Z16       -1.56178   0.00018   0.00000   0.00188   0.00188  -1.55990
   X17        1.42381   0.00029   0.00000   0.03098   0.03098   1.45480
   Y17       -1.13074   0.00005   0.00000   0.00874   0.00874  -1.12200
   Z17       -1.68970  -0.00042   0.00000  -0.03209  -0.03209  -1.72179
   X18        0.55786   0.00047   0.00000   0.04234   0.04234   0.60021
   Y18       -3.29413   0.00016   0.00000   0.01183   0.01183  -3.28230
   Z18       -2.72944  -0.00055   0.00000  -0.04789  -0.04789  -2.77733
   X19        1.66799   0.00003   0.00000   0.05327   0.05327   1.72126
   Y19       -4.96410   0.00000   0.00000   0.01528   0.01528  -4.94882
   Z19       -2.36317  -0.00005   0.00000  -0.06437  -0.06437  -2.42753
   X20       -1.55382   0.00043   0.00000   0.03660   0.03660  -1.51722
   Y20       -3.26636   0.00017   0.00000   0.00985   0.00985  -3.25651
   Z20       -4.22137  -0.00050   0.00000  -0.03940  -0.03940  -4.26077
   X21       -2.21147   0.00005   0.00000   0.04436   0.04436  -2.16711
   Y21       -5.00693   0.00003   0.00000   0.01156   0.01156  -4.99537
   Z21       -5.05941  -0.00004   0.00000  -0.04952  -0.04952  -5.10892
   X22       -2.79106   0.00021   0.00000   0.01589   0.01589  -2.77517
   Y22       -0.98685  -0.00009   0.00000   0.00397   0.00397  -0.98288
   Z22       -4.66109  -0.00036   0.00000  -0.01064  -0.01064  -4.67174
   X23       -4.40555   0.00007   0.00000   0.00786   0.00786  -4.39769
   Y23       -0.91704   0.00001   0.00000   0.00114   0.00114  -0.91589
   Z23       -5.91421   0.00003   0.00000  -0.00031  -0.00031  -5.91451
   X24       -5.74125  -0.00013   0.00000  -0.00563  -0.00563  -5.74688
   Y24       -1.58756   0.00009   0.00000   0.01193   0.01193  -1.57563
   Z24       -1.61201   0.00019   0.00000  -0.00313  -0.00313  -1.61514
   X25       -1.88371  -0.00000   0.00000   0.00434   0.00434  -1.87937
   Y25        1.21202   0.00018   0.00000   0.00142   0.00142   1.21344
   Z25       -3.55277   0.00004   0.00000   0.00521   0.00521  -3.54756
   X26        0.26232   0.00025   0.00000   0.01841   0.01841   0.28073
   Y26        1.06695  -0.00009   0.00000   0.00531   0.00531   1.07226
   Z26       -2.06386  -0.00010   0.00000  -0.01388  -0.01388  -2.07775
   X27        1.03998   0.00004   0.00000   0.01613   0.01613   1.05611
   Y27        2.73972   0.00013   0.00000   0.00469   0.00469   2.74440
   Z27       -1.17971   0.00015   0.00000  -0.01010  -0.01010  -1.18981
   X28       -2.91908  -0.00014   0.00000  -0.02583  -0.02583  -2.94491
   Y28        3.80010  -0.00001   0.00000  -0.00339  -0.00339   3.79671
   Z28       -4.06054   0.00019   0.00000   0.04110   0.04110  -4.01944
   X29       -1.57570  -0.00012   0.00000  -0.04188  -0.04188  -1.61758
   Y29        5.63752   0.00001   0.00000   0.00814   0.00814   5.64566
   Z29       -3.90251  -0.00017   0.00000   0.04193   0.04193  -3.86058
   X30       -5.36634  -0.00015   0.00000  -0.03341  -0.03341  -5.39975
   Y30        3.86406   0.00000   0.00000  -0.01890  -0.01890   3.84516
   Z30       -4.89125   0.00058   0.00000   0.06314   0.06314  -4.82811
   X31       -6.09244  -0.00002   0.00000  -0.04766  -0.04766  -6.14010
   Y31        5.62349   0.00000   0.00000  -0.02442  -0.02442   5.59907
   Z31       -5.01726   0.00007   0.00000   0.07001   0.07001  -4.94725
   X32       -6.55108  -0.00004   0.00000  -0.01758  -0.01758  -6.56866
   Y32        2.55671  -0.00011   0.00000  -0.03428  -0.03428   2.52243
   Z32       -4.16396   0.00007   0.00000   0.06063   0.06063  -4.10333
   X33        4.87928  -0.00004   0.00000  -0.02742  -0.02742   4.85186
   Y33       -7.53974   0.00003   0.00000  -0.01428  -0.01428  -7.55402
   Z33       -0.33717   0.00002   0.00000   0.03053   0.03053  -0.30664
   X34        0.32600  -0.00019   0.00000  -0.00667  -0.00667   0.31932
   Y34        4.13616  -0.00011   0.00000  -0.00066  -0.00066   4.13550
   Z34        5.39756   0.00011   0.00000   0.00255   0.00255   5.40011
   X35       -3.14172  -0.00027   0.00000   0.00120   0.00120  -3.14053
   Y35        1.67111  -0.00007   0.00000  -0.00391  -0.00391   1.66720
   Z35        2.26870  -0.00030   0.00000  -0.00730  -0.00730   2.26140
   X36       -5.37646  -0.00003   0.00000  -0.00245  -0.00245  -5.37892
   Y36        1.57204   0.00001   0.00000   0.00196   0.00196   1.57401
   Z36        0.97366   0.00051   0.00000   0.00135   0.00135   0.97500
   X37       -9.41371  -0.00044   0.00000  -0.00322  -0.00322  -9.41693
   Y37       -0.58962  -0.00008   0.00000  -0.00096  -0.00096  -0.59057
   Z37       -0.26310   0.00093   0.00000   0.01319   0.01319  -0.24991
   X38       -6.57132  -0.00022   0.00000  -0.00247  -0.00247  -6.57379
   Y38       -0.84805  -0.00014   0.00000   0.00254   0.00254  -0.84550
   Z38        0.15267   0.00003   0.00000   0.00258   0.00258   0.15525
   X39       -1.65719   0.00005   0.00000  -0.01165  -0.01165  -1.66884
   Y39       -0.16776  -0.00015   0.00000  -0.01281  -0.01281  -0.18058
   Z39        2.70642  -0.00050   0.00000  -0.00159  -0.00159   2.70484
   X40       -2.23723   0.00089   0.00000   0.03352   0.03352  -2.20372
   Y40        4.82361   0.00006   0.00000  -0.00095  -0.00095   4.82266
   Z40        3.26946  -0.00139   0.00000  -0.04648  -0.04648   3.22298
   X41        0.75016  -0.00002   0.00000  -0.01477  -0.01477   0.73539
   Y41        5.89771  -0.00002   0.00000   0.00312   0.00312   5.90083
   Z41        6.37132  -0.00000   0.00000  -0.00067  -0.00067   6.37065
   X42        2.00658  -0.00002   0.00000   0.00827   0.00827   2.01485
   Y42        3.49623  -0.00001   0.00000  -0.01028  -0.01028   3.48595
   Z42        4.40344   0.00005   0.00000   0.03322   0.03322   4.43667
   X43      -10.35977  -0.00004   0.00000   0.00012   0.00012 -10.35965
   Y43       -0.02076   0.00005   0.00000  -0.00790  -0.00790  -0.02866
   Z43        1.47650   0.00020   0.00000   0.01655   0.01655   1.49305
   X44       -9.83490  -0.00006   0.00000  -0.00389  -0.00389  -9.83879
   Y44        0.85761   0.00001   0.00000   0.00311   0.00311   0.86072
   Z44       -1.67917   0.00012   0.00000   0.01711   0.01711  -1.66206
   X45      -10.25369  -0.00001   0.00000   0.00234   0.00234 -10.25135
   Y45       -2.35764   0.00001   0.00000  -0.00006  -0.00006  -2.35770
   Z45       -0.90915   0.00007   0.00000   0.00402   0.00402  -0.90513
   X46       -6.17724   0.00002   0.00000   0.01040   0.01040  -6.16684
   Y46       -2.32343  -0.00000   0.00000  -0.00139  -0.00139  -2.32482
   Z46        1.54662  -0.00000   0.00000  -0.00577  -0.00577   1.54085
   X47       -6.46635  -0.00004   0.00000   0.00559   0.00559  -6.46077
   Y47        3.29982   0.00005   0.00000   0.00621   0.00621   3.30602
   Z47        0.81153   0.00006   0.00000  -0.00591  -0.00591   0.80562
   X48       -0.23392  -0.00005   0.00000  -0.03311  -0.03311  -0.26703
   Y48        2.71656  -0.00001   0.00000   0.00776   0.00776   2.72432
   Z48        6.77601  -0.00003   0.00000  -0.00024  -0.00024   6.77577
         Item               Value     Threshold  Converged?
 Maximum Force            0.001389     0.000450     NO 
 RMS     Force            0.000233     0.000300     YES
 Maximum Displacement     0.070007     0.001800     NO 
 RMS     Displacement     0.025044     0.001200     NO 
 Predicted change in Energy=-2.833948D-04
 GradGradGradGradGradGradGradGradGradGradGradGradGradGradGradGradGradGrad

 Leave Link  103 at Sat Aug 13 20:59:40 2022, MaxMem=  2684354560 cpu:               1.3 elap:               0.1
 (Enter /storage/apps/GAUSSIAN/G16_RevA03/g16/l9999.exe)

 Test job not archived.
 1\1\GINC-T054\Force\RM062X\def2TZVP\C16H24N2O5S1\LV87696\13-Aug-2022\0
 \\#P M062X/Def2TZVP scf=(direct,conver=8) EmpiricalDispersion=GD3 Forc
 e Charge Prop=(Field,Read)\\Gaussian run\\0,1\C,3.583255,-3.620238,-0.
 4125\H,3.747655,-3.711751,-1.485575\H,4.304912,-4.253232,0.104272\C,1.
 837626,-1.437057,1.247259\H,1.186954,-2.305547,1.07345\O,1.426822,-0.6
 79777,2.323659\H,0.489693,-0.358781,2.132201\C,3.288849,-1.888066,1.43
 86\H,3.359304,-2.770555,2.081767\O,4.042166,-0.817578,1.950606\H,3.481
 262,-0.374456,2.603447\C,1.985506,-0.655047,-0.071179\H,2.259997,0.382
 005,0.135752\C,3.751069,-2.178076,0.017346\H,4.785818,-1.855042,-0.098
 701\O,2.941898,-1.326317,-0.82646\N,0.75345,-0.598361,-0.894151\C,0.29
 5209,-1.743178,-1.444355\H,0.882663,-2.626887,-1.250534\C,-0.822246,-1
 .728484,-2.233852\H,-1.17026,-2.649555,-2.677324\C,-1.476965,-0.522221
 ,-2.466545\H,-2.331318,-0.485275,-3.129663\H,-3.03814,-0.840099,-0.853
 039\C,-0.996818,0.641375,-1.880043\C,0.138815,0.564604,-1.092149\H,0.5
 50335,1.449795,-0.624275\C,-1.544711,2.010928,-2.148744\O,-0.833827,2.
 983248,-2.06512\N,-2.839744,2.044773,-2.588336\H,-3.223979,2.975823,-2
 .655019\H,-3.466682,1.352955,-2.203473\H,2.582002,-3.989856,-0.178422\
 C,0.17251,2.188761,2.856264\C,-1.662528,0.884315,1.200544\C,-2.845102,
 0.83189,0.515237\C,-4.981521,-0.312011,-0.139225\C,-3.477393,-0.448768
 ,0.08079\O,-0.876948,-0.088776,1.432178\S,-1.183893,2.552545,1.730126\
 H,0.396968,3.120935,3.371558\H,1.061834,1.850123,2.330201\H,-5.482154,
 -0.010988,0.781329\H,-5.204407,0.453826,-0.888579\H,-5.426019,-1.24761
 1,-0.481102\H,-3.268852,-1.229507,0.818436\H,-3.421847,1.746187,0.4294
 44\H,-0.123786,1.437541,3.58571\\Version=ES64L-G16RevA.03\State=1-A\HF
 =-1507.9070184\RMSD=5.017e-09\RMSF=2.325e-04\Dipole=0.0581693,-2.33238
 08,-1.8296675\Quadrupole=0.9545427,1.1868418,-2.1413845,-4.4206049,8.8
 658261,5.3688305\PG=C01 [X(C16H24N2O5S1)]\\@


 Everything starts as somebody's daydream.
                           -- Larry Niven
 Job cpu time:       0 days  3 hours 17 minutes 23.4 seconds.
 Elapsed time:       0 days  0 hours 12 minutes 22.2 seconds.
 File lengths (MBytes):  RWF=    435 Int=      0 D2E=      0 Chk=     48 Scr=      1
 Normal termination of Gaussian 16 at Sat Aug 13 20:59:40 2022.
