 Entering Gaussian System, Link 0=g16
 Initial command:
 /storage/apps/GAUSSIAN/G16_RevA03/g16/l1.exe "/scratch/tmp/1019372/Gau-181808.inp" -scrdir="/scratch/tmp/1019372/"
 Entering Link 1 = /storage/apps/GAUSSIAN/G16_RevA03/g16/l1.exe PID=    181809.
  
 Copyright (c) 1988,1990,1992,1993,1995,1998,2003,2009,2016,
            Gaussian, Inc.  All Rights Reserved.
  
 This is part of the Gaussian(R) 16 program.  It is based on
 the Gaussian(R) 09 system (copyright 2009, Gaussian, Inc.),
 the Gaussian(R) 03 system (copyright 2003, Gaussian, Inc.),
 the Gaussian(R) 98 system (copyright 1998, Gaussian, Inc.),
 the Gaussian(R) 94 system (copyright 1995, Gaussian, Inc.),
 the Gaussian 92(TM) system (copyright 1992, Gaussian, Inc.),
 the Gaussian 90(TM) system (copyright 1990, Gaussian, Inc.),
 the Gaussian 88(TM) system (copyright 1988, Gaussian, Inc.),
 the Gaussian 86(TM) system (copyright 1986, Carnegie Mellon
 University), and the Gaussian 82(TM) system (copyright 1983,
 Carnegie Mellon University). Gaussian is a federally registered
 trademark of Gaussian, Inc.
  
 This software contains proprietary and confidential information,
 including trade secrets, belonging to Gaussian, Inc.
  
 This software is provided under written license and may be
 used, copied, transmitted, or stored only in accord with that
 written license.
  
 The following legend is applicable only to US Government
 contracts under FAR:
  
                    RESTRICTED RIGHTS LEGEND
  
 Use, reproduction and disclosure by the US Government is
 subject to restrictions as set forth in subparagraphs (a)
 and (c) of the Commercial Computer Software - Restricted
 Rights clause in FAR 52.227-19.
  
 Gaussian, Inc.
 340 Quinnipiac St., Bldg. 40, Wallingford CT 06492
  
  
 ---------------------------------------------------------------
 Warning -- This program may not be used in any manner that
 competes with the business of Gaussian, Inc. or will provide
 assistance to any competitor of Gaussian, Inc.  The licensee
 of this program is prohibited from giving any competitor of
 Gaussian, Inc. access to this program.  By using this program,
 the user acknowledges that Gaussian, Inc. is engaged in the
 business of creating and licensing software in the field of
 computational chemistry and represents and warrants to the
 licensee that it is not a competitor of Gaussian, Inc. and that
 it will not use this program in any manner prohibited above.
 ---------------------------------------------------------------
  

 Cite this work as:
 Gaussian 16, Revision A.03,
 M. J. Frisch, G. W. Trucks, H. B. Schlegel, G. E. Scuseria, 
 M. A. Robb, J. R. Cheeseman, G. Scalmani, V. Barone, 
 G. A. Petersson, H. Nakatsuji, X. Li, M. Caricato, A. V. Marenich, 
 J. Bloino, B. G. Janesko, R. Gomperts, B. Mennucci, H. P. Hratchian, 
 J. V. Ortiz, A. F. Izmaylov, J. L. Sonnenberg, D. Williams-Young, 
 F. Ding, F. Lipparini, F. Egidi, J. Goings, B. Peng, A. Petrone, 
 T. Henderson, D. Ranasinghe, V. G. Zakrzewski, J. Gao, N. Rega, 
 G. Zheng, W. Liang, M. Hada, M. Ehara, K. Toyota, R. Fukuda, 
 J. Hasegawa, M. Ishida, T. Nakajima, Y. Honda, O. Kitao, H. Nakai, 
 T. Vreven, K. Throssell, J. A. Montgomery, Jr., J. E. Peralta, 
 F. Ogliaro, M. J. Bearpark, J. J. Heyd, E. N. Brothers, K. N. Kudin, 
 V. N. Staroverov, T. A. Keith, R. Kobayashi, J. Normand, 
 K. Raghavachari, A. P. Rendell, J. C. Burant, S. S. Iyengar, 
 J. Tomasi, M. Cossi, J. M. Millam, M. Klene, C. Adamo, R. Cammi, 
 J. W. Ochterski, R. L. Martin, K. Morokuma, O. Farkas, 
 J. B. Foresman, and D. J. Fox, Gaussian, Inc., Wallingford CT, 2016.
 
 ******************************************
 Gaussian 16:  ES64L-G16RevA.03 25-Dec-2016
                13-Aug-2022 
 ******************************************
 %NProcShared=16
 Will use up to   16 processors via shared memory.
 %mem=20GB
 ----------------------------------------------------------------------
 #P M062X/Def2TZVP scf=(direct,conver=8) EmpiricalDispersion=GD3 Force 
 Charge Prop=(Field,Read)
 ----------------------------------------------------------------------
 1/10=7,18=10,28=-2,30=1,38=1,125=101/1,3;
 2/12=2,17=6,18=5,29=2,40=1/2;
 3/5=44,7=101,11=2,25=1,30=1,71=1,74=-55,124=31/1,2,3;
 4//1;
 5/5=2,6=8,38=5/2;
 6/7=2,8=2,9=2,10=2,14=2,15=1,28=1/1,2;
 7/7=1,16=-2,29=1/1,2,3,16;
 1/10=7,18=10,28=-2,30=1/3;
 99/12=1/99;
 Leave Link    1 at Sat Aug 13 20:47:17 2022, MaxMem=  2684354560 cpu:               0.8 elap:               0.1
 (Enter /storage/apps/GAUSSIAN/G16_RevA03/g16/l101.exe)
 ------------
 Gaussian run
 ------------
 Symbolic Z-matrix:
 Charge =  0 Multiplicity = 1
 C                     3.58196  -3.62094  -0.40942 
 H                     3.74845  -3.7125   -1.48218 
 H                     4.30141  -4.25539   0.10864 
 C                     1.83557  -1.43688   1.24605 
 H                     1.18463  -2.30468   1.06961 
 O                     1.4227   -0.68026   2.32189 
 H                     0.48564  -0.3588    2.12798 
 C                     3.2859   -1.88903   1.44117 
 H                     3.35386  -2.77169   2.08439 
 O                     4.03842  -0.81913   1.9555 
 H                     3.47571  -0.37581   2.60668 
 C                     1.98779  -0.65423  -0.07184 
 H                     2.26165   0.38278   0.13611 
 C                     3.75157  -2.1792    0.02123 
 H                     4.78722  -1.85812  -0.09209 
 O                     2.94635  -1.32531  -0.82436 
 N                     0.75769  -0.59706  -0.89834 
 C                     0.30243  -1.7407   -1.45265 
 H                     0.8922   -2.6236   -1.26203 
 C                    -0.81583  -1.72625  -2.2414 
 H                    -1.16157  -2.64667  -2.68799 
 C                    -1.4735   -0.52095  -2.46949 
 H                    -2.32891  -0.48369  -3.13125 
 H                    -3.04869  -0.83547  -0.8536 
 C                    -0.99535   0.64195  -1.88023 
 C                     0.14049   0.56533  -1.09253 
 H                     0.55009   1.4498   -0.62197 
 C                    -1.54614   2.0109   -2.14645 
 O                    -0.83551   2.98369  -2.06689 
 N                    -2.84341   2.04312  -2.5795 
 H                    -3.22874   2.97383  -2.64479 
 H                    -3.46752   1.35147  -2.18951 
 H                     2.57961  -3.98885  -0.17741 
 C                     0.16907   2.18724   2.85815 
 C                    -1.66308   0.88388   1.19803 
 C                    -2.84905   0.83184   0.51986 
 C                    -4.98817  -0.31237  -0.12381 
 C                    -3.48222  -0.44849   0.08448 
 O                    -0.87625  -0.08981   1.42527 
 S                    -1.17868   2.55238   1.72185 
 H                     0.39242   3.11974   3.37332 
 H                     1.06104   1.84524   2.33887 
 H                    -5.48173  -0.0134    0.8017 
 H                    -5.21693   0.45525  -0.86976 
 H                    -5.4349   -1.24749  -0.46443 
 H                    -3.26758  -1.23139   0.81797 
 H                    -3.42701   1.74581   0.43874 
 H                    -0.13426   1.43815   3.58692 
 
 ITRead=  0  0  0  0  0  0  0  0  0  0  0  0  0  0  0  0  0  0  0  0
 ITRead=  0  0  0  0  0  0  0  0  0  0  0  0  0  0  0  0  0  0  0  0
 ITRead=  0  0  0  0  0  0  0  0
 MicOpt= -1 -1 -1 -1 -1 -1 -1 -1 -1 -1 -1 -1 -1 -1 -1 -1 -1 -1 -1 -1
 MicOpt= -1 -1 -1 -1 -1 -1 -1 -1 -1 -1 -1 -1 -1 -1 -1 -1 -1 -1 -1 -1
 MicOpt= -1 -1 -1 -1 -1 -1 -1 -1
 NAtoms=     48 NQM=       48 NQMF=       0 NMMI=      0 NMMIF=      0
                NMic=       0 NMicF=      0.
                    Isotopes and Nuclear Properties:
 (Nuclear quadrupole moments (NQMom) in fm**2, nuclear magnetic moments (NMagM)
  in nuclear magnetons)

  Atom         1           2           3           4           5           6           7           8           9          10
 IAtWgt=          12           1           1          12           1          16           1          12           1          16
 AtmWgt=  12.0000000   1.0078250   1.0078250  12.0000000   1.0078250  15.9949146   1.0078250  12.0000000   1.0078250  15.9949146
 NucSpn=           0           1           1           0           1           0           1           0           1           0
 AtZEff=  -0.0000000  -0.0000000  -0.0000000  -0.0000000  -0.0000000  -0.0000000  -0.0000000  -0.0000000  -0.0000000  -0.0000000
 NQMom=    0.0000000   0.0000000   0.0000000   0.0000000   0.0000000   0.0000000   0.0000000   0.0000000   0.0000000   0.0000000
 NMagM=    0.0000000   2.7928460   2.7928460   0.0000000   2.7928460   0.0000000   2.7928460   0.0000000   2.7928460   0.0000000
 AtZNuc=   6.0000000   1.0000000   1.0000000   6.0000000   1.0000000   8.0000000   1.0000000   6.0000000   1.0000000   8.0000000

  Atom        11          12          13          14          15          16          17          18          19          20
 IAtWgt=           1          12           1          12           1          16          14          12           1          12
 AtmWgt=   1.0078250  12.0000000   1.0078250  12.0000000   1.0078250  15.9949146  14.0030740  12.0000000   1.0078250  12.0000000
 NucSpn=           1           0           1           0           1           0           2           0           1           0
 AtZEff=  -0.0000000  -0.0000000  -0.0000000  -0.0000000  -0.0000000  -0.0000000  -0.0000000  -0.0000000  -0.0000000  -0.0000000
 NQMom=    0.0000000   0.0000000   0.0000000   0.0000000   0.0000000   0.0000000   2.0440000   0.0000000   0.0000000   0.0000000
 NMagM=    2.7928460   0.0000000   2.7928460   0.0000000   2.7928460   0.0000000   0.4037610   0.0000000   2.7928460   0.0000000
 AtZNuc=   1.0000000   6.0000000   1.0000000   6.0000000   1.0000000   8.0000000   7.0000000   6.0000000   1.0000000   6.0000000

  Atom        21          22          23          24          25          26          27          28          29          30
 IAtWgt=           1          12           1           1          12          12           1          12          16          14
 AtmWgt=   1.0078250  12.0000000   1.0078250   1.0078250  12.0000000  12.0000000   1.0078250  12.0000000  15.9949146  14.0030740
 NucSpn=           1           0           1           1           0           0           1           0           0           2
 AtZEff=  -0.0000000  -0.0000000  -0.0000000  -0.0000000  -0.0000000  -0.0000000  -0.0000000  -0.0000000  -0.0000000  -0.0000000
 NQMom=    0.0000000   0.0000000   0.0000000   0.0000000   0.0000000   0.0000000   0.0000000   0.0000000   0.0000000   2.0440000
 NMagM=    2.7928460   0.0000000   2.7928460   2.7928460   0.0000000   0.0000000   2.7928460   0.0000000   0.0000000   0.4037610
 AtZNuc=   1.0000000   6.0000000   1.0000000   1.0000000   6.0000000   6.0000000   1.0000000   6.0000000   8.0000000   7.0000000

  Atom        31          32          33          34          35          36          37          38          39          40
 IAtWgt=           1           1           1          12          12          12          12          12          16          32
 AtmWgt=   1.0078250   1.0078250   1.0078250  12.0000000  12.0000000  12.0000000  12.0000000  12.0000000  15.9949146  31.9720718
 NucSpn=           1           1           1           0           0           0           0           0           0           0
 AtZEff=  -0.0000000  -0.0000000  -0.0000000  -0.0000000  -0.0000000  -0.0000000  -0.0000000  -0.0000000  -0.0000000  -0.0000000
 NQMom=    0.0000000   0.0000000   0.0000000   0.0000000   0.0000000   0.0000000   0.0000000   0.0000000   0.0000000   0.0000000
 NMagM=    2.7928460   2.7928460   2.7928460   0.0000000   0.0000000   0.0000000   0.0000000   0.0000000   0.0000000   0.0000000
 AtZNuc=   1.0000000   1.0000000   1.0000000   6.0000000   6.0000000   6.0000000   6.0000000   6.0000000   8.0000000  16.0000000

  Atom        41          42          43          44          45          46          47          48
 IAtWgt=           1           1           1           1           1           1           1           1
 AtmWgt=   1.0078250   1.0078250   1.0078250   1.0078250   1.0078250   1.0078250   1.0078250   1.0078250
 NucSpn=           1           1           1           1           1           1           1           1
 AtZEff=  -0.0000000  -0.0000000  -0.0000000  -0.0000000  -0.0000000  -0.0000000  -0.0000000  -0.0000000
 NQMom=    0.0000000   0.0000000   0.0000000   0.0000000   0.0000000   0.0000000   0.0000000   0.0000000
 NMagM=    2.7928460   2.7928460   2.7928460   2.7928460   2.7928460   2.7928460   2.7928460   2.7928460
 AtZNuc=   1.0000000   1.0000000   1.0000000   1.0000000   1.0000000   1.0000000   1.0000000   1.0000000
 Background charge distribution read from input stream:
 Leave Link  101 at Sat Aug 13 20:47:17 2022, MaxMem=  2684354560 cpu:               1.7 elap:               0.1
 (Enter /storage/apps/GAUSSIAN/G16_RevA03/g16/l103.exe)

 GradGradGradGradGradGradGradGradGradGradGradGradGradGradGradGradGradGrad
 Berny optimization.
 Initialization pass.
 Trust Radius=3.00D-01 FncErr=1.00D-07 GrdErr=1.00D-07 EigMax=2.50D+02 EigMin=1.00D-04
 Number of steps in this run=      2 maximum allowed number of steps=      2.
 GradGradGradGradGradGradGradGradGradGradGradGradGradGradGradGradGradGrad

 Leave Link  103 at Sat Aug 13 20:47:17 2022, MaxMem=  2684354560 cpu:               0.4 elap:               0.1
 (Enter /storage/apps/GAUSSIAN/G16_RevA03/g16/l202.exe)
 ---------------------------------------------------------------------------------------------------
                            Z-MATRIX (ANGSTROMS AND DEGREES)
   CD    Cent   Atom    N1       Length/X        N2       Alpha/Y        N3        Beta/Z          J
 ---------------------------------------------------------------------------------------------------
      1      1  C        0   3.581964         -3.620935         -0.409420
      2      2  H        0   3.748452         -3.712495         -1.482178
      3      3  H        0   4.301411         -4.255390          0.108642
      4      4  C        0   1.835572         -1.436875          1.246046
      5      5  H        0   1.184630         -2.304684          1.069605
      6      6  O        0   1.422697         -0.680257          2.321886
      7      7  H        0   0.485636         -0.358804          2.127980
      8      8  C        0   3.285900         -1.889034          1.441173
      9      9  H        0   3.353855         -2.771689          2.084393
     10     10  O        0   4.038417         -0.819127          1.955496
     11     11  H        0   3.475714         -0.375805          2.606680
     12     12  C        0   1.987792         -0.654225         -0.071840
     13     13  H        0   2.261654          0.382779          0.136113
     14     14  C        0   3.751571         -2.179197          0.021233
     15     15  H        0   4.787219         -1.858120         -0.092091
     16     16  O        0   2.946346         -1.325314         -0.824361
     17     17  N        0   0.757692         -0.597060         -0.898338
     18     18  C        0   0.302425         -1.740696         -1.452651
     19     19  H        0   0.892204         -2.623603         -1.262033
     20     20  C        0  -0.815827         -1.726248         -2.241403
     21     21  H        0  -1.161569         -2.646672         -2.687990
     22     22  C        0  -1.473498         -0.520950         -2.469487
     23     23  H        0  -2.328906         -0.483690         -3.131250
     24     24  H        0  -3.048691         -0.835468         -0.853599
     25     25  C        0  -0.995350          0.641948         -1.880231
     26     26  C        0   0.140486          0.565332         -1.092533
     27     27  H        0   0.550086          1.449795         -0.621965
     28     28  C        0  -1.546144          2.010901         -2.146451
     29     29  O        0  -0.835511          2.983694         -2.066894
     30     30  N        0  -2.843406          2.043119         -2.579496
     31     31  H        0  -3.228736          2.973827         -2.644791
     32     32  H        0  -3.467523          1.351468         -2.189507
     33     33  H        0   2.579605         -3.988854         -0.177410
     34     34  C        0   0.169069          2.187239          2.858147
     35     35  C        0  -1.663077          0.883875          1.198028
     36     36  C        0  -2.849051          0.831843          0.519858
     37     37  C        0  -4.988168         -0.312366         -0.123806
     38     38  C        0  -3.482220         -0.448492          0.084479
     39     39  O        0  -0.876248         -0.089813          1.425272
     40     40  S        0  -1.178677          2.552383          1.721848
     41     41  H        0   0.392416          3.119742          3.373324
     42     42  H        0   1.061043          1.845244          2.338867
     43     43  H        0  -5.481734         -0.013399          0.801703
     44     44  H        0  -5.216930          0.455248         -0.869759
     45     45  H        0  -5.434897         -1.247491         -0.464429
     46     46  H        0  -3.267577         -1.231388          0.817969
     47     47  H        0  -3.427010          1.745814          0.438743
     48     48  H        0  -0.134260          1.438149          3.586917
 ---------------------------------------------------------------------------------------------------
                         Z-Matrix orientation:                         
 ---------------------------------------------------------------------
 Center     Atomic      Atomic             Coordinates (Angstroms)
 Number     Number       Type             X           Y           Z
 ---------------------------------------------------------------------
      1          6           0        3.581964   -3.620935   -0.409420
      2          1           0        3.748452   -3.712495   -1.482178
      3          1           0        4.301411   -4.255390    0.108642
      4          6           0        1.835572   -1.436875    1.246046
      5          1           0        1.184630   -2.304684    1.069605
      6          8           0        1.422697   -0.680257    2.321886
      7          1           0        0.485636   -0.358804    2.127980
      8          6           0        3.285900   -1.889034    1.441173
      9          1           0        3.353855   -2.771689    2.084393
     10          8           0        4.038417   -0.819127    1.955496
     11          1           0        3.475714   -0.375805    2.606680
     12          6           0        1.987792   -0.654225   -0.071840
     13          1           0        2.261654    0.382779    0.136113
     14          6           0        3.751571   -2.179197    0.021233
     15          1           0        4.787219   -1.858120   -0.092091
     16          8           0        2.946346   -1.325314   -0.824361
     17          7           0        0.757692   -0.597060   -0.898338
     18          6           0        0.302425   -1.740696   -1.452651
     19          1           0        0.892204   -2.623603   -1.262033
     20          6           0       -0.815827   -1.726248   -2.241403
     21          1           0       -1.161569   -2.646672   -2.687990
     22          6           0       -1.473498   -0.520950   -2.469487
     23          1           0       -2.328906   -0.483690   -3.131250
     24          1           0       -3.048691   -0.835468   -0.853599
     25          6           0       -0.995350    0.641948   -1.880231
     26          6           0        0.140486    0.565332   -1.092533
     27          1           0        0.550086    1.449795   -0.621965
     28          6           0       -1.546144    2.010901   -2.146451
     29          8           0       -0.835511    2.983694   -2.066894
     30          7           0       -2.843406    2.043119   -2.579496
     31          1           0       -3.228736    2.973827   -2.644791
     32          1           0       -3.467523    1.351468   -2.189507
     33          1           0        2.579605   -3.988854   -0.177410
     34          6           0        0.169069    2.187239    2.858147
     35          6           0       -1.663077    0.883875    1.198028
     36          6           0       -2.849051    0.831843    0.519858
     37          6           0       -4.988168   -0.312366   -0.123806
     38          6           0       -3.482220   -0.448492    0.084479
     39          8           0       -0.876248   -0.089813    1.425272
     40         16           0       -1.178677    2.552383    1.721848
     41          1           0        0.392416    3.119742    3.373324
     42          1           0        1.061043    1.845244    2.338867
     43          1           0       -5.481734   -0.013399    0.801703
     44          1           0       -5.216930    0.455248   -0.869759
     45          1           0       -5.434897   -1.247491   -0.464429
     46          1           0       -3.267577   -1.231388    0.817969
     47          1           0       -3.427010    1.745814    0.438743
     48          1           0       -0.134260    1.438149    3.586917
 ---------------------------------------------------------------------
                    Distance matrix (angstroms):
                    1          2          3          4          5
     1  C    0.000000
     2  H    1.089455   0.000000
     3  H    1.090195   1.769522   0.000000
     4  C    3.249703   4.034943   3.913831   0.000000
     5  H    3.109219   3.881586   3.800398   1.099068   0.000000
     6  O    4.557417   5.392078   5.095784   1.378538   2.064860
     7  H    5.164024   5.909861   5.815604   1.939683   2.322757
     8  C    2.551829   3.476341   2.899404   1.531657   2.173974
     9  H    2.644306   3.709616   2.646285   2.188547   2.439964
    10  O    3.694767   4.502584   3.909979   2.395299   3.337032
    11  H    4.431593   5.284567   4.687553   2.380601   3.366339
    12  C    3.384777   3.800262   4.284133   1.540304   2.161477
    13  H    4.250947   4.647656   5.066949   2.173623   3.042013
    14  C    1.514212   2.147384   2.149545   2.392125   2.775611
    15  H    2.158901   2.539702   2.454222   3.268069   3.811509
    16  O    2.417863   2.602831   3.360363   2.352201   2.765848
    17  N    4.166458   4.357918   5.191852   2.542734   2.640276
    18  C    3.921608   3.970386   4.975260   3.118623   2.730960
    19  H    2.992729   3.064686   4.020469   2.930653   2.371446
    20  C    5.127043   5.035300   6.172957   4.390439   3.911418
    21  H    5.351838   5.167037   6.344547   5.091473   4.443099
    22  C    6.277856   6.199153   7.344547   5.059056   4.772057
    23  H    7.224199   7.076645   8.287564   6.116548   5.771320
    24  H    7.205672   7.407668   8.163686   5.350348   4.876301
    25  C    6.425516   6.451610   7.482995   4.702046   4.704943
    26  C    5.462165   5.609728   6.480392   3.514413   3.741934
    27  H    5.911832   6.133413   6.866976   3.670804   4.166553
    28  C    7.812320   7.825041   8.862604   5.901881   6.035264
    29  O    8.116799   8.135942   9.139216   6.136097   6.471904
    30  N    8.836069   8.819512   9.896753   6.974092   6.960201
    31  H    9.740298   9.733433  10.795651   7.761451   7.819029
    32  H    8.808449   8.843887   9.852648   6.906569   6.755130
    33  H    1.092665   1.773414   1.765640   3.015362   2.517425
    34  C    7.487305   8.152133   8.132865   4.302360   4.940407
    35  C    7.098426   7.589122   7.948203   4.198658   4.277013
    36  C    7.877102   8.257494   8.785109   5.255485   5.139125
    37  C    9.191048   9.472834  10.094441   7.050138   6.595225
    38  C    7.759576   8.086455   8.664754   5.532183   5.118145
    39  O    5.975832   6.554765   6.774489   3.033260   3.046206
    40  S    8.081823   8.590173   8.887045   5.022575   5.440748
    41  H    8.361764   9.028751   8.962754   5.231708   5.946354
    42  H    6.617193   7.260235   7.258900   3.544920   4.341452
    43  H    9.830145  10.202733  10.685726   7.467710   7.054230
    44  H    9.708126   9.905716  10.665186   7.602272   7.235905
    45  H    9.324165   9.562738  10.206447   7.471366   6.876704
    46  H    7.357488   7.789174   8.181523   5.125193   4.586658
    47  H    8.868320   9.217935   9.790399   6.202904   6.170230
    48  H    7.441462   8.203677   8.011864   4.198295   4.699482
                    6          7          8          9         10
     6  O    0.000000
     7  H    1.009463   0.000000
     8  C    2.389210   3.264167   0.000000
     9  H    2.856547   3.748412   1.094271   0.000000
    10  O    2.644904   3.586628   1.405529   2.073099   0.000000
    11  H    2.094917   3.028202   1.919453   2.455177   0.968096
    12  C    2.459661   2.680103   2.345004   3.316493   2.888312
    13  H    2.571283   2.769787   2.813076   3.865148   2.812760
    14  C    3.600483   4.291683   1.522259   2.183084   2.381899
    15  H    4.305189   5.067571   2.146116   2.761562   2.415124
    16  O    3.554782   3.963023   2.359178   3.273975   3.029265
    17  N    3.289224   3.047849   3.678905   4.512844   4.353945
    18  C    4.077581   3.842409   4.159008   4.783811   5.140272
    19  H    4.111264   4.097170   3.684657   4.156949   4.848431
    20  C    5.189286   4.759750   5.514710   6.098500   6.480780
    21  H    5.970266   5.580429   6.115880   6.571174   7.207062
    22  C    5.600945   5.000120   6.310054   7.007638   7.074644
    23  H    6.621922   5.966301   7.376184   8.045598   8.156611
    24  H    5.486447   4.648493   6.819313   7.305706   7.623541
    25  C    5.025233   4.388688   5.980526   6.803436   6.495102
    26  C    3.854065   3.368213   4.726226   5.617322   5.138198
    27  H    3.736955   3.292018   4.784245   5.745122   4.894871
    28  C    6.001865   5.292862   7.171415   8.048801   7.484808
    29  O    6.146985   5.524010   7.282585   8.240656   7.375381
    30  N    7.045563   6.245965   8.318413   9.129090   8.724568
    31  H    7.723732   6.905239   9.098516   9.935122   9.400035
    32  H    6.956639   6.098622   8.324146   9.044216   8.844867
    33  H    4.304850   4.782969   2.743703   2.682668   4.089571
    34  C    3.175168   2.667526   5.323387   5.944117   4.982456
    35  C    3.637522   2.650666   5.678073   6.270438   5.998417
    36  C    4.876636   3.888937   6.774188   7.342292   7.226616
    37  C    6.871386   5.919056   8.567102   8.972946   9.276828
    38  C    5.396102   4.464059   7.051470   7.491917   7.758741
    39  O    2.537260   1.555919   4.534416   5.051799   4.996696
    40  S    4.192512   3.377853   6.303762   7.001502   6.216087
    41  H    4.075168   3.695924   6.098631   6.718662   5.551419
    42  H    2.551321   2.287661   4.438544   5.161183   4.013801
    43  H    7.101185   6.122730   8.988789   9.344575   9.623602
    44  H    7.453899   6.493718   9.117795   9.622811   9.760509
    45  H    7.423739   6.524037   8.949592   9.276952   9.786890
    46  H    4.956227   4.069907   6.615810   6.915180   7.405503
    47  H    5.740358   4.753077   7.699360   8.312408   8.038163
    48  H    2.917544   2.396207   5.231812   5.669855   5.016778
                   11         12         13         14         15
    11  H    0.000000
    12  C    3.076670   0.000000
    13  H    2.855362   1.092530   0.000000
    14  C    3.164310   2.333478   2.965935   0.000000
    15  H    3.346740   3.047387   3.384108   1.090183   0.000000
    16  O    3.599144   1.391213   2.075788   1.446559   2.051564
    17  N    4.440918   1.483075   2.071732   3.508857   4.298534
    18  C    5.330184   2.434650   3.297256   3.776404   4.688101
    19  H    5.166629   2.548592   3.587274   3.165478   4.138341
    20  C    6.613995   3.703582   4.423965   5.117207   6.002588
    21  H    7.395591   4.553302   5.373229   5.630041   6.538240
    22  C    7.091067   4.212719   4.642977   6.021197   6.829100
    23  H    8.162665   5.293671   5.700848   7.055855   7.859057
    24  H    7.399505   5.100015   5.537456   6.986738   7.938967
    25  C    6.415497   3.721489   3.839386   5.840178   6.548732
    26  C    5.068892   2.437555   2.458099   4.670423   5.335366
    27  H    4.724009   2.607017   2.154686   4.881884   5.401515
    28  C    7.314894   4.888314   4.728658   7.093769   7.700728
    29  O    7.191327   5.018539   4.605478   7.215056   7.678418
    30  N    8.525192   6.074906   6.016053   8.251392   8.923748
    31  H    9.151373   6.855290   6.677675   9.076675   9.701522
    32  H    8.613676   6.186096   6.258621   8.334764   9.101724
    33  H    4.648472   3.388383   4.394379   2.165138   3.069343
    34  C    4.191221   4.468388   3.878718   6.320456   6.811471
    35  C    5.475241   4.160188   4.096617   6.331324   7.126659
    36  C    6.768744   5.094463   5.144728   7.272084   8.119298
    37  C    8.893642   6.984525   7.287709   8.938072   9.896896
    38  C    7.401326   5.476111   5.803944   7.438217   8.390581
    39  O    4.518527   3.280645   3.425157   5.268165   6.124064
    40  S    5.569611   4.850379   4.365503   7.041824   7.637724
    41  H    4.723698   5.353243   4.632985   7.113311   7.490161
    42  H    3.291720   3.594123   2.903859   5.367168   5.788683
    43  H    9.144679   7.547685   7.782032   9.515973  10.471545
    44  H    9.398848   7.333186   7.546274   9.389791  10.297545
    45  H    9.465228   7.456702   7.890205   9.246358  10.247105
    46  H    7.028761   5.361323   5.800246   7.127522   8.130236
    47  H    7.539815   5.944827   5.857504   8.192195   8.985749
    48  H    4.157308   4.718860   4.331542   6.395231   6.972908
                   16         17         18         19         20
    16  O    0.000000
    17  N    2.307820   0.000000
    18  C    2.749111   1.349976   0.000000
    19  H    2.469132   2.063309   1.078749   0.000000
    20  C    4.040136   2.356873   1.368512   2.163742   0.000000
    21  H    4.700432   3.329764   2.118993   2.500374   1.079888
    22  C    4.784189   2.729929   2.382360   3.387572   1.391868
    23  H    5.818793   3.811277   3.364768   4.295201   2.150625
    24  H    6.015087   3.814104   3.522539   4.346826   2.775819
    25  C    4.530116   2.360595   2.746641   3.822153   2.402296
    26  C    3.394011   1.330342   2.339589   3.280719   2.736015
    27  H    3.672092   2.075837   3.306147   4.137548   3.817793
    28  C    5.749845   3.696878   4.239463   5.310966   3.809024
    29  O    5.866335   4.089697   4.898168   5.922380   4.713215
    30  N    6.924454   4.771241   5.048097   6.121175   4.293426
    31  H    7.741332   5.629648   6.009744   7.086987   5.298637
    32  H    7.082831   4.828698   4.931221   5.972321   4.062822
    33  H    2.765410   3.917061   3.444706   2.426446   4.572572
    34  C    5.797600   4.712746   5.833476   6.375187   6.503139
    35  C    5.497031   3.528178   4.216357   4.988363   4.400030
    36  C    6.328260   4.130574   4.521123   5.395575   4.278129
    37  C    8.029530   5.804813   5.638823   6.419981   4.887915
    38  C    6.551432   4.354866   4.284402   5.067523   3.761920
    39  O    4.604295   2.885520   3.520955   4.095012   4.015729
    40  S    6.207699   4.531434   5.540906   6.323205   5.843432
    41  H    6.625831   5.674076   6.849963   7.397455   7.514561
    42  H    4.859302   4.066493   5.273526   5.741566   6.103857
    43  H    8.683187   6.493168   6.443769   7.190220   5.827953
    44  H    8.355330   6.066653   5.968686   6.852351   5.100004
    45  H    8.389329   6.241754   5.842662   6.523961   4.972188
    46  H    6.427979   4.421637   4.261458   4.854735   3.951673
    47  H    7.186580   4.978813   5.444429   6.374955   5.104574
    48  H    6.048656   5.005514   5.974361   6.408102   6.666878
                   21         22         23         24         25
    21  H    0.000000
    22  C    2.159569   0.000000
    23  H    2.497528   1.082147   0.000000
    24  H    3.194789   2.278431   2.414442   0.000000
    25  C    3.390446   1.388589   2.147203   2.730007   0.000000
    26  C    3.815469   2.383475   3.369675   3.491444   1.384363
    27  H    4.896863   3.375213   4.280592   4.269342   2.150401
    28  C    4.704694   2.553409   2.793838   3.468563   1.499426
    29  O    5.673896   3.584918   3.922478   4.577800   2.354605
    30  N    4.983421   2.909158   2.637026   3.362607   2.422305
    31  H    5.988744   3.914723   3.605657   4.213254   3.318166
    32  H    4.642309   2.749632   2.356084   2.596682   2.590504
    33  H    4.701154   5.805826   6.716013   6.486817   6.092966
    34  C    7.476425   6.198064   7.017593   5.767824   5.118205
    35  C    5.274221   3.931938   4.588705   3.014173   3.159124
    36  C    5.023739   3.557862   3.915580   2.169370   3.038535
    37  C    5.163999   4.230677   4.018177   2.137242   4.465237
    38  C    4.231312   3.250070   3.416473   1.103489   3.351666
    39  O    4.851583   3.963803   4.798671   3.235547   3.387626
    40  S    6.817414   5.205726   5.838949   4.648378   4.081463
    41  H    8.509167   7.132651   7.918320   6.734373   5.972035
    42  H    7.098352   5.928157   6.843820   5.853885   4.845355
    43  H    6.146211   5.198485   5.062570   3.055408   5.267817
    44  H    5.419762   4.186332   3.786374   2.523384   4.344842
    45  H    5.016300   4.498978   4.164433   2.452590   5.028325
    46  H    4.327822   3.811930   4.127528   1.731705   3.994081
    47  H    5.848300   4.172796   4.349870   2.911407   3.536825
    48  H    7.557485   6.504741   7.324186   5.777666   5.591522
                   26         27         28         29         30
    26  C    0.000000
    27  H    1.082350   0.000000
    28  C    2.458685   2.651995   0.000000
    29  O    2.783958   2.522012   1.207334   0.000000
    30  N    3.646714   3.962291   1.368011   2.275760   0.000000
    31  H    4.422896   4.549065   2.001671   2.462029   1.009435
    32  H    3.852154   4.313704   2.031847   3.099465   1.009948
    33  H    5.246652   5.821982   7.542943   7.990594   8.459537
    34  C    4.270746   3.577734   5.293303   5.089160   6.218017
    35  C    2.932743   2.920741   3.531204   3.969108   4.123919
    36  C    3.407076   3.638648   3.193266   3.921236   3.327644
    37  C    5.292625   5.833149   4.619112   5.646606   4.022279
    38  C    3.941725   4.512433   3.843703   4.838737   3.703103
    39  O    2.793261   2.931894   4.197495   4.652239   4.945430
    40  S    3.689079   3.114126   3.923260   3.828624   4.640284
    41  H    5.150957   4.333119   5.954449   5.578735   6.860447
    42  H    3.776256   3.030509   5.190659   4.929880   6.282847
    43  H    5.960907   6.367937   5.317732   6.228869   4.756317
    44  H    5.363176   5.857388   4.186248   5.198365   3.328386
    45  H    5.896248   6.566597   5.344971   6.451757   4.692275
    46  H    4.300362   4.882285   4.718427   5.657234   4.737624
    47  H    4.057755   4.126745   3.207983   3.811355   3.088487
    48  H    4.768076   4.264171   5.932366   5.903054   6.762404
                   31         32         33         34         35
    31  H    0.000000
    32  H    1.701867   0.000000
    33  H    9.397006   8.314766   0.000000
    34  C    6.515069   6.277111   7.291736   0.000000
    35  C    4.646122   3.866531   6.605730   2.794908   0.000000
    36  C    3.840216   2.827221   7.293532   4.051388   1.367171
    37  C    4.500003   3.057421   8.413717   6.460431   3.772859
    38  C    4.384682   2.900187   7.024847   5.288877   2.514851
    39  O    5.611194   4.675321   5.451058   2.886310   1.272324
    40  S    4.842302   4.688252   7.779437   1.800257   1.814649
    41  H    7.025079   6.997929   8.241580   1.088510   3.735782
    42  H    6.671788   6.423231   6.532563   1.087304   3.105893
    43  H    5.087027   3.855807   9.041465   6.403385   3.942628
    44  H    3.667001   2.367566   9.000853   6.775401   4.133925
    45  H    5.238382   3.687959   8.475240   7.364870   4.640378
    46  H    5.447573   3.969387   6.540943   5.259265   2.682015
    47  H    3.324983   2.657978   8.327394   4.356622   2.104973
    48  H    7.125186   6.669725   7.140559   1.088233   2.889860
                   36         37         38         39         40
    36  C    0.000000
    37  C    2.509848   0.000000
    38  C    1.493223   1.526366   0.000000
    39  O    2.358215   4.399666   2.952536   0.000000
    40  S    2.682385   5.111306   4.122201   2.675934   0.000000
    41  H    4.887111   7.277360   6.209799   3.963036   2.348958
    42  H    4.429967   6.878444   5.566393   2.886555   2.428395
    43  H    2.779369   1.090667   2.168357   4.648137   5.093742
    44  H    2.771229   1.094536   2.176358   4.940221   5.236591
    45  H    3.461076   1.090894   2.180057   5.068774   6.110177
    46  H    2.126254   2.166097   1.094077   2.718541   4.415589
    47  H    1.084417   2.643819   2.223405   3.293805   2.711441
    48  H    4.140598   6.355642   5.199550   2.749168   2.410561
                   41         42         43         44         45
    41  H    0.000000
    42  H    1.772430   0.000000
    43  H    7.136907   6.973188   0.000000
    44  H    7.521173   7.186120   1.756000   0.000000
    45  H    8.231564   7.721445   1.768691   1.763837   0.000000
    46  H    6.233596   5.524106   2.527104   3.081095   2.518349
    47  H    5.008738   4.874728   2.729187   2.565454   3.715805
    48  H    1.775039   1.775417   6.201604   6.830929   7.191858
                   46         47         48
    46  H    0.000000
    47  H    3.005489   0.000000
    48  H    4.960965   4.565946   0.000000
 Stoichiometry    C16H24N2O5S
 Framework group  C1[X(C16H24N2O5S)]
 Deg. of freedom   138
 Full point group                 C1      NOp   1
 Largest Abelian subgroup         C1      NOp   1
 Largest concise Abelian subgroup C1      NOp   1
                         Standard orientation:                         
 ---------------------------------------------------------------------
 Center     Atomic      Atomic             Coordinates (Angstroms)
 Number     Number       Type             X           Y           Z
 ---------------------------------------------------------------------
      1          6           0        4.692317   -1.879925    0.662027
      2          1           0        4.677203   -2.834429    0.137046
      3          1           0        5.705479   -1.697391    1.020787
      4          6           0        2.485498    0.505138    0.706682
      5          1           0        2.284644   -0.137479    1.575389
      6          8           0        1.982335    1.778477    0.867314
      7          1           0        0.984555    1.698725    0.998046
      8          6           0        3.989268    0.561295    0.421207
      9          1           0        4.573805    0.673386    1.339457
     10          8           0        4.249252    1.604522   -0.484109
     11          1           0        3.679696    2.342616   -0.223277
     12          6           0        2.011202   -0.219371   -0.567157
     13          1           0        1.812878    0.505398   -1.360253
     14          6           0        4.259793   -0.767715   -0.270039
     15          1           0        4.990938   -0.619290   -1.064958
     16          8           0        3.009960   -1.127690   -0.903182
     17          7           0        0.761070   -0.999805   -0.401014
     18          6           0        0.785568   -2.090667    0.393878
     19          1           0        1.738406   -2.325465    0.841838
     20          6           0       -0.340731   -2.851235    0.554544
     21          1           0       -0.303149   -3.727917    1.183969
     22          6           0       -1.507357   -2.491195   -0.113775
     23          1           0       -2.391915   -3.109929   -0.037831
     24          1           0       -2.427672   -1.388891    1.655179
     25          6           0       -1.514238   -1.358732   -0.917305
     26          6           0       -0.344368   -0.629065   -1.041614
     27          1           0       -0.305488    0.255199   -1.664548
     28          6           0       -2.670208   -0.940138   -1.775671
     29          8           0       -2.483839   -0.322895   -2.796422
     30          7           0       -3.893268   -1.400558   -1.371208
     31          1           0       -4.666857   -1.017441   -1.894411
     32          1           0       -4.045062   -1.465343   -0.374837
     33          1           0        4.033874   -1.947365    1.531407
     34          6           0       -0.320134    3.587067   -0.361236
     35          6           0       -1.626370    1.354361    0.697198
     36          6           0       -2.760233    0.649744    0.992202
     37          6           0       -4.214955   -0.654007    2.568069
     38          6           0       -2.805251   -0.422362    2.030604
     39          8           0       -0.453868    1.121053    1.132644
     40         16           0       -1.871872    2.686600   -0.510203
     41          1           0       -0.456674    4.518908   -0.907021
     42          1           0        0.513802    3.040062   -0.794327
     43          1           0       -4.606710    0.252408    3.031206
     44          1           0       -4.905764   -0.925465    1.763643
     45          1           0       -4.238434   -1.455223    3.308036
     46          1           0       -2.122045   -0.170472    2.847173
     47          1           0       -3.696453    0.995273    0.567866
     48          1           0       -0.103248    3.810200    0.681560
 ---------------------------------------------------------------------
 Rotational constants (GHZ):           0.3321883           0.1637939           0.1400814
 Leave Link  202 at Sat Aug 13 20:47:18 2022, MaxMem=  2684354560 cpu:               0.4 elap:               0.1
 (Enter /storage/apps/GAUSSIAN/G16_RevA03/g16/l301.exe)
 Standard basis: def2TZVP (5D, 7F)
 Ernie: Thresh=  0.10000D-02 Tol=  0.10000D-05 Strict=F.
 There are  1014 symmetry adapted cartesian basis functions of A   symmetry.
 There are   894 symmetry adapted basis functions of A   symmetry.
   894 basis functions,  1434 primitive gaussians,  1014 cartesian basis functions
    95 alpha electrons       95 beta electrons
       nuclear repulsion energy      2494.7911100471 Hartrees.
 IExCor= 4336 DFT=T Ex+Corr=M062X ExCW=0 ScaHFX=  0.540000
 ScaDFX=  1.000000  1.000000  1.000000  1.000000 ScalE2=  1.000000  1.000000
 IRadAn=      5 IRanWt=     -1 IRanGd=            0 ICorTp=0 IEmpDi=131
 NAtoms=   48 NActive=   48 NUniq=   48 SFac= 1.00D+00 NAtFMM=   60 NAOKFM=F Big=F
 Integral buffers will be    131072 words long.
 Raffenetti 2 integral format.
 Two-electron integral symmetry is turned on.
 R6Disp:  Grimme-D3 Dispersion energy=       -0.0042695138 Hartrees.
 Nuclear repulsion after empirical dispersion term =     2494.7868405332 Hartrees.
 Leave Link  301 at Sat Aug 13 20:47:18 2022, MaxMem=  2684354560 cpu:               1.6 elap:               0.1
 (Enter /storage/apps/GAUSSIAN/G16_RevA03/g16/l302.exe)
 NPDir=0 NMtPBC=     1 NCelOv=     1 NCel=       1 NClECP=     1 NCelD=      1
         NCelK=      1 NCelE2=     1 NClLst=     1 CellRange=     0.0.
 One-electron integrals computed using PRISM.
 One-electron integral symmetry used in STVInt
   1 Symmetry operations used in ECPInt.
 ECPInt:  NShTT=   65703 NPrTT=  200010 LenC2=   56913 LenP2D=  121179.
 LDataN:  DoStor=T MaxTD1= 6 Len=  172
 NBasis=   894 RedAO= T EigKep=  1.91D-05  NBF=   894
 NBsUse=   894 1.00D-06 EigRej= -1.00D+00 NBFU=   894
 Precomputing XC quadrature grid using
 IXCGrd= 4 IRadAn=           5 IRanWt=          -1 IRanGd=           0 AccXCQ= 0.00D+00.
 Generated NRdTot=       0 NPtTot=           0 NUsed=           0 NTot=          32
 NSgBfM=  1000  1000  1000  1000  1000 MxSgAt=    48 MxSgA2=    48.
 Leave Link  302 at Sat Aug 13 20:47:19 2022, MaxMem=  2684354560 cpu:              19.6 elap:               1.3
 (Enter /storage/apps/GAUSSIAN/G16_RevA03/g16/l303.exe)
 DipDrv:  MaxL=1.
 Leave Link  303 at Sat Aug 13 20:47:19 2022, MaxMem=  2684354560 cpu:               2.1 elap:               0.2
 (Enter /storage/apps/GAUSSIAN/G16_RevA03/g16/l401.exe)
 ExpMin= 9.52D-02 ExpMax= 6.07D+04 ExpMxC= 2.07D+03 IAcc=3 IRadAn=         5 AccDes= 0.00D+00
 Harris functional with IExCor= 1009 and IRadAn=       5 diagonalized for initial guess.
 HarFok:  IExCor= 1009 AccDes= 0.00D+00 IRadAn=         5 IDoV= 1 UseB2=F ITyADJ=14
 ICtDFT=  3500011 ScaDFX=  1.000000  1.000000  1.000000  1.000000
 FoFCou: FMM=F IPFlag=           0 FMFlag=      100000 FMFlg1=           0
         NFxFlg=           0 DoJE=T BraDBF=F KetDBF=T FulRan=T
         wScrn=  0.000000 ICntrl=       500 IOpCl=  0 I1Cent=   200000004 NGrid=           0
         NMat0=    1 NMatS0=      1 NMatT0=    0 NMatD0=    1 NMtDS0=    0 NMtDT0=    0
 Petite list used in FoFCou.
 Harris En= -1507.24528037607    
 JPrj=0 DoOrth=F DoCkMO=F.
 Leave Link  401 at Sat Aug 13 20:47:23 2022, MaxMem=  2684354560 cpu:              61.1 elap:               3.9
 (Enter /storage/apps/GAUSSIAN/G16_RevA03/g16/l502.exe)
 Integral symmetry usage will be decided dynamically.
 Closed shell SCF:
 Using DIIS extrapolation, IDIIS=  1040.
 NGot=  2684354560 LenX=  2682272944 LenY=  2681243734
 Requested convergence on RMS density matrix=1.00D-08 within 128 cycles.
 Requested convergence on MAX density matrix=1.00D-06.
 Requested convergence on             energy=1.00D-06.
 No special actions if energy rises.
 Fock matrices will be formed incrementally for  20 cycles.
 Integral accuracy reduced to 1.0D-05 until final iterations.

 Cycle   1  Pass 0  IDiag  1:
 FoFJK:  IHMeth= 1 ICntrl=       0 DoSepK=F KAlg= 0 I1Cent=           0 FoldK=F
 IRaf= 790000000 NMat=       1 IRICut=       1 DoRegI=T DoRafI=F ISym2E= 0 IDoP0=0 IntGTp=1.
 FoFCou: FMM=F IPFlag=           0 FMFlag=      100000 FMFlg1=           0
         NFxFlg=           0 DoJE=F BraDBF=F KetDBF=F FulRan=T
         wScrn=  0.000000 ICntrl=         0 IOpCl=  0 I1Cent=           0 NGrid=           0
         NMat0=    1 NMatS0=      1 NMatT0=    0 NMatD0=    1 NMtDS0=    0 NMtDT0=    0
 Symmetry not used in FoFCou.
 E= -1507.16812920457    
 DIIS: error= 1.84D-02 at cycle   1 NSaved=   1.
 NSaved= 1 IEnMin= 1 EnMin= -1507.16812920457     IErMin= 1 ErrMin= 1.84D-02
 ErrMax= 1.84D-02  0.00D+00 EMaxC= 1.00D-01 BMatC= 9.92D-01 BMatP= 9.92D-01
 IDIUse=3 WtCom= 8.16D-01 WtEn= 1.84D-01
 Coeff-Com:  0.100D+01
 Coeff-En:   0.100D+01
 Coeff:      0.100D+01
 Gap=     0.169 Goal=   None    Shift=    0.000
 GapD=    0.169 DampG=1.000 DampE=0.500 DampFc=0.5000 IDamp=-1.
 Damping current iteration by 5.00D-01
 RMSDP=3.95D-03 MaxDP=7.78D-01              OVMax= 5.37D-01

 Cycle   2  Pass 0  IDiag  1:
 RMSU=  1.98D-03    CP:  1.01D+00
 E= -1507.47656633607     Delta-E=       -0.308437131497 Rises=F Damp=T
 DIIS: error= 4.87D-03 at cycle   2 NSaved=   2.
 NSaved= 2 IEnMin= 2 EnMin= -1507.47656633607     IErMin= 2 ErrMin= 4.87D-03
 ErrMax= 4.87D-03  0.00D+00 EMaxC= 1.00D-01 BMatC= 9.53D-02 BMatP= 9.92D-01
 IDIUse=3 WtCom= 9.51D-01 WtEn= 4.87D-02
 Coeff-Com:  0.719D-02 0.993D+00
 Coeff-En:   0.114D+00 0.886D+00
 Coeff:      0.124D-01 0.988D+00
 Gap=     0.158 Goal=   None    Shift=    0.000
 RMSDP=1.35D-03 MaxDP=1.75D-01 DE=-3.08D-01 OVMax= 3.97D-01

 Cycle   3  Pass 0  IDiag  1:
 RMSU=  1.15D-03    CP:  9.98D-01  6.49D-01
 E= -1507.84199474083     Delta-E=       -0.365428404762 Rises=F Damp=F
 DIIS: error= 4.99D-03 at cycle   3 NSaved=   3.
 NSaved= 3 IEnMin= 3 EnMin= -1507.84199474083     IErMin= 2 ErrMin= 4.87D-03
 ErrMax= 4.99D-03  0.00D+00 EMaxC= 1.00D-01 BMatC= 6.57D-02 BMatP= 9.53D-02
 IDIUse=3 WtCom= 9.50D-01 WtEn= 4.99D-02
 Coeff-Com: -0.768D-01 0.477D+00 0.600D+00
 Coeff-En:   0.000D+00 0.000D+00 0.100D+01
 Coeff:     -0.730D-01 0.453D+00 0.620D+00
 Gap=     0.130 Goal=   None    Shift=    0.000
 RMSDP=5.48D-04 MaxDP=2.48D-02 DE=-3.65D-01 OVMax= 1.25D-01

 Cycle   4  Pass 0  IDiag  1:
 RMSU=  4.32D-04    CP:  1.00D+00  7.96D-01  8.54D-01
 E= -1507.90015764782     Delta-E=       -0.058162906988 Rises=F Damp=F
 DIIS: error= 1.71D-03 at cycle   4 NSaved=   4.
 NSaved= 4 IEnMin= 4 EnMin= -1507.90015764782     IErMin= 4 ErrMin= 1.71D-03
 ErrMax= 1.71D-03  0.00D+00 EMaxC= 1.00D-01 BMatC= 7.18D-03 BMatP= 6.57D-02
 IDIUse=3 WtCom= 9.83D-01 WtEn= 1.71D-02
 Coeff-Com: -0.395D-01 0.108D+00 0.282D+00 0.650D+00
 Coeff-En:   0.000D+00 0.000D+00 0.000D+00 0.100D+01
 Coeff:     -0.389D-01 0.106D+00 0.277D+00 0.656D+00
 Gap=     0.144 Goal=   None    Shift=    0.000
 RMSDP=1.93D-04 MaxDP=2.94D-02 DE=-5.82D-02 OVMax= 4.20D-02

 Cycle   5  Pass 0  IDiag  1:
 RMSU=  1.76D-04    CP:  1.00D+00  7.89D-01  9.14D-01  9.18D-01
 E= -1507.90651364271     Delta-E=       -0.006355994894 Rises=F Damp=F
 DIIS: error= 6.86D-04 at cycle   5 NSaved=   5.
 NSaved= 5 IEnMin= 5 EnMin= -1507.90651364271     IErMin= 5 ErrMin= 6.86D-04
 ErrMax= 6.86D-04  0.00D+00 EMaxC= 1.00D-01 BMatC= 6.44D-04 BMatP= 7.18D-03
 IDIUse=3 WtCom= 9.93D-01 WtEn= 6.86D-03
 Coeff-Com: -0.123D-01 0.222D-01 0.796D-01 0.304D+00 0.607D+00
 Coeff-En:   0.000D+00 0.000D+00 0.000D+00 0.000D+00 0.100D+01
 Coeff:     -0.123D-01 0.220D-01 0.790D-01 0.301D+00 0.610D+00
 Gap=     0.144 Goal=   None    Shift=    0.000
 RMSDP=6.43D-05 MaxDP=6.30D-03 DE=-6.36D-03 OVMax= 6.92D-03

 Cycle   6  Pass 0  IDiag  1:
 RMSU=  5.92D-05    CP:  1.00D+00  7.88D-01  9.07D-01  9.70D-01  9.59D-01
 E= -1507.90714410254     Delta-E=       -0.000630459826 Rises=F Damp=F
 DIIS: error= 1.78D-04 at cycle   6 NSaved=   6.
 NSaved= 6 IEnMin= 6 EnMin= -1507.90714410254     IErMin= 6 ErrMin= 1.78D-04
 ErrMax= 1.78D-04  0.00D+00 EMaxC= 1.00D-01 BMatC= 7.54D-05 BMatP= 6.44D-04
 IDIUse=3 WtCom= 9.98D-01 WtEn= 1.78D-03
 Coeff-Com: -0.116D-03-0.387D-02-0.833D-02 0.439D-01 0.279D+00 0.690D+00
 Coeff-En:   0.000D+00 0.000D+00 0.000D+00 0.000D+00 0.000D+00 0.100D+01
 Coeff:     -0.116D-03-0.386D-02-0.832D-02 0.438D-01 0.278D+00 0.690D+00
 Gap=     0.145 Goal=   None    Shift=    0.000
 RMSDP=4.31D-05 MaxDP=6.42D-03 DE=-6.30D-04 OVMax= 6.61D-03

 Cycle   7  Pass 0  IDiag  1:
 RMSU=  2.20D-05    CP:  1.00D+00  7.90D-01  9.13D-01  1.00D+00  1.15D+00
                    CP:  1.06D+00
 E= -1507.90723884276     Delta-E=       -0.000094740219 Rises=F Damp=F
 DIIS: error= 6.57D-05 at cycle   7 NSaved=   7.
 NSaved= 7 IEnMin= 7 EnMin= -1507.90723884276     IErMin= 7 ErrMin= 6.57D-05
 ErrMax= 6.57D-05  0.00D+00 EMaxC= 1.00D-01 BMatC= 8.71D-06 BMatP= 7.54D-05
 IDIUse=1 WtCom= 1.00D+00 WtEn= 0.00D+00
 Coeff-Com:  0.164D-02-0.452D-02-0.160D-01-0.229D-01 0.340D-01 0.274D+00
 Coeff-Com:  0.734D+00
 Coeff:      0.164D-02-0.452D-02-0.160D-01-0.229D-01 0.340D-01 0.274D+00
 Coeff:      0.734D+00
 Gap=     0.145 Goal=   None    Shift=    0.000
 RMSDP=1.96D-05 MaxDP=2.09D-03 DE=-9.47D-05 OVMax= 3.64D-03

 Cycle   8  Pass 0  IDiag  1:
 RMSU=  1.19D-05    CP:  1.00D+00  7.89D-01  9.12D-01  1.01D+00  1.22D+00
                    CP:  1.16D+00  1.23D+00
 E= -1507.90724855488     Delta-E=       -0.000009712128 Rises=F Damp=F
 DIIS: error= 2.72D-05 at cycle   8 NSaved=   8.
 NSaved= 8 IEnMin= 8 EnMin= -1507.90724855488     IErMin= 8 ErrMin= 2.72D-05
 ErrMax= 2.72D-05  0.00D+00 EMaxC= 1.00D-01 BMatC= 2.29D-06 BMatP= 8.71D-06
 IDIUse=1 WtCom= 1.00D+00 WtEn= 0.00D+00
 Coeff-Com:  0.841D-03-0.157D-02-0.779D-02-0.192D-01-0.311D-01 0.201D-01
 Coeff-Com:  0.367D+00 0.672D+00
 Coeff:      0.841D-03-0.157D-02-0.779D-02-0.192D-01-0.311D-01 0.201D-01
 Coeff:      0.367D+00 0.672D+00
 Gap=     0.145 Goal=   None    Shift=    0.000
 RMSDP=1.62D-05 MaxDP=1.29D-03 DE=-9.71D-06 OVMax= 2.36D-03

 Cycle   9  Pass 0  IDiag  1:
 RMSU=  1.18D-05    CP:  1.00D+00  7.88D-01  9.11D-01  1.02D+00  1.23D+00
                    CP:  1.24D+00  1.45D+00  1.67D+00
 E= -1507.90724759040     Delta-E=        0.000000964480 Rises=F Damp=F
 DIIS: error= 1.80D-05 at cycle   9 NSaved=   9.
 NSaved= 9 IEnMin= 8 EnMin= -1507.90724855488     IErMin= 9 ErrMin= 1.80D-05
 ErrMax= 1.80D-05  0.00D+00 EMaxC= 1.00D-01 BMatC= 5.67D-07 BMatP= 2.29D-06
 IDIUse=1 WtCom= 1.00D+00 WtEn= 0.00D+00
 Coeff-Com:  0.257D-03-0.337D-03-0.274D-02-0.761D-02-0.220D-01-0.230D-01
 Coeff-Com:  0.875D-01 0.351D+00 0.617D+00
 Coeff:      0.257D-03-0.337D-03-0.274D-02-0.761D-02-0.220D-01-0.230D-01
 Coeff:      0.875D-01 0.351D+00 0.617D+00
 Gap=     0.144 Goal=   None    Shift=    0.000
 RMSDP=1.94D-05 MaxDP=1.84D-03 DE= 9.64D-07 OVMax= 1.04D-03

 Cycle  10  Pass 0  IDiag  1:
 RMSU=  8.42D-06    CP:  1.00D+00  7.87D-01  9.10D-01  1.02D+00  1.23D+00
                    CP:  1.30D+00  1.61D+00  2.41D+00  2.19D+00
 E= -1507.90724557673     Delta-E=        0.000002013673 Rises=F Damp=F
 DIIS: error= 2.62D-05 at cycle  10 NSaved=  10.
 NSaved=10 IEnMin= 8 EnMin= -1507.90724855488     IErMin= 9 ErrMin= 1.80D-05
 ErrMax= 2.62D-05  0.00D+00 EMaxC= 1.00D-01 BMatC= 4.62D-07 BMatP= 5.67D-07
 IDIUse=1 WtCom= 1.00D+00 WtEn= 0.00D+00
 Coeff-Com:  0.239D-03-0.313D-03-0.259D-02-0.709D-02-0.206D-01-0.215D-01
 Coeff-Com:  0.805D-01 0.327D+00 0.576D+00 0.688D-01
 Coeff:      0.239D-03-0.313D-03-0.259D-02-0.709D-02-0.206D-01-0.215D-01
 Coeff:      0.805D-01 0.327D+00 0.576D+00 0.688D-01
 Gap=     0.144 Goal=   None    Shift=    0.000
 RMSDP=3.20D-06 MaxDP=4.00D-04 DE= 2.01D-06 OVMax= 4.72D-05

 Initial convergence to 1.0D-05 achieved.  Increase integral accuracy.
 Cycle  11  Pass 1  IDiag  1:
 E= -1507.90713732382     Delta-E=        0.000108252910 Rises=F Damp=F
 DIIS: error= 3.31D-04 at cycle   1 NSaved=   1.
 NSaved= 1 IEnMin= 1 EnMin= -1507.90713732382     IErMin= 1 ErrMin= 3.31D-04
 ErrMax= 3.31D-04  0.00D+00 EMaxC= 1.00D-01 BMatC= 9.65D-05 BMatP= 9.65D-05
 IDIUse=3 WtCom= 9.97D-01 WtEn= 3.31D-03
 Coeff-Com:  0.100D+01
 Coeff-En:   0.100D+01
 Coeff:      0.100D+01
 Gap=     0.144 Goal=   None    Shift=    0.000
 RMSDP=3.20D-06 MaxDP=4.00D-04 DE= 1.08D-04 OVMax= 1.07D-03

 Cycle  12  Pass 1  IDiag  1:
 RMSU=  5.79D-04    CP:  9.91D-01
 E= -1507.90719978327     Delta-E=       -0.000062459444 Rises=F Damp=F
 DIIS: error= 1.07D-05 at cycle   2 NSaved=   2.
 NSaved= 2 IEnMin= 2 EnMin= -1507.90719978327     IErMin= 2 ErrMin= 1.07D-05
 ErrMax= 1.07D-05  0.00D+00 EMaxC= 1.00D-01 BMatC= 1.36D-07 BMatP= 9.65D-05
 IDIUse=1 WtCom= 1.00D+00 WtEn= 0.00D+00
 Coeff-Com: -0.156D-01 0.102D+01
 Coeff:     -0.156D-01 0.102D+01
 Gap=     0.144 Goal=   None    Shift=    0.000
 RMSDP=2.23D-05 MaxDP=2.07D-03 DE=-6.25D-05 OVMax= 4.81D-04

 Cycle  13  Pass 1  IDiag  1:
 RMSU=  8.87D-06    CP:  9.91D-01  1.04D+00
 E= -1507.90719981256     Delta-E=       -0.000000029299 Rises=F Damp=F
 DIIS: error= 1.11D-05 at cycle   3 NSaved=   3.
 NSaved= 3 IEnMin= 3 EnMin= -1507.90719981256     IErMin= 2 ErrMin= 1.07D-05
 ErrMax= 1.11D-05  0.00D+00 EMaxC= 1.00D-01 BMatC= 2.15D-07 BMatP= 1.36D-07
 IDIUse=1 WtCom= 1.00D+00 WtEn= 0.00D+00
 Coeff-Com: -0.103D-01 0.598D+00 0.413D+00
 Coeff:     -0.103D-01 0.598D+00 0.413D+00
 Gap=     0.144 Goal=   None    Shift=    0.000
 RMSDP=9.18D-07 MaxDP=6.18D-05 DE=-2.93D-08 OVMax= 8.67D-05

 Cycle  14  Pass 1  IDiag  1:
 RMSU=  8.54D-07    CP:  9.91D-01  1.04D+00  1.01D+00
 E= -1507.90720000975     Delta-E=       -0.000000197188 Rises=F Damp=F
 DIIS: error= 1.60D-06 at cycle   4 NSaved=   4.
 NSaved= 4 IEnMin= 4 EnMin= -1507.90720000975     IErMin= 4 ErrMin= 1.60D-06
 ErrMax= 1.60D-06  0.00D+00 EMaxC= 1.00D-01 BMatC= 2.49D-09 BMatP= 1.36D-07
 IDIUse=1 WtCom= 1.00D+00 WtEn= 0.00D+00
 Coeff-Com: -0.128D-03-0.478D-02 0.463D-01 0.959D+00
 Coeff:     -0.128D-03-0.478D-02 0.463D-01 0.959D+00
 Gap=     0.144 Goal=   None    Shift=    0.000
 RMSDP=6.80D-07 MaxDP=7.97D-05 DE=-1.97D-07 OVMax= 1.30D-04

 Cycle  15  Pass 1  IDiag  1:
 RMSU=  3.69D-07    CP:  9.91D-01  1.04D+00  1.06D+00  9.83D-01
 E= -1507.90720001990     Delta-E=       -0.000000010153 Rises=F Damp=F
 DIIS: error= 9.63D-07 at cycle   5 NSaved=   5.
 NSaved= 5 IEnMin= 5 EnMin= -1507.90720001990     IErMin= 5 ErrMin= 9.63D-07
 ErrMax= 9.63D-07  0.00D+00 EMaxC= 1.00D-01 BMatC= 1.67D-09 BMatP= 2.49D-09
 IDIUse=1 WtCom= 1.00D+00 WtEn= 0.00D+00
 Coeff-Com:  0.101D-02-0.649D-01-0.308D-01 0.498D+00 0.597D+00
 Coeff:      0.101D-02-0.649D-01-0.308D-01 0.498D+00 0.597D+00
 Gap=     0.144 Goal=   None    Shift=    0.000
 RMSDP=1.85D-07 MaxDP=2.16D-05 DE=-1.02D-08 OVMax= 5.99D-05

 Cycle  16  Pass 1  IDiag  1:
 RMSU=  1.04D-07    CP:  9.91D-01  1.04D+00  1.07D+00  9.93D-01  1.31D+00
 E= -1507.90720002336     Delta-E=       -0.000000003451 Rises=F Damp=F
 DIIS: error= 4.94D-07 at cycle   6 NSaved=   6.
 NSaved= 6 IEnMin= 6 EnMin= -1507.90720002336     IErMin= 6 ErrMin= 4.94D-07
 ErrMax= 4.94D-07  0.00D+00 EMaxC= 1.00D-01 BMatC= 2.95D-10 BMatP= 1.67D-09
 IDIUse=1 WtCom= 1.00D+00 WtEn= 0.00D+00
 Coeff-Com:  0.400D-03-0.225D-01-0.323D-01-0.664D-01 0.238D+00 0.882D+00
 Coeff:      0.400D-03-0.225D-01-0.323D-01-0.664D-01 0.238D+00 0.882D+00
 Gap=     0.144 Goal=   None    Shift=    0.000
 RMSDP=1.40D-07 MaxDP=1.63D-05 DE=-3.45D-09 OVMax= 4.84D-05

 Cycle  17  Pass 1  IDiag  1:
 RMSU=  5.74D-08    CP:  9.91D-01  1.04D+00  1.07D+00  1.00D+00  1.63D+00
                    CP:  1.26D+00
 E= -1507.90720002452     Delta-E=       -0.000000001161 Rises=F Damp=F
 DIIS: error= 1.72D-07 at cycle   7 NSaved=   7.
 NSaved= 7 IEnMin= 7 EnMin= -1507.90720002452     IErMin= 7 ErrMin= 1.72D-07
 ErrMax= 1.72D-07  0.00D+00 EMaxC= 1.00D-01 BMatC= 8.32D-11 BMatP= 2.95D-10
 IDIUse=1 WtCom= 1.00D+00 WtEn= 0.00D+00
 Coeff-Com: -0.898D-04 0.766D-02-0.123D-01-0.193D+00-0.217D-01 0.519D+00
 Coeff-Com:  0.701D+00
 Coeff:     -0.898D-04 0.766D-02-0.123D-01-0.193D+00-0.217D-01 0.519D+00
 Coeff:      0.701D+00
 Gap=     0.144 Goal=   None    Shift=    0.000
 RMSDP=7.95D-08 MaxDP=1.08D-05 DE=-1.16D-09 OVMax= 2.65D-05

 Cycle  18  Pass 1  IDiag  1:
 RMSU=  2.40D-08    CP:  9.91D-01  1.04D+00  1.07D+00  9.98D-01  1.80D+00
                    CP:  1.50D+00  1.37D+00
 E= -1507.90720002476     Delta-E=       -0.000000000247 Rises=F Damp=F
 DIIS: error= 3.78D-08 at cycle   8 NSaved=   8.
 NSaved= 8 IEnMin= 8 EnMin= -1507.90720002476     IErMin= 8 ErrMin= 3.78D-08
 ErrMax= 3.78D-08  0.00D+00 EMaxC= 1.00D-01 BMatC= 3.32D-12 BMatP= 8.32D-11
 IDIUse=1 WtCom= 1.00D+00 WtEn= 0.00D+00
 Coeff-Com: -0.588D-04 0.409D-02-0.160D-02-0.511D-01-0.220D-01 0.813D-01
 Coeff-Com:  0.219D+00 0.770D+00
 Coeff:     -0.588D-04 0.409D-02-0.160D-02-0.511D-01-0.220D-01 0.813D-01
 Coeff:      0.219D+00 0.770D+00
 Gap=     0.144 Goal=   None    Shift=    0.000
 RMSDP=1.25D-08 MaxDP=9.40D-07 DE=-2.47D-10 OVMax= 4.08D-06

 Cycle  19  Pass 1  IDiag  1:
 RMSU=  4.63D-09    CP:  9.91D-01  1.04D+00  1.07D+00  9.97D-01  1.82D+00
                    CP:  1.54D+00  1.50D+00  1.05D+00
 E= -1507.90720002477     Delta-E=       -0.000000000006 Rises=F Damp=F
 DIIS: error= 1.78D-08 at cycle   9 NSaved=   9.
 NSaved= 9 IEnMin= 9 EnMin= -1507.90720002477     IErMin= 9 ErrMin= 1.78D-08
 ErrMax= 1.78D-08  0.00D+00 EMaxC= 1.00D-01 BMatC= 5.28D-13 BMatP= 3.32D-12
 IDIUse=1 WtCom= 1.00D+00 WtEn= 0.00D+00
 Coeff-Com: -0.917D-05 0.440D-03 0.990D-03 0.724D-02-0.546D-02-0.460D-01
 Coeff-Com: -0.107D-01 0.285D+00 0.769D+00
 Coeff:     -0.917D-05 0.440D-03 0.990D-03 0.724D-02-0.546D-02-0.460D-01
 Coeff:     -0.107D-01 0.285D+00 0.769D+00
 Gap=     0.144 Goal=   None    Shift=    0.000
 RMSDP=5.63D-09 MaxDP=8.00D-07 DE=-6.37D-12 OVMax= 1.65D-06

 SCF Done:  E(RM062X) =  -1507.90720002     A.U. after   19 cycles
            NFock= 19  Conv=0.56D-08     -V/T= 2.0037
 KE= 1.502288752674D+03 PE=-8.527015047769D+03 EE= 3.022032254537D+03
 Leave Link  502 at Sat Aug 13 20:56:24 2022, MaxMem=  2684354560 cpu:            8642.4 elap:             541.0
 (Enter /storage/apps/GAUSSIAN/G16_RevA03/g16/l601.exe)
 Copying SCF densities to generalized density rwf, IOpCl= 0 IROHF=0.

 **********************************************************************

            Population analysis using the SCF density.

 **********************************************************************

 Orbital symmetries:
       Occupied  (A) (A) (A) (A) (A) (A) (A) (A) (A) (A) (A) (A)
                 (A) (A) (A) (A) (A) (A) (A) (A) (A) (A) (A) (A)
                 (A) (A) (A) (A) (A) (A) (A) (A) (A) (A) (A) (A)
                 (A) (A) (A) (A) (A) (A) (A) (A) (A) (A) (A) (A)
                 (A) (A) (A) (A) (A) (A) (A) (A) (A) (A) (A) (A)
                 (A) (A) (A) (A) (A) (A) (A) (A) (A) (A) (A) (A)
                 (A) (A) (A) (A) (A) (A) (A) (A) (A) (A) (A) (A)
                 (A) (A) (A) (A) (A) (A) (A) (A) (A) (A) (A)
       Virtual   (A) (A) (A) (A) (A) (A) (A) (A) (A) (A) (A) (A)
                 (A) (A) (A) (A) (A) (A) (A) (A) (A) (A) (A) (A)
                 (A) (A) (A) (A) (A) (A) (A) (A) (A) (A) (A) (A)
                 (A) (A) (A) (A) (A) (A) (A) (A) (A) (A) (A) (A)
                 (A) (A) (A) (A) (A) (A) (A) (A) (A) (A) (A) (A)
                 (A) (A) (A) (A) (A) (A) (A) (A) (A) (A) (A) (A)
                 (A) (A) (A) (A) (A) (A) (A) (A) (A) (A) (A) (A)
                 (A) (A) (A) (A) (A) (A) (A) (A) (A) (A) (A) (A)
                 (A) (A) (A) (A) (A) (A) (A) (A) (A) (A) (A) (A)
                 (A) (A) (A) (A) (A) (A) (A) (A) (A) (A) (A) (A)
                 (A) (A) (A) (A) (A) (A) (A) (A) (A) (A) (A) (A)
                 (A) (A) (A) (A) (A) (A) (A) (A) (A) (A) (A) (A)
                 (A) (A) (A) (A) (A) (A) (A) (A) (A) (A) (A) (A)
                 (A) (A) (A) (A) (A) (A) (A) (A) (A) (A) (A) (A)
                 (A) (A) (A) (A) (A) (A) (A) (A) (A) (A) (A) (A)
                 (A) (A) (A) (A) (A) (A) (A) (A) (A) (A) (A) (A)
                 (A) (A) (A) (A) (A) (A) (A) (A) (A) (A) (A) (A)
                 (A) (A) (A) (A) (A) (A) (A) (A) (A) (A) (A) (A)
                 (A) (A) (A) (A) (A) (A) (A) (A) (A) (A) (A) (A)
                 (A) (A) (A) (A) (A) (A) (A) (A) (A) (A) (A) (A)
                 (A) (A) (A) (A) (A) (A) (A) (A) (A) (A) (A) (A)
                 (A) (A) (A) (A) (A) (A) (A) (A) (A) (A) (A) (A)
                 (A) (A) (A) (A) (A) (A) (A) (A) (A) (A) (A) (A)
                 (A) (A) (A) (A) (A) (A) (A) (A) (A) (A) (A) (A)
                 (A) (A) (A) (A) (A) (A) (A) (A) (A) (A) (A) (A)
                 (A) (A) (A) (A) (A) (A) (A) (A) (A) (A) (A) (A)
                 (A) (A) (A) (A) (A) (A) (A) (A) (A) (A) (A) (A)
                 (A) (A) (A) (A) (A) (A) (A) (A) (A) (A) (A) (A)
                 (A) (A) (A) (A) (A) (A) (A) (A) (A) (A) (A) (A)
                 (A) (A) (A) (A) (A) (A) (A) (A) (A) (A) (A) (A)
                 (A) (A) (A) (A) (A) (A) (A) (A) (A) (A) (A) (A)
                 (A) (A) (A) (A) (A) (A) (A) (A) (A) (A) (A) (A)
                 (A) (A) (A) (A) (A) (A) (A) (A) (A) (A) (A) (A)
                 (A) (A) (A) (A) (A) (A) (A) (A) (A) (A) (A) (A)
                 (A) (A) (A) (A) (A) (A) (A) (A) (A) (A) (A) (A)
                 (A) (A) (A) (A) (A) (A) (A) (A) (A) (A) (A) (A)
                 (A) (A) (A) (A) (A) (A) (A) (A) (A) (A) (A) (A)
                 (A) (A) (A) (A) (A) (A) (A) (A) (A) (A) (A) (A)
                 (A) (A) (A) (A) (A) (A) (A) (A) (A) (A) (A) (A)
                 (A) (A) (A) (A) (A) (A) (A) (A) (A) (A) (A) (A)
                 (A) (A) (A) (A) (A) (A) (A) (A) (A) (A) (A) (A)
                 (A) (A) (A) (A) (A) (A) (A) (A) (A) (A) (A) (A)
                 (A) (A) (A) (A) (A) (A) (A) (A) (A) (A) (A) (A)
                 (A) (A) (A) (A) (A) (A) (A) (A) (A) (A) (A) (A)
                 (A) (A) (A) (A) (A) (A) (A) (A) (A) (A) (A) (A)
                 (A) (A) (A) (A) (A) (A) (A) (A) (A) (A) (A) (A)
                 (A) (A) (A) (A) (A) (A) (A) (A) (A) (A) (A) (A)
                 (A) (A) (A) (A) (A) (A) (A) (A) (A) (A) (A) (A)
                 (A) (A) (A) (A) (A) (A) (A) (A) (A) (A) (A) (A)
                 (A) (A) (A) (A) (A) (A) (A) (A) (A) (A) (A) (A)
                 (A) (A) (A) (A) (A) (A) (A) (A) (A) (A) (A) (A)
                 (A) (A) (A) (A) (A) (A) (A) (A) (A) (A) (A) (A)
                 (A) (A) (A) (A) (A) (A) (A) (A) (A) (A) (A) (A)
                 (A) (A) (A) (A) (A) (A) (A) (A) (A) (A) (A) (A)
                 (A) (A) (A) (A) (A) (A) (A) (A) (A) (A) (A) (A)
                 (A) (A) (A) (A) (A) (A) (A) (A) (A) (A) (A) (A)
                 (A) (A) (A) (A) (A) (A) (A) (A) (A) (A) (A) (A)
                 (A) (A) (A) (A) (A) (A) (A) (A) (A) (A) (A) (A)
                 (A) (A) (A) (A) (A) (A) (A) (A) (A) (A) (A) (A)
                 (A) (A) (A) (A) (A) (A) (A) (A) (A) (A) (A) (A)
                 (A) (A) (A) (A) (A) (A) (A) (A) (A) (A) (A) (A)
                 (A) (A) (A) (A) (A) (A) (A) (A) (A) (A) (A) (A)
                 (A) (A) (A) (A) (A) (A) (A) (A) (A) (A) (A) (A)
                 (A) (A) (A) (A) (A) (A) (A) (A) (A) (A) (A) (A)
                 (A) (A) (A) (A) (A) (A) (A) (A) (A) (A) (A) (A)
                 (A) (A) (A) (A) (A) (A) (A) (A) (A) (A) (A) (A)
                 (A) (A) (A) (A) (A) (A) (A)
 The electronic state is 1-A.
 Alpha  occ. eigenvalues --  -89.86594 -19.66645 -19.63218 -19.61464 -19.61408
 Alpha  occ. eigenvalues --  -19.56707 -14.88322 -14.77826 -10.66697 -10.66396
 Alpha  occ. eigenvalues --  -10.64406 -10.63919 -10.61257 -10.61104 -10.60936
 Alpha  occ. eigenvalues --  -10.60473 -10.60076 -10.59976 -10.58656 -10.55245
 Alpha  occ. eigenvalues --  -10.53557 -10.52138 -10.51974 -10.48729  -8.22493
 Alpha  occ. eigenvalues --   -6.14462  -6.14238  -6.13965  -1.22655  -1.18691
 Alpha  occ. eigenvalues --   -1.17072  -1.15863  -1.13831  -1.10037  -1.03279
 Alpha  occ. eigenvalues --   -0.98016  -0.93502  -0.90777  -0.88039  -0.87391
 Alpha  occ. eigenvalues --   -0.85216  -0.81611  -0.80934  -0.78822  -0.77039
 Alpha  occ. eigenvalues --   -0.73293  -0.71515  -0.70028  -0.69176  -0.67208
 Alpha  occ. eigenvalues --   -0.65915  -0.64058  -0.62929  -0.62579  -0.61365
 Alpha  occ. eigenvalues --   -0.60088  -0.58307  -0.58032  -0.57450  -0.56120
 Alpha  occ. eigenvalues --   -0.56087  -0.54356  -0.53406  -0.52551  -0.51926
 Alpha  occ. eigenvalues --   -0.51581  -0.50917  -0.50149  -0.49978  -0.48989
 Alpha  occ. eigenvalues --   -0.48700  -0.48059  -0.47831  -0.47228  -0.45938
 Alpha  occ. eigenvalues --   -0.45716  -0.45594  -0.44665  -0.43405  -0.43271
 Alpha  occ. eigenvalues --   -0.42456  -0.40283  -0.39623  -0.38453  -0.38189
 Alpha  occ. eigenvalues --   -0.37797  -0.37296  -0.36853  -0.36681  -0.36224
 Alpha  occ. eigenvalues --   -0.34967  -0.34446  -0.29120  -0.27805  -0.21211
 Alpha virt. eigenvalues --   -0.06779  -0.04230   0.03835   0.04655   0.05029
 Alpha virt. eigenvalues --    0.06325   0.07101   0.07294   0.08230   0.08761
 Alpha virt. eigenvalues --    0.09352   0.09884   0.10366   0.10938   0.11319
 Alpha virt. eigenvalues --    0.11377   0.11867   0.12512   0.13042   0.13197
 Alpha virt. eigenvalues --    0.13616   0.14001   0.14186   0.14495   0.15149
 Alpha virt. eigenvalues --    0.15429   0.15553   0.16092   0.16549   0.16636
 Alpha virt. eigenvalues --    0.17354   0.17690   0.18600   0.18824   0.19418
 Alpha virt. eigenvalues --    0.20177   0.20720   0.21409   0.21518   0.22413
 Alpha virt. eigenvalues --    0.22494   0.22873   0.23348   0.23811   0.24315
 Alpha virt. eigenvalues --    0.24589   0.25086   0.25602   0.25842   0.25989
 Alpha virt. eigenvalues --    0.26656   0.27073   0.27838   0.28022   0.28431
 Alpha virt. eigenvalues --    0.29423   0.29484   0.29861   0.30432   0.31090
 Alpha virt. eigenvalues --    0.31606   0.31971   0.32555   0.33074   0.33819
 Alpha virt. eigenvalues --    0.34300   0.34604   0.34756   0.35846   0.36074
 Alpha virt. eigenvalues --    0.36499   0.37035   0.37420   0.37730   0.38435
 Alpha virt. eigenvalues --    0.38498   0.38830   0.39127   0.39619   0.39929
 Alpha virt. eigenvalues --    0.40250   0.40697   0.41069   0.41814   0.42067
 Alpha virt. eigenvalues --    0.42820   0.42941   0.43047   0.43740   0.44069
 Alpha virt. eigenvalues --    0.44280   0.44732   0.44863   0.45426   0.45741
 Alpha virt. eigenvalues --    0.45974   0.46073   0.46577   0.46882   0.47374
 Alpha virt. eigenvalues --    0.47915   0.47978   0.48480   0.48669   0.48986
 Alpha virt. eigenvalues --    0.49506   0.49694   0.50096   0.50214   0.50726
 Alpha virt. eigenvalues --    0.51263   0.51916   0.52064   0.52831   0.52969
 Alpha virt. eigenvalues --    0.53591   0.53869   0.54040   0.54374   0.55280
 Alpha virt. eigenvalues --    0.55592   0.55769   0.56171   0.56339   0.57254
 Alpha virt. eigenvalues --    0.57474   0.58652   0.58978   0.59348   0.59977
 Alpha virt. eigenvalues --    0.60641   0.60854   0.61501   0.61986   0.62150
 Alpha virt. eigenvalues --    0.62825   0.63401   0.63989   0.64567   0.65197
 Alpha virt. eigenvalues --    0.65507   0.66254   0.66681   0.66881   0.67160
 Alpha virt. eigenvalues --    0.67513   0.68082   0.68461   0.69696   0.70436
 Alpha virt. eigenvalues --    0.70953   0.71645   0.71960   0.72737   0.72907
 Alpha virt. eigenvalues --    0.73963   0.74882   0.74987   0.75718   0.76447
 Alpha virt. eigenvalues --    0.77288   0.78277   0.79228   0.79699   0.80480
 Alpha virt. eigenvalues --    0.80961   0.81304   0.82596   0.83300   0.83548
 Alpha virt. eigenvalues --    0.84357   0.85841   0.86732   0.86954   0.87265
 Alpha virt. eigenvalues --    0.87881   0.88652   0.89645   0.90023   0.90421
 Alpha virt. eigenvalues --    0.90460   0.90984   0.91797   0.92395   0.92944
 Alpha virt. eigenvalues --    0.93760   0.94072   0.94793   0.95503   0.96292
 Alpha virt. eigenvalues --    0.96852   0.97119   0.97426   0.98673   0.99708
 Alpha virt. eigenvalues --    1.00144   1.00740   1.01456   1.01772   1.02924
 Alpha virt. eigenvalues --    1.03415   1.03778   1.04584   1.05672   1.06565
 Alpha virt. eigenvalues --    1.06985   1.07897   1.08231   1.08779   1.10017
 Alpha virt. eigenvalues --    1.10514   1.11265   1.12165   1.12594   1.13368
 Alpha virt. eigenvalues --    1.14161   1.15032   1.15232   1.16214   1.17256
 Alpha virt. eigenvalues --    1.17769   1.18459   1.18811   1.19137   1.20388
 Alpha virt. eigenvalues --    1.21103   1.21185   1.22735   1.23281   1.24623
 Alpha virt. eigenvalues --    1.25186   1.25539   1.25820   1.27033   1.27800
 Alpha virt. eigenvalues --    1.28135   1.28796   1.29444   1.29518   1.30774
 Alpha virt. eigenvalues --    1.31865   1.31909   1.33551   1.33809   1.34389
 Alpha virt. eigenvalues --    1.34707   1.36071   1.36905   1.39092   1.39698
 Alpha virt. eigenvalues --    1.40034   1.41241   1.42394   1.42526   1.43569
 Alpha virt. eigenvalues --    1.45121   1.45437   1.46369   1.47308   1.49465
 Alpha virt. eigenvalues --    1.50196   1.50930   1.52386   1.52764   1.53552
 Alpha virt. eigenvalues --    1.53709   1.54682   1.54977   1.55093   1.55997
 Alpha virt. eigenvalues --    1.56403   1.57119   1.57274   1.58041   1.58672
 Alpha virt. eigenvalues --    1.59173   1.59369   1.60205   1.60313   1.60613
 Alpha virt. eigenvalues --    1.61139   1.61259   1.62514   1.62925   1.63156
 Alpha virt. eigenvalues --    1.63447   1.63729   1.64204   1.64434   1.65085
 Alpha virt. eigenvalues --    1.65881   1.66728   1.67113   1.68061   1.68655
 Alpha virt. eigenvalues --    1.68800   1.69992   1.70987   1.71398   1.71932
 Alpha virt. eigenvalues --    1.72321   1.72776   1.73347   1.74234   1.74398
 Alpha virt. eigenvalues --    1.75701   1.76413   1.76862   1.77355   1.77816
 Alpha virt. eigenvalues --    1.78112   1.78931   1.79344   1.80391   1.81020
 Alpha virt. eigenvalues --    1.81975   1.82535   1.83657   1.84362   1.85650
 Alpha virt. eigenvalues --    1.85853   1.86201   1.87055   1.87924   1.88833
 Alpha virt. eigenvalues --    1.89511   1.89867   1.90139   1.91190   1.91608
 Alpha virt. eigenvalues --    1.92494   1.92751   1.93678   1.93851   1.94482
 Alpha virt. eigenvalues --    1.95297   1.95729   1.96758   1.97327   1.97778
 Alpha virt. eigenvalues --    1.99067   1.99527   2.00059   2.01656   2.02295
 Alpha virt. eigenvalues --    2.02767   2.03560   2.04137   2.04716   2.05097
 Alpha virt. eigenvalues --    2.05612   2.06112   2.07295   2.07541   2.09033
 Alpha virt. eigenvalues --    2.09224   2.10371   2.11031   2.12687   2.14001
 Alpha virt. eigenvalues --    2.14438   2.14698   2.15940   2.16274   2.17386
 Alpha virt. eigenvalues --    2.17728   2.17990   2.18015   2.19183   2.19904
 Alpha virt. eigenvalues --    2.21033   2.21088   2.21769   2.22404   2.22771
 Alpha virt. eigenvalues --    2.23259   2.23730   2.24888   2.25236   2.26179
 Alpha virt. eigenvalues --    2.26605   2.27640   2.28502   2.29143   2.30180
 Alpha virt. eigenvalues --    2.30293   2.32023   2.32710   2.33591   2.33896
 Alpha virt. eigenvalues --    2.34455   2.35088   2.35331   2.36178   2.36433
 Alpha virt. eigenvalues --    2.37552   2.37821   2.38137   2.38696   2.39703
 Alpha virt. eigenvalues --    2.40514   2.41034   2.41774   2.42864   2.43739
 Alpha virt. eigenvalues --    2.44480   2.44972   2.46010   2.46770   2.47300
 Alpha virt. eigenvalues --    2.47792   2.48679   2.49895   2.51121   2.52153
 Alpha virt. eigenvalues --    2.52787   2.53664   2.54282   2.54844   2.56076
 Alpha virt. eigenvalues --    2.56684   2.57501   2.58268   2.58496   2.58617
 Alpha virt. eigenvalues --    2.59916   2.60298   2.60389   2.60594   2.61826
 Alpha virt. eigenvalues --    2.61958   2.62589   2.63019   2.64176   2.64738
 Alpha virt. eigenvalues --    2.65873   2.66334   2.66681   2.67261   2.67767
 Alpha virt. eigenvalues --    2.68310   2.68933   2.69302   2.69829   2.70388
 Alpha virt. eigenvalues --    2.71617   2.71777   2.72653   2.73388   2.73778
 Alpha virt. eigenvalues --    2.74230   2.75392   2.76091   2.76556   2.77578
 Alpha virt. eigenvalues --    2.79345   2.79584   2.80377   2.80672   2.81087
 Alpha virt. eigenvalues --    2.82080   2.82571   2.82888   2.83444   2.83995
 Alpha virt. eigenvalues --    2.85179   2.85677   2.85788   2.86663   2.87632
 Alpha virt. eigenvalues --    2.88935   2.89142   2.89763   2.90435   2.92058
 Alpha virt. eigenvalues --    2.92670   2.93193   2.93861   2.94556   2.94864
 Alpha virt. eigenvalues --    2.96343   2.97429   2.97794   2.98540   2.99320
 Alpha virt. eigenvalues --    3.00030   3.01189   3.01316   3.01874   3.02996
 Alpha virt. eigenvalues --    3.03676   3.04436   3.04787   3.06208   3.06594
 Alpha virt. eigenvalues --    3.07068   3.07745   3.08724   3.09624   3.09793
 Alpha virt. eigenvalues --    3.10476   3.11133   3.11513   3.11830   3.12384
 Alpha virt. eigenvalues --    3.12955   3.13527   3.13926   3.14490   3.14894
 Alpha virt. eigenvalues --    3.16043   3.16474   3.17208   3.17702   3.18353
 Alpha virt. eigenvalues --    3.18512   3.19358   3.19679   3.20826   3.21049
 Alpha virt. eigenvalues --    3.22438   3.22683   3.22850   3.23431   3.24375
 Alpha virt. eigenvalues --    3.25134   3.25848   3.26463   3.27021   3.27735
 Alpha virt. eigenvalues --    3.28364   3.29355   3.30261   3.30408   3.31352
 Alpha virt. eigenvalues --    3.31542   3.31860   3.32565   3.32782   3.33442
 Alpha virt. eigenvalues --    3.34387   3.35182   3.35574   3.36059   3.36582
 Alpha virt. eigenvalues --    3.37420   3.38349   3.39212   3.39608   3.40335
 Alpha virt. eigenvalues --    3.41170   3.41311   3.41918   3.42184   3.42636
 Alpha virt. eigenvalues --    3.43073   3.44423   3.45437   3.45550   3.45816
 Alpha virt. eigenvalues --    3.46389   3.47421   3.48031   3.48631   3.49937
 Alpha virt. eigenvalues --    3.50429   3.51090   3.51387   3.52794   3.53281
 Alpha virt. eigenvalues --    3.54377   3.54702   3.55872   3.56444   3.56915
 Alpha virt. eigenvalues --    3.57302   3.57471   3.58479   3.59142   3.60282
 Alpha virt. eigenvalues --    3.60457   3.61745   3.62723   3.63732   3.64541
 Alpha virt. eigenvalues --    3.65928   3.67210   3.67809   3.69441   3.69917
 Alpha virt. eigenvalues --    3.70728   3.71761   3.72852   3.73477   3.75266
 Alpha virt. eigenvalues --    3.75695   3.77056   3.77901   3.78502   3.79862
 Alpha virt. eigenvalues --    3.79951   3.80367   3.82026   3.83718   3.85291
 Alpha virt. eigenvalues --    3.85720   3.86411   3.87077   3.87659   3.88642
 Alpha virt. eigenvalues --    3.90460   3.91308   3.91989   3.92883   3.93921
 Alpha virt. eigenvalues --    3.95779   3.96915   3.97585   3.97888   3.98623
 Alpha virt. eigenvalues --    3.99983   4.01326   4.02456   4.05706   4.06812
 Alpha virt. eigenvalues --    4.07987   4.10547   4.11097   4.12524   4.13304
 Alpha virt. eigenvalues --    4.14210   4.15764   4.16665   4.17096   4.17615
 Alpha virt. eigenvalues --    4.18261   4.20069   4.20768   4.22850   4.23979
 Alpha virt. eigenvalues --    4.26725   4.27086   4.28938   4.29496   4.31079
 Alpha virt. eigenvalues --    4.31974   4.33320   4.35353   4.36520   4.37441
 Alpha virt. eigenvalues --    4.38951   4.40098   4.40727   4.42073   4.43585
 Alpha virt. eigenvalues --    4.43934   4.44753   4.45391   4.47388   4.48662
 Alpha virt. eigenvalues --    4.50095   4.51136   4.54301   4.56995   4.57909
 Alpha virt. eigenvalues --    4.58857   4.60241   4.61729   4.63336   4.66538
 Alpha virt. eigenvalues --    4.67867   4.71591   4.73224   4.75578   4.76174
 Alpha virt. eigenvalues --    4.77338   4.79600   4.80983   4.81409   4.83740
 Alpha virt. eigenvalues --    4.85519   4.86525   4.88188   4.88986   4.89977
 Alpha virt. eigenvalues --    4.91000   4.93159   4.94562   4.95821   4.98229
 Alpha virt. eigenvalues --    4.99942   5.02090   5.02804   5.04512   5.05038
 Alpha virt. eigenvalues --    5.08060   5.12671   5.14234   5.17975   5.19918
 Alpha virt. eigenvalues --    5.20936   5.24706   5.26992   5.27226   5.29353
 Alpha virt. eigenvalues --    5.30338   5.31043   5.32452   5.33582   5.37722
 Alpha virt. eigenvalues --    5.39590   5.42136   5.43563   5.45072   5.46693
 Alpha virt. eigenvalues --    5.48749   5.49307   5.50055   5.53011   5.58883
 Alpha virt. eigenvalues --    5.64871   5.67404   5.71950   5.74320   5.77545
 Alpha virt. eigenvalues --    5.80242   5.81442   5.83494   5.85017   5.86736
 Alpha virt. eigenvalues --    5.88073   5.90570   5.91783   5.94375   5.95129
 Alpha virt. eigenvalues --    5.97495   6.02874   6.05504   6.15008   6.18129
 Alpha virt. eigenvalues --    6.20292   6.22247   6.26344   6.26759   6.37839
 Alpha virt. eigenvalues --    6.42013   6.44440   6.48007   6.50624   6.56007
 Alpha virt. eigenvalues --    6.57709   6.69546   6.73850   6.75695   6.76459
 Alpha virt. eigenvalues --    6.76843   6.80682   6.83874   6.85045   6.87637
 Alpha virt. eigenvalues --    6.90273   6.95090   7.00086   7.08227   7.08349
 Alpha virt. eigenvalues --    7.10061   7.11126   7.17012   7.19135   7.24361
 Alpha virt. eigenvalues --    7.32252   7.42037   9.07175   9.42032   9.59423
 Alpha virt. eigenvalues --   19.80690  22.36370  22.46281  22.49974  22.56396
 Alpha virt. eigenvalues --   22.64704  22.67462  22.74204  22.75406  22.81814
 Alpha virt. eigenvalues --   22.86780  22.94460  22.96811  23.07185  23.19304
 Alpha virt. eigenvalues --   23.28407  23.51296  32.18729  33.16105  44.13162
 Alpha virt. eigenvalues --   44.23661  44.26401  44.38419  44.51079
          Condensed to atoms (all electrons):
               1          2          3          4          5          6
     1  C    5.159083   0.430992   0.411186   0.003220  -0.007219  -0.000232
     2  H    0.430992   0.495200  -0.012655  -0.002505   0.000489  -0.000005
     3  H    0.411186  -0.012655   0.501415  -0.000400   0.000222  -0.000009
     4  C    0.003220  -0.002505  -0.000400   5.565771   0.538779   0.237511
     5  H   -0.007219   0.000489   0.000222   0.538779   0.528320  -0.034910
     6  O   -0.000232  -0.000005  -0.000009   0.237511  -0.034910   8.190041
     7  H   -0.000005  -0.000003  -0.000003  -0.059304  -0.006733   0.302575
     8  C   -0.003984   0.011264  -0.001315  -0.039318  -0.105785  -0.061415
     9  H    0.007456  -0.000326  -0.001924  -0.076247   0.002254   0.001335
    10  O    0.005187  -0.000192  -0.000013   0.049907   0.005640  -0.023492
[...]
 Number     Number              X              Y              Z
 -------------------------------------------------------------------
      1        6          -0.000081324   -0.000041070    0.000176326
      2        1           0.000002245   -0.000003850    0.000013851
      3        1          -0.000022190   -0.000020682    0.000019002
      4        6          -0.000130368    0.000012973   -0.000080345
      5        1          -0.000065231    0.000008616   -0.000012278
      6        8          -0.000349274   -0.000044302   -0.000153539
      7        1          -0.000049022   -0.000008559   -0.000015817
      8        6          -0.000207121   -0.000057003    0.000151605
      9        1          -0.000045550   -0.000000927    0.000032248
     10        8          -0.000309587   -0.000133003    0.000403727
     11        1          -0.000046452    0.000010273    0.000036402
     12        6           0.000165812    0.000079600   -0.000062005
     13        1           0.000021220    0.000006960   -0.000031449
     14        6           0.000046516   -0.000029679    0.000251884
     15        1          -0.000007819   -0.000010342    0.000022088
     16        8           0.000360180    0.000082612    0.000158563
     17        7           0.000315842    0.000030156   -0.000376124
     18        6           0.000405577    0.000145924   -0.000498884
     19        1           0.000025450    0.000004329   -0.000045054
     20        6           0.000432192    0.000100640   -0.000427174
     21        1           0.000043563    0.000031141   -0.000028837
     22        6           0.000137030    0.000005422   -0.000307526
     23        1           0.000072366    0.000004236    0.000025077
     24        1          -0.000063295    0.000036929    0.000024786
     25        6           0.000022729    0.000153438    0.000020624
     26        6           0.000182509   -0.000129702   -0.000180891
     27        1           0.000076527    0.000218138    0.000210103
     28        6          -0.000118013   -0.000014906    0.000192910
     29        8          -0.000122882    0.000030641   -0.000161926
     30        7          -0.000175345   -0.000022656    0.000569260
     31        1          -0.000021519    0.000002667    0.000065233
     32        1          -0.000028075   -0.000084781    0.000047039
     33        1          -0.000044646    0.000026109    0.000020167
     34        6          -0.000189223   -0.000109069    0.000128085
     35        6          -0.000164750   -0.000067484   -0.000224865
     36        6          -0.000134223    0.000006809    0.000411262
     37        6          -0.000507425   -0.000018171    0.000999754
     38        6          -0.000274572   -0.000060645    0.000150308
     39        8           0.000009901   -0.000131440   -0.000471494
     40       16           0.000885116    0.000048880   -0.001385760
     41        1          -0.000023500   -0.000020292   -0.000002022
     42        1          -0.000023490   -0.000007056    0.000052210
     43        1           0.000071578   -0.000050574   -0.000029633
     44        1          -0.000052294   -0.000063477    0.000176571
     45        1           0.000020583    0.000079528    0.000097740
     46        1           0.000032761   -0.000009786    0.000009405
     47        1          -0.000025042    0.000022006    0.000059337
     48        1          -0.000047465   -0.000008572   -0.000029944
 -------------------------------------------------------------------
 Cartesian Forces:  Max     0.001385760 RMS     0.000226904
 Leave Link  716 at Sat Aug 13 20:59:41 2022, MaxMem=  2684354560 cpu:               0.8 elap:               0.1
 (Enter /storage/apps/GAUSSIAN/G16_RevA03/g16/l103.exe)

 GradGradGradGradGradGradGradGradGradGradGradGradGradGradGradGradGradGrad
 Berny optimization.
 Search for a local minimum.
 Step number   1 out of a maximum of    2
 All quantities printed in internal units (Hartrees-Bohrs-Radians)
 Second derivative matrix not updated -- first step.
 ITU=  0
     Eigenvalues ---    0.00044   0.00091   0.00114   0.00143   0.00205
     Eigenvalues ---    0.00213   0.00312   0.00364   0.00458   0.00525
     Eigenvalues ---    0.00613   0.00654   0.00810   0.00917   0.00962
     Eigenvalues ---    0.01098   0.01150   0.01215   0.01490   0.01617
     Eigenvalues ---    0.01831   0.02142   0.02417   0.02485   0.02827
     Eigenvalues ---    0.02986   0.03306   0.03671   0.04128   0.04383
     Eigenvalues ---    0.04577   0.04684   0.04986   0.05053   0.05250
     Eigenvalues ---    0.05377   0.05485   0.05738   0.05950   0.06069
     Eigenvalues ---    0.06147   0.06301   0.06651   0.06755   0.07066
     Eigenvalues ---    0.07099   0.07479   0.08094   0.08252   0.08500
     Eigenvalues ---    0.08695   0.09127   0.09253   0.09776   0.10680
     Eigenvalues ---    0.10841   0.11124   0.11253   0.12086   0.12626
     Eigenvalues ---    0.13027   0.13140   0.13269   0.13647   0.13705
     Eigenvalues ---    0.13982   0.14287   0.16036   0.16265   0.16791
     Eigenvalues ---    0.17958   0.18130   0.18628   0.19820   0.20318
     Eigenvalues ---    0.20560   0.20874   0.21827   0.22567   0.25141
     Eigenvalues ---    0.25531   0.27354   0.28048   0.30588   0.33217
     Eigenvalues ---    0.33655   0.34404   0.34644   0.37733   0.37844
     Eigenvalues ---    0.37844   0.37844   0.37844   0.37844   0.39915
     Eigenvalues ---    0.43890   0.48019   0.49271   0.57098   0.58476
     Eigenvalues ---    0.60045   0.61787   0.69560   0.72064   0.73894
     Eigenvalues ---    0.79117   0.81887   0.82643   0.87435   0.90918
     Eigenvalues ---    0.91148   0.91926   0.92328   0.93324   0.95306
     Eigenvalues ---    0.96821   0.99745   0.99802   1.02046   1.04081
     Eigenvalues ---    1.05939   1.08555   1.11297   1.11719   1.12588
     Eigenvalues ---    1.19820   1.20671   1.27399   1.27842   1.29070
     Eigenvalues ---    1.33601   1.37349   1.43129   1.56548   1.72449
     Eigenvalues ---    1.84245   1.86871   2.36052
 Quadratic step=1.280D+00 exceeds max=3.000D-01 adjusted using Lamda=-1.855D-03.
 Angle between NR and scaled steps=  22.84 degrees.
 Angle between quadratic step and forces=  63.26 degrees.
 Linear search not attempted -- first point.
 Variable       Old X    -DE/DX   Delta X   Delta X   Delta X     New X
                                 (Linear)    (Quad)   (Total)
    X1        6.76893  -0.00008   0.00000  -0.02175  -0.02175   6.74718
    Y1       -6.84258  -0.00004   0.00000  -0.02711  -0.02711  -6.86969
    Z1       -0.77369   0.00018   0.00000   0.03104   0.03104  -0.74265
    X2        7.08355   0.00000   0.00000  -0.01926  -0.01926   7.06429
    Y2       -7.01560  -0.00000   0.00000  -0.03519  -0.03519  -7.05079
    Z2       -2.80091   0.00001   0.00000   0.03127   0.03127  -2.76964
    X3        8.12849  -0.00002   0.00000  -0.02890  -0.02890   8.09959
    Y3       -8.04152  -0.00002   0.00000  -0.03327  -0.03327  -8.07479
    Z3        0.20530   0.00002   0.00000   0.03330   0.03330   0.23861
    X4        3.46873  -0.00013   0.00000  -0.00846  -0.00846   3.46027
    Y4       -2.71530   0.00001   0.00000   0.02446   0.02446  -2.69084
    Z4        2.35469  -0.00008   0.00000  -0.01355  -0.01355   2.34114
    X5        2.23863  -0.00007   0.00000  -0.01882  -0.01882   2.21981
    Y5       -4.35522   0.00001   0.00000   0.03362   0.03362  -4.32160
    Z5        2.02126  -0.00001   0.00000  -0.01740  -0.01740   2.00386
    X6        2.68851  -0.00035   0.00000  -0.01732  -0.01732   2.67118
    Y6       -1.28550  -0.00004   0.00000   0.04412   0.04412  -1.24138
    Z6        4.38773  -0.00015   0.00000  -0.03049  -0.03049   4.35724
    X7        0.91772  -0.00005   0.00000  -0.00243  -0.00243   0.91529
    Y7       -0.67804  -0.00001   0.00000   0.06736   0.06736  -0.61068
    Z7        4.02130  -0.00002   0.00000  -0.06111  -0.06111   3.96019
    X8        6.20945  -0.00021   0.00000  -0.01926  -0.01926   6.19019
    Y8       -3.56976  -0.00006   0.00000  -0.00005  -0.00005  -3.56981
    Z8        2.72342   0.00015   0.00000   0.01371   0.01371   2.73714
    X9        6.33787  -0.00005   0.00000  -0.04026  -0.04026   6.29761
    Y9       -5.23773  -0.00000   0.00000   0.00573   0.00573  -5.23200
    Z9        3.93893   0.00003   0.00000   0.02262   0.02262   3.96155
   X10        7.63150  -0.00031   0.00000  -0.00742  -0.00742   7.62408
   Y10       -1.54793  -0.00013   0.00000  -0.00801  -0.00801  -1.55594
   Z10        3.69535   0.00040   0.00000   0.01294   0.01294   3.70829
   X11        6.56815  -0.00005   0.00000  -0.00918  -0.00918   6.55897
   Y11       -0.71017   0.00001   0.00000   0.02194   0.02194  -0.68823
   Z11        4.92591   0.00004   0.00000  -0.01018  -0.01018   4.91573
   X12        3.75638   0.00017   0.00000   0.02390   0.02390   3.78028
   Y12       -1.23631   0.00008   0.00000   0.00541   0.00541  -1.23089
   Z12       -0.13576  -0.00006   0.00000  -0.02135  -0.02135  -0.15711
   X13        4.27391   0.00002   0.00000   0.04039   0.04039   4.31430
   Y13        0.72335   0.00001   0.00000   0.00433   0.00433   0.72768
   Z13        0.25722  -0.00003   0.00000  -0.03781  -0.03781   0.21941
   X14        7.08944   0.00005   0.00000  -0.00459  -0.00459   7.08485
   Y14       -4.11809  -0.00003   0.00000  -0.02566  -0.02566  -4.14375
   Z14        0.04012   0.00025   0.00000   0.02217   0.02217   0.06229
   X15        9.04653  -0.00001   0.00000   0.00188   0.00188   9.04841
   Y15       -3.51134  -0.00001   0.00000  -0.04372  -0.04372  -3.55506
   Z15       -0.17403   0.00002   0.00000   0.02418   0.02418  -0.14984
   X16        5.56779   0.00036   0.00000   0.02092   0.02092   5.58871
   Y16       -2.50448   0.00008   0.00000  -0.02278  -0.02278  -2.52727
   Z16       -1.55782   0.00016   0.00000   0.00144   0.00144  -1.55638
   X17        1.43183   0.00032   0.00000   0.03131   0.03131   1.46314
   Y17       -1.12828   0.00003   0.00000   0.00938   0.00938  -1.11890
   Z17       -1.69761  -0.00038   0.00000  -0.03191  -0.03191  -1.72952
   X18        0.57150   0.00041   0.00000   0.04168   0.04168   0.61318
   Y18       -3.28944   0.00015   0.00000   0.01219   0.01219  -3.27725
   Z18       -2.74511  -0.00050   0.00000  -0.04618  -0.04618  -2.79129
   X19        1.68602   0.00003   0.00000   0.05243   0.05243   1.73845
   Y19       -4.95789   0.00000   0.00000   0.01568   0.01568  -4.94222
   Z19       -2.38490  -0.00005   0.00000  -0.06237  -0.06237  -2.44726
   X20       -1.54169   0.00043   0.00000   0.03561   0.03561  -1.50608
   Y20       -3.26214   0.00010   0.00000   0.00996   0.00996  -3.25217
   Z20       -4.23564  -0.00043   0.00000  -0.03714  -0.03714  -4.27278
   X21       -2.19505   0.00004   0.00000   0.04303   0.04303  -2.15202
   Y21       -5.00149   0.00003   0.00000   0.01162   0.01162  -4.98987
   Z21       -5.07956  -0.00003   0.00000  -0.04673  -0.04673  -5.12630
   X22       -2.78451   0.00014   0.00000   0.01533   0.01533  -2.76918
   Y22       -0.98445   0.00001   0.00000   0.00418   0.00418  -0.98028
   Z22       -4.66665  -0.00031   0.00000  -0.00913  -0.00913  -4.67579
   X23       -4.40099   0.00007   0.00000   0.00725   0.00725  -4.39375
   Y23       -0.91404   0.00000   0.00000   0.00119   0.00119  -0.91285
   Z23       -5.91720   0.00003   0.00000   0.00131   0.00131  -5.91590
   X24       -5.76119  -0.00006   0.00000  -0.00602  -0.00602  -5.76721
   Y24       -1.57881   0.00004   0.00000   0.01293   0.01293  -1.56587
   Z24       -1.61307   0.00002   0.00000  -0.00570  -0.00570  -1.61877
   X25       -1.88094   0.00002   0.00000   0.00462   0.00462  -1.87632
   Y25        1.21311   0.00015   0.00000   0.00180   0.00180   1.21490
   Z25       -3.55312   0.00002   0.00000   0.00541   0.00541  -3.54771
   X26        0.26548   0.00018   0.00000   0.01903   0.01903   0.28451
   Y26        1.06832  -0.00013   0.00000   0.00602   0.00602   1.07434
   Z26       -2.06459  -0.00018   0.00000  -0.01420  -0.01420  -2.07879
   X27        1.03951   0.00008   0.00000   0.01720   0.01720   1.05672
   Y27        2.73972   0.00022   0.00000   0.00570   0.00570   2.74541
   Z27       -1.17534   0.00021   0.00000  -0.01070  -0.01070  -1.18604
   X28       -2.92179  -0.00012   0.00000  -0.02592  -0.02592  -2.94771
   Y28        3.80005  -0.00001   0.00000  -0.00338  -0.00338   3.79668
   Z28       -4.05620   0.00019   0.00000   0.04093   0.04093  -4.01527
   X29       -1.57889  -0.00012   0.00000  -0.04304  -0.04304  -1.62193
   Y29        5.63836   0.00003   0.00000   0.00881   0.00881   5.64718
   Z29       -3.90586  -0.00016   0.00000   0.04325   0.04325  -3.86261
   X30       -5.37326  -0.00018   0.00000  -0.03290  -0.03290  -5.40616
   Y30        3.86094  -0.00002   0.00000  -0.01984  -0.01984   3.84110
   Z30       -4.87454   0.00057   0.00000   0.06141   0.06141  -4.81313
   X31       -6.10143  -0.00002   0.00000  -0.04792  -0.04792  -6.14934
   Y31        5.61972   0.00000   0.00000  -0.02565  -0.02565   5.59407
   Z31       -4.99793   0.00007   0.00000   0.06898   0.06898  -4.92895
   X32       -6.55267  -0.00003   0.00000  -0.01681  -0.01681  -6.56947
   Y32        2.55390  -0.00008   0.00000  -0.03602  -0.03602   2.51789
   Z32       -4.13757   0.00005   0.00000   0.05763   0.05763  -4.07994
   X33        4.87475  -0.00004   0.00000  -0.02659  -0.02659   4.84816
   Y33       -7.53784   0.00003   0.00000  -0.01429  -0.01429  -7.55213
   Z33       -0.33526   0.00002   0.00000   0.02830   0.02830  -0.30696
   X34        0.31949  -0.00019   0.00000  -0.00709  -0.00709   0.31240
   Y34        4.13328  -0.00011   0.00000  -0.00066  -0.00066   4.13262
   Z34        5.40112   0.00013   0.00000   0.00260   0.00260   5.40372
   X35       -3.14276  -0.00016   0.00000   0.00086   0.00086  -3.14190
   Y35        1.67028  -0.00007   0.00000  -0.00411  -0.00411   1.66617
   Z35        2.26394  -0.00022   0.00000  -0.00704  -0.00704   2.25691
   X36       -5.38393  -0.00013   0.00000  -0.00195  -0.00195  -5.38587
   Y36        1.57196   0.00001   0.00000   0.00237   0.00237   1.57433
   Z36        0.98239   0.00041   0.00000  -0.00019  -0.00019   0.98220
   X37       -9.42627  -0.00051   0.00000  -0.00291  -0.00291  -9.42918
   Y37       -0.59029  -0.00002   0.00000  -0.00120  -0.00120  -0.59148
   Z37       -0.23396   0.00100   0.00000   0.01405   0.01405  -0.21991
   X38       -6.58044  -0.00027   0.00000  -0.00196  -0.00196  -6.58240
   Y38       -0.84753  -0.00006   0.00000   0.00305   0.00305  -0.84448
   Z38        0.15964   0.00015   0.00000   0.00111   0.00111   0.16076
   X39       -1.65587   0.00001   0.00000  -0.01387  -0.01387  -1.66974
   Y39       -0.16972  -0.00013   0.00000  -0.01388  -0.01388  -0.18360
   Z39        2.69337  -0.00047   0.00000   0.00142   0.00142   2.69480
   X40       -2.22738   0.00089   0.00000   0.03460   0.03460  -2.19278
   Y40        4.82330   0.00005   0.00000  -0.00139  -0.00139   4.82191
   Z40        3.25382  -0.00139   0.00000  -0.04774  -0.04774   3.20608
   X41        0.74156  -0.00002   0.00000  -0.01475  -0.01475   0.72681
   Y41        5.89546  -0.00002   0.00000   0.00349   0.00349   5.89895
   Z41        6.37466  -0.00000   0.00000  -0.00148  -0.00148   6.37318
   X42        2.00508  -0.00002   0.00000   0.00778   0.00778   2.01286
   Y42        3.48701  -0.00001   0.00000  -0.01155  -0.01155   3.47546
   Z42        4.41982   0.00005   0.00000   0.03449   0.03449   4.45431
   X43      -10.35898   0.00007   0.00000   0.00208   0.00208 -10.35689
   Y43       -0.02532  -0.00005   0.00000  -0.01048  -0.01048  -0.03580
   Z43        1.51500  -0.00003   0.00000   0.01816   0.01816   1.53316
   X44       -9.85857  -0.00005   0.00000  -0.00574  -0.00574  -9.86430
   Y44        0.86029  -0.00006   0.00000   0.00380   0.00380   0.86409
   Z44       -1.64361   0.00018   0.00000   0.02004   0.02004  -1.62357
   X45      -10.27047   0.00002   0.00000   0.00260   0.00260 -10.26787
   Y45       -2.35742   0.00008   0.00000   0.00015   0.00015  -2.35727
   Z45       -0.87764   0.00010   0.00000   0.00452   0.00452  -0.87312
   X46       -6.17483   0.00003   0.00000   0.01209   0.01209  -6.16274
   Y46       -2.32699  -0.00001   0.00000  -0.00094  -0.00094  -2.32793
   Z46        1.54574   0.00001   0.00000  -0.00770  -0.00770   1.53804
   X47       -6.47611  -0.00003   0.00000   0.00664   0.00664  -6.46947
   Y47        3.29911   0.00002   0.00000   0.00688   0.00688   3.30599
   Z47        0.82910   0.00006   0.00000  -0.00820  -0.00820   0.82090
   X48       -0.25371  -0.00005   0.00000  -0.03460  -0.03460  -0.28831
   Y48        2.71771  -0.00001   0.00000   0.00883   0.00883   2.72654
   Z48        6.77829  -0.00003   0.00000   0.00019   0.00019   6.77848
         Item               Value     Threshold  Converged?
 Maximum Force            0.001386     0.000450     NO 
 RMS     Force            0.000227     0.000300     YES
 Maximum Displacement     0.068981     0.001800     NO 
 RMS     Displacement     0.025015     0.001200     NO 
 Predicted change in Energy=-2.674771D-04
 GradGradGradGradGradGradGradGradGradGradGradGradGradGradGradGradGradGrad

 Leave Link  103 at Sat Aug 13 20:59:41 2022, MaxMem=  2684354560 cpu:               1.3 elap:               0.1
 (Enter /storage/apps/GAUSSIAN/G16_RevA03/g16/l9999.exe)

 Test job not archived.
 1\1\GINC-T059\Force\RM062X\def2TZVP\C16H24N2O5S1\LV87696\13-Aug-2022\0
 \\#P M062X/Def2TZVP scf=(direct,conver=8) EmpiricalDispersion=GD3 Forc
 e Charge Prop=(Field,Read)\\Gaussian run\\0,1\C,3.581964,-3.620935,-0.
 40942\H,3.748452,-3.712495,-1.482178\H,4.301411,-4.25539,0.108642\C,1.
 835572,-1.436875,1.246046\H,1.18463,-2.304684,1.069605\O,1.422697,-0.6
 80257,2.321886\H,0.485636,-0.358804,2.12798\C,3.2859,-1.889034,1.44117
 3\H,3.353855,-2.771689,2.084393\O,4.038417,-0.819127,1.955496\H,3.4757
 14,-0.375805,2.60668\C,1.987792,-0.654225,-0.07184\H,2.261654,0.382779
 ,0.136113\C,3.751571,-2.179197,0.021233\H,4.787219,-1.85812,-0.092091\
 O,2.946346,-1.325314,-0.824361\N,0.757692,-0.59706,-0.898338\C,0.30242
 5,-1.740696,-1.452651\H,0.892204,-2.623603,-1.262033\C,-0.815827,-1.72
 6248,-2.241403\H,-1.161569,-2.646672,-2.68799\C,-1.473498,-0.52095,-2.
 469487\H,-2.328906,-0.48369,-3.13125\H,-3.048691,-0.835468,-0.853599\C
 ,-0.99535,0.641948,-1.880231\C,0.140486,0.565332,-1.092533\H,0.550086,
 1.449795,-0.621965\C,-1.546144,2.010901,-2.146451\O,-0.835511,2.983694
 ,-2.066894\N,-2.843406,2.043119,-2.579496\H,-3.228736,2.973827,-2.6447
 91\H,-3.467523,1.351468,-2.189507\H,2.579605,-3.988854,-0.17741\C,0.16
 9069,2.187239,2.858147\C,-1.663077,0.883875,1.198028\C,-2.849051,0.831
 843,0.519858\C,-4.988168,-0.312366,-0.123806\C,-3.48222,-0.448492,0.08
 4479\O,-0.876248,-0.089813,1.425272\S,-1.178677,2.552383,1.721848\H,0.
 392416,3.119742,3.373324\H,1.061043,1.845244,2.338867\H,-5.481734,-0.0
 13399,0.801703\H,-5.21693,0.455248,-0.869759\H,-5.434897,-1.247491,-0.
 464429\H,-3.267577,-1.231388,0.817969\H,-3.42701,1.745814,0.438743\H,-
 0.13426,1.438149,3.586917\\Version=ES64L-G16RevA.03\State=1-A\HF=-1507
 .9072\RMSD=5.627e-09\RMSF=2.269e-04\Dipole=0.0613151,-2.3359483,-1.833
 1381\Quadrupole=0.9191479,1.1739582,-2.0931061,-4.4485143,8.7916205,5.
 4367524\PG=C01 [X(C16H24N2O5S1)]\\@


 PENOTUS DIED A HUNDRED YEARS OLD WANTING BUT TWO...
 AND HE USED TO SAY BEFORE HE DIED, HAVING SPENT HIS
 WHOLE LIFE IN VAINLY SEARCHING AFTER THE PHILOSOPHER'S
 STONE, THAT IF HE HAD A MORTAL ENEMY HE DID NOT DARE
 TO ENCOUNTER OPENLY, HE WOULD ADVISE HIM ABOVE ALL
 THINGS TO GIVE HIMSELF UP TO THE STUDY AND PRACTICE
 OF ALCHEMY.  --  NICOLAS LEMERY, M.D.
 "A COURSE OF CHYMISTRY", WALTER KETTILBY, LONDON, 1686
 Job cpu time:       0 days  3 hours 17 minutes 43.2 seconds.
 Elapsed time:       0 days  0 hours 12 minutes 23.4 seconds.
 File lengths (MBytes):  RWF=    435 Int=      0 D2E=      0 Chk=     48 Scr=      1
 Normal termination of Gaussian 16 at Sat Aug 13 20:59:41 2022.
