 Entering Gaussian System, Link 0=g16
 Initial command:
 /storage/apps/GAUSSIAN/G16_RevA03/g16/l1.exe "/scratch/tmp/1019253/Gau-155163.inp" -scrdir="/scratch/tmp/1019253/"
 Entering Link 1 = /storage/apps/GAUSSIAN/G16_RevA03/g16/l1.exe PID=    155165.
  
 Copyright (c) 1988,1990,1992,1993,1995,1998,2003,2009,2016,
            Gaussian, Inc.  All Rights Reserved.
  
 This is part of the Gaussian(R) 16 program.  It is based on
 the Gaussian(R) 09 system (copyright 2009, Gaussian, Inc.),
 the Gaussian(R) 03 system (copyright 2003, Gaussian, Inc.),
 the Gaussian(R) 98 system (copyright 1998, Gaussian, Inc.),
 the Gaussian(R) 94 system (copyright 1995, Gaussian, Inc.),
 the Gaussian 92(TM) system (copyright 1992, Gaussian, Inc.),
 the Gaussian 90(TM) system (copyright 1990, Gaussian, Inc.),
 the Gaussian 88(TM) system (copyright 1988, Gaussian, Inc.),
 the Gaussian 86(TM) system (copyright 1986, Carnegie Mellon
 University), and the Gaussian 82(TM) system (copyright 1983,
 Carnegie Mellon University). Gaussian is a federally registered
 trademark of Gaussian, Inc.
  
 This software contains proprietary and confidential information,
 including trade secrets, belonging to Gaussian, Inc.
  
 This software is provided under written license and may be
 used, copied, transmitted, or stored only in accord with that
 written license.
  
 The following legend is applicable only to US Government
 contracts under FAR:
  
                    RESTRICTED RIGHTS LEGEND
  
 Use, reproduction and disclosure by the US Government is
 subject to restrictions as set forth in subparagraphs (a)
 and (c) of the Commercial Computer Software - Restricted
 Rights clause in FAR 52.227-19.
  
 Gaussian, Inc.
 340 Quinnipiac St., Bldg. 40, Wallingford CT 06492
  
  
 ---------------------------------------------------------------
 Warning -- This program may not be used in any manner that
 competes with the business of Gaussian, Inc. or will provide
 assistance to any competitor of Gaussian, Inc.  The licensee
 of this program is prohibited from giving any competitor of
 Gaussian, Inc. access to this program.  By using this program,
 the user acknowledges that Gaussian, Inc. is engaged in the
 business of creating and licensing software in the field of
 computational chemistry and represents and warrants to the
 licensee that it is not a competitor of Gaussian, Inc. and that
 it will not use this program in any manner prohibited above.
 ---------------------------------------------------------------
  

 Cite this work as:
 Gaussian 16, Revision A.03,
 M. J. Frisch, G. W. Trucks, H. B. Schlegel, G. E. Scuseria, 
 M. A. Robb, J. R. Cheeseman, G. Scalmani, V. Barone, 
 G. A. Petersson, H. Nakatsuji, X. Li, M. Caricato, A. V. Marenich, 
 J. Bloino, B. G. Janesko, R. Gomperts, B. Mennucci, H. P. Hratchian, 
 J. V. Ortiz, A. F. Izmaylov, J. L. Sonnenberg, D. Williams-Young, 
 F. Ding, F. Lipparini, F. Egidi, J. Goings, B. Peng, A. Petrone, 
 T. Henderson, D. Ranasinghe, V. G. Zakrzewski, J. Gao, N. Rega, 
 G. Zheng, W. Liang, M. Hada, M. Ehara, K. Toyota, R. Fukuda, 
 J. Hasegawa, M. Ishida, T. Nakajima, Y. Honda, O. Kitao, H. Nakai, 
 T. Vreven, K. Throssell, J. A. Montgomery, Jr., J. E. Peralta, 
 F. Ogliaro, M. J. Bearpark, J. J. Heyd, E. N. Brothers, K. N. Kudin, 
 V. N. Staroverov, T. A. Keith, R. Kobayashi, J. Normand, 
 K. Raghavachari, A. P. Rendell, J. C. Burant, S. S. Iyengar, 
 J. Tomasi, M. Cossi, J. M. Millam, M. Klene, C. Adamo, R. Cammi, 
 J. W. Ochterski, R. L. Martin, K. Morokuma, O. Farkas, 
 J. B. Foresman, and D. J. Fox, Gaussian, Inc., Wallingford CT, 2016.
 
 ******************************************
 Gaussian 16:  ES64L-G16RevA.03 25-Dec-2016
                13-Aug-2022 
 ******************************************
 %NProcShared=16
 Will use up to   16 processors via shared memory.
 %mem=20GB
 ----------------------------------------------------------------------
 #P M062X/Def2TZVP scf=(direct,conver=8) EmpiricalDispersion=GD3 Force 
 Charge Prop=(Field,Read)
 ----------------------------------------------------------------------
 1/10=7,18=10,28=-2,30=1,38=1,125=101/1,3;
 2/12=2,17=6,18=5,29=2,40=1/2;
 3/5=44,7=101,11=2,25=1,30=1,71=1,74=-55,124=31/1,2,3;
 4//1;
 5/5=2,6=8,38=5/2;
 6/7=2,8=2,9=2,10=2,14=2,15=1,28=1/1,2;
 7/7=1,16=-2,29=1/1,2,3,16;
 1/10=7,18=10,28=-2,30=1/3;
 99/12=1/99;
 Leave Link    1 at Sat Aug 13 20:22:12 2022, MaxMem=  2684354560 cpu:               0.6 elap:               0.0
 (Enter /storage/apps/GAUSSIAN/G16_RevA03/g16/l101.exe)
 ------------
 Gaussian run
 ------------
 Symbolic Z-matrix:
 Charge =  0 Multiplicity = 1
 C                     3.66259  -3.62752  -0.4422 
 H                     3.82769  -3.72948  -1.51395 
 H                     4.38763  -4.24838   0.08535 
 C                     1.91311  -1.46849   1.20494 
 H                     1.27735  -2.35015   1.06588 
 O                     1.4928   -0.70507   2.297 
 H                     0.55422  -0.46741   2.18143 
 C                     3.36438  -1.8924    1.3966 
 H                     3.46006  -2.77511   2.03657 
 O                     4.11314  -0.81446   1.90836 
 H                     3.56771  -0.38886   2.58261 
 C                     1.99947  -0.68601  -0.11504 
 H                     2.30073   0.34368   0.10309 
 C                     3.81039  -2.17468  -0.03478 
 H                     4.8427   -1.84221  -0.15681 
 O                     2.97931  -1.35812  -0.87366 
 N                     0.77396  -0.61844  -0.86825 
 C                     0.18782  -1.79409  -1.33591 
 H                     0.73067  -2.69819  -1.10034 
 C                    -0.92915  -1.80788  -2.05516 
 H                    -1.3106   -2.76206  -2.39249 
 C                    -1.67045  -0.55786  -2.43793 
 H                    -1.78161  -0.51759  -3.53092 
 H                    -2.69276  -0.58784  -2.03648 
 C                    -0.93984   0.6608   -1.92889 
 C                     0.19444   0.5668   -1.21332 
 H                     0.68273   1.47042  -0.86713 
 C                    -1.46416   2.02036  -2.16605 
 O                    -0.89509   3.04222  -1.82828 
 N                    -2.70047   2.07107  -2.76418 
 H                    -3.00792   2.98247  -3.06172 
 H                    -3.07957   1.27209  -3.24041 
 H                     2.66121  -3.99885  -0.21238 
 C                     0.22882   2.22086   2.72786 
 C                    -1.72447   0.92386   1.34019 
 C                    -2.98488   0.88018   0.57209 
 C                    -4.90115  -0.41179  -0.37415 
 C                    -3.60615  -0.27426   0.35153 
 O                    -1.10608  -0.0662    1.68269 
 S                    -1.23703   2.55881   1.74536 
 H                     0.53216   3.16892   3.16545 
 H                     1.02981   1.83039   2.10477 
 H                    -5.68193  -0.75935   0.30711 
 H                    -5.21597   0.53502  -0.81109 
 H                    -4.82477  -1.16053  -1.16561 
 H                    -3.13983  -1.17819   0.73448 
 H                    -3.38347   1.82378   0.21512 
 H                    -0.00411   1.5068    3.51474 
 
 ITRead=  0  0  0  0  0  0  0  0  0  0  0  0  0  0  0  0  0  0  0  0
 ITRead=  0  0  0  0  0  0  0  0  0  0  0  0  0  0  0  0  0  0  0  0
 ITRead=  0  0  0  0  0  0  0  0
 MicOpt= -1 -1 -1 -1 -1 -1 -1 -1 -1 -1 -1 -1 -1 -1 -1 -1 -1 -1 -1 -1
 MicOpt= -1 -1 -1 -1 -1 -1 -1 -1 -1 -1 -1 -1 -1 -1 -1 -1 -1 -1 -1 -1
 MicOpt= -1 -1 -1 -1 -1 -1 -1 -1
 NAtoms=     48 NQM=       48 NQMF=       0 NMMI=      0 NMMIF=      0
                NMic=       0 NMicF=      0.
                    Isotopes and Nuclear Properties:
 (Nuclear quadrupole moments (NQMom) in fm**2, nuclear magnetic moments (NMagM)
  in nuclear magnetons)

  Atom         1           2           3           4           5           6           7           8           9          10
 IAtWgt=          12           1           1          12           1          16           1          12           1          16
 AtmWgt=  12.0000000   1.0078250   1.0078250  12.0000000   1.0078250  15.9949146   1.0078250  12.0000000   1.0078250  15.9949146
 NucSpn=           0           1           1           0           1           0           1           0           1           0
 AtZEff=  -0.0000000  -0.0000000  -0.0000000  -0.0000000  -0.0000000  -0.0000000  -0.0000000  -0.0000000  -0.0000000  -0.0000000
 NQMom=    0.0000000   0.0000000   0.0000000   0.0000000   0.0000000   0.0000000   0.0000000   0.0000000   0.0000000   0.0000000
 NMagM=    0.0000000   2.7928460   2.7928460   0.0000000   2.7928460   0.0000000   2.7928460   0.0000000   2.7928460   0.0000000
 AtZNuc=   6.0000000   1.0000000   1.0000000   6.0000000   1.0000000   8.0000000   1.0000000   6.0000000   1.0000000   8.0000000

  Atom        11          12          13          14          15          16          17          18          19          20
 IAtWgt=           1          12           1          12           1          16          14          12           1          12
 AtmWgt=   1.0078250  12.0000000   1.0078250  12.0000000   1.0078250  15.9949146  14.0030740  12.0000000   1.0078250  12.0000000
 NucSpn=           1           0           1           0           1           0           2           0           1           0
 AtZEff=  -0.0000000  -0.0000000  -0.0000000  -0.0000000  -0.0000000  -0.0000000  -0.0000000  -0.0000000  -0.0000000  -0.0000000
 NQMom=    0.0000000   0.0000000   0.0000000   0.0000000   0.0000000   0.0000000   2.0440000   0.0000000   0.0000000   0.0000000
 NMagM=    2.7928460   0.0000000   2.7928460   0.0000000   2.7928460   0.0000000   0.4037610   0.0000000   2.7928460   0.0000000
 AtZNuc=   1.0000000   6.0000000   1.0000000   6.0000000   1.0000000   8.0000000   7.0000000   6.0000000   1.0000000   6.0000000

  Atom        21          22          23          24          25          26          27          28          29          30
 IAtWgt=           1          12           1           1          12          12           1          12          16          14
 AtmWgt=   1.0078250  12.0000000   1.0078250   1.0078250  12.0000000  12.0000000   1.0078250  12.0000000  15.9949146  14.0030740
 NucSpn=           1           0           1           1           0           0           1           0           0           2
 AtZEff=  -0.0000000  -0.0000000  -0.0000000  -0.0000000  -0.0000000  -0.0000000  -0.0000000  -0.0000000  -0.0000000  -0.0000000
 NQMom=    0.0000000   0.0000000   0.0000000   0.0000000   0.0000000   0.0000000   0.0000000   0.0000000   0.0000000   2.0440000
 NMagM=    2.7928460   0.0000000   2.7928460   2.7928460   0.0000000   0.0000000   2.7928460   0.0000000   0.0000000   0.4037610
 AtZNuc=   1.0000000   6.0000000   1.0000000   1.0000000   6.0000000   6.0000000   1.0000000   6.0000000   8.0000000   7.0000000

  Atom        31          32          33          34          35          36          37          38          39          40
 IAtWgt=           1           1           1          12          12          12          12          12          16          32
 AtmWgt=   1.0078250   1.0078250   1.0078250  12.0000000  12.0000000  12.0000000  12.0000000  12.0000000  15.9949146  31.9720718
 NucSpn=           1           1           1           0           0           0           0           0           0           0
 AtZEff=  -0.0000000  -0.0000000  -0.0000000  -0.0000000  -0.0000000  -0.0000000  -0.0000000  -0.0000000  -0.0000000  -0.0000000
 NQMom=    0.0000000   0.0000000   0.0000000   0.0000000   0.0000000   0.0000000   0.0000000   0.0000000   0.0000000   0.0000000
 NMagM=    2.7928460   2.7928460   2.7928460   0.0000000   0.0000000   0.0000000   0.0000000   0.0000000   0.0000000   0.0000000
 AtZNuc=   1.0000000   1.0000000   1.0000000   6.0000000   6.0000000   6.0000000   6.0000000   6.0000000   8.0000000  16.0000000

  Atom        41          42          43          44          45          46          47          48
 IAtWgt=           1           1           1           1           1           1           1           1
 AtmWgt=   1.0078250   1.0078250   1.0078250   1.0078250   1.0078250   1.0078250   1.0078250   1.0078250
 NucSpn=           1           1           1           1           1           1           1           1
 AtZEff=  -0.0000000  -0.0000000  -0.0000000  -0.0000000  -0.0000000  -0.0000000  -0.0000000  -0.0000000
 NQMom=    0.0000000   0.0000000   0.0000000   0.0000000   0.0000000   0.0000000   0.0000000   0.0000000
 NMagM=    2.7928460   2.7928460   2.7928460   2.7928460   2.7928460   2.7928460   2.7928460   2.7928460
 AtZNuc=   1.0000000   1.0000000   1.0000000   1.0000000   1.0000000   1.0000000   1.0000000   1.0000000
 Background charge distribution read from input stream:
 Leave Link  101 at Sat Aug 13 20:22:12 2022, MaxMem=  2684354560 cpu:               1.5 elap:               0.1
 (Enter /storage/apps/GAUSSIAN/G16_RevA03/g16/l103.exe)

 GradGradGradGradGradGradGradGradGradGradGradGradGradGradGradGradGradGrad
 Berny optimization.
 Initialization pass.
 Trust Radius=3.00D-01 FncErr=1.00D-07 GrdErr=1.00D-07 EigMax=2.50D+02 EigMin=1.00D-04
 Number of steps in this run=      2 maximum allowed number of steps=      2.
 GradGradGradGradGradGradGradGradGradGradGradGradGradGradGradGradGradGrad

 Leave Link  103 at Sat Aug 13 20:22:12 2022, MaxMem=  2684354560 cpu:               0.3 elap:               0.0
 (Enter /storage/apps/GAUSSIAN/G16_RevA03/g16/l202.exe)
 ---------------------------------------------------------------------------------------------------
                            Z-MATRIX (ANGSTROMS AND DEGREES)
   CD    Cent   Atom    N1       Length/X        N2       Alpha/Y        N3        Beta/Z          J
 ---------------------------------------------------------------------------------------------------
      1      1  C        0   3.662587         -3.627519         -0.442200
      2      2  H        0   3.827691         -3.729481         -1.513951
      3      3  H        0   4.387632         -4.248375          0.085352
      4      4  C        0   1.913112         -1.468485          1.204943
      5      5  H        0   1.277348         -2.350155          1.065876
      6      6  O        0   1.492799         -0.705070          2.297002
      7      7  H        0   0.554220         -0.467409          2.181430
      8      8  C        0   3.364382         -1.892396          1.396596
      9      9  H        0   3.460064         -2.775105          2.036566
     10     10  O        0   4.113141         -0.814459          1.908355
     11     11  H        0   3.567705         -0.388859          2.582613
     12     12  C        0   1.999466         -0.686013         -0.115044
     13     13  H        0   2.300729          0.343676          0.103085
     14     14  C        0   3.810393         -2.174676         -0.034781
     15     15  H        0   4.842702         -1.842214         -0.156805
     16     16  O        0   2.979308         -1.358115         -0.873657
     17     17  N        0   0.773958         -0.618440         -0.868254
     18     18  C        0   0.187822         -1.794090         -1.335913
     19     19  H        0   0.730665         -2.698185         -1.100339
     20     20  C        0  -0.929146         -1.807883         -2.055162
     21     21  H        0  -1.310604         -2.762060         -2.392492
     22     22  C        0  -1.670452         -0.557860         -2.437927
     23     23  H        0  -1.781606         -0.517589         -3.530918
     24     24  H        0  -2.692755         -0.587842         -2.036482
     25     25  C        0  -0.939839          0.660797         -1.928892
     26     26  C        0   0.194442          0.566796         -1.213319
     27     27  H        0   0.682732          1.470422         -0.867130
     28     28  C        0  -1.464162          2.020356         -2.166047
     29     29  O        0  -0.895089          3.042220         -1.828275
     30     30  N        0  -2.700465          2.071074         -2.764181
     31     31  H        0  -3.007921          2.982466         -3.061721
     32     32  H        0  -3.079571          1.272089         -3.240413
     33     33  H        0   2.661211         -3.998851         -0.212378
     34     34  C        0   0.228816          2.220861          2.727859
     35     35  C        0  -1.724471          0.923855          1.340194
     36     36  C        0  -2.984878          0.880175          0.572092
     37     37  C        0  -4.901145         -0.411789         -0.374152
     38     38  C        0  -3.606147         -0.274260          0.351530
     39     39  O        0  -1.106075         -0.066201          1.682687
     40     40  S        0  -1.237028          2.558808          1.745364
     41     41  H        0   0.532160          3.168922          3.165448
     42     42  H        0   1.029806          1.830392          2.104771
     43     43  H        0  -5.681934         -0.759346          0.307112
     44     44  H        0  -5.215967          0.535022         -0.811094
     45     45  H        0  -4.824773         -1.160532         -1.165605
     46     46  H        0  -3.139829         -1.178192          0.734481
     47     47  H        0  -3.383467          1.823780          0.215121
     48     48  H        0  -0.004111          1.506797          3.514735
 ---------------------------------------------------------------------------------------------------
                         Z-Matrix orientation:                         
 ---------------------------------------------------------------------
 Center     Atomic      Atomic             Coordinates (Angstroms)
 Number     Number       Type             X           Y           Z
 ---------------------------------------------------------------------
      1          6           0        3.662587   -3.627519   -0.442200
      2          1           0        3.827691   -3.729481   -1.513951
      3          1           0        4.387632   -4.248375    0.085352
      4          6           0        1.913112   -1.468485    1.204943
      5          1           0        1.277348   -2.350155    1.065876
      6          8           0        1.492799   -0.705070    2.297002
      7          1           0        0.554220   -0.467409    2.181430
      8          6           0        3.364382   -1.892396    1.396596
      9          1           0        3.460064   -2.775105    2.036566
     10          8           0        4.113141   -0.814459    1.908355
     11          1           0        3.567705   -0.388859    2.582613
     12          6           0        1.999466   -0.686013   -0.115044
     13          1           0        2.300729    0.343676    0.103085
     14          6           0        3.810393   -2.174676   -0.034781
     15          1           0        4.842702   -1.842214   -0.156805
     16          8           0        2.979308   -1.358115   -0.873657
     17          7           0        0.773958   -0.618440   -0.868254
     18          6           0        0.187822   -1.794090   -1.335913
     19          1           0        0.730665   -2.698185   -1.100339
     20          6           0       -0.929146   -1.807883   -2.055162
     21          1           0       -1.310604   -2.762060   -2.392492
     22          6           0       -1.670452   -0.557860   -2.437927
     23          1           0       -1.781606   -0.517589   -3.530918
     24          1           0       -2.692755   -0.587842   -2.036482
     25          6           0       -0.939839    0.660797   -1.928892
     26          6           0        0.194442    0.566796   -1.213319
     27          1           0        0.682732    1.470422   -0.867130
     28          6           0       -1.464162    2.020356   -2.166047
     29          8           0       -0.895089    3.042220   -1.828275
     30          7           0       -2.700465    2.071074   -2.764181
     31          1           0       -3.007921    2.982466   -3.061721
     32          1           0       -3.079571    1.272089   -3.240413
     33          1           0        2.661211   -3.998851   -0.212378
     34          6           0        0.228816    2.220861    2.727859
     35          6           0       -1.724471    0.923855    1.340194
     36          6           0       -2.984878    0.880175    0.572092
     37          6           0       -4.901145   -0.411789   -0.374152
     38          6           0       -3.606147   -0.274260    0.351530
     39          8           0       -1.106075   -0.066201    1.682687
     40         16           0       -1.237028    2.558808    1.745364
     41          1           0        0.532160    3.168922    3.165448
     42          1           0        1.029806    1.830392    2.104771
     43          1           0       -5.681934   -0.759346    0.307112
     44          1           0       -5.215967    0.535022   -0.811094
     45          1           0       -4.824773   -1.160532   -1.165605
     46          1           0       -3.139829   -1.178192    0.734481
     47          1           0       -3.383467    1.823780    0.215121
     48          1           0       -0.004111    1.506797    3.514735
 ---------------------------------------------------------------------
                    Distance matrix (angstroms):
                    1          2          3          4          5
     1  C    0.000000
     2  H    1.089177   0.000000
     3  H    1.090625   1.772161   0.000000
     4  C    3.230351   4.021206   3.886454   0.000000
     5  H    3.097631   3.881018   3.773398   1.095846   0.000000
     6  O    4.555427   5.396494   5.081974   1.397161   2.066009
     7  H    5.150891   5.917142   5.777914   1.949940   2.304801
     8  C    2.545731   3.472869   2.883928   1.524013   2.162089
     9  H    2.629050   3.694882   2.614984   2.189044   2.426329
    10  O    3.693429   4.504555   3.897495   2.400555   3.333145
    11  H    4.432540   5.292370   4.669524   2.408577   3.375338
    12  C    3.394917   3.816025   4.293474   1.536908   2.164577
    13  H    4.233484   4.640800   5.044047   2.155984   3.038256
    14  C    1.516110   2.146081   2.155891   2.373878   2.767410
    15  H    2.159036   2.536507   2.460760   3.252158   3.803249
    16  O    2.408987   2.598674   3.355097   2.338703   2.764525
    17  N    4.192882   4.406902   5.210032   2.513642   2.644446
    18  C    4.029166   4.126267   5.067733   3.088461   2.695341
    19  H    3.145310   3.290322   4.145161   2.867868   2.261078
    20  C    5.195838   5.158774   6.229441   4.338422   3.860512
    21  H    5.411588   5.301869   6.388954   5.000722   4.339063
    22  C    6.468929   6.414241   7.529092   5.190537   4.917162
    23  H    6.989355   6.771161   8.065710   6.081408   5.817733
    24  H    7.223001   7.256662   8.248246   5.700560   5.337798
    25  C    6.463918   6.494310   7.519248   4.742794   4.790656
    26  C    5.496811   5.634614   6.515770   3.597803   3.856944
    27  H    5.920228   6.111312   6.880272   3.800592   4.322833
    28  C    7.820083   7.841528   8.866187   5.911139   6.087904
    29  O    8.196282   8.261924   9.204449   6.118240   6.494097
    30  N    8.851779   8.821923   9.914454   7.040420   7.073867
    31  H    9.749332   9.704196  10.811260   7.888723   7.989833
    32  H    8.791635   8.700956   9.863841   7.224875   7.116707
    33  H    1.092456   1.768425   1.769586   2.995197   2.503439
    34  C    7.486228   8.145638   8.132011   4.332136   4.975519
    35  C    7.274086   7.786282   8.104591   4.355869   4.450316
    36  C    8.095485   8.485965   8.994045   5.468730   5.370794
    37  C    9.147844   9.407380  10.060413   7.074196   6.633605
    38  C    8.044181   8.407171   8.931122   5.711104   5.354265
    39  O    6.319673   6.926771   7.086810   3.363054   3.358215
    40  S    8.189158   8.707301   8.984998   5.141452   5.557131
    41  H    8.307004   8.963552   8.908869   5.220742   5.951783
    42  H    6.573233   7.199687   7.232182   3.531644   4.314806
    43  H    9.803467  10.127731  10.659205   7.680736   7.178997
    44  H    9.812826  10.023360  10.766319   7.674778   7.349177
    45  H    8.868180   9.032496   9.796330   7.149366   6.605346
    46  H    7.325070   7.753119   8.155370   5.083091   4.582005
    47  H    8.932839   9.264405   9.862955   6.314468   6.314168
    48  H    7.447363   8.209080   8.010623   4.226486   4.745011
                    6          7          8          9         10
     6  O    0.000000
     7  H    0.975074   0.000000
     8  C    2.392341   3.247085   0.000000
     9  H    2.867578   3.713540   1.094482   0.000000
    10  O    2.651265   3.586214   1.408718   2.070527   0.000000
    11  H    2.118206   3.041087   1.925773   2.450291   0.966054
    12  C    2.464760   2.722190   2.367153   3.335727   2.928867
    13  H    2.562399   2.833314   2.793662   3.848273   2.808044
    14  C    3.601138   4.292903   1.525598   2.184885   2.391155
    15  H    4.305359   5.074299   2.144995   2.755513   2.419385
    16  O    3.562198   4.000996   2.363850   3.272367   3.052987
    17  N    3.247011   3.061318   3.669170   4.506035   4.347197
    18  C    4.010860   3.777040   4.191277   4.800372   5.185854
    19  H    4.011893   3.972090   3.717586   4.158811   4.903245
    20  C    5.101308   4.684651   5.509642   6.078069   6.490071
    21  H    5.837947   5.446444   6.080214   6.509685   7.190789
    22  C    5.696260   5.127944   6.467929   7.159571   7.239196
    23  H    6.687416   6.171671   7.256148   7.972977   8.026323
    24  H    6.025918   5.324296   7.083558   7.696169   7.869772
    25  C    5.063744   4.516615   6.008659   6.847585   6.514096
    26  C    3.952939   3.566979   4.786209   5.691603   5.197010
    27  H    3.924373   3.614612   4.860478   5.845470   4.969075
    28  C    6.007526   5.400315   7.163581   8.056451   7.466139
    29  O    6.063176   5.522294   7.272779   8.230773   7.342938
    30  N    7.134845   6.441734   8.354851   9.191558   8.751235
    31  H    7.910140   7.216725   9.178623  10.048730   9.477754
    32  H    7.448402   6.754752   8.546365   9.327010   9.088377
    33  H    4.302461   4.758236   2.742335   2.682064   4.092183
    34  C    3.216265   2.762475   5.340685   5.989869   4.997273
    35  C    3.730912   2.799237   5.816432   6.406765   6.117373
    36  C    5.053504   4.114750   6.977110   7.552684   7.418845
    37  C    6.935676   6.024541   8.581765   9.017019   9.307488
    38  C    5.474460   4.549120   7.231791   7.682767   7.893220
    39  O    2.745848   1.779408   4.837543   5.320998   5.277408
    40  S    4.290590   3.543545   6.411539   7.113234   6.326911
    41  H    4.084708   3.767185   6.063601   6.721492   5.501912
    42  H    2.584547   2.347754   4.450945   5.207822   4.067035
    43  H    7.445764   6.518275   9.181863   9.520001   9.925246
    44  H    7.497041   6.576863   9.186329   9.712859   9.810645
    45  H    7.218643   6.373118   8.611780   9.027695   9.458081
    46  H    4.911879   4.030493   6.576720   6.914054   7.356348
    47  H    5.874290   4.961985   7.793543   8.444011   8.125668
    48  H    2.935297   2.446819   5.233333   5.702646   4.992039
                   11         12         13         14         15
    11  H    0.000000
    12  C    3.134490   0.000000
    13  H    2.879218   1.094806   0.000000
    14  C    3.177860   2.345638   2.939420   0.000000
    15  H    3.352949   3.069615   3.362631   1.091367   0.000000
    16  O    3.637509   1.409718   2.076195   1.435683   2.054377
    17  N    4.445921   1.440056   2.049438   3.512333   4.307953
    18  C    5.362194   2.449573   3.332437   3.867921   4.802137
    19  H    5.190946   2.574781   3.628533   3.300636   4.304857
    20  C    6.613944   3.687739   4.440645   5.165240   6.076114
    21  H    7.360819   4.522533   5.377288   5.668195   6.611171
    22  C    7.257594   4.345171   4.799978   6.199102   7.019563
    23  H    8.124467   5.098340   5.532921   6.799953   7.551207
    24  H    7.782608   5.071341   5.511838   6.986829   7.867004
    25  C    6.463235   3.707217   3.838069   5.847415   6.545467
    26  C    5.167328   2.456390   2.493822   4.688254   5.340962
    27  H    4.866284   2.636216   2.197450   4.874608   5.365023
    28  C    7.326239   4.850543   4.704744   7.068346   7.663748
    29  O    7.151557   5.021288   4.607119   7.250806   7.718404
    30  N    8.598223   6.058779   6.018061   8.238161   8.888847
    31  H    9.298559   6.871286   6.720192   9.069062   9.661695
    32  H    8.991811   6.276839   6.402231   8.344332   9.053725
    33  H    4.654648   3.379686   4.368868   2.163279   3.068073
    34  C    4.240273   4.434773   3.834851   6.307188   6.791009
    35  C    5.592312   4.310116   4.250798   6.490468   7.281477
    36  C    6.970580   5.269610   5.333427   7.475033   8.319477
    37  C    8.970195   6.910917   7.257098   8.894596   9.850681
    38  C    7.513655   5.640047   5.944304   7.665891   8.608132
    39  O    4.770555   3.641482   3.777493   5.618454   6.475021
    40  S    5.698700   4.946198   4.485489   7.145015   7.742762
    41  H    4.712965   5.270212   4.526358   7.038630   7.397947
    42  H    3.405046   3.492866   2.798628   5.324464   5.756817
    43  H    9.532627   7.693341   8.061091   9.603350  10.590363
    44  H    9.461696   7.351047   7.574500   9.456231  10.356455
    45  H    9.223790   6.920916   7.392225   8.767744   9.743841
    46  H    7.002118   5.232235   5.684577   7.063309   8.059536
    47  H    7.669393   5.948448   5.874806   8.234180   9.013750
    48  H    4.149727   4.690206   4.278375   6.379871   6.941734
                   16         17         18         19         20
    16  O    0.000000
    17  N    2.326095   0.000000
    18  C    2.862892   1.394422   0.000000
    19  H    2.627464   2.093102   1.080538   0.000000
    20  C    4.107829   2.392507   1.328581   2.111705   0.000000
    21  H    4.762485   3.356160   2.073308   2.416716   1.081552
    22  C    4.970676   2.905630   2.489153   3.483604   1.502864
    23  H    5.516686   3.691999   3.213432   4.119978   2.137616
    24  H    5.841043   3.658387   3.200555   4.129130   2.144567
    25  C    4.533127   2.387153   2.765812   3.841854   2.471930
    26  C    3.402371   1.363706   2.364076   3.310650   2.758668
    27  H    3.643477   2.090853   3.334926   4.175400   3.841465
    28  C    5.729639   3.695496   4.238888   5.312027   3.867034
    29  O    5.940134   4.136156   4.980463   6.010426   4.855526
    30  N    6.898785   4.785357   5.032062   6.106296   4.322798
    31  H    7.712015   5.663959   6.000556   7.077700   5.318074
    32  H    7.016375   4.904174   4.868720   5.904311   3.938956
    33  H    2.740796   3.926713   3.498708   2.491428   4.592043
    34  C    5.774530   4.614200   5.712771   6.253316   6.359948
    35  C    5.677505   3.673971   4.266807   5.010296   4.429828
    36  C    6.532354   4.295264   4.567078   5.422817   4.284175
    37  C    7.952772   5.700319   5.360348   6.121457   4.533393
    38  C    6.785576   4.559786   4.421713   5.176029   3.912863
    39  O    4.989418   3.216643   3.711026   4.248080   4.127502
    40  S    6.322899   4.579298   5.520162   6.293315   5.797135
    41  H    6.541939   5.538351   6.709121   7.256672   7.359264
    42  H    4.778930   3.860196   5.067950   5.556098   5.863410
    43  H    8.761841   6.563527   6.182577   6.845542   5.410061
    44  H    8.411327   6.100241   5.907718   6.774933   5.041205
    45  H    7.812039   5.632768   5.055345   5.764679   4.047998
    46  H    6.329480   4.266124   3.967256   4.545071   3.614656
    47  H    7.196860   4.941895   5.314960   6.253374   4.936279
    48  H    6.030464   4.932810   5.870390   6.286547   6.547255
                   21         22         23         24         25
    21  H    0.000000
    22  C    2.233843   0.000000
    23  H    2.560372   1.099366   0.000000
    24  H    2.600828   1.098709   1.751704   0.000000
    25  C    3.473952   1.509317   2.159549   2.154853   0.000000
    26  C    3.838866   2.498469   3.232943   3.216628   1.344423
    27  H    4.920774   3.481208   4.137743   4.122832   2.101325
    28  C    4.790236   2.600706   2.899105   2.885988   1.476333
    29  O    5.846423   3.732752   4.044397   4.056144   2.383968
    30  N    5.042723   2.842299   2.851905   2.756708   2.405492
    31  H    6.027299   3.835603   3.738232   3.727941   3.309141
    32  H    4.485819   2.445059   2.229810   2.249093   2.583064
    33  H    4.696580   5.962952   6.547558   6.605096   6.134028
    34  C    7.308715   6.165538   7.121320   6.254865   5.048256
    35  C    5.262148   4.058645   5.080232   3.824231   3.372206
    36  C    4.985762   3.585509   4.498477   3.007502   3.238091
    37  C    4.742305   3.836389   4.439357   2.769715   4.388576
    38  C    4.357559   3.407112   4.296692   2.575892   3.630958
    39  O    4.890457   4.188044   5.276530   4.076994   3.687772
    40  S    6.740838   5.234635   6.131879   5.130585   4.146194
    41  H    8.334448   7.080834   7.986563   7.181464   5.865984
    42  H    6.840578   5.799245   6.721461   6.070856   4.638738
    43  H    5.514277   4.864959   5.477361   3.802241   5.431757
    44  H    5.350087   4.051130   4.505582   3.021423   4.421602
    45  H    4.052102   3.454238   3.907550   2.373163   4.358045
    46  H    3.953816   3.550782   4.524908   2.868209   3.913489
    47  H    5.668010   3.955413   4.699019   3.370863   3.452628
    48  H    7.404417   6.517184   7.543133   6.514010   5.587878
                   26         27         28         29         30
    26  C    0.000000
    27  H    1.083888   0.000000
    28  C    2.402394   2.568806   0.000000
    29  O    2.773621   2.425669   1.217432   0.000000
    30  N    3.612272   3.924998   1.374330   2.253537   0.000000
    31  H    4.416693   4.552299   2.027580   2.447247   1.006824
    32  H    3.914806   4.452722   2.079354   3.146341   1.004438
    33  H    5.285070   5.852865   7.554229   8.052023   8.491364
    34  C    4.274342   3.700425   5.182344   4.764048   6.226205
    35  C    3.214055   3.311441   3.682907   3.900582   4.372021
    36  C    3.659778   3.983857   3.333166   3.847521   3.553850
    37  C    5.256124   5.913157   4.575923   5.485721   4.088990
    38  C    4.195307   4.787852   4.023873   4.806290   4.003562
    39  O    3.237110   3.473126   4.392573   4.694002   5.185042
    40  S    3.843309   3.419823   3.954827   3.622362   4.766081
    41  H    5.104774   4.378271   5.807697   5.195225   6.842195
    42  H    3.647496   3.013675   4.949328   4.543413   6.138366
    43  H    6.213063   6.845413   5.624310   6.475003   5.131596
    44  H    5.425433   5.972668   4.256543   5.098106   3.535782
    45  H    5.308339   6.110942   4.734199   5.791776   4.184663
    46  H    4.237484   4.918565   4.631591   5.423878   4.794935
    47  H    4.052392   4.222571   3.064692   3.442686   3.066576
    48  H    4.824678   4.435518   5.887850   5.630197   6.856641
                   31         32         33         34         35
    31  H    0.000000
    32  H    1.721178   0.000000
    33  H    9.433801   8.361123   0.000000
    34  C    6.676507   6.889547   7.297010   0.000000
    35  C    5.026130   4.789522   6.773309   2.724549   0.000000
    36  C    4.198185   3.833765   7.503240   4.095436   1.476657
    37  C    4.725282   3.790650   8.371524   6.547505   3.848920
    38  C    4.755462   3.945951   7.312342   5.155532   2.440008
    39  O    5.951537   5.470157   5.766234   2.846923   1.216522
    40  S    5.140390   5.468874   7.876034   1.796720   1.753521
    41  H    7.165513   7.594579   8.204848   1.087346   3.669368
    42  H    6.657564   6.765329   6.481569   1.087331   2.998738
    43  H    5.700924   4.846025   8.965062   7.048306   4.422888
    44  H    3.991337   3.317988   9.108479   6.709091   4.119439
    45  H    4.905165   3.642554   8.062546   7.220225   4.498396
    46  H    5.633793   4.669828   6.519565   5.184099   2.605519
    47  H    3.495895   3.512468   8.403804   4.418157   2.197253
    48  H    7.379041   7.426006   7.162923   1.087803   2.833388
                   36         37         38         39         40
    36  C    0.000000
    37  C    2.497324   0.000000
    38  C    1.329415   1.490821   0.000000
    39  O    2.378855   4.330424   2.840005   0.000000
    40  S    2.692463   5.171320   3.947375   2.629021   0.000000
    41  H    4.932891   7.407500   6.074473   3.917705   2.349235
    42  H    4.401103   6.807982   5.384745   2.887422   2.407966
    43  H    3.167389   1.092954   2.132176   4.828161   5.730262
    44  H    2.647658   1.089258   2.144330   4.844752   5.144234
    45  H    3.251044   1.092175   2.138276   4.810306   5.931201
    46  H    2.070569   2.217809   1.086829   2.504351   4.313665
    47  H    1.084754   2.765566   2.114229   3.303376   2.736624
    48  H    4.235183   6.541052   5.113970   2.654251   2.399476
                   41         42         43         44         45
    41  H    0.000000
    42  H    1.778862   0.000000
    43  H    7.887733   7.415239   0.000000
    44  H    7.469356   7.013553   1.772822   0.000000
    45  H    8.136272   7.342825   1.750591   1.775842   0.000000
    46  H    6.187932   5.321196   2.611585   3.103909   2.539621
    47  H    5.083893   4.800812   3.458895   2.464157   3.590249
    48  H    1.781080   1.778116   6.903762   6.842557   7.229039
                   46         47         48
    46  H    0.000000
    47  H    3.056294   0.000000
    48  H    4.977118   4.733707   0.000000
 Stoichiometry    C16H24N2O5S
 Framework group  C1[X(C16H24N2O5S)]
 Deg. of freedom   138
 Full point group                 C1      NOp   1
 Largest Abelian subgroup         C1      NOp   1
 Largest concise Abelian subgroup C1      NOp   1
                         Standard orientation:                         
 ---------------------------------------------------------------------
 Center     Atomic      Atomic             Coordinates (Angstroms)
 Number     Number       Type             X           Y           Z
 ---------------------------------------------------------------------
      1          6           0        4.754295   -1.895315    0.612025
      2          1           0        4.743629   -2.850831    0.089356
      3          1           0        5.767553   -1.699331    0.964675
      4          6           0        2.553864    0.468511    0.686852
      5          1           0        2.379145   -0.153802    1.571769
      6          8           0        2.043620    1.757297    0.862178
      7          1           0        1.097511    1.700522    1.091141
      8          6           0        4.045050    0.538601    0.380143
      9          1           0        4.652400    0.644232    1.284499
     10          8           0        4.297908    1.589566   -0.523195
     11          1           0        3.755361    2.337866   -0.242213
     12          6           0        2.023178   -0.255006   -0.560938
     13          1           0        1.854246    0.482304   -1.352415
     14          6           0        4.293680   -0.793064   -0.321498
     15          1           0        5.015599   -0.640972   -1.125727
     16          8           0        3.040304   -1.164650   -0.914927
     17          7           0        0.786147   -0.968526   -0.375454
     18          6           0        0.727621   -2.017882    0.540973
     19          1           0        1.657559   -2.231651    1.048004
     20          6           0       -0.371462   -2.734690    0.749132
     21          1           0       -0.329139   -3.542275    1.467304
     22          6           0       -1.659877   -2.487188    0.016104
     23          1           0       -1.979728   -3.411609   -0.485640
     24          1           0       -2.459275   -2.244967    0.729862
     25          6           0       -1.487747   -1.368306   -0.982151
     26          6           0       -0.324939   -0.708169   -1.122043
     27          1           0       -0.249615    0.090215   -1.851237
     28          6           0       -2.610491   -0.922012   -1.830577
     29          8           0       -2.520698   -0.063718   -2.689302
     30          7           0       -3.820123   -1.512294   -1.552839
     31          1           0       -4.560469   -1.328016   -2.209820
     32          1           0       -3.872864   -2.359422   -1.015728
     33          1           0        4.097260   -1.972352    1.481409
     34          6           0       -0.314090    3.512055   -0.444112
     35          6           0       -1.677458    1.498103    0.784054
     36          6           0       -2.896652    0.712148    1.060379
     37          6           0       -4.147441   -0.918258    2.479509
     38          6           0       -2.949120   -0.117832    2.097550
     39          8           0       -0.622460    1.338375    1.368343
     40         16           0       -1.926764    2.719930   -0.448755
     41          1           0       -0.402702    4.395762   -1.071433
     42          1           0        0.444026    2.847005   -0.850632
     43          1           0       -4.539085   -0.578152    3.441533
     44          1           0       -4.936533   -0.835862    1.733166
     45          1           0       -3.886463   -1.971217    2.606055
     46          1           0       -2.058138   -0.211810    2.712787
     47          1           0       -3.742081    0.854307    0.395749
     48          1           0       -0.042003    3.801775    0.568482
 ---------------------------------------------------------------------
 Rotational constants (GHZ):           0.3252175           0.1602683           0.1375785
 Leave Link  202 at Sat Aug 13 20:22:12 2022, MaxMem=  2684354560 cpu:               0.2 elap:               0.0
 (Enter /storage/apps/GAUSSIAN/G16_RevA03/g16/l301.exe)
 Standard basis: def2TZVP (5D, 7F)
 Ernie: Thresh=  0.10000D-02 Tol=  0.10000D-05 Strict=F.
 There are  1014 symmetry adapted cartesian basis functions of A   symmetry.
 There are   894 symmetry adapted basis functions of A   symmetry.
   894 basis functions,  1434 primitive gaussians,  1014 cartesian basis functions
    95 alpha electrons       95 beta electrons
       nuclear repulsion energy      2471.7747230005 Hartrees.
 IExCor= 4336 DFT=T Ex+Corr=M062X ExCW=0 ScaHFX=  0.540000
 ScaDFX=  1.000000  1.000000  1.000000  1.000000 ScalE2=  1.000000  1.000000
 IRadAn=      5 IRanWt=     -1 IRanGd=            0 ICorTp=0 IEmpDi=131
 NAtoms=   48 NActive=   48 NUniq=   48 SFac= 1.00D+00 NAtFMM=   60 NAOKFM=F Big=F
 Integral buffers will be    131072 words long.
 Raffenetti 2 integral format.
 Two-electron integral symmetry is turned on.
 R6Disp:  Grimme-D3 Dispersion energy=       -0.0043439803 Hartrees.
 Nuclear repulsion after empirical dispersion term =     2471.7703790203 Hartrees.
 Leave Link  301 at Sat Aug 13 20:22:12 2022, MaxMem=  2684354560 cpu:               0.9 elap:               0.1
 (Enter /storage/apps/GAUSSIAN/G16_RevA03/g16/l302.exe)
 NPDir=0 NMtPBC=     1 NCelOv=     1 NCel=       1 NClECP=     1 NCelD=      1
         NCelK=      1 NCelE2=     1 NClLst=     1 CellRange=     0.0.
 One-electron integrals computed using PRISM.
 One-electron integral symmetry used in STVInt
   1 Symmetry operations used in ECPInt.
 ECPInt:  NShTT=   65703 NPrTT=  200010 LenC2=   56728 LenP2D=  120461.
 LDataN:  DoStor=T MaxTD1= 6 Len=  172
 NBasis=   894 RedAO= T EigKep=  3.15D-05  NBF=   894
 NBsUse=   894 1.00D-06 EigRej= -1.00D+00 NBFU=   894
 Precomputing XC quadrature grid using
 IXCGrd= 4 IRadAn=           5 IRanWt=          -1 IRanGd=           0 AccXCQ= 0.00D+00.
 Generated NRdTot=       0 NPtTot=           0 NUsed=           0 NTot=          32
 NSgBfM=   998   998   998   998   998 MxSgAt=    48 MxSgA2=    48.
 Leave Link  302 at Sat Aug 13 20:22:14 2022, MaxMem=  2684354560 cpu:              18.5 elap:               1.2
 (Enter /storage/apps/GAUSSIAN/G16_RevA03/g16/l303.exe)
 DipDrv:  MaxL=1.
 Leave Link  303 at Sat Aug 13 20:22:14 2022, MaxMem=  2684354560 cpu:               2.0 elap:               0.2
 (Enter /storage/apps/GAUSSIAN/G16_RevA03/g16/l401.exe)
 ExpMin= 9.52D-02 ExpMax= 6.07D+04 ExpMxC= 2.07D+03 IAcc=3 IRadAn=         5 AccDes= 0.00D+00
 Harris functional with IExCor= 1009 and IRadAn=       5 diagonalized for initial guess.
 HarFok:  IExCor= 1009 AccDes= 0.00D+00 IRadAn=         5 IDoV= 1 UseB2=F ITyADJ=14
 ICtDFT=  3500011 ScaDFX=  1.000000  1.000000  1.000000  1.000000
 FoFCou: FMM=F IPFlag=           0 FMFlag=      100000 FMFlg1=           0
         NFxFlg=           0 DoJE=T BraDBF=F KetDBF=T FulRan=T
         wScrn=  0.000000 ICntrl=       500 IOpCl=  0 I1Cent=   200000004 NGrid=           0
         NMat0=    1 NMatS0=      1 NMatT0=    0 NMatD0=    1 NMtDS0=    0 NMtDT0=    0
 Petite list used in FoFCou.
 Harris En= -1507.25803952795    
 JPrj=0 DoOrth=F DoCkMO=F.
 Leave Link  401 at Sat Aug 13 20:22:17 2022, MaxMem=  2684354560 cpu:              59.8 elap:               3.8
 (Enter /storage/apps/GAUSSIAN/G16_RevA03/g16/l502.exe)
 Integral symmetry usage will be decided dynamically.
 Closed shell SCF:
 Using DIIS extrapolation, IDIIS=  1040.
 NGot=  2684354560 LenX=  2682272944 LenY=  2681243734
 Requested convergence on RMS density matrix=1.00D-08 within 128 cycles.
 Requested convergence on MAX density matrix=1.00D-06.
 Requested convergence on             energy=1.00D-06.
 No special actions if energy rises.
 Fock matrices will be formed incrementally for  20 cycles.
 Integral accuracy reduced to 1.0D-05 until final iterations.

 Cycle   1  Pass 0  IDiag  1:
 FoFJK:  IHMeth= 1 ICntrl=       0 DoSepK=F KAlg= 0 I1Cent=           0 FoldK=F
 IRaf= 790000000 NMat=       1 IRICut=       1 DoRegI=T DoRafI=F ISym2E= 0 IDoP0=0 IntGTp=1.
 FoFCou: FMM=F IPFlag=           0 FMFlag=      100000 FMFlg1=           0
         NFxFlg=           0 DoJE=F BraDBF=F KetDBF=F FulRan=T
         wScrn=  0.000000 ICntrl=         0 IOpCl=  0 I1Cent=           0 NGrid=           0
         NMat0=    1 NMatS0=      1 NMatT0=    0 NMatD0=    1 NMtDS0=    0 NMtDT0=    0
 Symmetry not used in FoFCou.
 E= -1507.18891682554    
 DIIS: error= 1.47D-02 at cycle   1 NSaved=   1.
 NSaved= 1 IEnMin= 1 EnMin= -1507.18891682554     IErMin= 1 ErrMin= 1.47D-02
 ErrMax= 1.47D-02  0.00D+00 EMaxC= 1.00D-01 BMatC= 1.00D+00 BMatP= 1.00D+00
 IDIUse=3 WtCom= 8.53D-01 WtEn= 1.47D-01
 Coeff-Com:  0.100D+01
 Coeff-En:   0.100D+01
 Coeff:      0.100D+01
 Gap=     0.307 Goal=   None    Shift=    0.000
 GapD=    0.307 DampG=1.000 DampE=0.500 DampFc=0.5000 IDamp=-1.
 Damping current iteration by 5.00D-01
 RMSDP=4.41D-03 MaxDP=1.72D+00              OVMax= 2.68D-01

 Cycle   2  Pass 0  IDiag  1:
 RMSU=  2.20D-03    CP:  1.02D+00
 E= -1507.53399912948     Delta-E=       -0.345082303939 Rises=F Damp=T
 DIIS: error= 3.55D-03 at cycle   2 NSaved=   2.
 NSaved= 2 IEnMin= 2 EnMin= -1507.53399912948     IErMin= 2 ErrMin= 3.55D-03
 ErrMax= 3.55D-03  0.00D+00 EMaxC= 1.00D-01 BMatC= 8.62D-02 BMatP= 1.00D+00
 IDIUse=3 WtCom= 9.64D-01 WtEn= 3.55D-02
 Coeff-Com: -0.171D-01 0.102D+01
 Coeff-En:   0.141D-01 0.986D+00
 Coeff:     -0.160D-01 0.102D+01
 Gap=     0.307 Goal=   None    Shift=    0.000
 RMSDP=1.30D-03 MaxDP=4.85D-01 DE=-3.45D-01 OVMax= 1.71D-01

 Cycle   3  Pass 0  IDiag  1:
 RMSU=  1.03D-03    CP:  1.00D+00  6.47D-01
 E= -1507.89273489420     Delta-E=       -0.358735764716 Rises=F Damp=F
 DIIS: error= 5.36D-03 at cycle   3 NSaved=   3.
 NSaved= 3 IEnMin= 3 EnMin= -1507.89273489420     IErMin= 2 ErrMin= 3.55D-03
 ErrMax= 5.36D-03  0.00D+00 EMaxC= 1.00D-01 BMatC= 5.09D-02 BMatP= 8.62D-02
 IDIUse=3 WtCom= 9.46D-01 WtEn= 5.36D-02
 Coeff-Com: -0.836D-01 0.457D+00 0.627D+00
 Coeff-En:   0.000D+00 0.000D+00 0.100D+01
 Coeff:     -0.791D-01 0.432D+00 0.647D+00
 Gap=     0.213 Goal=   None    Shift=    0.000
 RMSDP=3.64D-04 MaxDP=6.47D-02 DE=-3.59D-01 OVMax= 6.86D-02

 Cycle   4  Pass 0  IDiag  1:
 RMSU=  3.05D-04    CP:  1.01D+00  7.27D-01  9.15D-01
 E= -1507.92503204553     Delta-E=       -0.032297151333 Rises=F Damp=F
 DIIS: error= 2.02D-03 at cycle   4 NSaved=   4.
 NSaved= 4 IEnMin= 4 EnMin= -1507.92503204553     IErMin= 4 ErrMin= 2.02D-03
 ErrMax= 2.02D-03  0.00D+00 EMaxC= 1.00D-01 BMatC= 1.08D-02 BMatP= 5.09D-02
 IDIUse=3 WtCom= 9.80D-01 WtEn= 2.02D-02
 Coeff-Com: -0.359D-01 0.969D-01 0.352D+00 0.587D+00
 Coeff-En:   0.000D+00 0.000D+00 0.149D+00 0.851D+00
 Coeff:     -0.352D-01 0.949D-01 0.348D+00 0.592D+00
 Gap=     0.212 Goal=   None    Shift=    0.000
 RMSDP=1.25D-04 MaxDP=1.55D-02 DE=-3.23D-02 OVMax= 1.82D-02

 Cycle   5  Pass 0  IDiag  1:
 RMSU=  7.94D-05    CP:  1.01D+00  7.12D-01  9.43D-01  7.18D-01
 E= -1507.93298842961     Delta-E=       -0.007956384078 Rises=F Damp=F
 DIIS: error= 3.89D-04 at cycle   5 NSaved=   5.
 NSaved= 5 IEnMin= 5 EnMin= -1507.93298842961     IErMin= 5 ErrMin= 3.89D-04
 ErrMax= 3.89D-04  0.00D+00 EMaxC= 1.00D-01 BMatC= 3.93D-04 BMatP= 1.08D-02
 IDIUse=3 WtCom= 9.96D-01 WtEn= 3.89D-03
 Coeff-Com: -0.992D-02 0.169D-01 0.121D+00 0.261D+00 0.611D+00
 Coeff-En:   0.000D+00 0.000D+00 0.000D+00 0.000D+00 0.100D+01
 Coeff:     -0.988D-02 0.169D-01 0.121D+00 0.260D+00 0.612D+00
 Gap=     0.212 Goal=   None    Shift=    0.000
 RMSDP=4.91D-05 MaxDP=1.73D-02 DE=-7.96D-03 OVMax= 3.88D-03

 Cycle   6  Pass 0  IDiag  1:
 RMSU=  3.15D-05    CP:  1.00D+00  6.97D-01  9.55D-01  7.35D-01  8.89D-01
 E= -1507.93330115889     Delta-E=       -0.000312729283 Rises=F Damp=F
 DIIS: error= 1.78D-04 at cycle   6 NSaved=   6.
 NSaved= 6 IEnMin= 6 EnMin= -1507.93330115889     IErMin= 6 ErrMin= 1.78D-04
 ErrMax= 1.78D-04  0.00D+00 EMaxC= 1.00D-01 BMatC= 5.14D-05 BMatP= 3.93D-04
 IDIUse=3 WtCom= 9.98D-01 WtEn= 1.78D-03
 Coeff-Com:  0.313D-03-0.446D-02 0.126D-01 0.414D-01 0.274D+00 0.676D+00
 Coeff-En:   0.000D+00 0.000D+00 0.000D+00 0.000D+00 0.000D+00 0.100D+01
 Coeff:      0.313D-03-0.445D-02 0.125D-01 0.413D-01 0.273D+00 0.677D+00
 Gap=     0.213 Goal=   None    Shift=    0.000
 RMSDP=1.84D-05 MaxDP=2.74D-03 DE=-3.13D-04 OVMax= 3.20D-03

 Cycle   7  Pass 0  IDiag  1:
 RMSU=  1.59D-05    CP:  1.00D+00  6.94D-01  9.60D-01  7.39D-01  9.58D-01
                    CP:  1.01D+00
 E= -1507.93336153620     Delta-E=       -0.000060377306 Rises=F Damp=F
 DIIS: error= 6.61D-05 at cycle   7 NSaved=   7.
 NSaved= 7 IEnMin= 7 EnMin= -1507.93336153620     IErMin= 7 ErrMin= 6.61D-05
 ErrMax= 6.61D-05  0.00D+00 EMaxC= 1.00D-01 BMatC= 8.75D-06 BMatP= 5.14D-05
 IDIUse=1 WtCom= 1.00D+00 WtEn= 0.00D+00
 Coeff-Com:  0.179D-02-0.485D-02-0.122D-01-0.246D-01 0.120D-01 0.288D+00
 Coeff-Com:  0.740D+00
 Coeff:      0.179D-02-0.485D-02-0.122D-01-0.246D-01 0.120D-01 0.288D+00
 Coeff:      0.740D+00
 Gap=     0.213 Goal=   None    Shift=    0.000
 RMSDP=1.65D-05 MaxDP=5.41D-03 DE=-6.04D-05 OVMax= 2.05D-03

 Cycle   8  Pass 0  IDiag  1:
 RMSU=  9.74D-06    CP:  1.00D+00  6.89D-01  9.60D-01  7.43D-01  1.02D+00
                    CP:  1.20D+00  1.24D+00
 E= -1507.93336923445     Delta-E=       -0.000007698246 Rises=F Damp=F
 DIIS: error= 3.13D-05 at cycle   8 NSaved=   8.
 NSaved= 8 IEnMin= 8 EnMin= -1507.93336923445     IErMin= 8 ErrMin= 3.13D-05
 ErrMax= 3.13D-05  0.00D+00 EMaxC= 1.00D-01 BMatC= 1.94D-06 BMatP= 8.75D-06
 IDIUse=1 WtCom= 1.00D+00 WtEn= 0.00D+00
 Coeff-Com:  0.897D-03-0.162D-02-0.804D-02-0.219D-01-0.471D-01 0.843D-02
 Coeff-Com:  0.358D+00 0.712D+00
 Coeff:      0.897D-03-0.162D-02-0.804D-02-0.219D-01-0.471D-01 0.843D-02
 Coeff:      0.358D+00 0.712D+00
 Gap=     0.213 Goal=   None    Shift=    0.000
 RMSDP=1.38D-05 MaxDP=2.28D-03 DE=-7.70D-06 OVMax= 7.06D-04

 Cycle   9  Pass 0  IDiag  1:
 RMSU=  7.66D-06    CP:  1.00D+00  6.87D-01  9.60D-01  7.43D-01  1.05D+00
                    CP:  1.31D+00  1.61D+00  1.76D+00
 E= -1507.93335883693     Delta-E=        0.000010397515 Rises=F Damp=F
 DIIS: error= 2.20D-05 at cycle   9 NSaved=   9.
 NSaved= 9 IEnMin= 8 EnMin= -1507.93336923445     IErMin= 9 ErrMin= 2.20D-05
 ErrMax= 2.20D-05  0.00D+00 EMaxC= 1.00D-01 BMatC= 3.29D-07 BMatP= 1.94D-06
 IDIUse=1 WtCom= 1.00D+00 WtEn= 0.00D+00
 Coeff-Com:  0.203D-03-0.235D-03-0.180D-02-0.699D-02-0.200D-01-0.259D-01
 Coeff-Com:  0.777D-01 0.305D+00 0.672D+00
 Coeff:      0.203D-03-0.235D-03-0.180D-02-0.699D-02-0.200D-01-0.259D-01
 Coeff:      0.777D-01 0.305D+00 0.672D+00
 Gap=     0.213 Goal=   None    Shift=    0.000
 RMSDP=1.59D-05 MaxDP=1.94D-03 DE= 1.04D-05 OVMax= 2.35D-04

 Cycle  10  Pass 0  IDiag  1:
 RMSU=  6.04D-06    CP:  1.00D+00  6.86D-01  9.60D-01  7.43D-01  1.06D+00
                    CP:  1.42D+00  1.95D+00  2.67D+00  2.20D+00
 E= -1507.93334391958     Delta-E=        0.000014917349 Rises=F Damp=F
 DIIS: error= 3.56D-05 at cycle  10 NSaved=  10.
 NSaved=10 IEnMin= 8 EnMin= -1507.93336923445     IErMin= 9 ErrMin= 2.20D-05
 ErrMax= 3.56D-05  0.00D+00 EMaxC= 1.00D-01 BMatC= 4.70D-07 BMatP= 3.29D-07
 IDIUse=1 WtCom= 1.00D+00 WtEn= 0.00D+00
 Coeff-Com:  0.220D-03-0.232D-03-0.201D-02-0.790D-02-0.232D-01-0.319D-01
 Coeff-Com:  0.846D-01 0.354D+00 0.821D+00-0.195D+00
 Coeff:      0.220D-03-0.232D-03-0.201D-02-0.790D-02-0.232D-01-0.319D-01
 Coeff:      0.846D-01 0.354D+00 0.821D+00-0.195D+00
 Gap=     0.213 Goal=   None    Shift=    0.000
 RMSDP=6.69D-06 MaxDP=6.04D-04 DE= 1.49D-05 OVMax= 1.78D-05

 Initial convergence to 1.0D-05 achieved.  Increase integral accuracy.
 Cycle  11  Pass 1  IDiag  1:
 E= -1507.93335948563     Delta-E=       -0.000015566051 Rises=F Damp=F
 DIIS: error= 2.72D-04 at cycle   1 NSaved=   1.
 NSaved= 1 IEnMin= 1 EnMin= -1507.93335948563     IErMin= 1 ErrMin= 2.72D-04
 ErrMax= 2.72D-04  0.00D+00 EMaxC= 1.00D-01 BMatC= 8.64D-05 BMatP= 8.64D-05
 IDIUse=3 WtCom= 9.97D-01 WtEn= 2.72D-03
 Coeff-Com:  0.100D+01
 Coeff-En:   0.100D+01
 Coeff:      0.100D+01
 Gap=     0.213 Goal=   None    Shift=    0.000
 RMSDP=6.69D-06 MaxDP=6.04D-04 DE=-1.56D-05 OVMax= 9.98D-04

 Cycle  12  Pass 1  IDiag  1:
 RMSU=  4.00D-04    CP:  9.95D-01
 E= -1507.93341332127     Delta-E=       -0.000053835637 Rises=F Damp=F
 DIIS: error= 7.91D-06 at cycle   2 NSaved=   2.
 NSaved= 2 IEnMin= 2 EnMin= -1507.93341332127     IErMin= 2 ErrMin= 7.91D-06
 ErrMax= 7.91D-06  0.00D+00 EMaxC= 1.00D-01 BMatC= 1.44D-07 BMatP= 8.64D-05
 IDIUse=1 WtCom= 1.00D+00 WtEn= 0.00D+00
 Coeff-Com: -0.150D-01 0.102D+01
 Coeff:     -0.150D-01 0.102D+01
 Gap=     0.213 Goal=   None    Shift=    0.000
 RMSDP=1.48D-05 MaxDP=1.03D-03 DE=-5.38D-05 OVMax= 1.40D-04

 Cycle  13  Pass 1  IDiag  1:
 RMSU=  5.11D-06    CP:  9.95D-01  1.03D+00
 E= -1507.93341330640     Delta-E=        0.000000014871 Rises=F Damp=F
 DIIS: error= 8.08D-06 at cycle   3 NSaved=   3.
 NSaved= 3 IEnMin= 2 EnMin= -1507.93341332127     IErMin= 2 ErrMin= 7.91D-06
 ErrMax= 8.08D-06  0.00D+00 EMaxC= 1.00D-01 BMatC= 2.12D-07 BMatP= 1.44D-07
 IDIUse=1 WtCom= 1.00D+00 WtEn= 0.00D+00
 Coeff-Com: -0.987D-02 0.581D+00 0.429D+00
 Coeff:     -0.987D-02 0.581D+00 0.429D+00
 Gap=     0.213 Goal=   None    Shift=    0.000
 RMSDP=9.56D-07 MaxDP=3.31D-04 DE= 1.49D-08 OVMax= 9.55D-05

 Cycle  14  Pass 1  IDiag  1:
 RMSU=  9.01D-07    CP:  9.95D-01  1.04D+00  9.73D-01
 E= -1507.93341347624     Delta-E=       -0.000000169845 Rises=F Damp=F
 DIIS: error= 1.48D-06 at cycle   4 NSaved=   4.
 NSaved= 4 IEnMin= 4 EnMin= -1507.93341347624     IErMin= 4 ErrMin= 1.48D-06
 ErrMax= 1.48D-06  0.00D+00 EMaxC= 1.00D-01 BMatC= 3.93D-09 BMatP= 1.44D-07
 IDIUse=1 WtCom= 1.00D+00 WtEn= 0.00D+00
 Coeff-Com: -0.120D-02 0.584D-01 0.124D+00 0.819D+00
 Coeff:     -0.120D-02 0.584D-01 0.124D+00 0.819D+00
 Gap=     0.213 Goal=   None    Shift=    0.000
 RMSDP=3.26D-07 MaxDP=1.93D-05 DE=-1.70D-07 OVMax= 1.79D-05

 Cycle  15  Pass 1  IDiag  1:
 RMSU=  1.60D-07    CP:  9.95D-01  1.04D+00  1.01D+00  1.03D+00
 E= -1507.93341347925     Delta-E=       -0.000000003003 Rises=F Damp=F
 DIIS: error= 6.22D-07 at cycle   5 NSaved=   5.
 NSaved= 5 IEnMin= 5 EnMin= -1507.93341347925     IErMin= 5 ErrMin= 6.22D-07
 ErrMax= 6.22D-07  0.00D+00 EMaxC= 1.00D-01 BMatC= 1.19D-09 BMatP= 3.93D-09
 IDIUse=1 WtCom= 1.00D+00 WtEn= 0.00D+00
 Coeff-Com:  0.525D-03-0.373D-01 0.149D-01 0.430D+00 0.592D+00
 Coeff:      0.525D-03-0.373D-01 0.149D-01 0.430D+00 0.592D+00
 Gap=     0.213 Goal=   None    Shift=    0.000
 RMSDP=9.10D-08 MaxDP=1.36D-05 DE=-3.00D-09 OVMax= 9.20D-06

 Cycle  16  Pass 1  IDiag  1:
 RMSU=  5.47D-08    CP:  9.95D-01  1.04D+00  1.01D+00  1.07D+00  1.04D+00
 E= -1507.93341348030     Delta-E=       -0.000000001049 Rises=F Damp=F
 DIIS: error= 1.99D-07 at cycle   6 NSaved=   6.
 NSaved= 6 IEnMin= 6 EnMin= -1507.93341348030     IErMin= 6 ErrMin= 1.99D-07
 ErrMax= 1.99D-07  0.00D+00 EMaxC= 1.00D-01 BMatC= 5.14D-11 BMatP= 1.19D-09
 IDIUse=1 WtCom= 1.00D+00 WtEn= 0.00D+00
 Coeff-Com:  0.270D-03-0.173D-01-0.312D-02 0.957D-01 0.209D+00 0.715D+00
 Coeff:      0.270D-03-0.173D-01-0.312D-02 0.957D-01 0.209D+00 0.715D+00
 Gap=     0.213 Goal=   None    Shift=    0.000
 RMSDP=2.01D-08 MaxDP=4.19D-06 DE=-1.05D-09 OVMax= 3.56D-06

 Cycle  17  Pass 1  IDiag  1:
 RMSU=  1.48D-08    CP:  9.95D-01  1.04D+00  1.01D+00  1.08D+00  1.11D+00
                    CP:  1.07D+00
 E= -1507.93341348038     Delta-E=       -0.000000000084 Rises=F Damp=F
 DIIS: error= 7.75D-08 at cycle   7 NSaved=   7.
 NSaved= 7 IEnMin= 7 EnMin= -1507.93341348038     IErMin= 7 ErrMin= 7.75D-08
 ErrMax= 7.75D-08  0.00D+00 EMaxC= 1.00D-01 BMatC= 1.39D-11 BMatP= 5.14D-11
 IDIUse=1 WtCom= 1.00D+00 WtEn= 0.00D+00
 Coeff-Com:  0.176D-04-0.312D-03-0.465D-02-0.501D-01-0.313D-01 0.330D+00
 Coeff-Com:  0.756D+00
 Coeff:      0.176D-04-0.312D-03-0.465D-02-0.501D-01-0.313D-01 0.330D+00
 Coeff:      0.756D+00
 Gap=     0.213 Goal=   None    Shift=    0.000
 RMSDP=1.20D-08 MaxDP=3.11D-06 DE=-8.41D-11 OVMax= 1.97D-06

 Cycle  18  Pass 1  IDiag  1:
 RMSU=  7.00D-09    CP:  9.95D-01  1.04D+00  1.01D+00  1.09D+00  1.13D+00
                    CP:  1.16D+00  1.04D+00
 E= -1507.93341348041     Delta-E=       -0.000000000027 Rises=F Damp=F
 DIIS: error= 3.98D-08 at cycle   8 NSaved=   8.
 NSaved= 8 IEnMin= 8 EnMin= -1507.93341348041     IErMin= 8 ErrMin= 3.98D-08
 ErrMax= 3.98D-08  0.00D+00 EMaxC= 1.00D-01 BMatC= 2.47D-12 BMatP= 1.39D-11
 IDIUse=1 WtCom= 1.00D+00 WtEn= 0.00D+00
 Coeff-Com: -0.251D-04 0.205D-02-0.177D-02-0.376D-01-0.420D-01 0.783D-01
 Coeff-Com:  0.383D+00 0.618D+00
 Coeff:     -0.251D-04 0.205D-02-0.177D-02-0.376D-01-0.420D-01 0.783D-01
 Coeff:      0.383D+00 0.618D+00
 Gap=     0.213 Goal=   None    Shift=    0.000
 RMSDP=4.31D-09 MaxDP=1.36D-06 DE=-2.73D-11 OVMax= 7.25D-07

 Cycle  19  Pass 1  IDiag  1:
 RMSU=  2.86D-09    CP:  9.95D-01  1.04D+00  1.01D+00  1.09D+00  1.14D+00
                    CP:  1.18D+00  1.09D+00  1.16D+00
 E= -1507.93341348039     Delta-E=        0.000000000013 Rises=F Damp=F
 DIIS: error= 1.19D-08 at cycle   9 NSaved=   9.
 NSaved= 9 IEnMin= 8 EnMin= -1507.93341348041     IErMin= 9 ErrMin= 1.19D-08
 ErrMax= 1.19D-08  0.00D+00 EMaxC= 1.00D-01 BMatC= 3.14D-13 BMatP= 2.47D-12
 IDIUse=1 WtCom= 1.00D+00 WtEn= 0.00D+00
 Coeff-Com: -0.160D-04 0.108D-02 0.455D-04-0.930D-02-0.147D-01-0.244D-01
 Coeff-Com:  0.411D-01 0.270D+00 0.736D+00
 Coeff:     -0.160D-04 0.108D-02 0.455D-04-0.930D-02-0.147D-01-0.244D-01
 Coeff:      0.411D-01 0.270D+00 0.736D+00
 Gap=     0.213 Goal=   None    Shift=    0.000
 RMSDP=1.65D-09 MaxDP=1.93D-07 DE= 1.27D-11 OVMax= 3.17D-07

 SCF Done:  E(RM062X) =  -1507.93341348     A.U. after   19 cycles
            NFock= 19  Conv=0.17D-08     -V/T= 2.0037
 KE= 1.502333623364D+03 PE=-8.482127379035D+03 EE= 3.000089963170D+03
 Leave Link  502 at Sat Aug 13 20:31:00 2022, MaxMem=  2684354560 cpu:            8342.2 elap:             522.0
 (Enter /storage/apps/GAUSSIAN/G16_RevA03/g16/l601.exe)
 Copying SCF densities to generalized density rwf, IOpCl= 0 IROHF=0.

 **********************************************************************

            Population analysis using the SCF density.

 **********************************************************************

 Orbital symmetries:
       Occupied  (A) (A) (A) (A) (A) (A) (A) (A) (A) (A) (A) (A)
                 (A) (A) (A) (A) (A) (A) (A) (A) (A) (A) (A) (A)
                 (A) (A) (A) (A) (A) (A) (A) (A) (A) (A) (A) (A)
                 (A) (A) (A) (A) (A) (A) (A) (A) (A) (A) (A) (A)
                 (A) (A) (A) (A) (A) (A) (A) (A) (A) (A) (A) (A)
                 (A) (A) (A) (A) (A) (A) (A) (A) (A) (A) (A) (A)
                 (A) (A) (A) (A) (A) (A) (A) (A) (A) (A) (A) (A)
                 (A) (A) (A) (A) (A) (A) (A) (A) (A) (A) (A)
       Virtual   (A) (A) (A) (A) (A) (A) (A) (A) (A) (A) (A) (A)
                 (A) (A) (A) (A) (A) (A) (A) (A) (A) (A) (A) (A)
                 (A) (A) (A) (A) (A) (A) (A) (A) (A) (A) (A) (A)
                 (A) (A) (A) (A) (A) (A) (A) (A) (A) (A) (A) (A)
                 (A) (A) (A) (A) (A) (A) (A) (A) (A) (A) (A) (A)
                 (A) (A) (A) (A) (A) (A) (A) (A) (A) (A) (A) (A)
                 (A) (A) (A) (A) (A) (A) (A) (A) (A) (A) (A) (A)
                 (A) (A) (A) (A) (A) (A) (A) (A) (A) (A) (A) (A)
                 (A) (A) (A) (A) (A) (A) (A) (A) (A) (A) (A) (A)
                 (A) (A) (A) (A) (A) (A) (A) (A) (A) (A) (A) (A)
                 (A) (A) (A) (A) (A) (A) (A) (A) (A) (A) (A) (A)
                 (A) (A) (A) (A) (A) (A) (A) (A) (A) (A) (A) (A)
                 (A) (A) (A) (A) (A) (A) (A) (A) (A) (A) (A) (A)
                 (A) (A) (A) (A) (A) (A) (A) (A) (A) (A) (A) (A)
                 (A) (A) (A) (A) (A) (A) (A) (A) (A) (A) (A) (A)
                 (A) (A) (A) (A) (A) (A) (A) (A) (A) (A) (A) (A)
                 (A) (A) (A) (A) (A) (A) (A) (A) (A) (A) (A) (A)
                 (A) (A) (A) (A) (A) (A) (A) (A) (A) (A) (A) (A)
                 (A) (A) (A) (A) (A) (A) (A) (A) (A) (A) (A) (A)
                 (A) (A) (A) (A) (A) (A) (A) (A) (A) (A) (A) (A)
                 (A) (A) (A) (A) (A) (A) (A) (A) (A) (A) (A) (A)
                 (A) (A) (A) (A) (A) (A) (A) (A) (A) (A) (A) (A)
                 (A) (A) (A) (A) (A) (A) (A) (A) (A) (A) (A) (A)
                 (A) (A) (A) (A) (A) (A) (A) (A) (A) (A) (A) (A)
                 (A) (A) (A) (A) (A) (A) (A) (A) (A) (A) (A) (A)
                 (A) (A) (A) (A) (A) (A) (A) (A) (A) (A) (A) (A)
                 (A) (A) (A) (A) (A) (A) (A) (A) (A) (A) (A) (A)
                 (A) (A) (A) (A) (A) (A) (A) (A) (A) (A) (A) (A)
                 (A) (A) (A) (A) (A) (A) (A) (A) (A) (A) (A) (A)
                 (A) (A) (A) (A) (A) (A) (A) (A) (A) (A) (A) (A)
                 (A) (A) (A) (A) (A) (A) (A) (A) (A) (A) (A) (A)
                 (A) (A) (A) (A) (A) (A) (A) (A) (A) (A) (A) (A)
                 (A) (A) (A) (A) (A) (A) (A) (A) (A) (A) (A) (A)
                 (A) (A) (A) (A) (A) (A) (A) (A) (A) (A) (A) (A)
                 (A) (A) (A) (A) (A) (A) (A) (A) (A) (A) (A) (A)
                 (A) (A) (A) (A) (A) (A) (A) (A) (A) (A) (A) (A)
                 (A) (A) (A) (A) (A) (A) (A) (A) (A) (A) (A) (A)
                 (A) (A) (A) (A) (A) (A) (A) (A) (A) (A) (A) (A)
                 (A) (A) (A) (A) (A) (A) (A) (A) (A) (A) (A) (A)
                 (A) (A) (A) (A) (A) (A) (A) (A) (A) (A) (A) (A)
                 (A) (A) (A) (A) (A) (A) (A) (A) (A) (A) (A) (A)
                 (A) (A) (A) (A) (A) (A) (A) (A) (A) (A) (A) (A)
                 (A) (A) (A) (A) (A) (A) (A) (A) (A) (A) (A) (A)
                 (A) (A) (A) (A) (A) (A) (A) (A) (A) (A) (A) (A)
                 (A) (A) (A) (A) (A) (A) (A) (A) (A) (A) (A) (A)
                 (A) (A) (A) (A) (A) (A) (A) (A) (A) (A) (A) (A)
                 (A) (A) (A) (A) (A) (A) (A) (A) (A) (A) (A) (A)
                 (A) (A) (A) (A) (A) (A) (A) (A) (A) (A) (A) (A)
                 (A) (A) (A) (A) (A) (A) (A) (A) (A) (A) (A) (A)
                 (A) (A) (A) (A) (A) (A) (A) (A) (A) (A) (A) (A)
                 (A) (A) (A) (A) (A) (A) (A) (A) (A) (A) (A) (A)
                 (A) (A) (A) (A) (A) (A) (A) (A) (A) (A) (A) (A)
                 (A) (A) (A) (A) (A) (A) (A) (A) (A) (A) (A) (A)
                 (A) (A) (A) (A) (A) (A) (A) (A) (A) (A) (A) (A)
                 (A) (A) (A) (A) (A) (A) (A) (A) (A) (A) (A) (A)
                 (A) (A) (A) (A) (A) (A) (A) (A) (A) (A) (A) (A)
                 (A) (A) (A) (A) (A) (A) (A) (A) (A) (A) (A) (A)
                 (A) (A) (A) (A) (A) (A) (A) (A) (A) (A) (A) (A)
                 (A) (A) (A) (A) (A) (A) (A) (A) (A) (A) (A) (A)
                 (A) (A) (A) (A) (A) (A) (A) (A) (A) (A) (A) (A)
                 (A) (A) (A) (A) (A) (A) (A) (A) (A) (A) (A) (A)
                 (A) (A) (A) (A) (A) (A) (A) (A) (A) (A) (A) (A)
                 (A) (A) (A) (A) (A) (A) (A) (A) (A) (A) (A) (A)
                 (A) (A) (A) (A) (A) (A) (A) (A) (A) (A) (A) (A)
                 (A) (A) (A) (A) (A) (A) (A) (A) (A) (A) (A) (A)
                 (A) (A) (A) (A) (A) (A) (A) (A) (A) (A) (A) (A)
                 (A) (A) (A) (A) (A) (A) (A)
 The electronic state is 1-A.
 Alpha  occ. eigenvalues --  -89.91888 -19.63409 -19.63310 -19.62745 -19.62273
 Alpha  occ. eigenvalues --  -19.57737 -14.78995 -14.76073 -10.66066 -10.63435
 Alpha  occ. eigenvalues --  -10.62908 -10.59496 -10.59110 -10.59045 -10.58367
 Alpha  occ. eigenvalues --  -10.57595 -10.56851 -10.56798 -10.55327 -10.55248
 Alpha  occ. eigenvalues --  -10.55039 -10.53845 -10.53421 -10.53259  -8.27820
 Alpha  occ. eigenvalues --   -6.19757  -6.19521  -6.19329  -1.19249  -1.18705
 Alpha  occ. eigenvalues --   -1.15917  -1.15023  -1.13781  -1.08357  -1.00680
 Alpha  occ. eigenvalues --   -0.92639  -0.91822  -0.90101  -0.88521  -0.87512
 Alpha  occ. eigenvalues --   -0.85590  -0.82799  -0.78880  -0.76529  -0.75527
 Alpha  occ. eigenvalues --   -0.73456  -0.70773  -0.67668  -0.67309  -0.66361
 Alpha  occ. eigenvalues --   -0.63450  -0.63208  -0.61673  -0.60440  -0.58745
 Alpha  occ. eigenvalues --   -0.58119  -0.57053  -0.56547  -0.56017  -0.54979
 Alpha  occ. eigenvalues --   -0.53927  -0.52975  -0.52383  -0.51685  -0.51202
 Alpha  occ. eigenvalues --   -0.50592  -0.50388  -0.49933  -0.49277  -0.48885
 Alpha  occ. eigenvalues --   -0.48433  -0.48155  -0.47842  -0.47148  -0.46584
 Alpha  occ. eigenvalues --   -0.45912  -0.44736  -0.44273  -0.43834  -0.43672
 Alpha  occ. eigenvalues --   -0.43421  -0.43216  -0.41354  -0.41309  -0.37816
 Alpha  occ. eigenvalues --   -0.36177  -0.35638  -0.34424  -0.34357  -0.33793
 Alpha  occ. eigenvalues --   -0.33452  -0.32923  -0.32482  -0.30830  -0.24390
 Alpha virt. eigenvalues --   -0.03122   0.00313   0.04390   0.04713   0.06066
 Alpha virt. eigenvalues --    0.07188   0.07421   0.08065   0.08584   0.09144
 Alpha virt. eigenvalues --    0.09270   0.09592   0.10383   0.10785   0.11206
 Alpha virt. eigenvalues --    0.11725   0.12195   0.12575   0.12926   0.12986
 Alpha virt. eigenvalues --    0.13633   0.13883   0.13924   0.14162   0.14721
 Alpha virt. eigenvalues --    0.15318   0.15990   0.16300   0.17103   0.17284
 Alpha virt. eigenvalues --    0.17956   0.18303   0.18714   0.18946   0.19554
 Alpha virt. eigenvalues --    0.20339   0.20621   0.21231   0.21785   0.22409
 Alpha virt. eigenvalues --    0.22961   0.23306   0.23508   0.24272   0.24811
 Alpha virt. eigenvalues --    0.24969   0.25565   0.25795   0.26250   0.26936
 Alpha virt. eigenvalues --    0.27340   0.27563   0.28123   0.28809   0.28917
 Alpha virt. eigenvalues --    0.29341   0.30146   0.30176   0.30617   0.31108
 Alpha virt. eigenvalues --    0.31485   0.31901   0.33003   0.33311   0.33834
 Alpha virt. eigenvalues --    0.34227   0.35028   0.35273   0.35574   0.36119
 Alpha virt. eigenvalues --    0.36595   0.37050   0.37366   0.37721   0.38380
 Alpha virt. eigenvalues --    0.38456   0.39096   0.39950   0.40152   0.40221
 Alpha virt. eigenvalues --    0.40828   0.41100   0.41608   0.41914   0.42500
 Alpha virt. eigenvalues --    0.42642   0.42960   0.43604   0.43822   0.44086
 Alpha virt. eigenvalues --    0.44492   0.44882   0.45213   0.45451   0.45898
 Alpha virt. eigenvalues --    0.46579   0.46803   0.47282   0.47527   0.47652
 Alpha virt. eigenvalues --    0.47747   0.47999   0.48763   0.49181   0.49313
 Alpha virt. eigenvalues --    0.50134   0.50414   0.50707   0.50889   0.51329
 Alpha virt. eigenvalues --    0.51882   0.51957   0.52335   0.52520   0.52730
 Alpha virt. eigenvalues --    0.53146   0.53435   0.54319   0.54537   0.54995
 Alpha virt. eigenvalues --    0.55391   0.55545   0.56260   0.56930   0.57740
 Alpha virt. eigenvalues --    0.58027   0.58470   0.58625   0.59237   0.60026
 Alpha virt. eigenvalues --    0.60481   0.61252   0.61800   0.62162   0.62447
 Alpha virt. eigenvalues --    0.62941   0.63739   0.64661   0.65306   0.65670
 Alpha virt. eigenvalues --    0.65981   0.66091   0.66824   0.67602   0.67813
 Alpha virt. eigenvalues --    0.68501   0.68746   0.69341   0.70385   0.71238
 Alpha virt. eigenvalues --    0.71268   0.72536   0.72738   0.73591   0.74076
 Alpha virt. eigenvalues --    0.74517   0.74960   0.75347   0.76372   0.76445
 Alpha virt. eigenvalues --    0.76832   0.77822   0.79243   0.80508   0.81039
 Alpha virt. eigenvalues --    0.81441   0.81892   0.82416   0.83249   0.84068
 Alpha virt. eigenvalues --    0.84320   0.84884   0.85985   0.86638   0.87355
 Alpha virt. eigenvalues --    0.87627   0.88122   0.88567   0.89474   0.90063
 Alpha virt. eigenvalues --    0.91011   0.91245   0.91515   0.92488   0.92982
 Alpha virt. eigenvalues --    0.93388   0.93933   0.95007   0.95349   0.96066
 Alpha virt. eigenvalues --    0.96430   0.97289   0.98306   0.98578   0.99328
 Alpha virt. eigenvalues --    0.99817   1.00299   1.00881   1.01992   1.03046
 Alpha virt. eigenvalues --    1.03681   1.04606   1.05115   1.06059   1.06518
 Alpha virt. eigenvalues --    1.07190   1.07422   1.08752   1.09164   1.09764
 Alpha virt. eigenvalues --    1.10591   1.11437   1.11632   1.11808   1.12571
 Alpha virt. eigenvalues --    1.13251   1.13907   1.15151   1.15731   1.15962
 Alpha virt. eigenvalues --    1.16770   1.17955   1.18303   1.19055   1.20246
 Alpha virt. eigenvalues --    1.21081   1.21895   1.22789   1.22915   1.23343
 Alpha virt. eigenvalues --    1.25016   1.25572   1.26277   1.26868   1.28674
 Alpha virt. eigenvalues --    1.29289   1.30109   1.30550   1.31448   1.31626
 Alpha virt. eigenvalues --    1.32755   1.33949   1.34096   1.35437   1.36083
 Alpha virt. eigenvalues --    1.37385   1.37549   1.38202   1.38782   1.39534
 Alpha virt. eigenvalues --    1.40925   1.41769   1.42358   1.43445   1.44743
 Alpha virt. eigenvalues --    1.45668   1.46889   1.48051   1.48466   1.49680
 Alpha virt. eigenvalues --    1.50150   1.50940   1.51304   1.52124   1.52608
 Alpha virt. eigenvalues --    1.53341   1.53714   1.54678   1.54987   1.55156
 Alpha virt. eigenvalues --    1.55911   1.56471   1.57352   1.57882   1.58300
 Alpha virt. eigenvalues --    1.58698   1.59160   1.59929   1.60037   1.60176
 Alpha virt. eigenvalues --    1.60969   1.61228   1.61740   1.61983   1.62197
 Alpha virt. eigenvalues --    1.62928   1.63358   1.63757   1.64450   1.65506
 Alpha virt. eigenvalues --    1.65975   1.67137   1.67817   1.68386   1.68601
 Alpha virt. eigenvalues --    1.69043   1.69431   1.70108   1.70646   1.70814
 Alpha virt. eigenvalues --    1.71492   1.72657   1.73177   1.73795   1.73943
 Alpha virt. eigenvalues --    1.75264   1.75445   1.76075   1.76420   1.77530
 Alpha virt. eigenvalues --    1.78132   1.78403   1.79315   1.79552   1.80008
 Alpha virt. eigenvalues --    1.82186   1.82388   1.83644   1.84441   1.84626
 Alpha virt. eigenvalues --    1.84738   1.85608   1.86678   1.86900   1.87674
 Alpha virt. eigenvalues --    1.88507   1.88765   1.89718   1.91024   1.91536
 Alpha virt. eigenvalues --    1.92269   1.93415   1.93619   1.93850   1.95117
 Alpha virt. eigenvalues --    1.95597   1.96114   1.96847   1.97153   1.97837
 Alpha virt. eigenvalues --    1.98191   1.99416   2.00044   2.01558   2.01840
 Alpha virt. eigenvalues --    2.02614   2.03041   2.03511   2.04098   2.04875
 Alpha virt. eigenvalues --    2.05320   2.06132   2.06646   2.07873   2.08525
 Alpha virt. eigenvalues --    2.09733   2.09794   2.11158   2.12148   2.12849
 Alpha virt. eigenvalues --    2.13166   2.15090   2.15662   2.16580   2.16954
 Alpha virt. eigenvalues --    2.18096   2.19154   2.19800   2.20217   2.20651
 Alpha virt. eigenvalues --    2.20899   2.21613   2.22145   2.22657   2.23629
 Alpha virt. eigenvalues --    2.24022   2.24724   2.25478   2.26401   2.26971
 Alpha virt. eigenvalues --    2.27986   2.28784   2.29435   2.30276   2.31059
 Alpha virt. eigenvalues --    2.31241   2.31483   2.32360   2.32871   2.33944
 Alpha virt. eigenvalues --    2.34461   2.34733   2.35460   2.36008   2.36708
 Alpha virt. eigenvalues --    2.36885   2.37221   2.38362   2.38633   2.39436
 Alpha virt. eigenvalues --    2.40502   2.40614   2.40921   2.41844   2.43050
 Alpha virt. eigenvalues --    2.43553   2.44682   2.45143   2.45194   2.46573
 Alpha virt. eigenvalues --    2.47495   2.48558   2.49737   2.50357   2.50753
 Alpha virt. eigenvalues --    2.52372   2.52821   2.53399   2.55055   2.55156
 Alpha virt. eigenvalues --    2.55691   2.56944   2.57890   2.58427   2.58907
 Alpha virt. eigenvalues --    2.59176   2.59725   2.60569   2.61780   2.62218
 Alpha virt. eigenvalues --    2.62694   2.63324   2.63846   2.64424   2.64570
 Alpha virt. eigenvalues --    2.65340   2.66103   2.66291   2.67322   2.67779
 Alpha virt. eigenvalues --    2.67855   2.68317   2.69312   2.70608   2.71223
 Alpha virt. eigenvalues --    2.71919   2.72334   2.72614   2.73226   2.74029
 Alpha virt. eigenvalues --    2.75147   2.75858   2.76598   2.77111   2.78479
 Alpha virt. eigenvalues --    2.79904   2.80240   2.81067   2.82052   2.82585
 Alpha virt. eigenvalues --    2.83287   2.83775   2.84068   2.85438   2.86086
 Alpha virt. eigenvalues --    2.86380   2.87668   2.88490   2.88831   2.90207
 Alpha virt. eigenvalues --    2.90540   2.90902   2.91770   2.92254   2.92398
 Alpha virt. eigenvalues --    2.92911   2.94406   2.94923   2.95827   2.97144
 Alpha virt. eigenvalues --    2.97995   2.98254   2.98714   3.00110   3.00540
 Alpha virt. eigenvalues --    3.01472   3.02401   3.02896   3.03326   3.03966
 Alpha virt. eigenvalues --    3.05298   3.05412   3.06041   3.06483   3.07000
 Alpha virt. eigenvalues --    3.08137   3.08501   3.08691   3.09114   3.09607
 Alpha virt. eigenvalues --    3.10089   3.10876   3.11675   3.12270   3.12683
 Alpha virt. eigenvalues --    3.13033   3.13666   3.14285   3.14414   3.14987
 Alpha virt. eigenvalues --    3.15834   3.15949   3.16514   3.17607   3.17937
 Alpha virt. eigenvalues --    3.18434   3.18969   3.19138   3.19905   3.20784
 Alpha virt. eigenvalues --    3.21120   3.21552   3.22829   3.23801   3.24284
 Alpha virt. eigenvalues --    3.24530   3.25286   3.25702   3.26658   3.26908
 Alpha virt. eigenvalues --    3.27788   3.29033   3.29759   3.30249   3.30541
 Alpha virt. eigenvalues --    3.31512   3.32222   3.32591   3.33794   3.34278
 Alpha virt. eigenvalues --    3.34674   3.35172   3.35727   3.35882   3.36496
 Alpha virt. eigenvalues --    3.37489   3.38030   3.38134   3.38721   3.39098
 Alpha virt. eigenvalues --    3.40116   3.40788   3.41285   3.41826   3.42427
 Alpha virt. eigenvalues --    3.42708   3.43999   3.45017   3.45082   3.46179
 Alpha virt. eigenvalues --    3.46646   3.46964   3.47546   3.49500   3.49754
 Alpha virt. eigenvalues --    3.50205   3.50468   3.52161   3.52693   3.53524
 Alpha virt. eigenvalues --    3.54212   3.55315   3.55764   3.56315   3.56733
 Alpha virt. eigenvalues --    3.58293   3.58971   3.59518   3.59869   3.60599
 Alpha virt. eigenvalues --    3.61843   3.62817   3.63242   3.64311   3.65487
 Alpha virt. eigenvalues --    3.66256   3.66339   3.66920   3.68111   3.68187
 Alpha virt. eigenvalues --    3.69454   3.70024   3.71661   3.73054   3.73835
 Alpha virt. eigenvalues --    3.74885   3.75233   3.76738   3.77441   3.78096
 Alpha virt. eigenvalues --    3.79303   3.80295   3.81448   3.81875   3.82225
 Alpha virt. eigenvalues --    3.84620   3.84971   3.86656   3.87000   3.88576
 Alpha virt. eigenvalues --    3.89726   3.90804   3.92040   3.93657   3.94485
 Alpha virt. eigenvalues --    3.95251   3.96485   3.97639   3.98499   4.00294
 Alpha virt. eigenvalues --    4.01512   4.02174   4.03224   4.04978   4.05976
 Alpha virt. eigenvalues --    4.07933   4.09874   4.11200   4.12863   4.13470
 Alpha virt. eigenvalues --    4.14356   4.15779   4.16428   4.18119   4.18453
 Alpha virt. eigenvalues --    4.19208   4.20024   4.21058   4.21946   4.24282
 Alpha virt. eigenvalues --    4.25664   4.26959   4.29052   4.30581   4.33034
 Alpha virt. eigenvalues --    4.34055   4.35603   4.37108   4.38299   4.38550
 Alpha virt. eigenvalues --    4.39941   4.40421   4.41268   4.41931   4.43237
 Alpha virt. eigenvalues --    4.44300   4.47177   4.47337   4.49464   4.50962
 Alpha virt. eigenvalues --    4.52494   4.52832   4.53661   4.56387   4.59103
 Alpha virt. eigenvalues --    4.62432   4.64995   4.65447   4.66836   4.68161
 Alpha virt. eigenvalues --    4.69399   4.69850   4.72000   4.73550   4.74311
 Alpha virt. eigenvalues --    4.75737   4.76396   4.79294   4.82468   4.84425
 Alpha virt. eigenvalues --    4.86256   4.87770   4.89969   4.90572   4.92669
 Alpha virt. eigenvalues --    4.93285   4.94686   4.97510   4.99299   5.00563
 Alpha virt. eigenvalues --    5.02939   5.04439   5.05131   5.06898   5.08457
 Alpha virt. eigenvalues --    5.13319   5.13960   5.14520   5.19930   5.21194
 Alpha virt. eigenvalues --    5.21878   5.24027   5.24650   5.25812   5.28855
 Alpha virt. eigenvalues --    5.29965   5.30938   5.31134   5.34390   5.38876
 Alpha virt. eigenvalues --    5.40308   5.41933   5.44349   5.47293   5.49277
 Alpha virt. eigenvalues --    5.49951   5.51044   5.53603   5.55391   5.56105
 Alpha virt. eigenvalues --    5.64367   5.68726   5.75950   5.77158   5.79554
 Alpha virt. eigenvalues --    5.79906   5.81804   5.82431   5.83838   5.88465
 Alpha virt. eigenvalues --    5.89581   5.91488   5.93961   5.96330   5.97287
 Alpha virt. eigenvalues --    5.99632   6.05890   6.07153   6.16133   6.18565
 Alpha virt. eigenvalues --    6.21773   6.25615   6.28496   6.29570   6.38523
 Alpha virt. eigenvalues --    6.38914   6.43340   6.44306   6.48401   6.53830
 Alpha virt. eigenvalues --    6.56571   6.62314   6.72154   6.76185   6.77328
 Alpha virt. eigenvalues --    6.77626   6.82656   6.84165   6.85565   6.86723
 Alpha virt. eigenvalues --    6.87045   6.98052   7.00451   7.04132   7.08913
 Alpha virt. eigenvalues --    7.11296   7.13258   7.14631   7.18075   7.22793
 Alpha virt. eigenvalues --    7.30829   7.35608   9.02707   9.39817   9.55153
 Alpha virt. eigenvalues --   19.98687  22.33755  22.46242  22.48756  22.51654
 Alpha virt. eigenvalues --   22.57901  22.66395  22.74487  22.77081  22.84814
 Alpha virt. eigenvalues --   22.91704  23.00685  23.01896  23.08570  23.09802
 Alpha virt. eigenvalues --   23.28138  23.49980  32.18091  33.23802  44.16740
 Alpha virt. eigenvalues --   44.19437  44.25513  44.28278  44.54069
          Condensed to atoms (all electrons):
               1          2          3          4          5          6
     1  C    5.149901   0.425380   0.410533   0.013334  -0.007618  -0.000248
     2  H    0.425380   0.499855  -0.016158  -0.002210   0.000462  -0.000006
     3  H    0.410533  -0.016158   0.521795  -0.000993   0.000324  -0.000013
     4  C    0.013334  -0.002210  -0.000993   5.629147   0.541953   0.192380
     5  H   -0.007618   0.000462   0.000324   0.541953   0.525312  -0.037970
     6  O   -0.000248  -0.000006  -0.000013   0.192380  -0.037970   8.138684
     7  H    0.000038  -0.000003  -0.000002  -0.053805  -0.008591   0.321214
     8  C   -0.012466   0.010749  -0.000913  -0.026179  -0.100389  -0.054812
     9  H    0.004816  -0.000337  -0.001749  -0.069562   0.002246   0.001301
    10  O    0.005501  -0.000184  -0.000035   0.058552   0.005798  -0.020049
[...]
 (Enter /storage/apps/GAUSSIAN/G16_RevA03/g16/l716.exe)
 Dipole        =-9.08545849D-01-8.02157141D-01 1.60692279D+00
 ***** Axes restored to original set *****
 -------------------------------------------------------------------
 Center     Atomic                   Forces (Hartrees/Bohr)
 Number     Number              X              Y              Z
 -------------------------------------------------------------------
      1        6           0.000277909   -0.000038951    0.000034180
      2        1           0.000022336   -0.000004240    0.000003086
      3        1           0.000013843   -0.000007157    0.000003360
      4        6           0.000031462   -0.000073267   -0.000089863
      5        1          -0.000004701   -0.000023129    0.000010257
      6        8          -0.000082179   -0.000079129   -0.000176863
      7        1          -0.000034130   -0.000014432   -0.000006090
      8        6           0.000025907    0.000003835   -0.000005291
      9        1          -0.000007708    0.000005085    0.000016380
     10        8          -0.000024194    0.000101386   -0.000032651
     11        1          -0.000016513   -0.000011257    0.000022043
     12        6           0.000069579   -0.000083828   -0.000112118
     13        1           0.000024533   -0.000005856   -0.000027215
     14        6           0.000114788    0.000031412    0.000011277
     15        1          -0.000005594    0.000010898   -0.000006876
     16        8           0.000087607   -0.000174445   -0.000079278
     17        7           0.000123693   -0.000032183   -0.000042712
     18        6           0.000025392   -0.000079079   -0.000148639
     19        1          -0.000007455    0.000012481   -0.000040742
     20        6           0.000057732   -0.000051933   -0.000048865
     21        1           0.000013953    0.000017274    0.000012064
     22        6           0.000066611    0.000091969   -0.000243002
     23        1           0.000026740    0.000019814    0.000226755
     24        1           0.000112054   -0.000059988   -0.000061834
     25        6           0.000002989   -0.000022383    0.000093333
     26        6          -0.000000562   -0.000011744    0.000083970
     27        1           0.000010334    0.000010205    0.000024285
     28        6          -0.000126580   -0.000359791   -0.000094045
     29        8          -0.000088979    0.000292524    0.001069903
     30        7           0.000267474    0.000073805   -0.000368688
     31        1           0.000051039    0.000017727    0.000006682
     32        1           0.000131323    0.000054382   -0.000048257
     33        1          -0.000013454   -0.000000656    0.000011894
     34        6           0.000034522    0.000086214   -0.000327379
     35        6          -0.000128073    0.000079788    0.000085826
     36        6          -0.000224343   -0.000146030    0.000082250
     37        6          -0.000281634   -0.000090126    0.000219668
     38        6          -0.000209985    0.000147715    0.000302580
     39        8          -0.000374470   -0.000040558    0.000379151
     40       16          -0.000050696    0.000160111   -0.000643230
     41        1           0.000030499    0.000038965   -0.000033029
     42        1           0.000000682   -0.000013974   -0.000051956
     43        1           0.000071351    0.000035358   -0.000003936
     44        1          -0.000005403    0.000120056   -0.000006640
     45        1          -0.000020666   -0.000029060    0.000011404
     46        1           0.000014308    0.000024295    0.000022756
     47        1           0.000002607    0.000029759   -0.000015078
     48        1          -0.000003949   -0.000011862   -0.000018829
 -------------------------------------------------------------------
 Cartesian Forces:  Max     0.001069903 RMS     0.000152929
 Leave Link  716 at Sat Aug 13 20:34:09 2022, MaxMem=  2684354560 cpu:               0.4 elap:               0.0
 (Enter /storage/apps/GAUSSIAN/G16_RevA03/g16/l103.exe)

 GradGradGradGradGradGradGradGradGradGradGradGradGradGradGradGradGradGrad
 Berny optimization.
 Search for a local minimum.
 Step number   1 out of a maximum of    2
 All quantities printed in internal units (Hartrees-Bohrs-Radians)
 Second derivative matrix not updated -- first step.
 ITU=  0
     Eigenvalues ---    0.00038   0.00091   0.00104   0.00126   0.00187
     Eigenvalues ---    0.00235   0.00307   0.00393   0.00419   0.00457
     Eigenvalues ---    0.00524   0.00728   0.00839   0.00909   0.00937
     Eigenvalues ---    0.00995   0.01082   0.01176   0.01380   0.01526
     Eigenvalues ---    0.01696   0.01885   0.02355   0.02498   0.02629
     Eigenvalues ---    0.02946   0.03212   0.03356   0.03760   0.03891
     Eigenvalues ---    0.04369   0.04630   0.04918   0.05079   0.05240
     Eigenvalues ---    0.05323   0.05544   0.05736   0.05835   0.05892
     Eigenvalues ---    0.06073   0.06175   0.06314   0.06395   0.06665
     Eigenvalues ---    0.06949   0.07343   0.07633   0.07823   0.08087
     Eigenvalues ---    0.08472   0.08778   0.09017   0.09654   0.10295
     Eigenvalues ---    0.10523   0.11560   0.12118   0.12207   0.12505
     Eigenvalues ---    0.12954   0.13125   0.13214   0.13558   0.13657
     Eigenvalues ---    0.14024   0.14083   0.15376   0.15987   0.16580
     Eigenvalues ---    0.16945   0.18184   0.18893   0.19638   0.19850
     Eigenvalues ---    0.19938   0.20372   0.21714   0.21852   0.22214
     Eigenvalues ---    0.24205   0.26827   0.27403   0.27688   0.31862
     Eigenvalues ---    0.32976   0.34212   0.34741   0.35354   0.37099
     Eigenvalues ---    0.38076   0.38076   0.38076   0.38076   0.40172
     Eigenvalues ---    0.43160   0.45156   0.48058   0.56592   0.56749
     Eigenvalues ---    0.61596   0.66439   0.69461   0.70067   0.74184
     Eigenvalues ---    0.79012   0.82497   0.87509   0.89109   0.91140
     Eigenvalues ---    0.91299   0.91956   0.93886   0.94468   0.94918
     Eigenvalues ---    0.95543   0.97147   0.99615   1.01436   1.02977
     Eigenvalues ---    1.05452   1.06778   1.09658   1.11394   1.14074
     Eigenvalues ---    1.19522   1.19967   1.24647   1.25999   1.29936
     Eigenvalues ---    1.33932   1.42329   1.51670   1.63617   1.70028
     Eigenvalues ---    1.79456   2.17908   2.27372
 Quadratic step=1.303D+00 exceeds max=3.000D-01 adjusted using Lamda=-1.931D-03.
 Angle between NR and scaled steps=  27.09 degrees.
 Angle between quadratic step and forces=  53.30 degrees.
 Linear search not attempted -- first point.
 Variable       Old X    -DE/DX   Delta X   Delta X   Delta X     New X
                                 (Linear)    (Quad)   (Total)
    X1        6.92129   0.00028   0.00000   0.00519   0.00519   6.92648
    Y1       -6.85502  -0.00004   0.00000  -0.00996  -0.00996  -6.86497
    Z1       -0.83564   0.00003   0.00000   0.02234   0.02234  -0.81329
    X2        7.23329   0.00002   0.00000   0.00581   0.00581   7.23909
    Y2       -7.04770  -0.00000   0.00000  -0.02714  -0.02714  -7.07484
    Z2       -2.86095   0.00000   0.00000   0.02436   0.02436  -2.83660
    X3        8.29142   0.00001   0.00000   0.00126   0.00126   8.29268
    Y3       -8.02827  -0.00001   0.00000  -0.00423  -0.00423  -8.03250
    Z3        0.16129   0.00000   0.00000   0.03436   0.03436   0.19566
    X4        3.61526   0.00003   0.00000   0.00113   0.00113   3.61639
    Y4       -2.77503  -0.00007   0.00000  -0.00032  -0.00032  -2.77535
    Z4        2.27701  -0.00009   0.00000  -0.01315  -0.01315   2.26386
    X5        2.41384  -0.00000   0.00000   0.00607   0.00607   2.41991
    Y5       -4.44115  -0.00002   0.00000  -0.00507  -0.00507  -4.44622
    Z5        2.01421   0.00001   0.00000  -0.00730  -0.00730   2.00691
    X6        2.82098  -0.00008   0.00000  -0.00885  -0.00885   2.81213
    Y6       -1.33239  -0.00008   0.00000   0.00683   0.00683  -1.32556
    Z6        4.34070  -0.00018   0.00000  -0.02224  -0.02224   4.31847
    X7        1.04732  -0.00003   0.00000  -0.01113  -0.01113   1.03620
    Y7       -0.88327  -0.00001   0.00000  -0.00266  -0.00266  -0.88594
    Z7        4.12231  -0.00001   0.00000  -0.02501  -0.02501   4.09730
    X8        6.35776   0.00003   0.00000   0.00282   0.00282   6.36058
    Y8       -3.57611   0.00000   0.00000   0.01261   0.01261  -3.56350
    Z8        2.63918  -0.00001   0.00000  -0.00326  -0.00326   2.63593
    X9        6.53857  -0.00001   0.00000   0.00502   0.00502   6.54359
    Y9       -5.24419   0.00001   0.00000   0.02204   0.02204  -5.22215
    Z9        3.84855   0.00002   0.00000   0.00983   0.00983   3.85838
   X10        7.77271  -0.00002   0.00000  -0.00666  -0.00666   7.76605
   Y10       -1.53910   0.00010   0.00000   0.02545   0.02545  -1.51365
   Z10        3.60627  -0.00003   0.00000  -0.01608  -0.01608   3.59019
   X11        6.74199  -0.00002   0.00000  -0.01111  -0.01111   6.73087
   Y11       -0.73484  -0.00001   0.00000   0.02621   0.02621  -0.70862
   Z11        4.88043   0.00002   0.00000  -0.01980  -0.01980   4.86063
   X12        3.77844   0.00007   0.00000   0.00532   0.00532   3.78376
   Y12       -1.29638  -0.00008   0.00000  -0.00944  -0.00944  -1.30582
   Z12       -0.21740  -0.00011   0.00000  -0.01721  -0.01721  -0.23461
   X13        4.34775   0.00002   0.00000   0.00437   0.00437   4.35212
   Y13        0.64945  -0.00001   0.00000  -0.00881  -0.00881   0.64064
   Z13        0.19480  -0.00003   0.00000  -0.01907  -0.01907   0.17573
   X14        7.20060   0.00011   0.00000   0.00641   0.00641   7.20701
   Y14       -4.10954   0.00003   0.00000  -0.00424  -0.00424  -4.11379
   Z14       -0.06573   0.00001   0.00000   0.00121   0.00121  -0.06452
   X15        9.15138  -0.00001   0.00000   0.00645   0.00645   9.15783
   Y15       -3.48128   0.00001   0.00000  -0.00588  -0.00588  -3.48716
   Z15       -0.29632  -0.00001   0.00000   0.00049   0.00049  -0.29582
   X16        5.63008   0.00009   0.00000   0.00749   0.00749   5.63757
   Y16       -2.56647  -0.00017   0.00000  -0.01456  -0.01456  -2.58103
   Z16       -1.65097  -0.00008   0.00000  -0.01071  -0.01071  -1.66168
   X17        1.46257   0.00012   0.00000   0.00455   0.00455   1.46712
   Y17       -1.16868  -0.00003   0.00000  -0.00834  -0.00834  -1.17702
   Z17       -1.64076  -0.00004   0.00000  -0.01479  -0.01479  -1.65555
   X18        0.35493   0.00003   0.00000   0.00651   0.00651   0.36144
   Y18       -3.39034  -0.00008   0.00000  -0.00507  -0.00507  -3.39541
   Z18       -2.52451  -0.00015   0.00000  -0.02575  -0.02575  -2.55026
   X19        1.38076  -0.00001   0.00000   0.00642   0.00642   1.38718
   Y19       -5.09883   0.00001   0.00000  -0.00682  -0.00682  -5.10565
   Z19       -2.07934  -0.00004   0.00000  -0.03270  -0.03270  -2.11204
   X20       -1.75583   0.00006   0.00000   0.00521   0.00521  -1.75063
   Y20       -3.41640  -0.00005   0.00000   0.00019   0.00019  -3.41622
   Z20       -3.88369  -0.00005   0.00000  -0.02375  -0.02375  -3.90744
   X21       -2.47668   0.00001   0.00000   0.00378   0.00378  -2.47290
   Y21       -5.21954   0.00002   0.00000   0.00245   0.00245  -5.21709
   Z21       -4.52115   0.00001   0.00000  -0.02857  -0.02857  -4.54973
   X22       -3.15670   0.00007   0.00000   0.00208   0.00208  -3.15461
   Y22       -1.05420   0.00009   0.00000   0.00286   0.00286  -1.05134
   Z22       -4.60701  -0.00024   0.00000  -0.00979  -0.00979  -4.61681
   X23       -3.36675   0.00003   0.00000   0.00315   0.00315  -3.36360
   Y23       -0.97810   0.00002   0.00000   0.01835   0.01835  -0.95975
   Z23       -6.67247   0.00023   0.00000  -0.00844  -0.00844  -6.68091
   X24       -5.08857   0.00011   0.00000   0.00157   0.00157  -5.08700
   Y24       -1.11086  -0.00006   0.00000  -0.00964  -0.00964  -1.12050
   Z24       -3.84839  -0.00006   0.00000  -0.01210  -0.01210  -3.86049
   X25       -1.77604   0.00000   0.00000  -0.00762  -0.00762  -1.78366
   Y25        1.24873  -0.00002   0.00000  -0.00125  -0.00125   1.24747
   Z25       -3.64508   0.00009   0.00000   0.01449   0.01449  -3.63059
   X26        0.36744  -0.00000   0.00000  -0.00524  -0.00524   0.36220
   Y26        1.07109  -0.00001   0.00000  -0.00649  -0.00649   1.06460
   Z26       -2.29284   0.00008   0.00000   0.00921   0.00921  -2.28363
   X27        1.29018   0.00001   0.00000  -0.01247  -0.01247   1.27771
   Y27        2.77869   0.00001   0.00000  -0.00928  -0.00928   2.76941
   Z27       -1.63864   0.00002   0.00000   0.02655   0.02655  -1.61209
   X28       -2.76687  -0.00013   0.00000  -0.02154  -0.02154  -2.78841
   Y28        3.81792  -0.00036   0.00000  -0.00016  -0.00016   3.81776
   Z28       -4.09324  -0.00009   0.00000   0.05245   0.05245  -4.04079
   X29       -1.69147  -0.00009   0.00000  -0.06462  -0.06462  -1.75609
   Y29        5.74896   0.00029   0.00000  -0.00605  -0.00605   5.74291
   Z29       -3.45494   0.00107   0.00000   0.14470   0.14470  -3.31024
   X30       -5.10314   0.00027   0.00000   0.01084   0.01084  -5.09230
   Y30        3.91376   0.00007   0.00000   0.00460   0.00460   3.91836
   Z30       -5.22355  -0.00037   0.00000  -0.01402  -0.01402  -5.23757
   X31       -5.68415   0.00005   0.00000   0.00765   0.00765  -5.67650
   Y31        5.63604   0.00002   0.00000   0.01284   0.01284   5.64888
   Z31       -5.78581   0.00001   0.00000   0.01468   0.01468  -5.77114
   X32       -5.81955   0.00013   0.00000   0.05284   0.05284  -5.76671
   Y32        2.40390   0.00005   0.00000   0.02012   0.02012   2.42402
   Z32       -6.12349  -0.00005   0.00000  -0.07339  -0.07339  -6.19688
   X33        5.02896  -0.00001   0.00000   0.00332   0.00332   5.03228
   Y33       -7.55673  -0.00000   0.00000  -0.00333  -0.00333  -7.56007
   Z33       -0.40134   0.00001   0.00000   0.02694   0.02694  -0.37440
   X34        0.43240   0.00003   0.00000   0.00173   0.00173   0.43413
   Y34        4.19682   0.00009   0.00000   0.00108   0.00108   4.19790
   Z34        5.15491  -0.00033   0.00000  -0.00992  -0.00992   5.14498
   X35       -3.25878  -0.00013   0.00000  -0.00233  -0.00233  -3.26110
   Y35        1.74583   0.00008   0.00000  -0.00162  -0.00162   1.74421
   Z35        2.53260   0.00009   0.00000   0.00771   0.00771   2.54031
   X36       -5.64060  -0.00022   0.00000   0.00736   0.00736  -5.63325
   Y36        1.66329  -0.00015   0.00000  -0.00240  -0.00240   1.66089
   Z36        1.08110   0.00008   0.00000  -0.00761  -0.00761   1.07349
   X37       -9.26182  -0.00028   0.00000   0.00283   0.00283  -9.25900
   Y37       -0.77817  -0.00009   0.00000   0.00124   0.00124  -0.77693
   Z37       -0.70704   0.00022   0.00000  -0.00246  -0.00246  -0.70950
   X38       -6.81463  -0.00021   0.00000  -0.00819  -0.00819  -6.82282
   Y38       -0.51828   0.00015   0.00000   0.00155   0.00155  -0.51673
   Z38        0.66430   0.00030   0.00000   0.01698   0.01698   0.68127
   X39       -2.09018  -0.00037   0.00000  -0.04975  -0.04975  -2.13993
   Y39       -0.12510  -0.00004   0.00000  -0.00417  -0.00417  -0.12928
   Z39        3.17982   0.00038   0.00000   0.08606   0.08606   3.26588
   X40       -2.33764  -0.00005   0.00000   0.05873   0.05873  -2.27891
   Y40        4.83545   0.00016   0.00000   0.00524   0.00524   4.84069
   Z40        3.29826  -0.00064   0.00000  -0.09417  -0.09417   3.20409
   X41        1.00564   0.00003   0.00000  -0.00367  -0.00367   1.00196
   Y41        5.98839   0.00004   0.00000   0.00441   0.00441   5.99280
   Z41        5.98183  -0.00003   0.00000  -0.01321  -0.01321   5.96862
   X42        1.94605   0.00000   0.00000   0.02646   0.02646   1.97252
   Y42        3.45894  -0.00001   0.00000  -0.02847  -0.02847   3.43047
   Z42        3.97744  -0.00005   0.00000   0.04088   0.04088   4.01832
   X43      -10.73730   0.00007   0.00000  -0.01133  -0.01133 -10.74863
   Y43       -1.43496   0.00004   0.00000   0.01812   0.01812  -1.41684
   Z43        0.58036  -0.00000   0.00000  -0.01071  -0.01071   0.56964
   X44       -9.85675  -0.00001   0.00000   0.01923   0.01923  -9.83752
   Y44        1.01105   0.00012   0.00000  -0.00226  -0.00226   1.00879
   Z44       -1.53275  -0.00001   0.00000  -0.02262  -0.02262  -1.55537
   X45       -9.11750  -0.00002   0.00000   0.01036   0.01036  -9.10714
   Y45       -2.19309  -0.00003   0.00000  -0.01136  -0.01136  -2.20445
   Z45       -2.20267   0.00001   0.00000   0.00989   0.00989  -2.19278
   X46       -5.93342   0.00001   0.00000  -0.02543  -0.02543  -5.95885
   Y46       -2.22646   0.00002   0.00000   0.00448   0.00448  -2.22198
   Z46        1.38797   0.00002   0.00000   0.04502   0.04502   1.43299
   X47       -6.39383   0.00000   0.00000   0.03022   0.03022  -6.36361
   Y47        3.44644   0.00003   0.00000  -0.00631  -0.00631   3.44014
   Z47        0.40652  -0.00002   0.00000  -0.04346  -0.04346   0.36306
   X48       -0.00777  -0.00000   0.00000  -0.05238  -0.05238  -0.06015
   Y48        2.84743  -0.00001   0.00000   0.02242   0.02242   2.86985
   Z48        6.64189  -0.00002   0.00000  -0.00583  -0.00583   6.63605
         Item               Value     Threshold  Converged?
 Maximum Force            0.001070     0.000450     NO 
 RMS     Force            0.000153     0.000300     YES
 Maximum Displacement     0.144702     0.001800     NO 
 RMS     Displacement     0.025045     0.001200     NO 
 Predicted change in Energy=-2.520121D-04
 GradGradGradGradGradGradGradGradGradGradGradGradGradGradGradGradGradGrad

 Leave Link  103 at Sat Aug 13 20:34:09 2022, MaxMem=  2684354560 cpu:               0.9 elap:               0.1
 (Enter /storage/apps/GAUSSIAN/G16_RevA03/g16/l9999.exe)

 Test job not archived.
 1\1\GINC-T042\Force\RM062X\def2TZVP\C16H24N2O5S1\LV87696\13-Aug-2022\0
 \\#P M062X/Def2TZVP scf=(direct,conver=8) EmpiricalDispersion=GD3 Forc
 e Charge Prop=(Field,Read)\\Gaussian run\\0,1\C,3.662587,-3.627519,-0.
 4422\H,3.827691,-3.729481,-1.513951\H,4.387632,-4.248375,0.085352\C,1.
 913112,-1.468485,1.204943\H,1.277348,-2.350155,1.065876\O,1.492799,-0.
 70507,2.297002\H,0.55422,-0.467409,2.18143\C,3.364382,-1.892396,1.3965
 96\H,3.460064,-2.775105,2.036566\O,4.113141,-0.814459,1.908355\H,3.567
 705,-0.388859,2.582613\C,1.999466,-0.686013,-0.115044\H,2.300729,0.343
 676,0.103085\C,3.810393,-2.174676,-0.034781\H,4.842702,-1.842214,-0.15
 6805\O,2.979308,-1.358115,-0.873657\N,0.773958,-0.61844,-0.868254\C,0.
 187822,-1.79409,-1.335913\H,0.730665,-2.698185,-1.100339\C,-0.929146,-
 1.807883,-2.055162\H,-1.310604,-2.76206,-2.392492\C,-1.670452,-0.55786
 ,-2.437927\H,-1.781606,-0.517589,-3.530918\H,-2.692755,-0.587842,-2.03
 6482\C,-0.939839,0.660797,-1.928892\C,0.194442,0.566796,-1.213319\H,0.
 682732,1.470422,-0.86713\C,-1.464162,2.020356,-2.166047\O,-0.895089,3.
 04222,-1.828275\N,-2.700465,2.071074,-2.764181\H,-3.007921,2.982466,-3
 .061721\H,-3.079571,1.272089,-3.240413\H,2.661211,-3.998851,-0.212378\
 C,0.228816,2.220861,2.727859\C,-1.724471,0.923855,1.340194\C,-2.984878
 ,0.880175,0.572092\C,-4.901145,-0.411789,-0.374152\C,-3.606147,-0.2742
 6,0.35153\O,-1.106075,-0.066201,1.682687\S,-1.237028,2.558808,1.745364
 \H,0.53216,3.168922,3.165448\H,1.029806,1.830392,2.104771\H,-5.681934,
 -0.759346,0.307112\H,-5.215967,0.535022,-0.811094\H,-4.824773,-1.16053
 2,-1.165605\H,-3.139829,-1.178192,0.734481\H,-3.383467,1.82378,0.21512
 1\H,-0.004111,1.506797,3.514735\\Version=ES64L-G16RevA.03\State=1-A\HF
 =-1507.9334135\RMSD=1.653e-09\RMSF=1.529e-04\Dipole=-1.6406644,-1.1629
 712,-0.082648\Quadrupole=4.0191352,-3.0259134,-0.9932218,-2.0894952,8.
 1345463,5.1027374\PG=C01 [X(C16H24N2O5S1)]\\@


 THE WISE MAN HAS THE POWER TO REASON AWAY
 WHAT A FOOL BELIEVES.
                     - DOOBIE BROTHERS
 Job cpu time:       0 days  3 hours 10 minutes 52.2 seconds.
 Elapsed time:       0 days  0 hours 11 minutes 57.0 seconds.
 File lengths (MBytes):  RWF=    435 Int=      0 D2E=      0 Chk=     48 Scr=      1
 Normal termination of Gaussian 16 at Sat Aug 13 20:34:09 2022.
