 Entering Gaussian System, Link 0=g16
 Initial command:
 /storage/apps/GAUSSIAN/G16_RevA03/g16/l1.exe "/scratch/tmp/1019387/Gau-2522.inp" -scrdir="/scratch/tmp/1019387/"
 Entering Link 1 = /storage/apps/GAUSSIAN/G16_RevA03/g16/l1.exe PID=      2523.
  
 Copyright (c) 1988,1990,1992,1993,1995,1998,2003,2009,2016,
            Gaussian, Inc.  All Rights Reserved.
  
 This is part of the Gaussian(R) 16 program.  It is based on
 the Gaussian(R) 09 system (copyright 2009, Gaussian, Inc.),
 the Gaussian(R) 03 system (copyright 2003, Gaussian, Inc.),
 the Gaussian(R) 98 system (copyright 1998, Gaussian, Inc.),
 the Gaussian(R) 94 system (copyright 1995, Gaussian, Inc.),
 the Gaussian 92(TM) system (copyright 1992, Gaussian, Inc.),
 the Gaussian 90(TM) system (copyright 1990, Gaussian, Inc.),
 the Gaussian 88(TM) system (copyright 1988, Gaussian, Inc.),
 the Gaussian 86(TM) system (copyright 1986, Carnegie Mellon
 University), and the Gaussian 82(TM) system (copyright 1983,
 Carnegie Mellon University). Gaussian is a federally registered
 trademark of Gaussian, Inc.
  
 This software contains proprietary and confidential information,
 including trade secrets, belonging to Gaussian, Inc.
  
 This software is provided under written license and may be
 used, copied, transmitted, or stored only in accord with that
 written license.
  
 The following legend is applicable only to US Government
 contracts under FAR:
  
                    RESTRICTED RIGHTS LEGEND
  
 Use, reproduction and disclosure by the US Government is
 subject to restrictions as set forth in subparagraphs (a)
 and (c) of the Commercial Computer Software - Restricted
 Rights clause in FAR 52.227-19.
  
 Gaussian, Inc.
 340 Quinnipiac St., Bldg. 40, Wallingford CT 06492
  
  
 ---------------------------------------------------------------
 Warning -- This program may not be used in any manner that
 competes with the business of Gaussian, Inc. or will provide
 assistance to any competitor of Gaussian, Inc.  The licensee
 of this program is prohibited from giving any competitor of
 Gaussian, Inc. access to this program.  By using this program,
 the user acknowledges that Gaussian, Inc. is engaged in the
 business of creating and licensing software in the field of
 computational chemistry and represents and warrants to the
 licensee that it is not a competitor of Gaussian, Inc. and that
 it will not use this program in any manner prohibited above.
 ---------------------------------------------------------------
  

 Cite this work as:
 Gaussian 16, Revision A.03,
 M. J. Frisch, G. W. Trucks, H. B. Schlegel, G. E. Scuseria, 
 M. A. Robb, J. R. Cheeseman, G. Scalmani, V. Barone, 
 G. A. Petersson, H. Nakatsuji, X. Li, M. Caricato, A. V. Marenich, 
 J. Bloino, B. G. Janesko, R. Gomperts, B. Mennucci, H. P. Hratchian, 
 J. V. Ortiz, A. F. Izmaylov, J. L. Sonnenberg, D. Williams-Young, 
 F. Ding, F. Lipparini, F. Egidi, J. Goings, B. Peng, A. Petrone, 
 T. Henderson, D. Ranasinghe, V. G. Zakrzewski, J. Gao, N. Rega, 
 G. Zheng, W. Liang, M. Hada, M. Ehara, K. Toyota, R. Fukuda, 
 J. Hasegawa, M. Ishida, T. Nakajima, Y. Honda, O. Kitao, H. Nakai, 
 T. Vreven, K. Throssell, J. A. Montgomery, Jr., J. E. Peralta, 
 F. Ogliaro, M. J. Bearpark, J. J. Heyd, E. N. Brothers, K. N. Kudin, 
 V. N. Staroverov, T. A. Keith, R. Kobayashi, J. Normand, 
 K. Raghavachari, A. P. Rendell, J. C. Burant, S. S. Iyengar, 
 J. Tomasi, M. Cossi, J. M. Millam, M. Klene, C. Adamo, R. Cammi, 
 J. W. Ochterski, R. L. Martin, K. Morokuma, O. Farkas, 
 J. B. Foresman, and D. J. Fox, Gaussian, Inc., Wallingford CT, 2016.
 
 ******************************************
 Gaussian 16:  ES64L-G16RevA.03 25-Dec-2016
                13-Aug-2022 
 ******************************************
 %NProcShared=16
 Will use up to   16 processors via shared memory.
 %mem=20GB
 ----------------------------------------------------------------------
 #P M062X/Def2TZVP scf=(direct,conver=8) EmpiricalDispersion=GD3 Force 
 Charge Prop=(Field,Read)
 ----------------------------------------------------------------------
 1/10=7,18=10,28=-2,30=1,38=1,125=101/1,3;
 2/12=2,17=6,18=5,29=2,40=1/2;
 3/5=44,7=101,11=2,25=1,30=1,71=1,74=-55,124=31/1,2,3;
 4//1;
 5/5=2,6=8,38=5/2;
 6/7=2,8=2,9=2,10=2,14=2,15=1,28=1/1,2;
 7/7=1,16=-2,29=1/1,2,3,16;
 1/10=7,18=10,28=-2,30=1/3;
 99/12=1/99;
 Leave Link    1 at Sat Aug 13 20:47:47 2022, MaxMem=  2684354560 cpu:               0.5 elap:               0.0
 (Enter /storage/apps/GAUSSIAN/G16_RevA03/g16/l101.exe)
 ------------
 Gaussian run
 ------------
 Symbolic Z-matrix:
 Charge =  0 Multiplicity = 1
 C                     3.57808  -3.62355  -0.39909 
 H                     3.75391  -3.71516  -1.47037 
 H                     4.28862  -4.26327   0.12477 
 C                     1.82801  -1.43548   1.24085 
 H                     1.1755   -2.30024   1.05458 
 O                     1.40741  -0.6808    2.31421 
 H                     0.47011  -0.35872   2.11163 
 C                     3.27433  -1.89341   1.45024 
 H                     3.33183  -2.77737   2.09273 
 O                     4.0247   -0.82704   1.97465 
 H                     3.45555  -0.38295   2.61977 
 C                     1.99686  -0.65063  -0.07471 
 H                     2.26942   0.38596   0.13686 
 C                     3.75322  -2.18346   0.03511 
 H                     4.79197  -1.86903  -0.06755 
 O                     2.96241  -1.32218  -0.81722 
 N                     0.77351  -0.591    -0.91298 
 C                     0.32722  -1.73089  -1.47983 
 H                     0.9246   -2.61101  -1.29962 
 C                    -0.79421  -1.71765  -2.26508 
 H                    -1.13322  -2.63602  -2.72084 
 C                    -1.46155  -0.51555  -2.47829 
 H                    -2.3207   -0.47734  -3.13506 
 H                    -3.08892  -0.81314  -0.86196 
 C                    -0.98937   0.64536  -1.88064 
 C                     0.14781   0.5695   -1.09451 
 H                     0.55075   1.45144  -0.61375 
 C                    -1.55153   2.01159  -2.13807 
 O                    -0.84306   2.9869   -2.07365 
 N                    -2.85687   2.03657  -2.54664 
 H                    -3.24738   2.96558  -2.606 
 H                    -3.4696    1.34457  -2.1381 
 H                     2.57141  -3.98538  -0.17635 
 C                     0.15262   2.18143   2.86812 
 C                    -1.66515   0.88217   1.18855 
 C                    -2.86304   0.83226   0.53575 
 C                    -5.01102  -0.3176   -0.06508 
 C                    -3.49838  -0.44647   0.09525 
 O                    -0.87562  -0.0946    1.4012 
 S                    -1.15706   2.55127   1.68834 
 H                     0.37129   3.11564   3.38219 
 H                     1.05527   1.82454   2.37854 
 H                    -5.4774   -0.03739   0.87964 
 H                    -5.26647   0.46047  -0.79077 
 H                    -5.46201  -1.24979  -0.40716 
 H                    -3.25615  -1.23919   0.80904 
 H                    -3.44436   1.74542   0.47034 
 H                    -0.18127   1.44219   3.59365 
 
 ITRead=  0  0  0  0  0  0  0  0  0  0  0  0  0  0  0  0  0  0  0  0
 ITRead=  0  0  0  0  0  0  0  0  0  0  0  0  0  0  0  0  0  0  0  0
 ITRead=  0  0  0  0  0  0  0  0
 MicOpt= -1 -1 -1 -1 -1 -1 -1 -1 -1 -1 -1 -1 -1 -1 -1 -1 -1 -1 -1 -1
 MicOpt= -1 -1 -1 -1 -1 -1 -1 -1 -1 -1 -1 -1 -1 -1 -1 -1 -1 -1 -1 -1
 MicOpt= -1 -1 -1 -1 -1 -1 -1 -1
 NAtoms=     48 NQM=       48 NQMF=       0 NMMI=      0 NMMIF=      0
                NMic=       0 NMicF=      0.
                    Isotopes and Nuclear Properties:
 (Nuclear quadrupole moments (NQMom) in fm**2, nuclear magnetic moments (NMagM)
  in nuclear magnetons)

  Atom         1           2           3           4           5           6           7           8           9          10
 IAtWgt=          12           1           1          12           1          16           1          12           1          16
 AtmWgt=  12.0000000   1.0078250   1.0078250  12.0000000   1.0078250  15.9949146   1.0078250  12.0000000   1.0078250  15.9949146
 NucSpn=           0           1           1           0           1           0           1           0           1           0
 AtZEff=  -0.0000000  -0.0000000  -0.0000000  -0.0000000  -0.0000000  -0.0000000  -0.0000000  -0.0000000  -0.0000000  -0.0000000
 NQMom=    0.0000000   0.0000000   0.0000000   0.0000000   0.0000000   0.0000000   0.0000000   0.0000000   0.0000000   0.0000000
 NMagM=    0.0000000   2.7928460   2.7928460   0.0000000   2.7928460   0.0000000   2.7928460   0.0000000   2.7928460   0.0000000
 AtZNuc=   6.0000000   1.0000000   1.0000000   6.0000000   1.0000000   8.0000000   1.0000000   6.0000000   1.0000000   8.0000000

  Atom        11          12          13          14          15          16          17          18          19          20
 IAtWgt=           1          12           1          12           1          16          14          12           1          12
 AtmWgt=   1.0078250  12.0000000   1.0078250  12.0000000   1.0078250  15.9949146  14.0030740  12.0000000   1.0078250  12.0000000
 NucSpn=           1           0           1           0           1           0           2           0           1           0
 AtZEff=  -0.0000000  -0.0000000  -0.0000000  -0.0000000  -0.0000000  -0.0000000  -0.0000000  -0.0000000  -0.0000000  -0.0000000
 NQMom=    0.0000000   0.0000000   0.0000000   0.0000000   0.0000000   0.0000000   2.0440000   0.0000000   0.0000000   0.0000000
 NMagM=    2.7928460   0.0000000   2.7928460   0.0000000   2.7928460   0.0000000   0.4037610   0.0000000   2.7928460   0.0000000
 AtZNuc=   1.0000000   6.0000000   1.0000000   6.0000000   1.0000000   8.0000000   7.0000000   6.0000000   1.0000000   6.0000000

  Atom        21          22          23          24          25          26          27          28          29          30
 IAtWgt=           1          12           1           1          12          12           1          12          16          14
 AtmWgt=   1.0078250  12.0000000   1.0078250   1.0078250  12.0000000  12.0000000   1.0078250  12.0000000  15.9949146  14.0030740
 NucSpn=           1           0           1           1           0           0           1           0           0           2
 AtZEff=  -0.0000000  -0.0000000  -0.0000000  -0.0000000  -0.0000000  -0.0000000  -0.0000000  -0.0000000  -0.0000000  -0.0000000
 NQMom=    0.0000000   0.0000000   0.0000000   0.0000000   0.0000000   0.0000000   0.0000000   0.0000000   0.0000000   2.0440000
 NMagM=    2.7928460   0.0000000   2.7928460   2.7928460   0.0000000   0.0000000   2.7928460   0.0000000   0.0000000   0.4037610
 AtZNuc=   1.0000000   6.0000000   1.0000000   1.0000000   6.0000000   6.0000000   1.0000000   6.0000000   8.0000000   7.0000000

  Atom        31          32          33          34          35          36          37          38          39          40
 IAtWgt=           1           1           1          12          12          12          12          12          16          32
 AtmWgt=   1.0078250   1.0078250   1.0078250  12.0000000  12.0000000  12.0000000  12.0000000  12.0000000  15.9949146  31.9720718
 NucSpn=           1           1           1           0           0           0           0           0           0           0
 AtZEff=  -0.0000000  -0.0000000  -0.0000000  -0.0000000  -0.0000000  -0.0000000  -0.0000000  -0.0000000  -0.0000000  -0.0000000
 NQMom=    0.0000000   0.0000000   0.0000000   0.0000000   0.0000000   0.0000000   0.0000000   0.0000000   0.0000000   0.0000000
 NMagM=    2.7928460   2.7928460   2.7928460   0.0000000   0.0000000   0.0000000   0.0000000   0.0000000   0.0000000   0.0000000
 AtZNuc=   1.0000000   1.0000000   1.0000000   6.0000000   6.0000000   6.0000000   6.0000000   6.0000000   8.0000000  16.0000000

  Atom        41          42          43          44          45          46          47          48
 IAtWgt=           1           1           1           1           1           1           1           1
 AtmWgt=   1.0078250   1.0078250   1.0078250   1.0078250   1.0078250   1.0078250   1.0078250   1.0078250
 NucSpn=           1           1           1           1           1           1           1           1
 AtZEff=  -0.0000000  -0.0000000  -0.0000000  -0.0000000  -0.0000000  -0.0000000  -0.0000000  -0.0000000
 NQMom=    0.0000000   0.0000000   0.0000000   0.0000000   0.0000000   0.0000000   0.0000000   0.0000000
 NMagM=    2.7928460   2.7928460   2.7928460   2.7928460   2.7928460   2.7928460   2.7928460   2.7928460
 AtZNuc=   1.0000000   1.0000000   1.0000000   1.0000000   1.0000000   1.0000000   1.0000000   1.0000000
 Background charge distribution read from input stream:
 Leave Link  101 at Sat Aug 13 20:47:47 2022, MaxMem=  2684354560 cpu:               1.5 elap:               0.1
 (Enter /storage/apps/GAUSSIAN/G16_RevA03/g16/l103.exe)

 GradGradGradGradGradGradGradGradGradGradGradGradGradGradGradGradGradGrad
 Berny optimization.
 Initialization pass.
 Trust Radius=3.00D-01 FncErr=1.00D-07 GrdErr=1.00D-07 EigMax=2.50D+02 EigMin=1.00D-04
 Number of steps in this run=      2 maximum allowed number of steps=      2.
 GradGradGradGradGradGradGradGradGradGradGradGradGradGradGradGradGradGrad

 Leave Link  103 at Sat Aug 13 20:47:47 2022, MaxMem=  2684354560 cpu:               0.3 elap:               0.0
 (Enter /storage/apps/GAUSSIAN/G16_RevA03/g16/l202.exe)
 ---------------------------------------------------------------------------------------------------
                            Z-MATRIX (ANGSTROMS AND DEGREES)
   CD    Cent   Atom    N1       Length/X        N2       Alpha/Y        N3        Beta/Z          J
 ---------------------------------------------------------------------------------------------------
      1      1  C        0   3.578084         -3.623551         -0.399086
      2      2  H        0   3.753905         -3.715163         -1.470370
      3      3  H        0   4.288615         -4.263274          0.124767
      4      4  C        0   1.828005         -1.435481          1.240845
      5      5  H        0   1.175502         -2.300240          1.054582
      6      6  O        0   1.407405         -0.680804          2.314208
      7      7  H        0   0.470110         -0.358723          2.111626
      8      8  C        0   3.274332         -1.893413          1.450235
      9      9  H        0   3.331834         -2.777370          2.092726
     10     10  O        0   4.024704         -0.827037          1.974645
     11     11  H        0   3.455549         -0.382947          2.619767
     12     12  C        0   1.996859         -0.650631         -0.074707
     13     13  H        0   2.269423          0.385961          0.136863
     14     14  C        0   3.753224         -2.183465          0.035108
     15     15  H        0   4.791974         -1.869026         -0.067554
     16     16  O        0   2.962413         -1.322175         -0.817221
     17     17  N        0   0.773508         -0.590997         -0.912980
     18     18  C        0   0.327219         -1.730890         -1.479829
     19     19  H        0   0.924600         -2.611010         -1.299621
     20     20  C        0  -0.794214         -1.717648         -2.265084
     21     21  H        0  -1.133219         -2.636024         -2.720841
     22     22  C        0  -1.461551         -0.515548         -2.478292
     23     23  H        0  -2.320704         -0.477336         -3.135059
     24     24  H        0  -3.088922         -0.813142         -0.861961
     25     25  C        0  -0.989371          0.645356         -1.880635
     26     26  C        0   0.147811          0.569498         -1.094507
     27     27  H        0   0.550753          1.451435         -0.613751
     28     28  C        0  -1.551533          2.011592         -2.138074
     29     29  O        0  -0.843064          2.986900         -2.073647
     30     30  N        0  -2.856870          2.036568         -2.546638
     31     31  H        0  -3.247381          2.965582         -2.606004
     32     32  H        0  -3.469602          1.344572         -2.138097
     33     33  H        0   2.571407         -3.985382         -0.176353
     34     34  C        0   0.152621          2.181431          2.868124
     35     35  C        0  -1.665146          0.882165          1.188548
     36     36  C        0  -2.863036          0.832260          0.535751
     37     37  C        0  -5.011023         -0.317603         -0.065077
     38     38  C        0  -3.498380         -0.446471          0.095248
     39     39  O        0  -0.875616         -0.094597          1.401195
     40     40  S        0  -1.157061          2.551269          1.688344
     41     41  H        0   0.371293          3.115642          3.382193
     42     42  H        0   1.055275          1.824543          2.378544
     43     43  H        0  -5.477402         -0.037388          0.879644
     44     44  H        0  -5.266466          0.460466         -0.790772
     45     45  H        0  -5.462007         -1.249789         -0.407155
     46     46  H        0  -3.256151         -1.239187          0.809035
     47     47  H        0  -3.444358          1.745416          0.470336
     48     48  H        0  -0.181265          1.442194          3.593652
 ---------------------------------------------------------------------------------------------------
                         Z-Matrix orientation:                         
 ---------------------------------------------------------------------
 Center     Atomic      Atomic             Coordinates (Angstroms)
 Number     Number       Type             X           Y           Z
 ---------------------------------------------------------------------
      1          6           0        3.578084   -3.623551   -0.399086
      2          1           0        3.753905   -3.715163   -1.470370
      3          1           0        4.288615   -4.263274    0.124767
      4          6           0        1.828005   -1.435481    1.240845
      5          1           0        1.175502   -2.300240    1.054582
      6          8           0        1.407405   -0.680804    2.314208
      7          1           0        0.470110   -0.358723    2.111626
      8          6           0        3.274332   -1.893413    1.450235
      9          1           0        3.331834   -2.777370    2.092726
     10          8           0        4.024704   -0.827037    1.974645
     11          1           0        3.455549   -0.382947    2.619767
     12          6           0        1.996859   -0.650631   -0.074707
     13          1           0        2.269423    0.385961    0.136863
     14          6           0        3.753224   -2.183465    0.035108
     15          1           0        4.791974   -1.869026   -0.067554
     16          8           0        2.962413   -1.322175   -0.817221
     17          7           0        0.773508   -0.590997   -0.912980
     18          6           0        0.327219   -1.730890   -1.479829
     19          1           0        0.924600   -2.611010   -1.299621
     20          6           0       -0.794214   -1.717648   -2.265084
     21          1           0       -1.133219   -2.636024   -2.720841
     22          6           0       -1.461551   -0.515548   -2.478292
     23          1           0       -2.320704   -0.477336   -3.135059
     24          1           0       -3.088922   -0.813142   -0.861961
     25          6           0       -0.989371    0.645356   -1.880635
     26          6           0        0.147811    0.569498   -1.094507
     27          1           0        0.550753    1.451435   -0.613751
     28          6           0       -1.551533    2.011592   -2.138074
     29          8           0       -0.843064    2.986900   -2.073647
     30          7           0       -2.856870    2.036568   -2.546638
     31          1           0       -3.247381    2.965582   -2.606004
     32          1           0       -3.469602    1.344572   -2.138097
     33          1           0        2.571407   -3.985382   -0.176353
     34          6           0        0.152621    2.181431    2.868124
     35          6           0       -1.665146    0.882165    1.188548
     36          6           0       -2.863036    0.832260    0.535751
     37          6           0       -5.011023   -0.317603   -0.065077
     38          6           0       -3.498380   -0.446471    0.095248
     39          8           0       -0.875616   -0.094597    1.401195
     40         16           0       -1.157061    2.551269    1.688344
     41          1           0        0.371293    3.115642    3.382193
     42          1           0        1.055275    1.824543    2.378544
     43          1           0       -5.477402   -0.037388    0.879644
     44          1           0       -5.266466    0.460466   -0.790772
     45          1           0       -5.462007   -1.249789   -0.407155
     46          1           0       -3.256151   -1.239187    0.809035
     47          1           0       -3.444358    1.745416    0.470336
     48          1           0       -0.181265    1.442194    3.593652
 ---------------------------------------------------------------------
                    Distance matrix (angstroms):
                    1          2          3          4          5
     1  C    0.000000
     2  H    1.089475   0.000000
     3  H    1.090193   1.769407   0.000000
     4  C    3.246506   4.031963   3.911093   0.000000
     5  H    3.104304   3.876281   3.795989   1.099210   0.000000
     6  O    4.553413   5.388546   5.092064   1.377879   2.064706
     7  H    5.159678   5.905903   5.811550   1.939471   2.320433
     8  C    2.550614   3.475442   2.898599   1.531472   2.174198
     9  H    2.643064   3.708538   2.645034   2.188120   2.440320
    10  O    3.695208   4.503635   3.911448   2.394609   3.336884
    11  H    4.430576   5.284118   4.687853   2.378687   3.365179
    12  C    3.382861   3.798216   4.282887   1.541161   2.161280
    13  H    4.251590   4.648237   5.068794   2.175150   3.042129
    14  C    1.514281   2.147688   2.149485   2.391600   2.774457
    15  H    2.159120   2.540414   2.454136   3.268789   3.811037
    16  O    2.418723   2.603739   3.360984   2.352734   2.766461
    17  N    4.162465   4.353603   5.188306   2.542455   2.637122
    18  C    3.913859   3.959748   4.967933   3.121168   2.732578
    19  H    2.979460   3.041920   4.009421   2.941424   2.387845
    20  C    5.121660   5.030609   6.166583   4.387162   3.903764
    21  H    5.344355   5.158701   6.335749   5.089706   4.438103
    22  C    6.275404   6.201163   7.340693   5.049697   4.756088
    23  H    7.223567   7.082061   8.285100   6.105601   5.753219
    24  H    7.249939   7.457625   8.203968   5.383797   4.906109
    25  C    6.424967   6.456091   7.481539   4.691602   4.688146
    26  C    5.461872   5.612798   6.479859   3.506688   3.729628
    27  H    5.913231   6.139032   6.868400   3.661309   4.153157
    28  C    7.816130   7.835128   8.865761   5.892426   6.018444
    29  O    8.127039   8.149461   9.150529   6.138234   6.466396
    30  N    8.835019   8.828539   9.893552   6.953287   6.930852
    31  H    9.740335   9.743717  10.793735   7.741263   7.790421
    32  H    8.796379   8.844537   9.836586   6.870996   6.712291
    33  H    1.092671   1.773640   1.765418   3.010497   2.510668
    34  C    7.490412   8.158529   8.134290   4.305462   4.941720
    35  C    7.093202   7.587581   7.940683   4.192412   4.267895
    36  C    7.887725   8.275717   8.790875   5.257915   5.137269
    37  C    9.209431   9.504853  10.103842   7.051765   6.592236
    38  C    7.772679   8.107475   8.672148   5.537229   5.118784
    39  O    5.960702   6.541166   6.758433   3.022126   3.031845
    40  S    8.056511   8.565234   8.862176   5.000505   5.420299
    41  H    8.366499   9.036002   8.966863   5.236421   5.949479
    42  H    6.615249   7.265335   7.252276   3.538252   4.333724
    43  H    9.823316  10.211054  10.667851   7.446751   7.029384
    44  H    9.749804   9.963173  10.698201   7.619291   7.247467
    45  H    9.346553   9.599038  10.219524   7.476273   6.877256
    46  H    7.338359   7.776055   8.157010   5.106235   4.563516
    47  H    8.882364   9.241172   9.799114   6.205610   6.168613
    48  H    7.465684   8.229715   8.035257   4.225385   4.721600
                    6          7          8          9         10
     6  O    0.000000
     7  H    1.011582   0.000000
     8  C    2.387946   3.264410   0.000000
     9  H    2.854482   3.746955   1.094295   0.000000
    10  O    2.643282   3.587927   1.405426   2.073116   0.000000
    11  H    2.092123   3.028472   1.918893   2.454860   0.968161
    12  C    2.460748   2.682578   2.345611   3.317068   2.888446
    13  H    2.573304   2.773404   2.816085   3.867917   2.815993
    14  C    3.599327   4.291905   1.521858   2.182678   2.382310
    15  H    4.305806   5.070340   2.146512   2.761142   2.417648
    16  O    3.554610   3.964588   2.359017   3.274425   3.027894
    17  N    3.290081   3.048646   3.679021   4.512153   4.354810
    18  C    4.082181   3.847312   4.158986   4.783929   5.140208
    19  H    4.125355   4.112902   3.687532   4.162988   4.849126
    20  C    5.185758   4.754028   5.512491   6.094078   6.480005
    21  H    5.969035   5.577589   6.113579   6.567123   7.205844
    22  C    5.588047   4.982294   6.305587   6.999042   7.072812
    23  H    6.605657   5.943939   7.371202   8.035613   8.154481
    24  H    5.506589   4.659981   6.855964   7.335835   7.658342
    25  C    5.009984   4.367655   5.976555   6.795253   6.494003
    26  C    3.843068   3.353321   4.724064   5.612306   5.138123
    27  H    3.721994   3.272744   4.781833   5.739531   4.894851
    28  C    5.985576   5.269287   7.170356   8.042456   7.487769
    29  O    6.145725   5.516714   7.293021   8.247136   7.391208
    30  N    7.013984   6.205291   8.307309   9.110310   8.717700
    31  H    7.692311   6.864894   9.088215   9.916937   9.394122
    32  H    6.907269   6.040090   8.297067   9.008318   8.820156
    33  H    4.298608   4.775244   2.741574   2.680720   4.088277
    34  C    3.173908   2.669358   5.325396   5.941241   4.984196
    35  C    3.626369   2.636512   5.671927   6.259356   5.992805
    36  C    4.867128   3.874492   6.777379   7.336894   7.229429
    37  C    6.854862   5.897673   8.568924   8.961575   9.277087
    38  C    5.389380   4.452235   7.056859   7.488313   7.763617
    39  O    2.527729   1.544491   4.523297   5.037670   4.987830
    40  S    4.173067   3.360790   6.280855   6.979119   6.192383
    41  H    4.077637   3.700719   6.103338   6.719756   5.556377
    42  H    2.530790   2.276030   4.428224   5.142180   4.001440
    43  H    7.062048   6.082264   8.964555   9.304929   9.597530
    44  H    7.448755   6.480994   9.138276   9.629585   9.779112
    45  H    7.410694   6.506018   8.954762   9.269010   9.790269
    46  H    4.932149   4.044376   6.594419   6.885885   7.385077
    47  H    5.729399   4.737541   7.703381   8.306896   8.041601
    48  H    2.944142   2.421568   5.259435   5.692044   5.045866
                   11         12         13         14         15
    11  H    0.000000
    12  C    3.075650   0.000000
    13  H    2.857084   1.092509   0.000000
    14  C    3.164007   2.333765   2.968833   0.000000
    15  H    3.349053   3.049132   3.389693   1.090144   0.000000
    16  O    3.596974   1.390896   2.075630   1.446951   2.051424
    17  N    4.440375   1.484199   2.072288   3.509064   4.300718
    18  C    5.330111   2.434959   3.296499   3.773244   4.684831
    19  H    5.170258   2.548184   3.585229   3.156804   4.126150
    20  C    6.610876   3.704911   4.424974   5.117329   6.004794
    21  H    7.392918   4.554251   5.373717   5.628267   6.537288
    22  C    7.084184   4.213795   4.644558   6.024368   6.837407
    23  H    8.154265   5.295010   5.702633   7.060697   7.869979
    24  H    7.425470   5.148917   5.580982   7.035445   7.990901
    25  C    6.408458   3.722704   3.841526   5.845041   6.559979
    26  C    5.064002   2.438788   2.459918   4.674809   5.345024
    27  H    4.717885   2.607772   2.156961   4.887672   5.414033
    28  C    7.310386   4.892443   4.734735   7.103638   7.719218
    29  O    7.201533   5.029170   4.619395   7.232246   7.704419
    30  N    8.508374   6.073728   6.017023   8.256357   8.938923
    31  H    9.135130   6.854671   6.679288   9.082765   9.718456
    32  H    8.577838   6.174189   6.247462   8.327009   9.103186
    33  H    4.645162   3.385410   4.392942   2.165251   3.069482
    34  C    4.188920   4.481299   3.894143   6.327925   6.822610
    35  C    5.465383   4.166000   4.102815   6.331449   7.130305
    36  C    6.763458   5.117637   5.167246   7.288356   8.140031
    37  C    8.882314   7.015797   7.317149   8.961222   9.925002
    38  C    7.398267   5.501656   5.827712   7.456978   8.413093
    39  O    4.508553   3.276976   3.423557   5.258871   6.117794
    40  S    5.545570   4.827807   4.340097   7.018675   7.616640
    41  H    4.725892   5.364460   4.646098   7.121866   7.502672
    42  H    3.269941   3.609918   2.927253   5.369800   5.795582
    43  H    9.107417   7.559857   7.793859   9.514376  10.474358
    44  H    9.403014   7.382627   7.593134   9.435426  10.349966
    45  H    9.457086   7.490273   7.921278   9.272962  10.278274
    46  H    7.004200   5.359245   5.798697   7.114911   8.120186
    47  H    7.533837   5.970340   5.882739   8.211621   9.010587
    48  H    4.184018   4.751947   4.367023   6.425639   7.007261
                   16         17         18         19         20
    16  O    0.000000
    17  N    2.309783   0.000000
    18  C    2.747789   1.349017   0.000000
    19  H    2.458961   2.062225   1.078865   0.000000
    20  C    4.045362   2.356964   1.369092   2.164379   0.000000
    21  H    4.703634   3.329580   2.119495   2.501022   1.079839
    22  C    4.793877   2.729722   2.381949   3.387321   1.391345
    23  H    5.830733   3.811129   3.364919   4.295742   2.150675
    24  H    6.072872   3.869149   3.590827   4.419529   2.837705
    25  C    4.540774   2.360650   2.746015   3.821620   2.402015
    26  C    3.402543   1.330863   2.339326   3.280412   2.736549
    27  H    3.681089   2.076219   3.305639   4.136863   3.818236
    28  C    5.764925   3.698667   4.239005   5.310620   3.807479
    29  O    5.884589   4.094118   4.896910   5.921178   4.708695
    30  N    6.938018   4.769967   5.046805   6.120012   4.292780
    31  H    7.755395   5.628777   6.008568   7.085933   5.297820
    32  H    7.087106   4.821962   4.930277   5.971489   4.068294
    33  H    2.766996   3.911126   3.437756   2.421281   4.564298
    34  C    5.809643   4.729546   5.851618   6.397933   6.515300
    35  C    5.504228   3.540291   4.232943   5.009994   4.409663
    36  C    6.356727   4.165205   4.561801   5.437912   4.315870
    37  C    8.071590   5.852733   5.700503   6.481931   4.957987
    38  C    6.583411   4.391633   4.331952   5.117972   3.807830
    39  O    4.599868   2.884689   3.524850   4.107009   4.010302
    40  S    6.184779   4.513072   5.529674   6.317466   5.829657
    41  H    6.636505   5.687659   6.865135   7.417552   7.524017
    42  H    4.873595   4.092476   5.297000   5.763688   6.126256
    43  H    8.704051   6.526397   6.490662   7.235907   5.885987
    44  H    8.419796   6.132030   6.046995   6.929804   5.188334
    45  H    8.434705   6.290589   5.907387   6.590764   5.045700
    46  H    6.428229   4.429858   4.280328   4.879243   3.967400
    47  H    7.219046   5.016252   5.487499   6.418644   5.147679
    48  H    6.081139   5.035394   6.005600   6.449459   6.684691
                   21         22         23         24         25
    21  H    0.000000
    22  C    2.159410   0.000000
    23  H    2.498326   1.082103   0.000000
    24  H    3.256241   2.312882   2.422787   0.000000
    25  C    3.390294   1.388469   2.146268   2.751913   0.000000
    26  C    3.815937   2.383743   3.369463   3.527352   1.384534
    27  H    4.897235   3.375634   4.280469   4.293850   2.150986
    28  C    4.702652   2.551525   2.789331   3.459935   1.499634
    29  O    5.667480   3.579582   3.912920   4.577377   2.354036
    30  N    4.983416   2.909447   2.636935   3.318559   2.422103
    31  H    5.988394   3.914558   3.604485   4.164799   3.317863
    32  H    4.652249   2.758269   2.373447   2.535581   2.589737
    33  H    4.692488   5.796846   6.707688   6.524760   6.085019
    34  C    7.489846   6.201888   7.016023   5.778287   5.119998
    35  C    5.286201   3.929474   4.579473   3.017580   3.151608
    36  C    5.062277   3.586809   3.934973   2.170708   3.063409
    37  C    5.240756   4.296689   4.085110   2.138938   4.516329
    38  C    4.280010   3.282766   3.438424   1.103790   3.375104
    39  O    4.849370   3.946003   4.776230   3.246060   3.366137
    40  S    6.808046   5.182561   5.813065   4.642780   4.049473
    41  H    8.520108   7.133733   7.913969   6.739531   5.970852
    42  H    7.119683   5.949731   6.862631   5.884949   4.869462
    43  H    6.211950   5.256561   5.126025   3.056112   5.312975
    44  H    5.513361   4.275243   3.879777   2.523657   4.417638
    45  H    5.100313   4.564249   4.231540   2.455411   5.076139
    46  H    4.349485   3.814546   4.124482   1.732544   3.990504
    47  H    5.892537   4.211637   4.382020   2.906470   3.572696
    48  H    7.576998   6.506949   7.316922   5.778711   5.590689
                   26         27         28         29         30
    26  C    0.000000
    27  H    1.082267   0.000000
    28  C    2.460983   2.656491   0.000000
    29  O    2.790050   2.536075   1.207189   0.000000
    30  N    3.645420   3.961102   1.368011   2.276459   0.000000
    31  H    4.421897   4.548355   2.001239   2.462641   1.009500
    32  H    3.843891   4.300966   2.030740   3.098402   1.010547
    33  H    5.240587   5.816643   7.537286   7.991937   8.446794
    34  C    4.277943   3.579784   5.291031   5.105024   6.196585
    35  C    2.932049   2.912483   3.514958   3.968330   4.087110
    36  C    3.433946   3.654954   3.203155   3.941030   3.309308
    37  C    5.334814   5.862072   4.657310   5.685594   4.042356
    38  C    3.967672   4.527715   3.849677   4.852097   3.681926
    39  O    2.777941   2.912860   4.173646   4.644482   4.904347
    40  S    3.657098   3.070164   3.884370   3.800124   4.592313
    41  H    5.154962   4.332362   5.948910   5.590834   6.836408
    42  H    3.802724   3.057381   5.218263   4.977627   6.293429
    43  H    5.992379   6.386351   5.358861   6.272586   4.786219
    44  H    5.423886   5.903676   4.245226   5.253106   3.372435
    45  H    5.937366   6.594890   5.378150   6.485473   4.707894
    46  H    4.299043   4.874042   4.707307   5.656205   4.706436
    47  H    4.090867   4.150010   3.233796   3.844459   3.087401
    48  H    4.780034   4.270618   5.920687   5.911207   6.724233
                   31         32         33         34         35
    31  H    0.000000
    32  H    1.701762   0.000000
    33  H    9.384956   8.291601   0.000000
    34  C    6.491609   6.235630   7.290333   0.000000
    35  C    4.608982   3.812669   6.595783   2.795236   0.000000
    36  C    3.816989   2.789238   7.297255   4.044059   1.365128
    37  C    4.510659   3.071843   8.423671   6.442985   3.769073
    38  C    4.359113   2.862952   7.031356   5.284365   2.514225
    39  O    5.572038   4.618069   5.432203   2.896456   1.273829
    40  S    4.794009   4.630941   7.752830   1.801091   1.814898
    41  H    6.998273   6.954334   8.241862   1.088501   3.734646
    42  H    6.682854   6.411313   6.525441   1.087126   3.115262
    43  H    5.112784   3.879154   9.026910   6.369801   3.933738
    44  H    3.694236   2.413638   9.031906   6.761342   4.130986
    45  H    5.244889   3.700885   8.489551   7.350154   4.637634
    46  H    5.416886   3.925170   6.517132   5.249781   2.678705
    47  H    3.315339   2.639173   8.333648   4.344854   2.103955
    48  H    7.082197   6.608755   7.158821   1.088275   2.880983
                   36         37         38         39         40
    36  C    0.000000
    37  C    2.509388   0.000000
    38  C    1.494275   1.526565   0.000000
    39  O    2.357519   4.393322   2.950967   0.000000
    40  S    2.682128   5.114483   4.123854   2.676242   0.000000
    41  H    4.876161   7.255354   6.202179   3.973005   2.350214
    42  H    4.442260   6.881863   5.577340   2.892516   2.428773
    43  H    2.776591   1.090196   2.167753   4.631600   5.101028
    44  H    2.770265   1.094201   2.175705   4.938864   5.234948
    45  H    3.461019   1.090585   2.180266   5.063554   6.113241
    46  H    2.126056   2.166325   1.093876   2.706970   4.421190
    47  H    1.084467   2.645213   2.224405   3.294022   2.713793
    48  H    4.112745   6.309496   5.177754   2.765993   2.410897
                   41         42         43         44         45
    41  H    0.000000
    42  H    1.772591   0.000000
    43  H    7.100111   6.956246   0.000000
    44  H    7.499862   7.202061   1.755745   0.000000
    45  H    8.212401   7.725710   1.768051   1.763624   0.000000
    46  H    6.224470   5.517082   2.526512   3.080514   2.518935
    47  H    4.991555   4.888171   2.734811   2.561556   3.716470
    48  H    1.774954   1.775305   6.132216   6.785737   7.151186
                   46         47         48
    46  H    0.000000
    47  H    3.009650   0.000000
    48  H    4.939516   4.527121   0.000000
 Stoichiometry    C16H24N2O5S
 Framework group  C1[X(C16H24N2O5S)]
 Deg. of freedom   138
 Full point group                 C1      NOp   1
 Largest Abelian subgroup         C1      NOp   1
 Largest concise Abelian subgroup C1      NOp   1
                         Standard orientation:                         
 ---------------------------------------------------------------------
 Center     Atomic      Atomic             Coordinates (Angstroms)
 Number     Number       Type             X           Y           Z
 ---------------------------------------------------------------------
      1          6           0        4.696125   -1.858257    0.685805
      2          1           0        4.692474   -2.813531    0.161980
      3          1           0        5.704099   -1.669693    1.055877
      4          6           0        2.475425    0.509835    0.706645
      5          1           0        2.270446   -0.135798    1.572326
      6          8           0        1.962616    1.779015    0.863989
      7          1           0        0.962767    1.690285    0.989398
      8          6           0        3.981238    0.577322    0.435758
      9          1           0        4.555665    0.693542    1.359883
     10          8           0        4.241451    1.623204   -0.466263
     11          1           0        3.662644    2.355874   -0.210310
     12          6           0        2.018481   -0.218047   -0.572640
     13          1           0        1.819136    0.504880   -1.367129
     14          6           0        4.268295   -0.749340   -0.252443
     15          1           0        5.007830   -0.597135   -1.038785
     16          8           0        3.028073   -1.116665   -0.900973
     17          7           0        0.772620   -1.009081   -0.414708
     18          6           0        0.802539   -2.103924    0.372864
     19          1           0        1.758766   -2.340980    0.812619
     20          6           0       -0.323646   -2.864282    0.540126
     21          1           0       -0.281503   -3.743907    1.165056
     22          6           0       -1.494458   -2.500189   -0.117502
     23          1           0       -2.380345   -3.116231   -0.035991
     24          1           0       -2.472854   -1.386286    1.657713
     25          6           0       -1.505804   -1.366195   -0.918610
     26          6           0       -0.337052   -0.635150   -1.047164
     27          1           0       -0.302284    0.252926   -1.664750
     28          6           0       -2.668685   -0.949666   -1.768971
     29          8           0       -2.488341   -0.349263   -2.800619
     30          7           0       -3.890293   -1.394171   -1.342893
     31          1           0       -4.666767   -1.011868   -1.862530
     32          1           0       -4.029746   -1.437391   -0.342949
     33          1           0        4.028445   -1.928087    1.547929
     34          6           0       -0.338030    3.587931   -0.364241
     35          6           0       -1.633109    1.343978    0.684945
     36          6           0       -2.772240    0.660079    0.998374
     37          6           0       -4.222978   -0.605642    2.607826
     38          6           0       -2.819543   -0.410484    2.039774
     39          8           0       -0.459553    1.101957    1.117185
     40         16           0       -1.864463    2.650765   -0.553053
     41          1           0       -0.481213    4.516090   -0.914563
     42          1           0        0.519442    3.059755   -0.773648
     43          1           0       -4.581799    0.311567    3.075270
     44          1           0       -4.936285   -0.862462    1.818831
     45          1           0       -4.250761   -1.403163    3.351172
     46          1           0       -2.113209   -0.172320    2.840358
     47          1           0       -3.708395    1.013917    0.580663
     48          1           0       -0.154746    3.816730    0.683805
 ---------------------------------------------------------------------
 Rotational constants (GHZ):           0.3326235           0.1635228           0.1402253
 Leave Link  202 at Sat Aug 13 20:47:47 2022, MaxMem=  2684354560 cpu:               0.2 elap:               0.0
 (Enter /storage/apps/GAUSSIAN/G16_RevA03/g16/l301.exe)
 Standard basis: def2TZVP (5D, 7F)
 Ernie: Thresh=  0.10000D-02 Tol=  0.10000D-05 Strict=F.
 There are  1014 symmetry adapted cartesian basis functions of A   symmetry.
 There are   894 symmetry adapted basis functions of A   symmetry.
   894 basis functions,  1434 primitive gaussians,  1014 cartesian basis functions
    95 alpha electrons       95 beta electrons
       nuclear repulsion energy      2494.9889209499 Hartrees.
 IExCor= 4336 DFT=T Ex+Corr=M062X ExCW=0 ScaHFX=  0.540000
 ScaDFX=  1.000000  1.000000  1.000000  1.000000 ScalE2=  1.000000  1.000000
 IRadAn=      5 IRanWt=     -1 IRanGd=            0 ICorTp=0 IEmpDi=131
 NAtoms=   48 NActive=   48 NUniq=   48 SFac= 1.00D+00 NAtFMM=   60 NAOKFM=F Big=F
 Integral buffers will be    131072 words long.
 Raffenetti 2 integral format.
 Two-electron integral symmetry is turned on.
 R6Disp:  Grimme-D3 Dispersion energy=       -0.0042653338 Hartrees.
 Nuclear repulsion after empirical dispersion term =     2494.9846556161 Hartrees.
 Leave Link  301 at Sat Aug 13 20:47:47 2022, MaxMem=  2684354560 cpu:               0.8 elap:               0.1
 (Enter /storage/apps/GAUSSIAN/G16_RevA03/g16/l302.exe)
 NPDir=0 NMtPBC=     1 NCelOv=     1 NCel=       1 NClECP=     1 NCelD=      1
         NCelK=      1 NCelE2=     1 NClLst=     1 CellRange=     0.0.
 One-electron integrals computed using PRISM.
 One-electron integral symmetry used in STVInt
   1 Symmetry operations used in ECPInt.
 ECPInt:  NShTT=   65703 NPrTT=  200010 LenC2=   56905 LenP2D=  121146.
 LDataN:  DoStor=T MaxTD1= 6 Len=  172
 NBasis=   894 RedAO= T EigKep=  1.95D-05  NBF=   894
 NBsUse=   894 1.00D-06 EigRej= -1.00D+00 NBFU=   894
 Precomputing XC quadrature grid using
 IXCGrd= 4 IRadAn=           5 IRanWt=          -1 IRanGd=           0 AccXCQ= 0.00D+00.
 Generated NRdTot=       0 NPtTot=           0 NUsed=           0 NTot=          32
 NSgBfM=  1000  1000  1000  1000  1000 MxSgAt=    48 MxSgA2=    48.
 Leave Link  302 at Sat Aug 13 20:47:48 2022, MaxMem=  2684354560 cpu:              17.8 elap:               1.1
 (Enter /storage/apps/GAUSSIAN/G16_RevA03/g16/l303.exe)
 DipDrv:  MaxL=1.
 Leave Link  303 at Sat Aug 13 20:47:48 2022, MaxMem=  2684354560 cpu:               2.0 elap:               0.2
 (Enter /storage/apps/GAUSSIAN/G16_RevA03/g16/l401.exe)
 ExpMin= 9.52D-02 ExpMax= 6.07D+04 ExpMxC= 2.07D+03 IAcc=3 IRadAn=         5 AccDes= 0.00D+00
 Harris functional with IExCor= 1009 and IRadAn=       5 diagonalized for initial guess.
 HarFok:  IExCor= 1009 AccDes= 0.00D+00 IRadAn=         5 IDoV= 1 UseB2=F ITyADJ=14
 ICtDFT=  3500011 ScaDFX=  1.000000  1.000000  1.000000  1.000000
 FoFCou: FMM=F IPFlag=           0 FMFlag=      100000 FMFlg1=           0
         NFxFlg=           0 DoJE=T BraDBF=F KetDBF=T FulRan=T
         wScrn=  0.000000 ICntrl=       500 IOpCl=  0 I1Cent=   200000004 NGrid=           0
         NMat0=    1 NMatS0=      1 NMatT0=    0 NMatD0=    1 NMtDS0=    0 NMtDT0=    0
 Petite list used in FoFCou.
 Harris En= -1507.24554447178    
 JPrj=0 DoOrth=F DoCkMO=F.
 Leave Link  401 at Sat Aug 13 20:47:52 2022, MaxMem=  2684354560 cpu:              59.5 elap:               3.8
 (Enter /storage/apps/GAUSSIAN/G16_RevA03/g16/l502.exe)
 Integral symmetry usage will be decided dynamically.
 Closed shell SCF:
 Using DIIS extrapolation, IDIIS=  1040.
 NGot=  2684354560 LenX=  2682272944 LenY=  2681243734
 Requested convergence on RMS density matrix=1.00D-08 within 128 cycles.
 Requested convergence on MAX density matrix=1.00D-06.
 Requested convergence on             energy=1.00D-06.
 No special actions if energy rises.
 Fock matrices will be formed incrementally for  20 cycles.
 Integral accuracy reduced to 1.0D-05 until final iterations.

 Cycle   1  Pass 0  IDiag  1:
 FoFJK:  IHMeth= 1 ICntrl=       0 DoSepK=F KAlg= 0 I1Cent=           0 FoldK=F
 IRaf= 790000000 NMat=       1 IRICut=       1 DoRegI=T DoRafI=F ISym2E= 0 IDoP0=0 IntGTp=1.
 FoFCou: FMM=F IPFlag=           0 FMFlag=      100000 FMFlg1=           0
         NFxFlg=           0 DoJE=F BraDBF=F KetDBF=F FulRan=T
         wScrn=  0.000000 ICntrl=         0 IOpCl=  0 I1Cent=           0 NGrid=           0
         NMat0=    1 NMatS0=      1 NMatT0=    0 NMatD0=    1 NMtDS0=    0 NMtDT0=    0
 Symmetry not used in FoFCou.
 E= -1507.16972704483    
 DIIS: error= 1.96D-02 at cycle   1 NSaved=   1.
 NSaved= 1 IEnMin= 1 EnMin= -1507.16972704483     IErMin= 1 ErrMin= 1.96D-02
 ErrMax= 1.96D-02  0.00D+00 EMaxC= 1.00D-01 BMatC= 9.91D-01 BMatP= 9.91D-01
 IDIUse=3 WtCom= 8.04D-01 WtEn= 1.96D-01
 Coeff-Com:  0.100D+01
 Coeff-En:   0.100D+01
 Coeff:      0.100D+01
 Gap=     0.171 Goal=   None    Shift=    0.000
 GapD=    0.171 DampG=1.000 DampE=0.500 DampFc=0.5000 IDamp=-1.
 Damping current iteration by 5.00D-01
 RMSDP=3.97D-03 MaxDP=7.60D-01              OVMax= 5.22D-01

 Cycle   2  Pass 0  IDiag  1:
 RMSU=  1.98D-03    CP:  1.01D+00
 E= -1507.48109591210     Delta-E=       -0.311368867270 Rises=F Damp=T
 DIIS: error= 4.50D-03 at cycle   2 NSaved=   2.
 NSaved= 2 IEnMin= 2 EnMin= -1507.48109591210     IErMin= 2 ErrMin= 4.50D-03
 ErrMax= 4.50D-03  0.00D+00 EMaxC= 1.00D-01 BMatC= 9.37D-02 BMatP= 9.91D-01
 IDIUse=3 WtCom= 9.55D-01 WtEn= 4.50D-02
 Coeff-Com:  0.417D-02 0.996D+00
 Coeff-En:   0.105D+00 0.895D+00
 Coeff:      0.871D-02 0.991D+00
 Gap=     0.163 Goal=   None    Shift=    0.000
 RMSDP=1.35D-03 MaxDP=1.77D-01 DE=-3.11D-01 OVMax= 3.77D-01

 Cycle   3  Pass 0  IDiag  1:
 RMSU=  1.16D-03    CP:  9.98D-01  6.50D-01
 E= -1507.84718372513     Delta-E=       -0.366087813032 Rises=F Damp=F
 DIIS: error= 4.64D-03 at cycle   3 NSaved=   3.
 NSaved= 3 IEnMin= 3 EnMin= -1507.84718372513     IErMin= 2 ErrMin= 4.50D-03
 ErrMax= 4.64D-03  0.00D+00 EMaxC= 1.00D-01 BMatC= 6.19D-02 BMatP= 9.37D-02
 IDIUse=3 WtCom= 9.54D-01 WtEn= 4.64D-02
 Coeff-Com: -0.782D-01 0.470D+00 0.608D+00
 Coeff-En:   0.000D+00 0.000D+00 0.100D+01
 Coeff:     -0.745D-01 0.449D+00 0.626D+00
 Gap=     0.132 Goal=   None    Shift=    0.000
 RMSDP=5.36D-04 MaxDP=2.79D-02 DE=-3.66D-01 OVMax= 1.14D-01

 Cycle   4  Pass 0  IDiag  1:
 RMSU=  4.19D-04    CP:  1.00D+00  7.99D-01  8.66D-01
 E= -1507.90121866559     Delta-E=       -0.054034940462 Rises=F Damp=F
 DIIS: error= 1.49D-03 at cycle   4 NSaved=   4.
 NSaved= 4 IEnMin= 4 EnMin= -1507.90121866559     IErMin= 4 ErrMin= 1.49D-03
 ErrMax= 1.49D-03  0.00D+00 EMaxC= 1.00D-01 BMatC= 6.79D-03 BMatP= 6.19D-02
 IDIUse=3 WtCom= 9.85D-01 WtEn= 1.49D-02
 Coeff-Com: -0.393D-01 0.106D+00 0.284D+00 0.649D+00
 Coeff-En:   0.000D+00 0.000D+00 0.000D+00 0.100D+01
 Coeff:     -0.387D-01 0.105D+00 0.279D+00 0.655D+00
 Gap=     0.144 Goal=   None    Shift=    0.000
 RMSDP=1.87D-04 MaxDP=3.09D-02 DE=-5.40D-02 OVMax= 3.81D-02

 Cycle   5  Pass 0  IDiag  1:
 RMSU=  1.72D-04    CP:  1.00D+00  7.94D-01  9.24D-01  9.28D-01
 E= -1507.90720226247     Delta-E=       -0.005983596874 Rises=F Damp=F
 DIIS: error= 6.13D-04 at cycle   5 NSaved=   5.
 NSaved= 5 IEnMin= 5 EnMin= -1507.90720226247     IErMin= 5 ErrMin= 6.13D-04
 ErrMax= 6.13D-04  0.00D+00 EMaxC= 1.00D-01 BMatC= 5.64D-04 BMatP= 6.79D-03
 IDIUse=3 WtCom= 9.94D-01 WtEn= 6.13D-03
 Coeff-Com: -0.121D-01 0.216D-01 0.797D-01 0.297D+00 0.614D+00
 Coeff-En:   0.000D+00 0.000D+00 0.000D+00 0.000D+00 0.100D+01
 Coeff:     -0.120D-01 0.215D-01 0.793D-01 0.295D+00 0.616D+00
 Gap=     0.144 Goal=   None    Shift=    0.000
 RMSDP=6.08D-05 MaxDP=5.42D-03 DE=-5.98D-03 OVMax= 6.50D-03

 Cycle   6  Pass 0  IDiag  1:
 RMSU=  5.69D-05    CP:  1.00D+00  7.94D-01  9.19D-01  9.76D-01  9.67D-01
 E= -1507.90775434724     Delta-E=       -0.000552084775 Rises=F Damp=F
 DIIS: error= 1.78D-04 at cycle   6 NSaved=   6.
 NSaved= 6 IEnMin= 6 EnMin= -1507.90775434724     IErMin= 6 ErrMin= 1.78D-04
 ErrMax= 1.78D-04  0.00D+00 EMaxC= 1.00D-01 BMatC= 6.75D-05 BMatP= 5.64D-04
 IDIUse=3 WtCom= 9.98D-01 WtEn= 1.78D-03
 Coeff-Com: -0.205D-04-0.394D-02-0.789D-02 0.412D-01 0.280D+00 0.691D+00
 Coeff-En:   0.000D+00 0.000D+00 0.000D+00 0.000D+00 0.000D+00 0.100D+01
 Coeff:     -0.205D-04-0.394D-02-0.788D-02 0.411D-01 0.279D+00 0.692D+00
 Gap=     0.145 Goal=   None    Shift=    0.000
 RMSDP=4.42D-05 MaxDP=7.29D-03 DE=-5.52D-04 OVMax= 6.37D-03

 Cycle   7  Pass 0  IDiag  1:
 RMSU=  2.21D-05    CP:  1.00D+00  7.97D-01  9.25D-01  1.01D+00  1.17D+00
                    CP:  1.04D+00
 E= -1507.90784286656     Delta-E=       -0.000088519321 Rises=F Damp=F
 DIIS: error= 6.03D-05 at cycle   7 NSaved=   7.
 NSaved= 7 IEnMin= 7 EnMin= -1507.90784286656     IErMin= 7 ErrMin= 6.03D-05
 ErrMax= 6.03D-05  0.00D+00 EMaxC= 1.00D-01 BMatC= 6.95D-06 BMatP= 6.75D-05
 IDIUse=1 WtCom= 1.00D+00 WtEn= 0.00D+00
 Coeff-Com:  0.164D-02-0.438D-02-0.156D-01-0.241D-01 0.271D-01 0.252D+00
 Coeff-Com:  0.763D+00
 Coeff:      0.164D-02-0.438D-02-0.156D-01-0.241D-01 0.271D-01 0.252D+00
 Coeff:      0.763D+00
 Gap=     0.145 Goal=   None    Shift=    0.000
 RMSDP=1.93D-05 MaxDP=2.52D-03 DE=-8.85D-05 OVMax= 3.68D-03

 Cycle   8  Pass 0  IDiag  1:
 RMSU=  1.06D-05    CP:  1.00D+00  7.97D-01  9.24D-01  1.03D+00  1.23D+00
                    CP:  1.16D+00  1.26D+00
 E= -1507.90785113691     Delta-E=       -0.000008270350 Rises=F Damp=F
 DIIS: error= 3.05D-05 at cycle   8 NSaved=   8.
 NSaved= 8 IEnMin= 8 EnMin= -1507.90785113691     IErMin= 8 ErrMin= 3.05D-05
 ErrMax= 3.05D-05  0.00D+00 EMaxC= 1.00D-01 BMatC= 1.88D-06 BMatP= 6.95D-06
 IDIUse=1 WtCom= 1.00D+00 WtEn= 0.00D+00
 Coeff-Com:  0.801D-03-0.147D-02-0.737D-02-0.187D-01-0.320D-01 0.100D-01
 Coeff-Com:  0.369D+00 0.679D+00
 Coeff:      0.801D-03-0.147D-02-0.737D-02-0.187D-01-0.320D-01 0.100D-01
 Coeff:      0.369D+00 0.679D+00
 Gap=     0.145 Goal=   None    Shift=    0.000
 RMSDP=1.58D-05 MaxDP=1.73D-03 DE=-8.27D-06 OVMax= 2.29D-03

 Cycle   9  Pass 0  IDiag  1:
 RMSU=  1.24D-05    CP:  1.00D+00  7.96D-01  9.23D-01  1.03D+00  1.25D+00
                    CP:  1.24D+00  1.45D+00  1.61D+00
 E= -1507.90784774671     Delta-E=        0.000003390207 Rises=F Damp=F
 DIIS: error= 1.59D-05 at cycle   9 NSaved=   9.
 NSaved= 9 IEnMin= 8 EnMin= -1507.90785113691     IErMin= 9 ErrMin= 1.59D-05
 ErrMax= 1.59D-05  0.00D+00 EMaxC= 1.00D-01 BMatC= 4.76D-07 BMatP= 1.88D-06
 IDIUse=1 WtCom= 1.00D+00 WtEn= 0.00D+00
 Coeff-Com:  0.234D-03-0.300D-03-0.248D-02-0.708D-02-0.212D-01-0.267D-01
 Coeff-Com:  0.844D-01 0.352D+00 0.621D+00
 Coeff:      0.234D-03-0.300D-03-0.248D-02-0.708D-02-0.212D-01-0.267D-01
 Coeff:      0.844D-01 0.352D+00 0.621D+00
 Gap=     0.145 Goal=   None    Shift=    0.000
 RMSDP=2.03D-05 MaxDP=2.78D-03 DE= 3.39D-06 OVMax= 9.83D-04

 Cycle  10  Pass 0  IDiag  1:
 RMSU=  7.10D-06    CP:  1.00D+00  7.95D-01  9.23D-01  1.03D+00  1.26D+00
                    CP:  1.31D+00  1.54D+00  2.40D+00  2.33D+00
 E= -1507.90784213752     Delta-E=        0.000005609183 Rises=F Damp=F
 DIIS: error= 2.47D-05 at cycle  10 NSaved=  10.
 NSaved=10 IEnMin= 8 EnMin= -1507.90785113691     IErMin= 9 ErrMin= 1.59D-05
 ErrMax= 2.47D-05  0.00D+00 EMaxC= 1.00D-01 BMatC= 4.05D-07 BMatP= 4.76D-07
 IDIUse=1 WtCom= 1.00D+00 WtEn= 0.00D+00
 Coeff-Com:  0.213D-03-0.273D-03-0.230D-02-0.647D-02-0.195D-01-0.246D-01
 Coeff-Com:  0.759D-01 0.322D+00 0.568D+00 0.868D-01
 Coeff:      0.213D-03-0.273D-03-0.230D-02-0.647D-02-0.195D-01-0.246D-01
 Coeff:      0.759D-01 0.322D+00 0.568D+00 0.868D-01
 Gap=     0.145 Goal=   None    Shift=    0.000
 RMSDP=4.16D-06 MaxDP=6.10D-04 DE= 5.61D-06 OVMax= 5.69D-05

 Initial convergence to 1.0D-05 achieved.  Increase integral accuracy.
 Cycle  11  Pass 1  IDiag  1:
 E= -1507.90774085971     Delta-E=        0.000101277812 Rises=F Damp=F
 DIIS: error= 3.34D-04 at cycle   1 NSaved=   1.
 NSaved= 1 IEnMin= 1 EnMin= -1507.90774085971     IErMin= 1 ErrMin= 3.34D-04
 ErrMax= 3.34D-04  0.00D+00 EMaxC= 1.00D-01 BMatC= 9.54D-05 BMatP= 9.54D-05
 IDIUse=3 WtCom= 9.97D-01 WtEn= 3.34D-03
 Coeff-Com:  0.100D+01
 Coeff-En:   0.100D+01
 Coeff:      0.100D+01
 Gap=     0.145 Goal=   None    Shift=    0.000
 RMSDP=4.16D-06 MaxDP=6.10D-04 DE= 1.01D-04 OVMax= 1.06D-03

 Cycle  12  Pass 1  IDiag  1:
 RMSU=  5.84D-04    CP:  9.89D-01
 E= -1507.90780305392     Delta-E=       -0.000062194212 Rises=F Damp=F
 DIIS: error= 1.06D-05 at cycle   2 NSaved=   2.
 NSaved= 2 IEnMin= 2 EnMin= -1507.90780305392     IErMin= 2 ErrMin= 1.06D-05
 ErrMax= 1.06D-05  0.00D+00 EMaxC= 1.00D-01 BMatC= 1.42D-07 BMatP= 9.54D-05
 IDIUse=1 WtCom= 1.00D+00 WtEn= 0.00D+00
 Coeff-Com: -0.157D-01 0.102D+01
 Coeff:     -0.157D-01 0.102D+01
 Gap=     0.145 Goal=   None    Shift=    0.000
 RMSDP=2.21D-05 MaxDP=2.03D-03 DE=-6.22D-05 OVMax= 4.24D-04

 Cycle  13  Pass 1  IDiag  1:
 RMSU=  8.37D-06    CP:  9.89D-01  1.03D+00
 E= -1507.90780307470     Delta-E=       -0.000000020781 Rises=F Damp=F
 DIIS: error= 8.81D-06 at cycle   3 NSaved=   3.
 NSaved= 3 IEnMin= 3 EnMin= -1507.90780307470     IErMin= 3 ErrMin= 8.81D-06
 ErrMax= 8.81D-06  0.00D+00 EMaxC= 1.00D-01 BMatC= 2.28D-07 BMatP= 1.42D-07
 IDIUse=1 WtCom= 1.00D+00 WtEn= 0.00D+00
 Coeff-Com: -0.104D-01 0.599D+00 0.411D+00
 Coeff:     -0.104D-01 0.599D+00 0.411D+00
 Gap=     0.145 Goal=   None    Shift=    0.000
 RMSDP=9.31D-07 MaxDP=7.85D-05 DE=-2.08D-08 OVMax= 9.18D-05

 Cycle  14  Pass 1  IDiag  1:
 RMSU=  8.66D-07    CP:  9.89D-01  1.04D+00  1.01D+00
 E= -1507.90780327145     Delta-E=       -0.000000196743 Rises=F Damp=F
 DIIS: error= 1.66D-06 at cycle   4 NSaved=   4.
 NSaved= 4 IEnMin= 4 EnMin= -1507.90780327145     IErMin= 4 ErrMin= 1.66D-06
 ErrMax= 1.66D-06  0.00D+00 EMaxC= 1.00D-01 BMatC= 3.08D-09 BMatP= 1.42D-07
 IDIUse=1 WtCom= 1.00D+00 WtEn= 0.00D+00
 Coeff-Com: -0.498D-03 0.165D-01 0.713D-01 0.913D+00
 Coeff:     -0.498D-03 0.165D-01 0.713D-01 0.913D+00
 Gap=     0.145 Goal=   None    Shift=    0.000
 RMSDP=5.90D-07 MaxDP=5.54D-05 DE=-1.97D-07 OVMax= 1.14D-04

 Cycle  15  Pass 1  IDiag  1:
 RMSU=  3.15D-07    CP:  9.89D-01  1.04D+00  1.05D+00  9.93D-01
 E= -1507.90780328040     Delta-E=       -0.000000008951 Rises=F Damp=F
 DIIS: error= 1.11D-06 at cycle   5 NSaved=   5.
 NSaved= 5 IEnMin= 5 EnMin= -1507.90780328040     IErMin= 5 ErrMin= 1.11D-06
 ErrMax= 1.11D-06  0.00D+00 EMaxC= 1.00D-01 BMatC= 1.71D-09 BMatP= 3.08D-09
 IDIUse=1 WtCom= 1.00D+00 WtEn= 0.00D+00
 Coeff-Com:  0.926D-03-0.598D-01-0.175D-01 0.478D+00 0.598D+00
 Coeff:      0.926D-03-0.598D-01-0.175D-01 0.478D+00 0.598D+00
 Gap=     0.145 Goal=   None    Shift=    0.000
 RMSDP=1.82D-07 MaxDP=1.87D-05 DE=-8.95D-09 OVMax= 5.80D-05

 Cycle  16  Pass 1  IDiag  1:
 RMSU=  1.12D-07    CP:  9.89D-01  1.04D+00  1.06D+00  1.00D+00  1.33D+00
 E= -1507.90780328375     Delta-E=       -0.000000003349 Rises=F Damp=F
 DIIS: error= 4.53D-07 at cycle   6 NSaved=   6.
 NSaved= 6 IEnMin= 6 EnMin= -1507.90780328375     IErMin= 6 ErrMin= 4.53D-07
 ErrMax= 4.53D-07  0.00D+00 EMaxC= 1.00D-01 BMatC= 2.56D-10 BMatP= 1.71D-09
 IDIUse=1 WtCom= 1.00D+00 WtEn= 0.00D+00
 Coeff-Com:  0.431D-03-0.247D-01-0.267D-01-0.285D-01 0.232D+00 0.848D+00
 Coeff:      0.431D-03-0.247D-01-0.267D-01-0.285D-01 0.232D+00 0.848D+00
 Gap=     0.145 Goal=   None    Shift=    0.000
 RMSDP=1.22D-07 MaxDP=1.45D-05 DE=-3.35D-09 OVMax= 4.23D-05

 Cycle  17  Pass 1  IDiag  1:
 RMSU=  6.19D-08    CP:  9.89D-01  1.04D+00  1.06D+00  1.01D+00  1.62D+00
                    CP:  1.29D+00
 E= -1507.90780328478     Delta-E=       -0.000000001032 Rises=F Damp=F
 DIIS: error= 1.89D-07 at cycle   7 NSaved=   7.
 NSaved= 7 IEnMin= 7 EnMin= -1507.90780328478     IErMin= 7 ErrMin= 1.89D-07
 ErrMax= 1.89D-07  0.00D+00 EMaxC= 1.00D-01 BMatC= 6.57D-11 BMatP= 2.56D-10
 IDIUse=1 WtCom= 1.00D+00 WtEn= 0.00D+00
 Coeff-Com: -0.844D-04 0.718D-02-0.110D-01-0.176D+00-0.489D-01 0.460D+00
 Coeff-Com:  0.769D+00
 Coeff:     -0.844D-04 0.718D-02-0.110D-01-0.176D+00-0.489D-01 0.460D+00
 Coeff:      0.769D+00
 Gap=     0.145 Goal=   None    Shift=    0.000
 RMSDP=8.21D-08 MaxDP=1.15D-05 DE=-1.03D-09 OVMax= 2.76D-05

 Cycle  18  Pass 1  IDiag  1:
 RMSU=  2.63D-08    CP:  9.89D-01  1.04D+00  1.06D+00  9.99D-01  1.81D+00
                    CP:  1.58D+00  1.44D+00
 E= -1507.90780328503     Delta-E=       -0.000000000254 Rises=F Damp=F
 DIIS: error= 4.06D-08 at cycle   8 NSaved=   8.
 NSaved= 8 IEnMin= 8 EnMin= -1507.90780328503     IErMin= 8 ErrMin= 4.06D-08
 ErrMax= 4.06D-08  0.00D+00 EMaxC= 1.00D-01 BMatC= 3.88D-12 BMatP= 6.57D-11
 IDIUse=1 WtCom= 1.00D+00 WtEn= 0.00D+00
 Coeff-Com: -0.644D-04 0.444D-02-0.165D-02-0.523D-01-0.311D-01 0.684D-01
 Coeff-Com:  0.258D+00 0.754D+00
 Coeff:     -0.644D-04 0.444D-02-0.165D-02-0.523D-01-0.311D-01 0.684D-01
 Coeff:      0.258D+00 0.754D+00
 Gap=     0.145 Goal=   None    Shift=    0.000
 RMSDP=1.41D-08 MaxDP=1.31D-06 DE=-2.54D-10 OVMax= 4.64D-06

 Cycle  19  Pass 1  IDiag  1:
 RMSU=  5.03D-09    CP:  9.89D-01  1.04D+00  1.06D+00  9.97D-01  1.83D+00
                    CP:  1.63D+00  1.58D+00  1.07D+00
 E= -1507.90780328501     Delta-E=        0.000000000019 Rises=F Damp=F
 DIIS: error= 1.71D-08 at cycle   9 NSaved=   9.
 NSaved= 9 IEnMin= 8 EnMin= -1507.90780328503     IErMin= 9 ErrMin= 1.71D-08
 ErrMax= 1.71D-08  0.00D+00 EMaxC= 1.00D-01 BMatC= 5.42D-13 BMatP= 3.88D-12
 IDIUse=1 WtCom= 1.00D+00 WtEn= 0.00D+00
 Coeff-Com: -0.100D-04 0.488D-03 0.886D-03 0.653D-02-0.374D-02-0.494D-01
 Coeff-Com: -0.192D-01 0.258D+00 0.807D+00
 Coeff:     -0.100D-04 0.488D-03 0.886D-03 0.653D-02-0.374D-02-0.494D-01
 Coeff:     -0.192D-01 0.258D+00 0.807D+00
 Gap=     0.145 Goal=   None    Shift=    0.000
 RMSDP=7.22D-09 MaxDP=1.09D-06 DE= 1.86D-11 OVMax= 2.00D-06

 Cycle  20  Pass 1  IDiag  1:
 RMSU=  2.28D-09    CP:  9.89D-01  1.04D+00  1.06D+00  9.96D-01  1.85D+00
                    CP:  1.65D+00  1.66D+00  1.16D+00  1.26D+00
 E= -1507.90780328505     Delta-E=       -0.000000000036 Rises=F Damp=F
 DIIS: error= 7.03D-09 at cycle  10 NSaved=  10.
 NSaved=10 IEnMin=10 EnMin= -1507.90780328505     IErMin=10 ErrMin= 7.03D-09
 ErrMax= 7.03D-09  0.00D+00 EMaxC= 1.00D-01 BMatC= 1.25D-13 BMatP= 5.42D-13
 IDIUse=1 WtCom= 1.00D+00 WtEn= 0.00D+00
 Coeff-Com:  0.396D-05-0.367D-03 0.602D-03 0.100D-01 0.325D-02-0.301D-01
 Coeff-Com: -0.422D-01 0.797D-02 0.388D+00 0.663D+00
 Coeff:      0.396D-05-0.367D-03 0.602D-03 0.100D-01 0.325D-02-0.301D-01
 Coeff:     -0.422D-01 0.797D-02 0.388D+00 0.663D+00
 Gap=     0.145 Goal=   None    Shift=    0.000
 RMSDP=1.41D-09 MaxDP=1.05D-07 DE=-3.59D-11 OVMax= 3.65D-07

 SCF Done:  E(RM062X) =  -1507.90780329     A.U. after   20 cycles
            NFock= 20  Conv=0.14D-08     -V/T= 2.0037
 KE= 1.502289271261D+03 PE=-8.527423501567D+03 EE= 3.022241771405D+03
 Leave Link  502 at Sat Aug 13 20:57:26 2022, MaxMem=  2684354560 cpu:            9166.2 elap:             573.7
 (Enter /storage/apps/GAUSSIAN/G16_RevA03/g16/l601.exe)
 Copying SCF densities to generalized density rwf, IOpCl= 0 IROHF=0.

 **********************************************************************

            Population analysis using the SCF density.

 **********************************************************************

 Orbital symmetries:
       Occupied  (A) (A) (A) (A) (A) (A) (A) (A) (A) (A) (A) (A)
                 (A) (A) (A) (A) (A) (A) (A) (A) (A) (A) (A) (A)
                 (A) (A) (A) (A) (A) (A) (A) (A) (A) (A) (A) (A)
                 (A) (A) (A) (A) (A) (A) (A) (A) (A) (A) (A) (A)
                 (A) (A) (A) (A) (A) (A) (A) (A) (A) (A) (A) (A)
                 (A) (A) (A) (A) (A) (A) (A) (A) (A) (A) (A) (A)
                 (A) (A) (A) (A) (A) (A) (A) (A) (A) (A) (A) (A)
                 (A) (A) (A) (A) (A) (A) (A) (A) (A) (A) (A)
       Virtual   (A) (A) (A) (A) (A) (A) (A) (A) (A) (A) (A) (A)
                 (A) (A) (A) (A) (A) (A) (A) (A) (A) (A) (A) (A)
                 (A) (A) (A) (A) (A) (A) (A) (A) (A) (A) (A) (A)
                 (A) (A) (A) (A) (A) (A) (A) (A) (A) (A) (A) (A)
                 (A) (A) (A) (A) (A) (A) (A) (A) (A) (A) (A) (A)
                 (A) (A) (A) (A) (A) (A) (A) (A) (A) (A) (A) (A)
                 (A) (A) (A) (A) (A) (A) (A) (A) (A) (A) (A) (A)
                 (A) (A) (A) (A) (A) (A) (A) (A) (A) (A) (A) (A)
                 (A) (A) (A) (A) (A) (A) (A) (A) (A) (A) (A) (A)
                 (A) (A) (A) (A) (A) (A) (A) (A) (A) (A) (A) (A)
                 (A) (A) (A) (A) (A) (A) (A) (A) (A) (A) (A) (A)
                 (A) (A) (A) (A) (A) (A) (A) (A) (A) (A) (A) (A)
                 (A) (A) (A) (A) (A) (A) (A) (A) (A) (A) (A) (A)
                 (A) (A) (A) (A) (A) (A) (A) (A) (A) (A) (A) (A)
                 (A) (A) (A) (A) (A) (A) (A) (A) (A) (A) (A) (A)
                 (A) (A) (A) (A) (A) (A) (A) (A) (A) (A) (A) (A)
                 (A) (A) (A) (A) (A) (A) (A) (A) (A) (A) (A) (A)
                 (A) (A) (A) (A) (A) (A) (A) (A) (A) (A) (A) (A)
                 (A) (A) (A) (A) (A) (A) (A) (A) (A) (A) (A) (A)
                 (A) (A) (A) (A) (A) (A) (A) (A) (A) (A) (A) (A)
                 (A) (A) (A) (A) (A) (A) (A) (A) (A) (A) (A) (A)
                 (A) (A) (A) (A) (A) (A) (A) (A) (A) (A) (A) (A)
                 (A) (A) (A) (A) (A) (A) (A) (A) (A) (A) (A) (A)
                 (A) (A) (A) (A) (A) (A) (A) (A) (A) (A) (A) (A)
                 (A) (A) (A) (A) (A) (A) (A) (A) (A) (A) (A) (A)
                 (A) (A) (A) (A) (A) (A) (A) (A) (A) (A) (A) (A)
                 (A) (A) (A) (A) (A) (A) (A) (A) (A) (A) (A) (A)
                 (A) (A) (A) (A) (A) (A) (A) (A) (A) (A) (A) (A)
                 (A) (A) (A) (A) (A) (A) (A) (A) (A) (A) (A) (A)
                 (A) (A) (A) (A) (A) (A) (A) (A) (A) (A) (A) (A)
                 (A) (A) (A) (A) (A) (A) (A) (A) (A) (A) (A) (A)
                 (A) (A) (A) (A) (A) (A) (A) (A) (A) (A) (A) (A)
                 (A) (A) (A) (A) (A) (A) (A) (A) (A) (A) (A) (A)
                 (A) (A) (A) (A) (A) (A) (A) (A) (A) (A) (A) (A)
                 (A) (A) (A) (A) (A) (A) (A) (A) (A) (A) (A) (A)
                 (A) (A) (A) (A) (A) (A) (A) (A) (A) (A) (A) (A)
                 (A) (A) (A) (A) (A) (A) (A) (A) (A) (A) (A) (A)
                 (A) (A) (A) (A) (A) (A) (A) (A) (A) (A) (A) (A)
                 (A) (A) (A) (A) (A) (A) (A) (A) (A) (A) (A) (A)
                 (A) (A) (A) (A) (A) (A) (A) (A) (A) (A) (A) (A)
                 (A) (A) (A) (A) (A) (A) (A) (A) (A) (A) (A) (A)
                 (A) (A) (A) (A) (A) (A) (A) (A) (A) (A) (A) (A)
                 (A) (A) (A) (A) (A) (A) (A) (A) (A) (A) (A) (A)
                 (A) (A) (A) (A) (A) (A) (A) (A) (A) (A) (A) (A)
                 (A) (A) (A) (A) (A) (A) (A) (A) (A) (A) (A) (A)
                 (A) (A) (A) (A) (A) (A) (A) (A) (A) (A) (A) (A)
                 (A) (A) (A) (A) (A) (A) (A) (A) (A) (A) (A) (A)
                 (A) (A) (A) (A) (A) (A) (A) (A) (A) (A) (A) (A)
                 (A) (A) (A) (A) (A) (A) (A) (A) (A) (A) (A) (A)
                 (A) (A) (A) (A) (A) (A) (A) (A) (A) (A) (A) (A)
                 (A) (A) (A) (A) (A) (A) (A) (A) (A) (A) (A) (A)
                 (A) (A) (A) (A) (A) (A) (A) (A) (A) (A) (A) (A)
                 (A) (A) (A) (A) (A) (A) (A) (A) (A) (A) (A) (A)
                 (A) (A) (A) (A) (A) (A) (A) (A) (A) (A) (A) (A)
                 (A) (A) (A) (A) (A) (A) (A) (A) (A) (A) (A) (A)
                 (A) (A) (A) (A) (A) (A) (A) (A) (A) (A) (A) (A)
                 (A) (A) (A) (A) (A) (A) (A) (A) (A) (A) (A) (A)
                 (A) (A) (A) (A) (A) (A) (A) (A) (A) (A) (A) (A)
                 (A) (A) (A) (A) (A) (A) (A) (A) (A) (A) (A) (A)
                 (A) (A) (A) (A) (A) (A) (A) (A) (A) (A) (A) (A)
                 (A) (A) (A) (A) (A) (A) (A) (A) (A) (A) (A) (A)
                 (A) (A) (A) (A) (A) (A) (A) (A) (A) (A) (A) (A)
                 (A) (A) (A) (A) (A) (A) (A) (A) (A) (A) (A) (A)
                 (A) (A) (A) (A) (A) (A) (A) (A) (A) (A) (A) (A)
                 (A) (A) (A) (A) (A) (A) (A) (A) (A) (A) (A) (A)
                 (A) (A) (A) (A) (A) (A) (A) (A) (A) (A) (A) (A)
                 (A) (A) (A) (A) (A) (A) (A)
 The electronic state is 1-A.
 Alpha  occ. eigenvalues --  -89.86564 -19.66668 -19.63190 -19.61439 -19.61353
 Alpha  occ. eigenvalues --  -19.56622 -14.88386 -14.77804 -10.66708 -10.66410
 Alpha  occ. eigenvalues --  -10.64434 -10.64039 -10.61265 -10.61075 -10.61020
 Alpha  occ. eigenvalues --  -10.60447 -10.60146 -10.60017 -10.58568 -10.55263
 Alpha  occ. eigenvalues --  -10.53513 -10.52150 -10.51903 -10.48699  -8.22462
 Alpha  occ. eigenvalues --   -6.14432  -6.14209  -6.13934  -1.22666  -1.18713
 Alpha  occ. eigenvalues --   -1.17054  -1.15895  -1.13773  -1.09928  -1.03272
 Alpha  occ. eigenvalues --   -0.98062  -0.93552  -0.90796  -0.88009  -0.87370
 Alpha  occ. eigenvalues --   -0.85174  -0.81624  -0.80980  -0.78800  -0.77075
 Alpha  occ. eigenvalues --   -0.73282  -0.71481  -0.70026  -0.69157  -0.67217
 Alpha  occ. eigenvalues --   -0.65905  -0.64048  -0.62927  -0.62609  -0.61392
 Alpha  occ. eigenvalues --   -0.60079  -0.58303  -0.58049  -0.57473  -0.56136
 Alpha  occ. eigenvalues --   -0.56086  -0.54359  -0.53436  -0.52532  -0.51922
 Alpha  occ. eigenvalues --   -0.51558  -0.50907  -0.50121  -0.49938  -0.49012
 Alpha  occ. eigenvalues --   -0.48716  -0.48049  -0.47842  -0.47203  -0.45911
 Alpha  occ. eigenvalues --   -0.45701  -0.45576  -0.44653  -0.43314  -0.43290
 Alpha  occ. eigenvalues --   -0.42404  -0.40251  -0.39620  -0.38518  -0.38165
 Alpha  occ. eigenvalues --   -0.37810  -0.37292  -0.36851  -0.36653  -0.36212
 Alpha  occ. eigenvalues --   -0.34955  -0.34404  -0.29104  -0.27729  -0.21286
 Alpha virt. eigenvalues --   -0.06827  -0.04248   0.03860   0.04664   0.05005
 Alpha virt. eigenvalues --    0.06343   0.07106   0.07298   0.08206   0.08710
 Alpha virt. eigenvalues --    0.09360   0.09829   0.10368   0.11007   0.11344
 Alpha virt. eigenvalues --    0.11382   0.11850   0.12497   0.13067   0.13154
 Alpha virt. eigenvalues --    0.13575   0.14006   0.14170   0.14456   0.15133
 Alpha virt. eigenvalues --    0.15423   0.15574   0.16056   0.16583   0.16632
 Alpha virt. eigenvalues --    0.17302   0.17693   0.18602   0.18845   0.19348
 Alpha virt. eigenvalues --    0.20135   0.20744   0.21388   0.21525   0.22367
 Alpha virt. eigenvalues --    0.22422   0.22864   0.23362   0.23850   0.24343
 Alpha virt. eigenvalues --    0.24576   0.25029   0.25577   0.25778   0.26019
 Alpha virt. eigenvalues --    0.26611   0.27044   0.27853   0.28046   0.28378
 Alpha virt. eigenvalues --    0.29420   0.29489   0.29863   0.30416   0.31110
 Alpha virt. eigenvalues --    0.31684   0.31949   0.32558   0.33066   0.33864
 Alpha virt. eigenvalues --    0.34267   0.34524   0.34744   0.35875   0.36069
 Alpha virt. eigenvalues --    0.36431   0.36950   0.37431   0.37739   0.38357
 Alpha virt. eigenvalues --    0.38445   0.38888   0.39149   0.39576   0.39978
 Alpha virt. eigenvalues --    0.40246   0.40732   0.41088   0.41775   0.42046
 Alpha virt. eigenvalues --    0.42672   0.42946   0.43071   0.43713   0.44064
 Alpha virt. eigenvalues --    0.44262   0.44650   0.44908   0.45364   0.45729
 Alpha virt. eigenvalues --    0.46032   0.46106   0.46593   0.47006   0.47344
 Alpha virt. eigenvalues --    0.47841   0.48068   0.48445   0.48638   0.48948
 Alpha virt. eigenvalues --    0.49581   0.49696   0.50071   0.50163   0.50818
 Alpha virt. eigenvalues --    0.51228   0.51900   0.52091   0.52774   0.52982
 Alpha virt. eigenvalues --    0.53608   0.53838   0.54089   0.54344   0.55315
 Alpha virt. eigenvalues --    0.55629   0.55742   0.56205   0.56317   0.57289
 Alpha virt. eigenvalues --    0.57397   0.58587   0.58828   0.59289   0.59732
 Alpha virt. eigenvalues --    0.60587   0.60902   0.61561   0.61881   0.62259
 Alpha virt. eigenvalues --    0.62885   0.63381   0.63877   0.64635   0.65035
 Alpha virt. eigenvalues --    0.65483   0.66214   0.66782   0.66977   0.67292
 Alpha virt. eigenvalues --    0.67451   0.68085   0.68528   0.69681   0.70477
 Alpha virt. eigenvalues --    0.70915   0.71652   0.72005   0.72779   0.73002
 Alpha virt. eigenvalues --    0.73906   0.74822   0.74981   0.75652   0.76596
 Alpha virt. eigenvalues --    0.77377   0.78170   0.79136   0.79677   0.80239
 Alpha virt. eigenvalues --    0.80851   0.81254   0.82608   0.83295   0.83615
 Alpha virt. eigenvalues --    0.84516   0.85621   0.86687   0.86860   0.87237
 Alpha virt. eigenvalues --    0.87963   0.88670   0.89529   0.89885   0.90350
 Alpha virt. eigenvalues --    0.90499   0.90891   0.91745   0.92345   0.92944
 Alpha virt. eigenvalues --    0.93777   0.94101   0.94712   0.95508   0.96291
 Alpha virt. eigenvalues --    0.96923   0.97214   0.97391   0.98556   0.99749
 Alpha virt. eigenvalues --    0.99821   1.00662   1.01452   1.01757   1.02813
 Alpha virt. eigenvalues --    1.03442   1.03832   1.04722   1.05602   1.06623
 Alpha virt. eigenvalues --    1.07100   1.07899   1.08237   1.08865   1.09918
 Alpha virt. eigenvalues --    1.10464   1.11337   1.12092   1.12605   1.13308
 Alpha virt. eigenvalues --    1.14152   1.14833   1.15212   1.16236   1.17065
 Alpha virt. eigenvalues --    1.17855   1.18413   1.18864   1.19052   1.20342
 Alpha virt. eigenvalues --    1.21211   1.21312   1.22676   1.23308   1.24707
 Alpha virt. eigenvalues --    1.25212   1.25480   1.25858   1.26953   1.27872
 Alpha virt. eigenvalues --    1.28165   1.28824   1.29360   1.29460   1.30889
 Alpha virt. eigenvalues --    1.31703   1.31909   1.33488   1.33893   1.34439
 Alpha virt. eigenvalues --    1.34732   1.36189   1.36897   1.39092   1.39594
 Alpha virt. eigenvalues --    1.40123   1.41166   1.42354   1.42512   1.43753
 Alpha virt. eigenvalues --    1.45097   1.45405   1.46205   1.47495   1.49231
 Alpha virt. eigenvalues --    1.50098   1.50945   1.52348   1.52714   1.53471
 Alpha virt. eigenvalues --    1.53745   1.54538   1.54989   1.55212   1.56047
 Alpha virt. eigenvalues --    1.56398   1.57060   1.57472   1.57912   1.58764
 Alpha virt. eigenvalues --    1.59244   1.59542   1.60107   1.60342   1.60636
 Alpha virt. eigenvalues --    1.61122   1.61310   1.62383   1.63052   1.63152
 Alpha virt. eigenvalues --    1.63447   1.63769   1.64146   1.64394   1.65194
 Alpha virt. eigenvalues --    1.65935   1.66702   1.67043   1.68057   1.68560
 Alpha virt. eigenvalues --    1.68870   1.70046   1.70960   1.71371   1.71892
 Alpha virt. eigenvalues --    1.72397   1.72934   1.73380   1.74150   1.74504
 Alpha virt. eigenvalues --    1.75604   1.76347   1.76766   1.77363   1.77891
 Alpha virt. eigenvalues --    1.78007   1.78918   1.79306   1.80214   1.81089
 Alpha virt. eigenvalues --    1.81726   1.82564   1.83644   1.84480   1.85774
 Alpha virt. eigenvalues --    1.86169   1.86237   1.86932   1.88166   1.88766
 Alpha virt. eigenvalues --    1.89524   1.89944   1.90088   1.91287   1.91610
 Alpha virt. eigenvalues --    1.92299   1.92992   1.93345   1.93755   1.94515
 Alpha virt. eigenvalues --    1.95357   1.95794   1.96863   1.97260   1.97777
 Alpha virt. eigenvalues --    1.99005   1.99419   2.00110   2.01705   2.02186
 Alpha virt. eigenvalues --    2.02765   2.03777   2.03877   2.04718   2.05230
 Alpha virt. eigenvalues --    2.05772   2.06214   2.07202   2.07511   2.08824
 Alpha virt. eigenvalues --    2.09303   2.10319   2.11177   2.12897   2.13958
 Alpha virt. eigenvalues --    2.14487   2.14761   2.15999   2.16260   2.17375
 Alpha virt. eigenvalues --    2.17543   2.17923   2.18121   2.19133   2.19878
 Alpha virt. eigenvalues --    2.20873   2.20950   2.21930   2.22281   2.22742
 Alpha virt. eigenvalues --    2.23189   2.23695   2.24746   2.25232   2.26166
 Alpha virt. eigenvalues --    2.26503   2.27675   2.28546   2.28944   2.30111
 Alpha virt. eigenvalues --    2.30437   2.32078   2.32869   2.33355   2.33819
 Alpha virt. eigenvalues --    2.34425   2.34913   2.35381   2.35821   2.36431
 Alpha virt. eigenvalues --    2.37506   2.37953   2.38149   2.38688   2.39744
 Alpha virt. eigenvalues --    2.40512   2.41327   2.41729   2.42923   2.43726
 Alpha virt. eigenvalues --    2.44435   2.44821   2.45918   2.46613   2.47125
 Alpha virt. eigenvalues --    2.47813   2.48669   2.49897   2.51110   2.52283
 Alpha virt. eigenvalues --    2.52740   2.53740   2.54270   2.54939   2.56114
 Alpha virt. eigenvalues --    2.56854   2.57548   2.58259   2.58617   2.58877
 Alpha virt. eigenvalues --    2.59941   2.60285   2.60449   2.60670   2.61865
 Alpha virt. eigenvalues --    2.62118   2.62585   2.62819   2.64347   2.64677
 Alpha virt. eigenvalues --    2.65857   2.66324   2.66879   2.67211   2.67910
 Alpha virt. eigenvalues --    2.68205   2.69029   2.69329   2.69840   2.70295
 Alpha virt. eigenvalues --    2.71454   2.71782   2.72584   2.73363   2.73796
 Alpha virt. eigenvalues --    2.74154   2.75405   2.75999   2.76459   2.77462
 Alpha virt. eigenvalues --    2.79205   2.79536   2.80441   2.80620   2.81021
 Alpha virt. eigenvalues --    2.82088   2.82443   2.82862   2.83318   2.84025
 Alpha virt. eigenvalues --    2.85301   2.85569   2.85742   2.86512   2.87348
 Alpha virt. eigenvalues --    2.88804   2.89061   2.89828   2.90458   2.92156
 Alpha virt. eigenvalues --    2.92622   2.93524   2.93719   2.94545   2.95013
 Alpha virt. eigenvalues --    2.96382   2.97381   2.97703   2.98571   2.99138
 Alpha virt. eigenvalues --    3.00030   3.01170   3.01259   3.01936   3.02915
 Alpha virt. eigenvalues --    3.03764   3.04323   3.04807   3.06063   3.06491
 Alpha virt. eigenvalues --    3.07239   3.07886   3.08666   3.09592   3.09743
 Alpha virt. eigenvalues --    3.10710   3.11062   3.11496   3.11845   3.12349
 Alpha virt. eigenvalues --    3.13062   3.13564   3.13894   3.14359   3.14740
 Alpha virt. eigenvalues --    3.15822   3.16667   3.17122   3.17577   3.18114
 Alpha virt. eigenvalues --    3.18352   3.19301   3.19690   3.20777   3.20982
 Alpha virt. eigenvalues --    3.22461   3.22743   3.22910   3.23391   3.24320
 Alpha virt. eigenvalues --    3.24973   3.25820   3.26392   3.27133   3.27633
 Alpha virt. eigenvalues --    3.28473   3.29205   3.30067   3.30381   3.31522
 Alpha virt. eigenvalues --    3.31618   3.31918   3.32474   3.32743   3.33308
 Alpha virt. eigenvalues --    3.34329   3.35140   3.35499   3.36144   3.36521
 Alpha virt. eigenvalues --    3.37402   3.38354   3.39101   3.39562   3.40516
 Alpha virt. eigenvalues --    3.41041   3.41426   3.41979   3.42233   3.42587
 Alpha virt. eigenvalues --    3.43053   3.44273   3.45470   3.45632   3.45836
 Alpha virt. eigenvalues --    3.46535   3.47510   3.48109   3.48627   3.49962
 Alpha virt. eigenvalues --    3.50531   3.51113   3.51347   3.52725   3.53246
 Alpha virt. eigenvalues --    3.54415   3.54654   3.55977   3.56347   3.56718
 Alpha virt. eigenvalues --    3.57213   3.57578   3.58412   3.59198   3.60327
 Alpha virt. eigenvalues --    3.60503   3.61737   3.62835   3.63599   3.64502
 Alpha virt. eigenvalues --    3.65884   3.67250   3.67985   3.69375   3.69819
 Alpha virt. eigenvalues --    3.70797   3.71689   3.72853   3.73427   3.75058
 Alpha virt. eigenvalues --    3.75795   3.77124   3.78008   3.78467   3.79872
 Alpha virt. eigenvalues --    3.79970   3.80347   3.81845   3.83784   3.85205
 Alpha virt. eigenvalues --    3.85767   3.86361   3.87132   3.87874   3.88549
 Alpha virt. eigenvalues --    3.90368   3.91504   3.91790   3.92655   3.93659
 Alpha virt. eigenvalues --    3.95733   3.96868   3.97547   3.97877   3.98571
 Alpha virt. eigenvalues --    4.00091   4.01284   4.02431   4.05701   4.07017
 Alpha virt. eigenvalues --    4.07957   4.10547   4.11029   4.12561   4.13336
 Alpha virt. eigenvalues --    4.14194   4.15819   4.16724   4.17065   4.17552
 Alpha virt. eigenvalues --    4.18406   4.20122   4.20691   4.22890   4.24117
 Alpha virt. eigenvalues --    4.26673   4.27098   4.28963   4.29449   4.30973
 Alpha virt. eigenvalues --    4.31839   4.33151   4.35319   4.36440   4.37209
 Alpha virt. eigenvalues --    4.38739   4.40005   4.40720   4.42006   4.43686
 Alpha virt. eigenvalues --    4.43926   4.44733   4.45398   4.47349   4.48654
 Alpha virt. eigenvalues --    4.50015   4.50960   4.54106   4.56920   4.57940
 Alpha virt. eigenvalues --    4.58895   4.60491   4.61599   4.63150   4.66536
 Alpha virt. eigenvalues --    4.67919   4.71717   4.73118   4.75504   4.76151
 Alpha virt. eigenvalues --    4.77269   4.79612   4.81204   4.81317   4.83840
 Alpha virt. eigenvalues --    4.85554   4.86634   4.87992   4.88928   4.89908
 Alpha virt. eigenvalues --    4.90902   4.93024   4.94337   4.95584   4.98372
 Alpha virt. eigenvalues --    4.99862   5.01776   5.02553   5.04136   5.05086
 Alpha virt. eigenvalues --    5.07857   5.12500   5.13955   5.17791   5.19795
 Alpha virt. eigenvalues --    5.20851   5.24646   5.27010   5.27241   5.29460
 Alpha virt. eigenvalues --    5.30160   5.31102   5.32563   5.33451   5.37753
 Alpha virt. eigenvalues --    5.39634   5.42046   5.43696   5.44978   5.46624
 Alpha virt. eigenvalues --    5.48696   5.49310   5.49930   5.52930   5.59077
 Alpha virt. eigenvalues --    5.65039   5.67452   5.71859   5.74258   5.77570
 Alpha virt. eigenvalues --    5.80295   5.81510   5.83498   5.85156   5.86664
 Alpha virt. eigenvalues --    5.87929   5.90611   5.91761   5.94497   5.95075
 Alpha virt. eigenvalues --    5.97559   6.02764   6.05288   6.14899   6.18235
 Alpha virt. eigenvalues --    6.20281   6.22176   6.26466   6.26912   6.37772
 Alpha virt. eigenvalues --    6.42061   6.44414   6.48047   6.50934   6.56270
 Alpha virt. eigenvalues --    6.57519   6.69943   6.73971   6.75795   6.76514
 Alpha virt. eigenvalues --    6.76696   6.80713   6.83886   6.85037   6.87789
 Alpha virt. eigenvalues --    6.90428   6.95056   7.00162   7.08148   7.08448
 Alpha virt. eigenvalues --    7.10135   7.11075   7.17050   7.19049   7.24885
 Alpha virt. eigenvalues --    7.32152   7.42431   9.07523   9.41678   9.59656
 Alpha virt. eigenvalues --   19.80325  22.36196  22.46318  22.50169  22.55857
 Alpha virt. eigenvalues --   22.64641  22.67128  22.74066  22.75451  22.81526
 Alpha virt. eigenvalues --   22.86895  22.94247  22.96732  23.07109  23.19688
 Alpha virt. eigenvalues --   23.28185  23.51141  32.18768  33.15895  44.13155
 Alpha virt. eigenvalues --   44.23939  44.26408  44.39027  44.50919
          Condensed to atoms (all electrons):
[...]
 (Enter /storage/apps/GAUSSIAN/G16_RevA03/g16/l716.exe)
 Dipole        = 7.94562175D-01-2.75440928D+00 8.21994343D-01
 ***** Axes restored to original set *****
 -------------------------------------------------------------------
 Center     Atomic                   Forces (Hartrees/Bohr)
 Number     Number              X              Y              Z
 -------------------------------------------------------------------
      1        6          -0.000048586   -0.000029435    0.000117162
      2        1           0.000004408   -0.000004197    0.000007765
      3        1          -0.000015221   -0.000018335    0.000014875
      4        6          -0.000092897    0.000022008   -0.000094034
      5        1          -0.000065325    0.000011621   -0.000008134
      6        8          -0.000291262    0.000010846   -0.000138458
      7        1          -0.000033060   -0.000003870   -0.000006337
      8        6          -0.000188413   -0.000059063    0.000108796
      9        1          -0.000042443   -0.000003555    0.000027296
     10        8          -0.000236934   -0.000173471    0.000362421
     11        1          -0.000043587    0.000014903    0.000024892
     12        6           0.000108407    0.000082750   -0.000063873
     13        1           0.000018971    0.000008660   -0.000033079
     14        6           0.000045499   -0.000023931    0.000191612
     15        1          -0.000014144   -0.000002784    0.000010378
     16        8           0.000285612    0.000051989    0.000105433
     17        7           0.000342498   -0.000067080   -0.000285512
     18        6           0.000275935    0.000168148   -0.000295415
     19        1           0.000004222   -0.000008116   -0.000014891
     20        6           0.000396258   -0.000001230   -0.000289808
     21        1           0.000026745    0.000012993   -0.000021667
     22        6           0.000111453    0.000398670    0.000005825
     23        1           0.000030019   -0.000006801   -0.000016712
     24        1          -0.000015448    0.000036000   -0.000032233
     25        6           0.000066889   -0.000140925   -0.000171915
     26        6           0.000023996   -0.000113959   -0.000240983
     27        1           0.000119436    0.000301851    0.000221433
     28        6          -0.000036640    0.000008811    0.000186223
     29        8          -0.000129637    0.000068946   -0.000132278
     30        7          -0.000379547   -0.000214913    0.000597634
     31        1          -0.000006288    0.000002135    0.000040950
     32        1           0.000138998    0.000127991   -0.000090829
     33        1          -0.000043741    0.000029475    0.000012027
     34        6          -0.000263490   -0.000073996    0.000194941
     35        6           0.000188245   -0.000067233   -0.000014767
     36        6          -0.000466250    0.000011811    0.000104721
     37        6          -0.000177265   -0.000128059    0.000767355
     38        6          -0.000272785    0.000028518    0.000171705
     39        8          -0.000101946   -0.000084138   -0.000357370
     40       16           0.000869093   -0.000029162   -0.001318606
     41        1          -0.000024874   -0.000020354    0.000000786
     42        1          -0.000018197   -0.000007908    0.000043645
     43        1          -0.000006325    0.000022292    0.000243565
     44        1          -0.000060958    0.000053838    0.000032546
     45        1          -0.000042942   -0.000104057    0.000006936
     46        1           0.000054126    0.000001658   -0.000004578
     47        1           0.000056944   -0.000077232    0.000053641
     48        1          -0.000049550   -0.000012109   -0.000023086
 -------------------------------------------------------------------
 Cartesian Forces:  Max     0.001318606 RMS     0.000207620
 Leave Link  716 at Sat Aug 13 21:00:38 2022, MaxMem=  2684354560 cpu:               0.4 elap:               0.0
 (Enter /storage/apps/GAUSSIAN/G16_RevA03/g16/l103.exe)

 GradGradGradGradGradGradGradGradGradGradGradGradGradGradGradGradGradGrad
 Berny optimization.
 Search for a local minimum.
 Step number   1 out of a maximum of    2
 All quantities printed in internal units (Hartrees-Bohrs-Radians)
 Second derivative matrix not updated -- first step.
 ITU=  0
     Eigenvalues ---    0.00045   0.00089   0.00114   0.00144   0.00208
     Eigenvalues ---    0.00213   0.00310   0.00360   0.00458   0.00523
     Eigenvalues ---    0.00611   0.00651   0.00806   0.00917   0.00959
     Eigenvalues ---    0.01102   0.01156   0.01229   0.01491   0.01620
     Eigenvalues ---    0.01828   0.02139   0.02414   0.02470   0.02818
     Eigenvalues ---    0.02965   0.03312   0.03664   0.04123   0.04385
     Eigenvalues ---    0.04576   0.04688   0.04983   0.05051   0.05245
     Eigenvalues ---    0.05381   0.05481   0.05731   0.05949   0.06061
     Eigenvalues ---    0.06146   0.06300   0.06640   0.06749   0.07066
     Eigenvalues ---    0.07109   0.07480   0.08101   0.08258   0.08501
     Eigenvalues ---    0.08683   0.09140   0.09273   0.09777   0.10724
     Eigenvalues ---    0.10840   0.11115   0.11278   0.12044   0.12617
     Eigenvalues ---    0.13021   0.13141   0.13278   0.13652   0.13712
     Eigenvalues ---    0.13967   0.14307   0.15998   0.16301   0.16796
     Eigenvalues ---    0.17958   0.18122   0.18616   0.19817   0.20310
     Eigenvalues ---    0.20538   0.20868   0.21826   0.22575   0.25151
     Eigenvalues ---    0.25589   0.27344   0.28054   0.30575   0.33213
     Eigenvalues ---    0.33662   0.34396   0.34614   0.37747   0.37835
     Eigenvalues ---    0.37835   0.37835   0.37835   0.37835   0.39952
     Eigenvalues ---    0.43911   0.47974   0.49298   0.57083   0.58430
     Eigenvalues ---    0.60060   0.61786   0.69536   0.71999   0.73914
     Eigenvalues ---    0.79049   0.81893   0.82581   0.87403   0.90897
     Eigenvalues ---    0.91045   0.91781   0.92327   0.93299   0.95282
     Eigenvalues ---    0.96909   0.99689   0.99795   1.01988   1.03982
     Eigenvalues ---    1.05890   1.08541   1.11207   1.11733   1.12560
     Eigenvalues ---    1.19602   1.20672   1.27368   1.27848   1.29236
     Eigenvalues ---    1.33602   1.37422   1.43024   1.56580   1.72410
     Eigenvalues ---    1.84234   1.86367   2.36133
 Quadratic step=9.529D-01 exceeds max=3.000D-01 adjusted using Lamda=-1.334D-03.
 Angle between NR and scaled steps=  21.36 degrees.
 Angle between quadratic step and forces=  65.48 degrees.
 Linear search not attempted -- first point.
 Variable       Old X    -DE/DX   Delta X   Delta X   Delta X     New X
                                 (Linear)    (Quad)   (Total)
    X1        6.76160  -0.00005   0.00000  -0.01948  -0.01948   6.74212
    Y1       -6.84752  -0.00003   0.00000  -0.02642  -0.02642  -6.87394
    Z1       -0.75416   0.00012   0.00000   0.02771   0.02771  -0.72646
    X2        7.09385   0.00000   0.00000  -0.01387  -0.01387   7.07998
    Y2       -7.02064  -0.00000   0.00000  -0.03399  -0.03399  -7.05463
    Z2       -2.77860   0.00001   0.00000   0.02851   0.02851  -2.75008
    X3        8.10431  -0.00002   0.00000  -0.02778  -0.02778   8.07652
    Y3       -8.05642  -0.00002   0.00000  -0.03229  -0.03229  -8.08871
    Z3        0.23578   0.00001   0.00000   0.03183   0.03183   0.26761
    X4        3.45443  -0.00009   0.00000  -0.00824  -0.00824   3.44619
    Y4       -2.71267   0.00002   0.00000   0.02610   0.02610  -2.68657
    Z4        2.34486  -0.00009   0.00000  -0.01412  -0.01412   2.33074
    X5        2.22138  -0.00007   0.00000  -0.02087  -0.02087   2.20050
    Y5       -4.34682   0.00001   0.00000   0.03687   0.03687  -4.30995
    Z5        1.99287  -0.00001   0.00000  -0.01763  -0.01763   1.97525
    X6        2.65961  -0.00029   0.00000  -0.01457  -0.01457   2.64504
    Y6       -1.28653   0.00001   0.00000   0.04717   0.04717  -1.23936
    Z6        4.37322  -0.00014   0.00000  -0.03112  -0.03112   4.34210
    X7        0.88838  -0.00003   0.00000   0.00074   0.00074   0.88912
    Y7       -0.67789  -0.00000   0.00000   0.07142   0.07142  -0.60647
    Z7        3.99039  -0.00001   0.00000  -0.06095  -0.06095   3.92945
    X8        6.18759  -0.00019   0.00000  -0.02055  -0.02055   6.16704
    Y8       -3.57803  -0.00006   0.00000  -0.00227  -0.00227  -3.58030
    Z8        2.74055   0.00011   0.00000   0.01233   0.01233   2.75288
    X9        6.29625  -0.00004   0.00000  -0.04462  -0.04462   6.25163
    Y9       -5.24847  -0.00000   0.00000   0.00166   0.00166  -5.24681
    Z9        3.95468   0.00003   0.00000   0.01886   0.01886   3.97354
   X10        7.60559  -0.00024   0.00000  -0.00689  -0.00689   7.59870
   Y10       -1.56287  -0.00017   0.00000  -0.01361  -0.01361  -1.57648
   Z10        3.73154   0.00036   0.00000   0.01575   0.01575   3.74729
   X11        6.53004  -0.00004   0.00000  -0.00839  -0.00839   6.52165
   Y11       -0.72366   0.00001   0.00000   0.01465   0.01465  -0.70902
   Z11        4.95064   0.00002   0.00000  -0.00614  -0.00614   4.94450
   X12        3.77352   0.00011   0.00000   0.02445   0.02445   3.79797
   Y12       -1.22951   0.00008   0.00000   0.00677   0.00677  -1.22275
   Z12       -0.14118  -0.00006   0.00000  -0.02137  -0.02137  -0.16255
   X13        4.28859   0.00002   0.00000   0.04195   0.04195   4.33054
   Y13        0.72936   0.00001   0.00000   0.00540   0.00540   0.73476
   Z13        0.25863  -0.00003   0.00000  -0.03757  -0.03757   0.22107
   X14        7.09257   0.00005   0.00000  -0.00501  -0.00501   7.08755
   Y14       -4.12615  -0.00002   0.00000  -0.02518  -0.02518  -4.15133
   Z14        0.06634   0.00019   0.00000   0.02063   0.02063   0.08698
   X15        9.05552  -0.00001   0.00000   0.00117   0.00117   9.05669
   Y15       -3.53195  -0.00000   0.00000  -0.04235  -0.04235  -3.57430
   Z15       -0.12766   0.00001   0.00000   0.02485   0.02485  -0.10281
   X16        5.59815   0.00029   0.00000   0.02031   0.02031   5.61846
   Y16       -2.49855   0.00005   0.00000  -0.02209  -0.02209  -2.52064
   Z16       -1.54432   0.00011   0.00000   0.00057   0.00057  -1.54375
   X17        1.46172   0.00034   0.00000   0.03104   0.03104   1.49276
   Y17       -1.11682  -0.00007   0.00000   0.01131   0.01131  -1.10551
   Z17       -1.72528  -0.00029   0.00000  -0.03015  -0.03015  -1.75543
   X18        0.61835   0.00028   0.00000   0.03920   0.03920   0.65755
   Y18       -3.27091   0.00017   0.00000   0.01353   0.01353  -3.25738
   Z18       -2.79647  -0.00030   0.00000  -0.04072  -0.04072  -2.83719
   X19        1.74724   0.00000   0.00000   0.04903   0.04903   1.79627
   Y19       -4.93409  -0.00001   0.00000   0.01690   0.01690  -4.91719
   Z19       -2.45593  -0.00001   0.00000  -0.05546  -0.05546  -2.51138
   X20       -1.50085   0.00040   0.00000   0.03335   0.03335  -1.46749
   Y20       -3.24588  -0.00000   0.00000   0.01090   0.01090  -3.23498
   Z20       -4.28039  -0.00029   0.00000  -0.03182  -0.03182  -4.31220
   X21       -2.14147   0.00003   0.00000   0.04041   0.04041  -2.10107
   Y21       -4.98136   0.00001   0.00000   0.01236   0.01236  -4.96900
   Z21       -5.14164  -0.00002   0.00000  -0.04060  -0.04060  -5.18225
   X22       -2.76193   0.00011   0.00000   0.01470   0.01470  -2.74723
   Y22       -0.97424   0.00040   0.00000   0.00532   0.00532  -0.96893
   Z22       -4.68329   0.00001   0.00000  -0.00623  -0.00623  -4.68952
   X23       -4.38549   0.00003   0.00000   0.00686   0.00686  -4.37864
   Y23       -0.90203  -0.00001   0.00000   0.00163   0.00163  -0.90040
   Z23       -5.92440  -0.00002   0.00000   0.00376   0.00376  -5.92064
   X24       -5.83722  -0.00002   0.00000  -0.00845  -0.00845  -5.84567
   Y24       -1.53662   0.00004   0.00000   0.01449   0.01449  -1.52212
   Z24       -1.62887  -0.00003   0.00000  -0.01206  -0.01206  -1.64093
   X25       -1.86964   0.00007   0.00000   0.00554   0.00554  -1.86410
   Y25        1.21955  -0.00014   0.00000   0.00303   0.00303   1.22258
   Z25       -3.55389  -0.00017   0.00000   0.00500   0.00500  -3.54889
   X26        0.27932   0.00002   0.00000   0.01995   0.01995   0.29927
   Y26        1.07620  -0.00011   0.00000   0.00816   0.00816   1.08436
   Z26       -2.06832  -0.00024   0.00000  -0.01471  -0.01471  -2.08302
   X27        1.04077   0.00012   0.00000   0.01940   0.01940   1.06017
   Y27        2.74281   0.00030   0.00000   0.00846   0.00846   2.75127
   Z27       -1.15982   0.00022   0.00000  -0.01296  -0.01296  -1.17278
   X28       -2.93197  -0.00004   0.00000  -0.02631  -0.02631  -2.95829
   Y28        3.80136   0.00001   0.00000  -0.00320  -0.00320   3.79816
   Z28       -4.04037   0.00019   0.00000   0.03968   0.03968  -4.00069
   X29       -1.59316  -0.00013   0.00000  -0.04701  -0.04701  -1.64017
   Y29        5.64442   0.00007   0.00000   0.01123   0.01123   5.65566
   Z29       -3.91862  -0.00013   0.00000   0.04719   0.04719  -3.87143
   X30       -5.39870  -0.00038   0.00000  -0.03152  -0.03152  -5.43022
   Y30        3.84856  -0.00021   0.00000  -0.02318  -0.02318   3.82538
   Z30       -4.81245   0.00060   0.00000   0.05549   0.05549  -4.75696
   X31       -6.13666  -0.00001   0.00000  -0.04912  -0.04912  -6.18578
   Y31        5.60414   0.00000   0.00000  -0.03014  -0.03014   5.57400
   Z31       -4.92463   0.00004   0.00000   0.06488   0.06488  -4.85975
   X32       -6.55660   0.00014   0.00000  -0.01405  -0.01405  -6.57065
   Y32        2.54087   0.00013   0.00000  -0.04168  -0.04168   2.49920
   Z32       -4.04042  -0.00009   0.00000   0.04808   0.04808  -3.99234
   X33        4.85925  -0.00004   0.00000  -0.02446  -0.02446   4.83479
   Y33       -7.53128   0.00003   0.00000  -0.01486  -0.01486  -7.54615
   Z33       -0.33326   0.00001   0.00000   0.02203   0.02203  -0.31123
   X34        0.28841  -0.00026   0.00000  -0.00951  -0.00951   0.27890
   Y34        4.12231  -0.00007   0.00000  -0.00050  -0.00050   4.12181
   Z34        5.41997   0.00019   0.00000   0.00298   0.00298   5.42295
   X35       -3.14667   0.00019   0.00000   0.00087   0.00087  -3.14580
   Y35        1.66705  -0.00007   0.00000  -0.00548  -0.00548   1.66157
   Z35        2.24603  -0.00001   0.00000  -0.00718  -0.00718   2.23885
   X36       -5.41035  -0.00047   0.00000   0.00102   0.00102  -5.40934
   Y36        1.57274   0.00001   0.00000   0.00308   0.00308   1.57583
   Z36        1.01242   0.00010   0.00000  -0.00687  -0.00687   1.00555
   X37       -9.46946  -0.00018   0.00000  -0.00172  -0.00172  -9.47118
   Y37       -0.60018  -0.00013   0.00000  -0.00141  -0.00141  -0.60160
   Z37       -0.12298   0.00077   0.00000   0.01734   0.01734  -0.10564
   X38       -6.61098  -0.00027   0.00000  -0.00042  -0.00042  -6.61140
   Y38       -0.84371   0.00003   0.00000   0.00419   0.00419  -0.83952
   Z38        0.17999   0.00017   0.00000  -0.00378  -0.00378   0.17621
   X39       -1.65467  -0.00010   0.00000  -0.01975  -0.01975  -1.67442
   Y39       -0.17876  -0.00008   0.00000  -0.01783  -0.01783  -0.19659
   Z39        2.64787  -0.00036   0.00000   0.01110   0.01110   2.65898
   X40       -2.18653   0.00087   0.00000   0.03730   0.03730  -2.14922
   Y40        4.82120  -0.00003   0.00000  -0.00400  -0.00400   4.81720
   Z40        3.19051  -0.00132   0.00000  -0.05080  -0.05080   3.13970
   X41        0.70164  -0.00002   0.00000  -0.01645  -0.01645   0.68520
   Y41        5.88771  -0.00002   0.00000   0.00488   0.00488   5.89259
   Z41        6.39142   0.00000   0.00000  -0.00377  -0.00377   6.38765
   X42        1.99418  -0.00002   0.00000   0.00489   0.00489   1.99907
   Y42        3.44789  -0.00001   0.00000  -0.01439  -0.01439   3.43350
   Z42        4.49480   0.00004   0.00000   0.03860   0.03860   4.53340
   X43      -10.35079  -0.00001   0.00000   0.00947   0.00947 -10.34132
   Y43       -0.07065   0.00002   0.00000  -0.01308  -0.01308  -0.08374
   Z43        1.66229   0.00024   0.00000   0.02602   0.02602   1.68830
   X44       -9.95218  -0.00006   0.00000  -0.00972  -0.00972  -9.96190
   Y44        0.87015   0.00005   0.00000   0.00563   0.00563   0.87579
   Z44       -1.49434   0.00003   0.00000   0.02702   0.02702  -1.46732
   X45      -10.32170  -0.00004   0.00000   0.00165   0.00165 -10.32005
   Y45       -2.36176  -0.00010   0.00000  -0.00005  -0.00005  -2.36181
   Z45       -0.76941   0.00001   0.00000   0.00882   0.00882  -0.76059
   X46       -6.15323   0.00005   0.00000   0.01672   0.01672  -6.13651
   Y46       -2.34172   0.00000   0.00000   0.00072   0.00072  -2.34101
   Z46        1.52885  -0.00000   0.00000  -0.01386  -0.01386   1.51500
   X47       -6.50889   0.00006   0.00000   0.01215   0.01215  -6.49675
   Y47        3.29836  -0.00008   0.00000   0.00874   0.00874   3.30710
   Z47        0.88881   0.00005   0.00000  -0.01850  -0.01850   0.87030
   X48       -0.34254  -0.00005   0.00000  -0.03965  -0.03965  -0.38220
   Y48        2.72535  -0.00001   0.00000   0.01195   0.01195   2.73731
   Z48        6.79102  -0.00002   0.00000   0.00109   0.00109   6.79211
         Item               Value     Threshold  Converged?
 Maximum Force            0.001319     0.000450     NO 
 RMS     Force            0.000208     0.000300     YES
 Maximum Displacement     0.071420     0.001800     NO 
 RMS     Displacement     0.025012     0.001200     NO 
 Predicted change in Energy=-2.152980D-04
 GradGradGradGradGradGradGradGradGradGradGradGradGradGradGradGradGradGrad

 Leave Link  103 at Sat Aug 13 21:00:38 2022, MaxMem=  2684354560 cpu:               0.9 elap:               0.1
 (Enter /storage/apps/GAUSSIAN/G16_RevA03/g16/l9999.exe)

 Test job not archived.
 1\1\GINC-T051\Force\RM062X\def2TZVP\C16H24N2O5S1\LV87696\13-Aug-2022\0
 \\#P M062X/Def2TZVP scf=(direct,conver=8) EmpiricalDispersion=GD3 Forc
 e Charge Prop=(Field,Read)\\Gaussian run\\0,1\C,3.578084,-3.623551,-0.
 399086\H,3.753905,-3.715163,-1.47037\H,4.288615,-4.263274,0.124767\C,1
 .828005,-1.435481,1.240845\H,1.175502,-2.30024,1.054582\O,1.407405,-0.
 680804,2.314208\H,0.47011,-0.358723,2.111626\C,3.274332,-1.893413,1.45
 0235\H,3.331834,-2.77737,2.092726\O,4.024704,-0.827037,1.974645\H,3.45
 5549,-0.382947,2.619767\C,1.996859,-0.650631,-0.074707\H,2.269423,0.38
 5961,0.136863\C,3.753224,-2.183465,0.035108\H,4.791974,-1.869026,-0.06
 7554\O,2.962413,-1.322175,-0.817221\N,0.773508,-0.590997,-0.91298\C,0.
 327219,-1.73089,-1.479829\H,0.9246,-2.61101,-1.299621\C,-0.794214,-1.7
 17648,-2.265084\H,-1.133219,-2.636024,-2.720841\C,-1.461551,-0.515548,
 -2.478292\H,-2.320704,-0.477336,-3.135059\H,-3.088922,-0.813142,-0.861
 961\C,-0.989371,0.645356,-1.880635\C,0.147811,0.569498,-1.094507\H,0.5
 50753,1.451435,-0.613751\C,-1.551533,2.011592,-2.138074\O,-0.843064,2.
 9869,-2.073647\N,-2.85687,2.036568,-2.546638\H,-3.247381,2.965582,-2.6
 06004\H,-3.469602,1.344572,-2.138097\H,2.571407,-3.985382,-0.176353\C,
 0.152621,2.181431,2.868124\C,-1.665146,0.882165,1.188548\C,-2.863036,0
 .83226,0.535751\C,-5.011023,-0.317603,-0.065077\C,-3.49838,-0.446471,0
 .095248\O,-0.875616,-0.094597,1.401195\S,-1.157061,2.551269,1.688344\H
 ,0.371293,3.115642,3.382193\H,1.055275,1.824543,2.378544\H,-5.477402,-
 0.037388,0.879644\H,-5.266466,0.460466,-0.790772\H,-5.462007,-1.249789
 ,-0.407155\H,-3.256151,-1.239187,0.809035\H,-3.444358,1.745416,0.47033
 6\H,-0.181265,1.442194,3.593652\\Version=ES64L-G16RevA.03\State=1-A\HF
 =-1507.9078033\RMSD=1.415e-09\RMSF=2.076e-04\Dipole=0.0682422,-2.34622
 73,-1.8396562\Quadrupole=0.8144427,1.1149106,-1.9293532,-4.5363414,8.5
 000053,5.6928713\PG=C01 [X(C16H24N2O5S1)]\\@


 THERE'S A SUCKER BORN EVERY MINUTE

              -- PHINEAS TAYLOR (P.T.) BARNUM
 Job cpu time:       0 days  3 hours 25 minutes 25.6 seconds.
 Elapsed time:       0 days  0 hours 12 minutes 51.8 seconds.
 File lengths (MBytes):  RWF=    435 Int=      0 D2E=      0 Chk=     48 Scr=      1
 Normal termination of Gaussian 16 at Sat Aug 13 21:00:39 2022.
