 Entering Gaussian System, Link 0=g16
 Initial command:
 /storage/apps/GAUSSIAN/G16_RevA03/g16/l1.exe "/scratch/tmp/1019394/Gau-136304.inp" -scrdir="/scratch/tmp/1019394/"
 Entering Link 1 = /storage/apps/GAUSSIAN/G16_RevA03/g16/l1.exe PID=    136305.
  
 Copyright (c) 1988,1990,1992,1993,1995,1998,2003,2009,2016,
            Gaussian, Inc.  All Rights Reserved.
  
 This is part of the Gaussian(R) 16 program.  It is based on
 the Gaussian(R) 09 system (copyright 2009, Gaussian, Inc.),
 the Gaussian(R) 03 system (copyright 2003, Gaussian, Inc.),
 the Gaussian(R) 98 system (copyright 1998, Gaussian, Inc.),
 the Gaussian(R) 94 system (copyright 1995, Gaussian, Inc.),
 the Gaussian 92(TM) system (copyright 1992, Gaussian, Inc.),
 the Gaussian 90(TM) system (copyright 1990, Gaussian, Inc.),
 the Gaussian 88(TM) system (copyright 1988, Gaussian, Inc.),
 the Gaussian 86(TM) system (copyright 1986, Carnegie Mellon
 University), and the Gaussian 82(TM) system (copyright 1983,
 Carnegie Mellon University). Gaussian is a federally registered
 trademark of Gaussian, Inc.
  
 This software contains proprietary and confidential information,
 including trade secrets, belonging to Gaussian, Inc.
  
 This software is provided under written license and may be
 used, copied, transmitted, or stored only in accord with that
 written license.
  
 The following legend is applicable only to US Government
 contracts under FAR:
  
                    RESTRICTED RIGHTS LEGEND
  
 Use, reproduction and disclosure by the US Government is
 subject to restrictions as set forth in subparagraphs (a)
 and (c) of the Commercial Computer Software - Restricted
 Rights clause in FAR 52.227-19.
  
 Gaussian, Inc.
 340 Quinnipiac St., Bldg. 40, Wallingford CT 06492
  
  
 ---------------------------------------------------------------
 Warning -- This program may not be used in any manner that
 competes with the business of Gaussian, Inc. or will provide
 assistance to any competitor of Gaussian, Inc.  The licensee
 of this program is prohibited from giving any competitor of
 Gaussian, Inc. access to this program.  By using this program,
 the user acknowledges that Gaussian, Inc. is engaged in the
 business of creating and licensing software in the field of
 computational chemistry and represents and warrants to the
 licensee that it is not a competitor of Gaussian, Inc. and that
 it will not use this program in any manner prohibited above.
 ---------------------------------------------------------------
  

 Cite this work as:
 Gaussian 16, Revision A.03,
 M. J. Frisch, G. W. Trucks, H. B. Schlegel, G. E. Scuseria, 
 M. A. Robb, J. R. Cheeseman, G. Scalmani, V. Barone, 
 G. A. Petersson, H. Nakatsuji, X. Li, M. Caricato, A. V. Marenich, 
 J. Bloino, B. G. Janesko, R. Gomperts, B. Mennucci, H. P. Hratchian, 
 J. V. Ortiz, A. F. Izmaylov, J. L. Sonnenberg, D. Williams-Young, 
 F. Ding, F. Lipparini, F. Egidi, J. Goings, B. Peng, A. Petrone, 
 T. Henderson, D. Ranasinghe, V. G. Zakrzewski, J. Gao, N. Rega, 
 G. Zheng, W. Liang, M. Hada, M. Ehara, K. Toyota, R. Fukuda, 
 J. Hasegawa, M. Ishida, T. Nakajima, Y. Honda, O. Kitao, H. Nakai, 
 T. Vreven, K. Throssell, J. A. Montgomery, Jr., J. E. Peralta, 
 F. Ogliaro, M. J. Bearpark, J. J. Heyd, E. N. Brothers, K. N. Kudin, 
 V. N. Staroverov, T. A. Keith, R. Kobayashi, J. Normand, 
 K. Raghavachari, A. P. Rendell, J. C. Burant, S. S. Iyengar, 
 J. Tomasi, M. Cossi, J. M. Millam, M. Klene, C. Adamo, R. Cammi, 
 J. W. Ochterski, R. L. Martin, K. Morokuma, O. Farkas, 
 J. B. Foresman, and D. J. Fox, Gaussian, Inc., Wallingford CT, 2016.
 
 ******************************************
 Gaussian 16:  ES64L-G16RevA.03 25-Dec-2016
                13-Aug-2022 
 ******************************************
 %NProcShared=16
 Will use up to   16 processors via shared memory.
 %mem=20GB
 ----------------------------------------------------------------------
 #P M062X/Def2TZVP scf=(direct,conver=8) EmpiricalDispersion=GD3 Force 
 Charge Prop=(Field,Read)
 ----------------------------------------------------------------------
 1/10=7,18=10,28=-2,30=1,38=1,125=101/1,3;
 2/12=2,17=6,18=5,29=2,40=1/2;
 3/5=44,7=101,11=2,25=1,30=1,71=1,74=-55,124=31/1,2,3;
 4//1;
 5/5=2,6=8,38=5/2;
 6/7=2,8=2,9=2,10=2,14=2,15=1,28=1/1,2;
 7/7=1,16=-2,29=1/1,2,3,16;
 1/10=7,18=10,28=-2,30=1/3;
 99/12=1/99;
 Leave Link    1 at Sat Aug 13 20:48:17 2022, MaxMem=  2684354560 cpu:               0.7 elap:               0.0
 (Enter /storage/apps/GAUSSIAN/G16_RevA03/g16/l101.exe)
 ------------
 Gaussian run
 ------------
 Symbolic Z-matrix:
 Charge =  0 Multiplicity = 1
 C                     3.57677  -3.62464  -0.39504 
 H                     3.75701  -3.71598  -1.46562 
 H                     4.28338  -4.26659   0.13139 
 C                     1.82461  -1.43446   1.23837 
 H                     1.17109  -2.29759   1.04782 
 O                     1.40068  -0.68031   2.31046 
 H                     0.46304  -0.3585    2.10415 
 C                     3.26883  -1.89574   1.45415 
 H                     3.32115  -2.78063   2.09581 
 O                     4.01869  -0.83166   1.9838 
 H                     3.44675  -0.38706   2.62614 
 C                     2.00102  -0.64875  -0.07606 
 H                     2.27339   0.38758   0.13706 
 C                     3.7538   -2.18535   0.04113 
 H                     4.79381  -1.87355  -0.05654 
 O                     2.96934  -1.32094  -0.81417 
 N                     0.78063  -0.58779  -0.91918 
 C                     0.33756  -1.72617  -1.49063 
 H                     0.93776  -2.60522  -1.31434 
 C                    -0.78523  -1.7135   -2.27424 
 H                    -1.12189  -2.63106  -2.73336 
 C                    -1.45666  -0.51241  -2.48116 
 H                    -2.31722  -0.47432  -3.13601 
 H                    -3.10749  -0.80097  -0.86691 
 C                    -0.98611   0.64718  -1.88165 
 C                     0.15148   0.57197  -1.09585 
 H                     0.55123   1.45303  -0.60949 
 C                    -1.55374   2.01224  -2.13474 
 O                    -0.84684   2.98903  -2.07675 
 N                    -2.86252   2.03387  -2.53228 
 H                    -3.2555    2.96192  -2.58966 
 H                    -3.46999   1.34092  -2.11858 
 H                     2.56825  -3.98409  -0.17679 
 C                     0.14247   2.17898   2.87468 
 C                    -1.66567   0.88115   1.184 
 C                    -2.8693    0.83244   0.54247 
 C                    -5.02064  -0.32168  -0.03716 
 C                    -3.50528  -0.4453    0.09956 
 O                    -0.87611  -0.09746   1.39104 
 S                    -1.14594   2.55026   1.67139 
 H                     0.35835   3.11432   3.38786 
 H                     1.05063   1.81419   2.40155 
 H                    -5.47339  -0.05124   0.91744 
 H                    -5.2897    0.46158  -0.75244 
 H                    -5.47313  -1.25303  -0.38032 
 H                    -3.24868  -1.24275   0.80276 
 H                    -3.45148   1.74554   0.4833 
 H                    -0.20787   1.4453    3.59811 
 
 ITRead=  0  0  0  0  0  0  0  0  0  0  0  0  0  0  0  0  0  0  0  0
 ITRead=  0  0  0  0  0  0  0  0  0  0  0  0  0  0  0  0  0  0  0  0
 ITRead=  0  0  0  0  0  0  0  0
 MicOpt= -1 -1 -1 -1 -1 -1 -1 -1 -1 -1 -1 -1 -1 -1 -1 -1 -1 -1 -1 -1
 MicOpt= -1 -1 -1 -1 -1 -1 -1 -1 -1 -1 -1 -1 -1 -1 -1 -1 -1 -1 -1 -1
 MicOpt= -1 -1 -1 -1 -1 -1 -1 -1
 NAtoms=     48 NQM=       48 NQMF=       0 NMMI=      0 NMMIF=      0
                NMic=       0 NMicF=      0.
                    Isotopes and Nuclear Properties:
 (Nuclear quadrupole moments (NQMom) in fm**2, nuclear magnetic moments (NMagM)
  in nuclear magnetons)

  Atom         1           2           3           4           5           6           7           8           9          10
 IAtWgt=          12           1           1          12           1          16           1          12           1          16
 AtmWgt=  12.0000000   1.0078250   1.0078250  12.0000000   1.0078250  15.9949146   1.0078250  12.0000000   1.0078250  15.9949146
 NucSpn=           0           1           1           0           1           0           1           0           1           0
 AtZEff=  -0.0000000  -0.0000000  -0.0000000  -0.0000000  -0.0000000  -0.0000000  -0.0000000  -0.0000000  -0.0000000  -0.0000000
 NQMom=    0.0000000   0.0000000   0.0000000   0.0000000   0.0000000   0.0000000   0.0000000   0.0000000   0.0000000   0.0000000
 NMagM=    0.0000000   2.7928460   2.7928460   0.0000000   2.7928460   0.0000000   2.7928460   0.0000000   2.7928460   0.0000000
 AtZNuc=   6.0000000   1.0000000   1.0000000   6.0000000   1.0000000   8.0000000   1.0000000   6.0000000   1.0000000   8.0000000

  Atom        11          12          13          14          15          16          17          18          19          20
 IAtWgt=           1          12           1          12           1          16          14          12           1          12
 AtmWgt=   1.0078250  12.0000000   1.0078250  12.0000000   1.0078250  15.9949146  14.0030740  12.0000000   1.0078250  12.0000000
 NucSpn=           1           0           1           0           1           0           2           0           1           0
 AtZEff=  -0.0000000  -0.0000000  -0.0000000  -0.0000000  -0.0000000  -0.0000000  -0.0000000  -0.0000000  -0.0000000  -0.0000000
 NQMom=    0.0000000   0.0000000   0.0000000   0.0000000   0.0000000   0.0000000   2.0440000   0.0000000   0.0000000   0.0000000
 NMagM=    2.7928460   0.0000000   2.7928460   0.0000000   2.7928460   0.0000000   0.4037610   0.0000000   2.7928460   0.0000000
 AtZNuc=   1.0000000   6.0000000   1.0000000   6.0000000   1.0000000   8.0000000   7.0000000   6.0000000   1.0000000   6.0000000

  Atom        21          22          23          24          25          26          27          28          29          30
 IAtWgt=           1          12           1           1          12          12           1          12          16          14
 AtmWgt=   1.0078250  12.0000000   1.0078250   1.0078250  12.0000000  12.0000000   1.0078250  12.0000000  15.9949146  14.0030740
 NucSpn=           1           0           1           1           0           0           1           0           0           2
 AtZEff=  -0.0000000  -0.0000000  -0.0000000  -0.0000000  -0.0000000  -0.0000000  -0.0000000  -0.0000000  -0.0000000  -0.0000000
 NQMom=    0.0000000   0.0000000   0.0000000   0.0000000   0.0000000   0.0000000   0.0000000   0.0000000   0.0000000   2.0440000
 NMagM=    2.7928460   0.0000000   2.7928460   2.7928460   0.0000000   0.0000000   2.7928460   0.0000000   0.0000000   0.4037610
 AtZNuc=   1.0000000   6.0000000   1.0000000   1.0000000   6.0000000   6.0000000   1.0000000   6.0000000   8.0000000   7.0000000

  Atom        31          32          33          34          35          36          37          38          39          40
 IAtWgt=           1           1           1          12          12          12          12          12          16          32
 AtmWgt=   1.0078250   1.0078250   1.0078250  12.0000000  12.0000000  12.0000000  12.0000000  12.0000000  15.9949146  31.9720718
 NucSpn=           1           1           1           0           0           0           0           0           0           0
 AtZEff=  -0.0000000  -0.0000000  -0.0000000  -0.0000000  -0.0000000  -0.0000000  -0.0000000  -0.0000000  -0.0000000  -0.0000000
 NQMom=    0.0000000   0.0000000   0.0000000   0.0000000   0.0000000   0.0000000   0.0000000   0.0000000   0.0000000   0.0000000
 NMagM=    2.7928460   2.7928460   2.7928460   0.0000000   0.0000000   0.0000000   0.0000000   0.0000000   0.0000000   0.0000000
 AtZNuc=   1.0000000   1.0000000   1.0000000   6.0000000   6.0000000   6.0000000   6.0000000   6.0000000   8.0000000  16.0000000

  Atom        41          42          43          44          45          46          47          48
 IAtWgt=           1           1           1           1           1           1           1           1
 AtmWgt=   1.0078250   1.0078250   1.0078250   1.0078250   1.0078250   1.0078250   1.0078250   1.0078250
 NucSpn=           1           1           1           1           1           1           1           1
 AtZEff=  -0.0000000  -0.0000000  -0.0000000  -0.0000000  -0.0000000  -0.0000000  -0.0000000  -0.0000000
 NQMom=    0.0000000   0.0000000   0.0000000   0.0000000   0.0000000   0.0000000   0.0000000   0.0000000
 NMagM=    2.7928460   2.7928460   2.7928460   2.7928460   2.7928460   2.7928460   2.7928460   2.7928460
 AtZNuc=   1.0000000   1.0000000   1.0000000   1.0000000   1.0000000   1.0000000   1.0000000   1.0000000
 Background charge distribution read from input stream:
 Leave Link  101 at Sat Aug 13 20:48:17 2022, MaxMem=  2684354560 cpu:               1.6 elap:               0.1
 (Enter /storage/apps/GAUSSIAN/G16_RevA03/g16/l103.exe)

 GradGradGradGradGradGradGradGradGradGradGradGradGradGradGradGradGradGrad
 Berny optimization.
 Initialization pass.
 Trust Radius=3.00D-01 FncErr=1.00D-07 GrdErr=1.00D-07 EigMax=2.50D+02 EigMin=1.00D-04
 Number of steps in this run=      2 maximum allowed number of steps=      2.
 GradGradGradGradGradGradGradGradGradGradGradGradGradGradGradGradGradGrad

 Leave Link  103 at Sat Aug 13 20:48:17 2022, MaxMem=  2684354560 cpu:               0.8 elap:               0.1
 (Enter /storage/apps/GAUSSIAN/G16_RevA03/g16/l202.exe)
 ---------------------------------------------------------------------------------------------------
                            Z-MATRIX (ANGSTROMS AND DEGREES)
   CD    Cent   Atom    N1       Length/X        N2       Alpha/Y        N3        Beta/Z          J
 ---------------------------------------------------------------------------------------------------
      1      1  C        0   3.576766         -3.624639         -0.395036
      2      2  H        0   3.757009         -3.715979         -1.465617
      3      3  H        0   4.283378         -4.266588          0.131387
      4      4  C        0   1.824613         -1.434460          1.238368
      5      5  H        0   1.171089         -2.297585          1.047822
      6      6  O        0   1.400676         -0.680311          2.310464
      7      7  H        0   0.463044         -0.358499          2.104150
      8      8  C        0   3.268829         -1.895735          1.454153
      9      9  H        0   3.321148         -2.780627          2.095815
     10     10  O        0   4.018692         -0.831658          1.983803
     11     11  H        0   3.446754         -0.387060          2.626141
     12     12  C        0   2.001024         -0.648749         -0.076058
     13     13  H        0   2.273393          0.387578          0.137061
     14     14  C        0   3.753798         -2.185350          0.041125
     15     15  H        0   4.793810         -1.873547         -0.056538
     16     16  O        0   2.969344         -1.320944         -0.814171
     17     17  N        0   0.780627         -0.587790         -0.919180
     18     18  C        0   0.337558         -1.726166         -1.490633
     19     19  H        0   0.937764         -2.605218         -1.314339
     20     20  C        0  -0.785230         -1.713501         -2.274241
     21     21  H        0  -1.121885         -2.631061         -2.733357
     22     22  C        0  -1.456657         -0.512410         -2.481155
     23     23  H        0  -2.317218         -0.474324         -3.136014
     24     24  H        0  -3.107485         -0.800968         -0.866906
     25     25  C        0  -0.986114          0.647181         -1.881654
     26     26  C        0   0.151482          0.571968         -1.095850
     27     27  H        0   0.551231          1.453026         -0.609485
     28     28  C        0  -1.553735          2.012243         -2.134736
     29     29  O        0  -0.846842          2.989030         -2.076752
     30     30  N        0  -2.862524          2.033865         -2.532278
     31     31  H        0  -3.255501          2.961922         -2.589656
     32     32  H        0  -3.469989          1.340921         -2.118579
     33     33  H        0   2.568249         -3.984093         -0.176792
     34     34  C        0   0.142472          2.178980          2.874679
     35     35  C        0  -1.665672          0.881148          1.183997
     36     36  C        0  -2.869295          0.832444          0.542467
     37     37  C        0  -5.020638         -0.321681         -0.037159
     38     38  C        0  -3.505284         -0.445296          0.099555
     39     39  O        0  -0.876114         -0.097464          1.391037
     40     40  S        0  -1.145941          2.550260          1.671388
     41     41  H        0   0.358352          3.114316          3.387863
     42     42  H        0   1.050625          1.814187          2.401545
     43     43  H        0  -5.473394         -0.051242          0.917435
     44     44  H        0  -5.289701          0.461579         -0.752438
     45     45  H        0  -5.473126         -1.253025         -0.380323
     46     46  H        0  -3.248680         -1.242747          0.802756
     47     47  H        0  -3.451481          1.745539          0.483301
     48     48  H        0  -0.207869          1.445303          3.598112
 ---------------------------------------------------------------------------------------------------
                         Z-Matrix orientation:                         
 ---------------------------------------------------------------------
 Center     Atomic      Atomic             Coordinates (Angstroms)
 Number     Number       Type             X           Y           Z
 ---------------------------------------------------------------------
      1          6           0        3.576766   -3.624639   -0.395036
      2          1           0        3.757009   -3.715979   -1.465617
      3          1           0        4.283378   -4.266588    0.131387
      4          6           0        1.824613   -1.434460    1.238368
      5          1           0        1.171089   -2.297585    1.047822
      6          8           0        1.400676   -0.680311    2.310464
      7          1           0        0.463044   -0.358499    2.104150
      8          6           0        3.268829   -1.895735    1.454153
      9          1           0        3.321148   -2.780627    2.095815
     10          8           0        4.018692   -0.831658    1.983803
     11          1           0        3.446754   -0.387060    2.626141
     12          6           0        2.001024   -0.648749   -0.076058
     13          1           0        2.273393    0.387578    0.137061
     14          6           0        3.753798   -2.185350    0.041125
     15          1           0        4.793810   -1.873547   -0.056538
     16          8           0        2.969344   -1.320944   -0.814171
     17          7           0        0.780627   -0.587790   -0.919180
     18          6           0        0.337558   -1.726166   -1.490633
     19          1           0        0.937764   -2.605218   -1.314339
     20          6           0       -0.785230   -1.713501   -2.274241
     21          1           0       -1.121885   -2.631061   -2.733357
     22          6           0       -1.456657   -0.512410   -2.481155
     23          1           0       -2.317218   -0.474324   -3.136014
     24          1           0       -3.107485   -0.800968   -0.866906
     25          6           0       -0.986114    0.647181   -1.881654
     26          6           0        0.151482    0.571968   -1.095850
     27          1           0        0.551231    1.453026   -0.609485
     28          6           0       -1.553735    2.012243   -2.134736
     29          8           0       -0.846842    2.989030   -2.076752
     30          7           0       -2.862524    2.033865   -2.532278
     31          1           0       -3.255501    2.961922   -2.589656
     32          1           0       -3.469989    1.340921   -2.118579
     33          1           0        2.568249   -3.984093   -0.176792
     34          6           0        0.142472    2.178980    2.874679
     35          6           0       -1.665672    0.881148    1.183997
     36          6           0       -2.869295    0.832444    0.542467
     37          6           0       -5.020638   -0.321681   -0.037159
     38          6           0       -3.505284   -0.445296    0.099555
     39          8           0       -0.876114   -0.097464    1.391037
     40         16           0       -1.145941    2.550260    1.671388
     41          1           0        0.358352    3.114316    3.387863
     42          1           0        1.050625    1.814187    2.401545
     43          1           0       -5.473394   -0.051242    0.917435
     44          1           0       -5.289701    0.461579   -0.752438
     45          1           0       -5.473126   -1.253025   -0.380323
     46          1           0       -3.248680   -1.242747    0.802756
     47          1           0       -3.451481    1.745539    0.483301
     48          1           0       -0.207869    1.445303    3.598112
 ---------------------------------------------------------------------
                    Distance matrix (angstroms):
                    1          2          3          4          5
     1  C    0.000000
     2  H    1.089483   0.000000
     3  H    1.090193   1.769366   0.000000
     4  C    3.245756   4.031255   3.910484   0.000000
     5  H    3.103255   3.875074   3.795151   1.099266   0.000000
     6  O    4.552380   5.387613   5.091142   1.377626   2.064594
     7  H    5.158378   5.904753   5.810327   1.939366   2.318881
     8  C    2.550183   3.475150   2.898269   1.531371   2.174190
     9  H    2.642354   3.707918   2.644418   2.187921   2.440158
    10  O    3.695256   4.504030   3.911553   2.394374   3.336742
    11  H    4.430162   5.283980   4.687694   2.377878   3.364498
    12  C    3.382400   3.797665   4.282631   1.541486   2.161147
    13  H    4.252034   4.648535   5.069648   2.175799   3.042147
    14  C    1.514308   2.147814   2.149454   2.391439   2.774242
    15  H    2.159190   2.540672   2.454079   3.268900   3.810975
    16  O    2.419018   2.604034   3.361188   2.352915   2.766689
    17  N    4.161198   4.352357   5.187149   2.542001   2.635329
    18  C    3.911138   3.956340   4.965298   3.121517   2.732224
    19  H    2.974671   3.033944   4.005422   2.945079   2.393509
    20  C    5.119655   5.029486   6.164097   4.384925   3.899287
    21  H    5.341560   5.156338   6.332344   5.088055   4.434665
    22  C    6.274807   6.202942   7.339430   5.044974   4.748218
    23  H    7.223330   7.084828   8.284023   6.100151   5.744306
    24  H    7.271519   7.481779   8.223866   5.399915   4.920594
    25  C    6.424823   6.458132   7.480976   4.686998   4.680492
    26  C    5.462163   5.614538   6.479992   3.503383   3.724146
    27  H    5.914603   6.142360   6.869629   3.656998   4.147044
    28  C    7.818122   7.839914   8.867408   5.888194   6.010654
    29  O    8.132472   8.156352   9.156365   6.139540   6.464001
    30  N    8.834644   8.832706   9.892155   6.943796   6.917269
    31  H    9.740586   9.748493  10.793059   7.732367   7.777426
    32  H    8.791140   8.844665   9.829609   6.855993   6.693611
    33  H    1.092678   1.773726   1.765346   3.009369   2.509192
    34  C    7.494492   8.164165   8.137450   4.308603   4.943187
    35  C    7.090742   7.586798   7.937151   4.188924   4.262640
    36  C    7.892794   8.284229   8.793739   5.258888   5.135871
    37  C    9.216993   9.518867  10.107196   7.051433   6.589299
    38  C    7.778706   8.117144   8.675629   5.539237   5.118462
    39  O    5.954759   6.536050   6.751938   3.017415   3.024792
    40  S    8.043845   8.552513   8.849775   4.988957   5.409165
    41  H    8.371501   9.042127   8.971522   5.240383   5.951891
    42  H    6.616879   7.270639   7.251216   3.536346   4.330560
    43  H    9.818205  10.213206  10.657467   7.434864   7.015142
    44  H    9.769296   9.990174  10.713569   7.627040   7.252291
    45  H    9.355496   9.614541  10.224127   7.477304   6.875776
    46  H    7.327676   7.768016   8.144093   5.095568   4.550505
    47  H    8.888563   9.251421   9.802936   6.206423   6.167146
    48  H    7.481511   8.246238   8.050788   4.241746   4.734418
                    6          7          8          9         10
     6  O    0.000000
     7  H    1.012562   0.000000
     8  C    2.387576   3.264662   0.000000
     9  H    2.854052   3.746403   1.094304   0.000000
    10  O    2.642654   3.589010   1.405377   2.073064   0.000000
    11  H    2.090953   3.029161   1.918675   2.454829   0.968183
    12  C    2.461077   2.683828   2.346028   3.317328   2.889198
    13  H    2.574044   2.775506   2.817648   3.869371   2.818344
    14  C    3.598920   4.292146   1.521749   2.182497   2.382572
    15  H    4.305795   5.071437   2.146683   2.761187   2.418539
    16  O    3.554501   3.965405   2.359104   3.274517   3.028067
    17  N    3.289927   3.048599   3.678937   4.511427   4.355668
    18  C    4.083181   3.848211   4.158469   4.782918   5.140292
    19  H    4.130224   4.118152   3.688059   4.164185   4.849265
    20  C    5.183164   4.750213   5.510855   6.090853   6.479680
    21  H    5.967317   5.574766   6.111818   6.563826   7.205205
    22  C    5.581412   4.973325   6.303210   6.994347   7.072285
    23  H    6.597673   5.933177   7.368444   8.030083   8.153770
    24  H    5.516680   4.666008   6.873370   7.350108   7.675277
    25  C    5.003284   4.358679   5.974828   6.791365   6.494367
    26  C    3.838185   3.347064   4.723338   5.610116   5.139041
    27  H    3.714672   3.263926   4.781019   5.737151   4.895734
    28  C    5.978143   5.258894   7.170045   8.039506   7.490132
    29  O    6.145166   5.513773   7.298422   8.250539   7.399945
    30  N    6.999555   6.187025   8.302221   9.101449   8.715351
    31  H    7.678348   6.847232   9.083838   9.908724   9.392639
    32  H    6.886594   6.015664   8.285652   8.992653   8.810788
    33  H    4.297051   4.772789   2.740809   2.679539   4.087762
    34  C    3.174423   2.671195   5.328724   5.942080   4.988254
    35  C    3.620714   2.629608   5.668630   6.253669   5.990441
    36  C    4.862807   3.868033   6.778694   7.334082   7.231255
    37  C    6.846402   5.887047   8.568367   8.954406   9.276521
    38  C    5.386260   4.446747   7.058847   7.485920   7.765944
    39  O    2.523654   1.539485   4.518663   5.031211   4.984931
    40  S    4.162964   3.352163   6.269311   6.968025   6.181295
    41  H    4.080003   3.703961   6.108250   6.722938   5.562390
    42  H    2.520586   2.270299   4.425099   5.134302   3.998053
    43  H    7.041953   6.061683   8.950792   9.283431   9.583626
    44  H    7.446236   6.475083   9.147372   9.631779   9.788036
    45  H    7.403883   6.496991   8.955454   9.263049   9.790876
    46  H    4.919962   4.031429   6.582449   6.870205   7.374182
    47  H    5.724221   4.730500   7.704803   8.303908   8.043441
    48  H    2.960353   2.436339   5.276981   5.706956   5.065014
                   11         12         13         14         15
    11  H    0.000000
    12  C    3.075792   0.000000
    13  H    2.858734   1.092510   0.000000
    14  C    3.163926   2.333900   2.969977   0.000000
    15  H    3.349772   3.049617   3.391558   1.090130   0.000000
    16  O    3.596638   1.390791   2.075629   1.447100   2.051354
    17  N    4.440476   1.484567   2.072520   3.509149   4.301507
    18  C    5.329928   2.434947   3.296173   3.771979   4.683645
    19  H    5.171328   2.547868   3.584312   3.153350   4.121468
    20  C    6.609302   3.705255   4.425391   5.117259   6.005790
    21  H    7.391361   4.554488   5.373955   5.627494   6.537173
    22  C    7.081216   4.214100   4.645246   6.025734   6.841038
    23  H    8.150670   5.295372   5.703473   7.062511   7.874498
    24  H    7.438464   5.171603   5.601289   7.058204   8.014835
    25  C    6.406262   3.723252   3.842784   5.846972   6.564498
    26  C    5.062783   2.439453   2.461011   4.676772   5.349011
    27  H    4.715850   2.608429   2.158322   4.890553   5.419531
    28  C    7.309411   4.894420   4.737880   7.108028   7.727199
    29  O    7.207645   5.034536   4.626488   7.240546   7.716403
    30  N    8.501597   6.073182   6.017747   8.258323   8.945200
    31  H    9.129099   6.854646   6.680636   9.085466   9.725732
    32  H    8.563855   6.169494   6.243654   8.323581   9.103581
    33  H    4.644012   3.384732   4.392830   2.165292   3.069526
    34  C    4.191016   4.489668   3.904420   6.333883   6.830077
    35  C    5.461230   4.168091   4.105596   6.330894   7.131071
    36  C    6.761757   5.128013   5.177789   7.295463   8.148888
    37  C    8.876608   7.029383   7.330504   8.970514   9.936400
    38  C    7.397152   5.512863   5.838510   7.464950   8.422543
    39  O    4.505168   3.276310   3.424488   5.255246   6.115389
    40  S    5.534641   4.815663   4.327031   7.006511   7.605027
    41  H    4.730548   5.371944   4.655126   7.128546   7.511056
    42  H    3.261497   3.620474   2.942493   5.373548   5.801120
    43  H    9.088536   7.563793   7.798350   9.511225  10.473056
    44  H    9.405351   7.405740   7.615581   9.456260  10.373730
    45  H    9.452671   7.504708   7.935227   9.283479  10.290766
    46  H    6.991836   5.355795   5.796068   7.106566   8.112826
    47  H    7.531626   5.981246   5.893906   8.219699   9.020756
    48  H    4.202208   4.771141   4.387974   6.444269   7.027661
                   16         17         18         19         20
    16  O    0.000000
    17  N    2.310633   0.000000
    18  C    2.747381   1.348617   0.000000
    19  H    2.454963   2.061761   1.078916   0.000000
    20  C    4.047559   2.356973   1.369253   2.164551   0.000000
    21  H    4.705086   3.329526   2.119710   2.501286   1.079834
    22  C    4.798130   2.729631   2.381920   3.387412   1.391491
    23  H    5.835705   3.811020   3.364851   4.295826   2.150628
    24  H    6.099263   3.894303   3.621236   4.451916   2.864642
    25  C    4.545183   2.360696   2.745502   3.821158   2.401520
    26  C    3.406289   1.331193   2.339209   3.280318   2.736677
    27  H    3.685658   2.076888   3.305955   4.137097   3.818957
    28  C    5.771678   3.699594   4.238816   5.310515   3.806735
    29  O    5.893493   4.096617   4.896878   5.921292   4.707079
    30  N    6.943869   4.769456   5.046125   6.119367   4.292375
    31  H    7.761700   5.628612   6.008002   7.085404   5.297292
    32  H    7.088866   4.819359   4.929377   5.970519   4.069601
    33  H    2.767579   3.909170   3.435170   2.419461   4.560779
    34  C    5.817928   4.738737   5.860390   6.408503   6.520998
    35  C    5.506837   3.544786   4.238474   5.017401   4.412119
    36  C    6.369243   4.180360   4.578634   5.455176   4.331167
    37  C    8.089628   5.873964   5.726729   6.507556   4.988024
    38  C    6.597156   4.407625   4.351639   5.138583   3.826479
    39  O    4.598629   2.884842   3.525577   4.110723   4.006757
    40  S    6.172503   4.502229   5.521500   6.311525   5.820460
    41  H    6.644238   5.695132   6.872439   7.426944   7.528281
    42  H    4.883785   4.107263   5.309578   5.775091   6.138234
    43  H    8.711511   6.540169   6.509326   7.253038   5.910058
    44  H    8.449439   6.162618   6.082533   6.964359   5.228491
    45  H    8.453883   6.312078   5.934703   6.618181   5.076941
    46  H    6.425293   4.430502   4.284207   4.885154   3.969648
    47  H    7.232824   5.032108   5.505086   6.436309   5.165064
    48  H    6.100414   5.051388   6.020883   6.469263   6.692975
                   21         22         23         24         25
    21  H    0.000000
    22  C    2.159713   0.000000
    23  H    2.498493   1.082061   0.000000
    24  H    3.282604   2.326865   2.424885   0.000000
    25  C    3.389794   1.387611   2.145467   2.761714   0.000000
    26  C    3.816057   2.383497   3.369195   3.543760   1.384655
    27  H    4.897950   3.376048   4.280891   4.304992   2.152029
    28  C    4.701608   2.550157   2.787199   3.454807   1.499879
    29  O    5.664998   3.577080   3.908819   4.575841   2.354085
    30  N    4.983151   2.909053   2.636829   3.296930   2.422214
    31  H    5.987857   3.913898   3.603702   4.141149   3.318043
    32  H    4.654910   2.760399   2.378901   2.507146   2.589796
    33  H    4.688689   5.793319   6.703974   6.543890   6.081838
    34  C    7.495676   6.203689   7.015592   5.782886   5.122774
    35  C    5.289327   3.926707   4.574310   3.019030   3.148771
    36  C    5.077434   3.598120   3.942544   2.170507   3.075233
    37  C    5.272855   4.325674   4.115177   2.139708   4.540731
    38  C    4.299250   3.295670   3.446919   1.103990   3.385988
    39  O    4.846663   3.937395   4.765815   3.251498   3.358140
    40  S    6.800621   5.169149   5.799234   4.639108   4.033778
    41  H    8.524658   7.133917   7.911889   6.741256   5.971780
    42  H    7.130726   5.961567   6.873442   5.900143   4.884261
    43  H    6.238540   5.281786   5.154696   3.056712   5.334639
    44  H    5.555101   4.316172   3.923392   2.523726   4.453138
    45  H    5.135080   4.592824   4.261451   2.457107   5.098829
    46  H    4.353707   3.811668   4.119709   1.732881   3.987115
    47  H    5.910037   4.226778   4.394745   2.902773   3.588515
    48  H    7.585491   6.507657   7.313192   5.778399   5.592003
                   26         27         28         29         30
    26  C    0.000000
    27  H    1.082873   0.000000
    28  C    2.461999   2.658946   0.000000
    29  O    2.793029   2.542988   1.207134   0.000000
    30  N    3.644818   3.960837   1.368004   2.276580   0.000000
    31  H    4.421637   4.548522   2.001212   2.462812   1.009462
    32  H    3.840874   4.296527   2.030508   3.098211   1.010115
    33  H    5.238618   5.815312   7.535273   7.993569   8.441412
    34  C    4.283418   3.582386   5.291423   5.113863   6.187588
    35  C    2.931782   2.908312   3.507976   3.968140   4.070861
    36  C    3.446306   3.662255   3.207809   3.949872   3.301138
    37  C    5.354462   5.875616   4.676157   5.704500   4.053600
    38  C    3.979417   4.534499   3.852285   4.857800   3.672319
    39  O    2.772850   2.905757   4.164266   4.642506   4.886797
    40  S    3.640680   3.047408   3.865532   3.785569   4.569916
    41  H    5.158489   4.333114   5.947247   5.597339   6.825649
    42  H    3.818814   3.073456   5.234478   5.003577   6.301080
    43  H    6.006741   6.394561   5.379354   6.293917   4.802586
    44  H    5.453127   5.926204   4.274664   5.280228   3.395748
    45  H    5.956408   6.608185   5.394587   6.501954   4.716969
    46  H    4.296393   4.868361   4.700708   5.654054   4.691242
    47  H    4.105159   4.159501   3.244486   3.858016   3.086052
    48  H    4.788019   4.275531   5.915938   5.915696   6.706361
                   31         32         33         34         35
    31  H    0.000000
    32  H    1.701635   0.000000
    33  H    9.380037   8.281704   0.000000
    34  C    6.482143   6.219714   7.292416   0.000000
    35  C    4.593216   3.791300   6.591540   2.795024   0.000000
    36  C    3.807102   2.774986   7.299537   4.040187   1.364786
    37  C    4.518075   3.082380   8.427572   6.433491   3.767468
    38  C    4.347802   2.848146   7.034718   5.281502   2.513890
    39  O    5.555830   4.595056   5.424722   2.901880   1.274343
    40  S    4.772442   4.607337   7.740074   1.801601   1.814829
    41  H    6.986694   6.937004   8.244866   1.088492   3.733730
    42  H    6.691196   6.410262   6.524650   1.087047   3.119496
    43  H    5.128147   3.894757   9.018463   6.351586   3.929269
    44  H    3.710129   2.439454   9.046698   6.753810   4.130303
    45  H    5.250218   3.709804   8.494932   7.342250   4.636647
    46  H    5.402569   3.906215   6.504703   5.244139   2.676227
    47  H    3.310749   2.633218   8.336759   4.338555   2.104106
    48  H    7.062341   6.582771   7.171825   1.088290   2.876006
                   36         37         38         39         40
    36  C    0.000000
    37  C    2.509232   0.000000
    38  C    1.494414   1.526522   0.000000
    39  O    2.357450   4.389430   2.949822   0.000000
    40  S    2.682406   5.116684   4.124380   2.676162   0.000000
    41  H    4.870413   7.243644   6.197700   3.978285   2.351030
    42  H    4.448119   6.882546   5.582180   2.896180   2.428958
    43  H    2.775398   1.090585   2.167409   4.621841   5.105204
    44  H    2.769961   1.094310   2.175421   4.938296   5.235291
    45  H    3.461309   1.090829   2.180622   5.060193   6.115474
    46  H    2.125583   2.166484   1.093739   2.699411   4.423001
    47  H    1.084520   2.646985   2.224840   3.294413   2.715629
    48  H    4.098262   6.284916   5.165967   2.774502   2.411053
                   41         42         43         44         45
    41  H    0.000000
    42  H    1.772682   0.000000
    43  H    7.080468   6.945879   0.000000
    44  H    7.488632   7.209500   1.756475   0.000000
    45  H    8.202379   7.726960   1.768745   1.764081   0.000000
    46  H    6.219120   5.512259   2.526299   3.080442   2.519512
    47  H    4.982455   4.894214   2.739530   2.560206   3.718102
    48  H    1.774941   1.775290   6.095197   6.761658   7.129646
                   46         47         48
    46  H    0.000000
    47  H    3.012148   0.000000
    48  H    4.928099   4.507018   0.000000
 Stoichiometry    C16H24N2O5S
 Framework group  C1[X(C16H24N2O5S)]
 Deg. of freedom   138
 Full point group                 C1      NOp   1
 Largest Abelian subgroup         C1      NOp   1
 Largest concise Abelian subgroup C1      NOp   1
                         Standard orientation:                         
 ---------------------------------------------------------------------
 Center     Atomic      Atomic             Coordinates (Angstroms)
 Number     Number       Type             X           Y           Z
 ---------------------------------------------------------------------
      1          6           0        4.698026   -1.848781    0.696252
      2          1           0        4.699540   -2.804380    0.172990
      3          1           0        5.703686   -1.657318    1.071097
      4          6           0        2.470766    0.512184    0.705899
      5          1           0        2.263607   -0.134289    1.570505
      6          8           0        1.953600    1.779603    0.860954
      7          1           0        0.952926    1.686739    0.984688
      8          6           0        3.977524    0.584267    0.442114
      9          1           0        4.547107    0.702023    1.369050
     10          8           0        4.238652    1.631323   -0.458203
     11          1           0        3.655747    2.361679   -0.204864
     12          6           0        2.021673   -0.217656   -0.575439
     13          1           0        1.822198    0.504087   -1.370973
     14          6           0        4.271857   -0.741425   -0.244637
     15          1           0        5.014868   -0.587441   -1.027329
     16          8           0        3.035929   -1.112362   -0.899608
     17          7           0        0.777658   -1.012908   -0.420710
     18          6           0        0.809608   -2.108543    0.364995
     19          1           0        1.767105   -2.345986    0.801892
     20          6           0       -0.316446   -2.868645    0.535585
     21          1           0       -0.272626   -3.748833    1.159596
     22          6           0       -1.489241   -2.503007   -0.117951
     23          1           0       -2.375314   -3.118318   -0.033560
     24          1           0       -2.494706   -1.384536    1.657539
     25          6           0       -1.501879   -1.370394   -0.919506
     26          6           0       -0.333852   -0.638352   -1.050256
     27          1           0       -0.301064    0.252236   -1.665392
     28          6           0       -2.668168   -0.954697   -1.766032
     29          8           0       -2.491167   -0.361850   -2.802553
     30          7           0       -3.888949   -1.391805   -1.330066
     31          1           0       -4.666903   -1.010715   -1.848305
     32          1           0       -4.022921   -1.428063   -0.329532
     33          1           0        4.026450   -1.919842    1.555252
     34          6           0       -0.348090    3.589828   -0.364716
     35          6           0       -1.635617    1.339209    0.678907
     36          6           0       -2.777629    0.664791    1.000792
     37          6           0       -4.224898   -0.582224    2.627634
     38          6           0       -2.825776   -0.404636    2.043520
     39          8           0       -0.462186    1.093879    1.111134
     40         16           0       -1.859903    2.632604   -0.574262
     41          1           0       -0.495099    4.515908   -0.917509
     42          1           0        0.521607    3.072185   -0.761383
     43          1           0       -4.566819    0.340604    3.097584
     44          1           0       -4.949811   -0.831468    1.846677
     45          1           0       -4.254098   -1.378396    3.372729
     46          1           0       -2.107405   -0.173882    2.835330
     47          1           0       -3.713520    1.021770    0.585031
     48          1           0       -0.182850    3.821311    0.685754
 ---------------------------------------------------------------------
 Rotational constants (GHZ):           0.3328091           0.1633980           0.1403091
 Leave Link  202 at Sat Aug 13 20:48:17 2022, MaxMem=  2684354560 cpu:               1.3 elap:               0.1
 (Enter /storage/apps/GAUSSIAN/G16_RevA03/g16/l301.exe)
 Standard basis: def2TZVP (5D, 7F)
 Ernie: Thresh=  0.10000D-02 Tol=  0.10000D-05 Strict=F.
 There are  1014 symmetry adapted cartesian basis functions of A   symmetry.
 There are   894 symmetry adapted basis functions of A   symmetry.
   894 basis functions,  1434 primitive gaussians,  1014 cartesian basis functions
    95 alpha electrons       95 beta electrons
       nuclear repulsion energy      2495.1254617382 Hartrees.
 IExCor= 4336 DFT=T Ex+Corr=M062X ExCW=0 ScaHFX=  0.540000
 ScaDFX=  1.000000  1.000000  1.000000  1.000000 ScalE2=  1.000000  1.000000
 IRadAn=      5 IRanWt=     -1 IRanGd=            0 ICorTp=0 IEmpDi=131
 NAtoms=   48 NActive=   48 NUniq=   48 SFac= 1.00D+00 NAtFMM=   60 NAOKFM=F Big=F
 Integral buffers will be    131072 words long.
 Raffenetti 2 integral format.
 Two-electron integral symmetry is turned on.
 R6Disp:  Grimme-D3 Dispersion energy=       -0.0042630634 Hartrees.
 Nuclear repulsion after empirical dispersion term =     2495.1211986748 Hartrees.
 Leave Link  301 at Sat Aug 13 20:48:18 2022, MaxMem=  2684354560 cpu:               0.9 elap:               0.1
 (Enter /storage/apps/GAUSSIAN/G16_RevA03/g16/l302.exe)
 NPDir=0 NMtPBC=     1 NCelOv=     1 NCel=       1 NClECP=     1 NCelD=      1
         NCelK=      1 NCelE2=     1 NClLst=     1 CellRange=     0.0.
 One-electron integrals computed using PRISM.
 One-electron integral symmetry used in STVInt
   1 Symmetry operations used in ECPInt.
 ECPInt:  NShTT=   65703 NPrTT=  200010 LenC2=   56895 LenP2D=  121110.
 LDataN:  DoStor=T MaxTD1= 6 Len=  172
 NBasis=   894 RedAO= T EigKep=  1.97D-05  NBF=   894
 NBsUse=   894 1.00D-06 EigRej= -1.00D+00 NBFU=   894
 Precomputing XC quadrature grid using
 IXCGrd= 4 IRadAn=           5 IRanWt=          -1 IRanGd=           0 AccXCQ= 0.00D+00.
 Generated NRdTot=       0 NPtTot=           0 NUsed=           0 NTot=          32
 NSgBfM=  1000  1000  1000  1000  1000 MxSgAt=    48 MxSgA2=    48.
 Leave Link  302 at Sat Aug 13 20:48:19 2022, MaxMem=  2684354560 cpu:              20.9 elap:               1.3
 (Enter /storage/apps/GAUSSIAN/G16_RevA03/g16/l303.exe)
 DipDrv:  MaxL=1.
 Leave Link  303 at Sat Aug 13 20:48:19 2022, MaxMem=  2684354560 cpu:               2.9 elap:               0.2
 (Enter /storage/apps/GAUSSIAN/G16_RevA03/g16/l401.exe)
 ExpMin= 9.52D-02 ExpMax= 6.07D+04 ExpMxC= 2.07D+03 IAcc=3 IRadAn=         5 AccDes= 0.00D+00
 Harris functional with IExCor= 1009 and IRadAn=       5 diagonalized for initial guess.
 HarFok:  IExCor= 1009 AccDes= 0.00D+00 IRadAn=         5 IDoV= 1 UseB2=F ITyADJ=14
 ICtDFT=  3500011 ScaDFX=  1.000000  1.000000  1.000000  1.000000
 FoFCou: FMM=F IPFlag=           0 FMFlag=      100000 FMFlg1=           0
         NFxFlg=           0 DoJE=T BraDBF=F KetDBF=T FulRan=T
         wScrn=  0.000000 ICntrl=       500 IOpCl=  0 I1Cent=   200000004 NGrid=           0
         NMat0=    1 NMatS0=      1 NMatT0=    0 NMatD0=    1 NMtDS0=    0 NMtDT0=    0
 Petite list used in FoFCou.
 Harris En= -1507.24562513514    
 JPrj=0 DoOrth=F DoCkMO=F.
 Leave Link  401 at Sat Aug 13 20:48:23 2022, MaxMem=  2684354560 cpu:              64.9 elap:               4.1
 (Enter /storage/apps/GAUSSIAN/G16_RevA03/g16/l502.exe)
 Integral symmetry usage will be decided dynamically.
 Closed shell SCF:
 Using DIIS extrapolation, IDIIS=  1040.
 NGot=  2684354560 LenX=  2682272944 LenY=  2681243734
 Requested convergence on RMS density matrix=1.00D-08 within 128 cycles.
 Requested convergence on MAX density matrix=1.00D-06.
 Requested convergence on             energy=1.00D-06.
 No special actions if energy rises.
 Fock matrices will be formed incrementally for  20 cycles.
 Integral accuracy reduced to 1.0D-05 until final iterations.

 Cycle   1  Pass 0  IDiag  1:
 FoFJK:  IHMeth= 1 ICntrl=       0 DoSepK=F KAlg= 0 I1Cent=           0 FoldK=F
 IRaf= 790000000 NMat=       1 IRICut=       1 DoRegI=T DoRafI=F ISym2E= 0 IDoP0=0 IntGTp=1.
 FoFCou: FMM=F IPFlag=           0 FMFlag=      100000 FMFlg1=           0
         NFxFlg=           0 DoJE=F BraDBF=F KetDBF=F FulRan=T
         wScrn=  0.000000 ICntrl=         0 IOpCl=  0 I1Cent=           0 NGrid=           0
         NMat0=    1 NMatS0=      1 NMatT0=    0 NMatD0=    1 NMtDS0=    0 NMtDT0=    0
 Symmetry not used in FoFCou.
 E= -1507.17034807700    
 DIIS: error= 1.99D-02 at cycle   1 NSaved=   1.
 NSaved= 1 IEnMin= 1 EnMin= -1507.17034807700     IErMin= 1 ErrMin= 1.99D-02
 ErrMax= 1.99D-02  0.00D+00 EMaxC= 1.00D-01 BMatC= 9.91D-01 BMatP= 9.91D-01
 IDIUse=3 WtCom= 8.01D-01 WtEn= 1.99D-01
 Coeff-Com:  0.100D+01
 Coeff-En:   0.100D+01
 Coeff:      0.100D+01
 Gap=     0.172 Goal=   None    Shift=    0.000
 GapD=    0.172 DampG=1.000 DampE=0.500 DampFc=0.5000 IDamp=-1.
 Damping current iteration by 5.00D-01
 RMSDP=3.98D-03 MaxDP=7.54D-01              OVMax= 5.14D-01

 Cycle   2  Pass 0  IDiag  1:
 RMSU=  1.99D-03    CP:  1.01D+00
 E= -1507.48308722215     Delta-E=       -0.312739145145 Rises=F Damp=T
 DIIS: error= 4.31D-03 at cycle   2 NSaved=   2.
 NSaved= 2 IEnMin= 2 EnMin= -1507.48308722215     IErMin= 2 ErrMin= 4.31D-03
 ErrMax= 4.31D-03  0.00D+00 EMaxC= 1.00D-01 BMatC= 9.31D-02 BMatP= 9.91D-01
 IDIUse=3 WtCom= 9.57D-01 WtEn= 4.31D-02
 Coeff-Com:  0.284D-02 0.997D+00
 Coeff-En:   0.101D+00 0.899D+00
 Coeff:      0.708D-02 0.993D+00
 Gap=     0.165 Goal=   None    Shift=    0.000
 RMSDP=1.35D-03 MaxDP=1.80D-01 DE=-3.13D-01 OVMax= 3.68D-01

 Cycle   3  Pass 0  IDiag  1:
 RMSU=  1.16D-03    CP:  9.98D-01  6.51D-01
 E= -1507.84949877670     Delta-E=       -0.366411554554 Rises=F Damp=F
 DIIS: error= 4.57D-03 at cycle   3 NSaved=   3.
 NSaved= 3 IEnMin= 3 EnMin= -1507.84949877670     IErMin= 2 ErrMin= 4.31D-03
 ErrMax= 4.57D-03  0.00D+00 EMaxC= 1.00D-01 BMatC= 6.01D-02 BMatP= 9.31D-02
 IDIUse=3 WtCom= 9.54D-01 WtEn= 4.57D-02
 Coeff-Com: -0.787D-01 0.467D+00 0.612D+00
 Coeff-En:   0.000D+00 0.000D+00 0.100D+01
 Coeff:     -0.751D-01 0.446D+00 0.629D+00
 Gap=     0.133 Goal=   None    Shift=    0.000
 RMSDP=5.32D-04 MaxDP=2.94D-02 DE=-3.66D-01 OVMax= 1.09D-01

 Cycle   4  Pass 0  IDiag  1:
 RMSU=  4.14D-04    CP:  1.00D+00  8.01D-01  8.71D-01
 E= -1507.90163481629     Delta-E=       -0.052136039591 Rises=F Damp=F
 DIIS: error= 1.42D-03 at cycle   4 NSaved=   4.
 NSaved= 4 IEnMin= 4 EnMin= -1507.90163481629     IErMin= 4 ErrMin= 1.42D-03
 ErrMax= 1.42D-03  0.00D+00 EMaxC= 1.00D-01 BMatC= 6.66D-03 BMatP= 6.01D-02
 IDIUse=3 WtCom= 9.86D-01 WtEn= 1.42D-02
 Coeff-Com: -0.391D-01 0.105D+00 0.285D+00 0.649D+00
 Coeff-En:   0.000D+00 0.000D+00 0.000D+00 0.100D+01
 Coeff:     -0.385D-01 0.104D+00 0.281D+00 0.654D+00
 Gap=     0.144 Goal=   None    Shift=    0.000
 RMSDP=1.83D-04 MaxDP=3.04D-02 DE=-5.21D-02 OVMax= 3.65D-02

 Cycle   5  Pass 0  IDiag  1:
 RMSU=  1.68D-04    CP:  1.00D+00  7.96D-01  9.26D-01  9.32D-01
 E= -1507.90748804854     Delta-E=       -0.005853232243 Rises=F Damp=F
 DIIS: error= 5.74D-04 at cycle   5 NSaved=   5.
 NSaved= 5 IEnMin= 5 EnMin= -1507.90748804854     IErMin= 5 ErrMin= 5.74D-04
 ErrMax= 5.74D-04  0.00D+00 EMaxC= 1.00D-01 BMatC= 5.32D-04 BMatP= 6.66D-03
 IDIUse=3 WtCom= 9.94D-01 WtEn= 5.74D-03
 Coeff-Com: -0.119D-01 0.213D-01 0.803D-01 0.294D+00 0.616D+00
 Coeff-En:   0.000D+00 0.000D+00 0.000D+00 0.000D+00 0.100D+01
 Coeff:     -0.118D-01 0.212D-01 0.798D-01 0.293D+00 0.618D+00
 Gap=     0.145 Goal=   None    Shift=    0.000
 RMSDP=5.89D-05 MaxDP=5.33D-03 DE=-5.85D-03 OVMax= 6.39D-03

 Cycle   6  Pass 0  IDiag  1:
 RMSU=  5.55D-05    CP:  1.00D+00  7.96D-01  9.22D-01  9.76D-01  9.63D-01
 E= -1507.90800806352     Delta-E=       -0.000520014983 Rises=F Damp=F
 DIIS: error= 1.76D-04 at cycle   6 NSaved=   6.
 NSaved= 6 IEnMin= 6 EnMin= -1507.90800806352     IErMin= 6 ErrMin= 1.76D-04
 ErrMax= 1.76D-04  0.00D+00 EMaxC= 1.00D-01 BMatC= 6.45D-05 BMatP= 5.32D-04
 IDIUse=3 WtCom= 9.98D-01 WtEn= 1.76D-03
 Coeff-Com:  0.134D-04-0.397D-02-0.752D-02 0.404D-01 0.280D+00 0.691D+00
 Coeff-En:   0.000D+00 0.000D+00 0.000D+00 0.000D+00 0.000D+00 0.100D+01
 Coeff:      0.134D-04-0.396D-02-0.751D-02 0.403D-01 0.280D+00 0.691D+00
 Gap=     0.145 Goal=   None    Shift=    0.000
 RMSDP=4.30D-05 MaxDP=7.01D-03 DE=-5.20D-04 OVMax= 6.25D-03

 Cycle   7  Pass 0  IDiag  1:
 RMSU=  2.12D-05    CP:  1.00D+00  7.98D-01  9.28D-01  1.01D+00  1.16D+00
                    CP:  1.04D+00
 E= -1507.90809316135     Delta-E=       -0.000085097833 Rises=F Damp=F
 DIIS: error= 5.71D-05 at cycle   7 NSaved=   7.
 NSaved= 7 IEnMin= 7 EnMin= -1507.90809316135     IErMin= 7 ErrMin= 5.71D-05
 ErrMax= 5.71D-05  0.00D+00 EMaxC= 1.00D-01 BMatC= 6.30D-06 BMatP= 6.45D-05
 IDIUse=1 WtCom= 1.00D+00 WtEn= 0.00D+00
 Coeff-Com:  0.163D-02-0.430D-02-0.154D-01-0.245D-01 0.243D-01 0.243D+00
 Coeff-Com:  0.776D+00
 Coeff:      0.163D-02-0.430D-02-0.154D-01-0.245D-01 0.243D-01 0.243D+00
 Coeff:      0.776D+00
 Gap=     0.145 Goal=   None    Shift=    0.000
 RMSDP=1.93D-05 MaxDP=2.40D-03 DE=-8.51D-05 OVMax= 3.70D-03

 Cycle   8  Pass 0  IDiag  1:
 RMSU=  1.16D-05    CP:  1.00D+00  7.98D-01  9.26D-01  1.03D+00  1.22D+00
                    CP:  1.17D+00  1.24D+00
 E= -1507.90810120202     Delta-E=       -0.000008040669 Rises=F Damp=F
 DIIS: error= 3.11D-05 at cycle   8 NSaved=   8.
 NSaved= 8 IEnMin= 8 EnMin= -1507.90810120202     IErMin= 8 ErrMin= 3.11D-05
 ErrMax= 3.11D-05  0.00D+00 EMaxC= 1.00D-01 BMatC= 1.70D-06 BMatP= 6.30D-06
 IDIUse=1 WtCom= 1.00D+00 WtEn= 0.00D+00
 Coeff-Com:  0.777D-03-0.141D-02-0.718D-02-0.184D-01-0.322D-01 0.516D-02
 Coeff-Com:  0.368D+00 0.685D+00
 Coeff:      0.777D-03-0.141D-02-0.718D-02-0.184D-01-0.322D-01 0.516D-02
 Coeff:      0.368D+00 0.685D+00
 Gap=     0.145 Goal=   None    Shift=    0.000
 RMSDP=1.53D-05 MaxDP=1.42D-03 DE=-8.04D-06 OVMax= 2.25D-03

 Cycle   9  Pass 0  IDiag  1:
 RMSU=  1.16D-05    CP:  1.00D+00  7.97D-01  9.26D-01  1.03D+00  1.24D+00
                    CP:  1.24D+00  1.44D+00  1.64D+00
 E= -1507.90809924951     Delta-E=        0.000001952507 Rises=F Damp=F
 DIIS: error= 1.47D-05 at cycle   9 NSaved=   9.
 NSaved= 9 IEnMin= 8 EnMin= -1507.90810120202     IErMin= 9 ErrMin= 1.47D-05
 ErrMax= 1.47D-05  0.00D+00 EMaxC= 1.00D-01 BMatC= 4.34D-07 BMatP= 1.70D-06
 IDIUse=1 WtCom= 1.00D+00 WtEn= 0.00D+00
 Coeff-Com:  0.220D-03-0.278D-03-0.236D-02-0.679D-02-0.207D-01-0.281D-01
 Coeff-Com:  0.822D-01 0.351D+00 0.625D+00
 Coeff:      0.220D-03-0.278D-03-0.236D-02-0.679D-02-0.207D-01-0.281D-01
 Coeff:      0.822D-01 0.351D+00 0.625D+00
 Gap=     0.145 Goal=   None    Shift=    0.000
 RMSDP=1.94D-05 MaxDP=2.31D-03 DE= 1.95D-06 OVMax= 9.53D-04

 Cycle  10  Pass 0  IDiag  1:
 RMSU=  7.82D-06    CP:  1.00D+00  7.96D-01  9.25D-01  1.03D+00  1.24D+00
                    CP:  1.30D+00  1.55D+00  2.31D+00  2.33D+00
 E= -1507.90809643529     Delta-E=        0.000002814226 Rises=F Damp=F
 DIIS: error= 2.41D-05 at cycle  10 NSaved=  10.
 NSaved=10 IEnMin= 8 EnMin= -1507.90810120202     IErMin= 9 ErrMin= 1.47D-05
 ErrMax= 2.41D-05  0.00D+00 EMaxC= 1.00D-01 BMatC= 3.98D-07 BMatP= 4.34D-07
 IDIUse=1 WtCom= 1.00D+00 WtEn= 0.00D+00
 Coeff-Com:  0.207D-03-0.262D-03-0.225D-02-0.637D-02-0.195D-01-0.263D-01
 Coeff-Com:  0.767D-01 0.330D+00 0.584D+00 0.637D-01
 Coeff:      0.207D-03-0.262D-03-0.225D-02-0.637D-02-0.195D-01-0.263D-01
 Coeff:      0.767D-01 0.330D+00 0.584D+00 0.637D-01
 Gap=     0.145 Goal=   None    Shift=    0.000
 RMSDP=2.95D-06 MaxDP=4.02D-04 DE= 2.81D-06 OVMax= 3.94D-05

 Initial convergence to 1.0D-05 achieved.  Increase integral accuracy.
 Cycle  11  Pass 1  IDiag  1:
 E= -1507.90798966625     Delta-E=        0.000106769038 Rises=F Damp=F
 DIIS: error= 3.32D-04 at cycle   1 NSaved=   1.
 NSaved= 1 IEnMin= 1 EnMin= -1507.90798966625     IErMin= 1 ErrMin= 3.32D-04
 ErrMax= 3.32D-04  0.00D+00 EMaxC= 1.00D-01 BMatC= 9.52D-05 BMatP= 9.52D-05
 IDIUse=3 WtCom= 9.97D-01 WtEn= 3.32D-03
 Coeff-Com:  0.100D+01
 Coeff-En:   0.100D+01
 Coeff:      0.100D+01
 Gap=     0.145 Goal=   None    Shift=    0.000
 RMSDP=2.95D-06 MaxDP=4.02D-04 DE= 1.07D-04 OVMax= 1.03D-03

 Cycle  12  Pass 1  IDiag  1:
 RMSU=  5.80D-04    CP:  9.89D-01
 E= -1507.90805177476     Delta-E=       -0.000062108514 Rises=F Damp=F
 DIIS: error= 1.05D-05 at cycle   2 NSaved=   2.
 NSaved= 2 IEnMin= 2 EnMin= -1507.90805177476     IErMin= 2 ErrMin= 1.05D-05
 ErrMax= 1.05D-05  0.00D+00 EMaxC= 1.00D-01 BMatC= 1.43D-07 BMatP= 9.52D-05
 IDIUse=1 WtCom= 1.00D+00 WtEn= 0.00D+00
 Coeff-Com: -0.157D-01 0.102D+01
 Coeff:     -0.157D-01 0.102D+01
 Gap=     0.145 Goal=   None    Shift=    0.000
 RMSDP=2.19D-05 MaxDP=1.96D-03 DE=-6.21D-05 OVMax= 4.09D-04

 Cycle  13  Pass 1  IDiag  1:
 RMSU=  8.33D-06    CP:  9.89D-01  1.03D+00
 E= -1507.90805179493     Delta-E=       -0.000000020165 Rises=F Damp=F
 DIIS: error= 8.72D-06 at cycle   3 NSaved=   3.
 NSaved= 3 IEnMin= 3 EnMin= -1507.90805179493     IErMin= 3 ErrMin= 8.72D-06
 ErrMax= 8.72D-06  0.00D+00 EMaxC= 1.00D-01 BMatC= 2.30D-07 BMatP= 1.43D-07
 IDIUse=1 WtCom= 1.00D+00 WtEn= 0.00D+00
 Coeff-Com: -0.104D-01 0.599D+00 0.411D+00
 Coeff:     -0.104D-01 0.599D+00 0.411D+00
 Gap=     0.145 Goal=   None    Shift=    0.000
 RMSDP=9.25D-07 MaxDP=8.77D-05 DE=-2.02D-08 OVMax= 9.69D-05

 Cycle  14  Pass 1  IDiag  1:
 RMSU=  8.61D-07    CP:  9.89D-01  1.04D+00  1.01D+00
 E= -1507.90805198866     Delta-E=       -0.000000193733 Rises=F Damp=F
 DIIS: error= 1.72D-06 at cycle   4 NSaved=   4.
 NSaved= 4 IEnMin= 4 EnMin= -1507.90805198866     IErMin= 4 ErrMin= 1.72D-06
 ErrMax= 1.72D-06  0.00D+00 EMaxC= 1.00D-01 BMatC= 3.42D-09 BMatP= 1.43D-07
 IDIUse=1 WtCom= 1.00D+00 WtEn= 0.00D+00
 Coeff-Com: -0.653D-03 0.254D-01 0.822D-01 0.893D+00
 Coeff:     -0.653D-03 0.254D-01 0.822D-01 0.893D+00
 Gap=     0.145 Goal=   None    Shift=    0.000
 RMSDP=5.75D-07 MaxDP=5.16D-05 DE=-1.94D-07 OVMax= 1.11D-04

 Cycle  15  Pass 1  IDiag  1:
 RMSU=  3.12D-07    CP:  9.89D-01  1.04D+00  1.05D+00  9.95D-01
 E= -1507.90805199764     Delta-E=       -0.000000008975 Rises=F Damp=F
 DIIS: error= 1.10D-06 at cycle   5 NSaved=   5.
 NSaved= 5 IEnMin= 5 EnMin= -1507.90805199764     IErMin= 5 ErrMin= 1.10D-06
 ErrMax= 1.10D-06  0.00D+00 EMaxC= 1.00D-01 BMatC= 1.66D-09 BMatP= 3.42D-09
 IDIUse=1 WtCom= 1.00D+00 WtEn= 0.00D+00
 Coeff-Com:  0.902D-03-0.583D-01-0.132D-01 0.461D+00 0.610D+00
 Coeff:      0.902D-03-0.583D-01-0.132D-01 0.461D+00 0.610D+00
 Gap=     0.145 Goal=   None    Shift=    0.000
 RMSDP=1.86D-07 MaxDP=1.85D-05 DE=-8.97D-09 OVMax= 5.88D-05

 Cycle  16  Pass 1  IDiag  1:
 RMSU=  1.12D-07    CP:  9.89D-01  1.04D+00  1.06D+00  1.01D+00  1.34D+00
 E= -1507.90805200106     Delta-E=       -0.000000003420 Rises=F Damp=F
 DIIS: error= 4.42D-07 at cycle   6 NSaved=   6.
 NSaved= 6 IEnMin= 6 EnMin= -1507.90805200106     IErMin= 6 ErrMin= 4.42D-07
 ErrMax= 4.42D-07  0.00D+00 EMaxC= 1.00D-01 BMatC= 2.43D-10 BMatP= 1.66D-09
 IDIUse=1 WtCom= 1.00D+00 WtEn= 0.00D+00
 Coeff-Com:  0.441D-03-0.253D-01-0.252D-01-0.222D-01 0.231D+00 0.841D+00
 Coeff:      0.441D-03-0.253D-01-0.252D-01-0.222D-01 0.231D+00 0.841D+00
 Gap=     0.145 Goal=   None    Shift=    0.000
 RMSDP=1.19D-07 MaxDP=1.42D-05 DE=-3.42D-09 OVMax= 4.14D-05

 Cycle  17  Pass 1  IDiag  1:
 RMSU=  6.22D-08    CP:  9.89D-01  1.04D+00  1.06D+00  1.01D+00  1.63D+00
                    CP:  1.30D+00
 E= -1507.90805200198     Delta-E=       -0.000000000928 Rises=F Damp=F
 DIIS: error= 1.97D-07 at cycle   7 NSaved=   7.
 NSaved= 7 IEnMin= 7 EnMin= -1507.90805200198     IErMin= 7 ErrMin= 1.97D-07
 ErrMax= 1.97D-07  0.00D+00 EMaxC= 1.00D-01 BMatC= 6.32D-11 BMatP= 2.43D-10
 IDIUse=1 WtCom= 1.00D+00 WtEn= 0.00D+00
 Coeff-Com: -0.786D-04 0.677D-02-0.110D-01-0.169D+00-0.578D-01 0.451D+00
 Coeff-Com:  0.780D+00
 Coeff:     -0.786D-04 0.677D-02-0.110D-01-0.169D+00-0.578D-01 0.451D+00
 Coeff:      0.780D+00
 Gap=     0.145 Goal=   None    Shift=    0.000
 RMSDP=8.28D-08 MaxDP=1.18D-05 DE=-9.28D-10 OVMax= 2.77D-05

 Cycle  18  Pass 1  IDiag  1:
 RMSU=  2.76D-08    CP:  9.89D-01  1.04D+00  1.07D+00  1.01D+00  1.82D+00
                    CP:  1.60D+00  1.43D+00
 E= -1507.90805200226     Delta-E=       -0.000000000271 Rises=F Damp=F
 DIIS: error= 4.38D-08 at cycle   8 NSaved=   8.
 NSaved= 8 IEnMin= 8 EnMin= -1507.90805200226     IErMin= 8 ErrMin= 4.38D-08
 ErrMax= 4.38D-08  0.00D+00 EMaxC= 1.00D-01 BMatC= 4.11D-12 BMatP= 6.32D-11
 IDIUse=1 WtCom= 1.00D+00 WtEn= 0.00D+00
 Coeff-Com: -0.659D-04 0.455D-02-0.177D-02-0.533D-01-0.356D-01 0.695D-01
 Coeff-Com:  0.272D+00 0.745D+00
 Coeff:     -0.659D-04 0.455D-02-0.177D-02-0.533D-01-0.356D-01 0.695D-01
 Coeff:      0.272D+00 0.745D+00
 Gap=     0.145 Goal=   None    Shift=    0.000
 RMSDP=1.47D-08 MaxDP=1.54D-06 DE=-2.71D-10 OVMax= 4.88D-06

 Cycle  19  Pass 1  IDiag  1:
 RMSU=  4.99D-09    CP:  9.89D-01  1.04D+00  1.06D+00  1.00D+00  1.84D+00
                    CP:  1.66D+00  1.57D+00  1.09D+00
 E= -1507.90805200233     Delta-E=       -0.000000000075 Rises=F Damp=F
 DIIS: error= 1.73D-08 at cycle   9 NSaved=   9.
 NSaved= 9 IEnMin= 9 EnMin= -1507.90805200233     IErMin= 9 ErrMin= 1.73D-08
 ErrMax= 1.73D-08  0.00D+00 EMaxC= 1.00D-01 BMatC= 5.18D-13 BMatP= 4.11D-12
 IDIUse=1 WtCom= 1.00D+00 WtEn= 0.00D+00
 Coeff-Com: -0.107D-04 0.542D-03 0.839D-03 0.546D-02-0.341D-02-0.475D-01
 Coeff-Com: -0.191D-01 0.242D+00 0.822D+00
 Coeff:     -0.107D-04 0.542D-03 0.839D-03 0.546D-02-0.341D-02-0.475D-01
 Coeff:     -0.191D-01 0.242D+00 0.822D+00
 Gap=     0.145 Goal=   None    Shift=    0.000
 RMSDP=7.30D-09 MaxDP=1.11D-06 DE=-7.46D-11 OVMax= 2.04D-06

 Cycle  20  Pass 1  IDiag  1:
 RMSU=  2.31D-09    CP:  9.89D-01  1.04D+00  1.07D+00  1.00D+00  1.85D+00
                    CP:  1.68D+00  1.64D+00  1.19D+00  1.25D+00
 E= -1507.90805200230     Delta-E=        0.000000000029 Rises=F Damp=F
 DIIS: error= 6.68D-09 at cycle  10 NSaved=  10.
 NSaved=10 IEnMin= 9 EnMin= -1507.90805200233     IErMin=10 ErrMin= 6.68D-09
 ErrMax= 6.68D-09  0.00D+00 EMaxC= 1.00D-01 BMatC= 1.26D-13 BMatP= 5.18D-13
 IDIUse=1 WtCom= 1.00D+00 WtEn= 0.00D+00
 Coeff-Com:  0.363D-05-0.344D-03 0.597D-03 0.962D-02 0.394D-02-0.293D-01
 Coeff-Com: -0.436D-01 0.667D-02 0.396D+00 0.656D+00
 Coeff:      0.363D-05-0.344D-03 0.597D-03 0.962D-02 0.394D-02-0.293D-01
 Coeff:     -0.436D-01 0.667D-02 0.396D+00 0.656D+00
 Gap=     0.145 Goal=   None    Shift=    0.000
 RMSDP=1.35D-09 MaxDP=1.00D-07 DE= 2.91D-11 OVMax= 3.53D-07

 SCF Done:  E(RM062X) =  -1507.90805200     A.U. after   20 cycles
            NFock= 20  Conv=0.14D-08     -V/T= 2.0037
 KE= 1.502288592204D+03 PE=-8.527702220437D+03 EE= 3.022384377556D+03
 Leave Link  502 at Sat Aug 13 20:58:48 2022, MaxMem=  2684354560 cpu:            9980.3 elap:             625.1
 (Enter /storage/apps/GAUSSIAN/G16_RevA03/g16/l601.exe)
 Copying SCF densities to generalized density rwf, IOpCl= 0 IROHF=0.

 **********************************************************************

            Population analysis using the SCF density.

 **********************************************************************

 Orbital symmetries:
       Occupied  (A) (A) (A) (A) (A) (A) (A) (A) (A) (A) (A) (A)
                 (A) (A) (A) (A) (A) (A) (A) (A) (A) (A) (A) (A)
                 (A) (A) (A) (A) (A) (A) (A) (A) (A) (A) (A) (A)
                 (A) (A) (A) (A) (A) (A) (A) (A) (A) (A) (A) (A)
                 (A) (A) (A) (A) (A) (A) (A) (A) (A) (A) (A) (A)
                 (A) (A) (A) (A) (A) (A) (A) (A) (A) (A) (A) (A)
                 (A) (A) (A) (A) (A) (A) (A) (A) (A) (A) (A) (A)
                 (A) (A) (A) (A) (A) (A) (A) (A) (A) (A) (A)
       Virtual   (A) (A) (A) (A) (A) (A) (A) (A) (A) (A) (A) (A)
                 (A) (A) (A) (A) (A) (A) (A) (A) (A) (A) (A) (A)
                 (A) (A) (A) (A) (A) (A) (A) (A) (A) (A) (A) (A)
                 (A) (A) (A) (A) (A) (A) (A) (A) (A) (A) (A) (A)
                 (A) (A) (A) (A) (A) (A) (A) (A) (A) (A) (A) (A)
                 (A) (A) (A) (A) (A) (A) (A) (A) (A) (A) (A) (A)
                 (A) (A) (A) (A) (A) (A) (A) (A) (A) (A) (A) (A)
                 (A) (A) (A) (A) (A) (A) (A) (A) (A) (A) (A) (A)
                 (A) (A) (A) (A) (A) (A) (A) (A) (A) (A) (A) (A)
                 (A) (A) (A) (A) (A) (A) (A) (A) (A) (A) (A) (A)
                 (A) (A) (A) (A) (A) (A) (A) (A) (A) (A) (A) (A)
                 (A) (A) (A) (A) (A) (A) (A) (A) (A) (A) (A) (A)
                 (A) (A) (A) (A) (A) (A) (A) (A) (A) (A) (A) (A)
                 (A) (A) (A) (A) (A) (A) (A) (A) (A) (A) (A) (A)
                 (A) (A) (A) (A) (A) (A) (A) (A) (A) (A) (A) (A)
                 (A) (A) (A) (A) (A) (A) (A) (A) (A) (A) (A) (A)
                 (A) (A) (A) (A) (A) (A) (A) (A) (A) (A) (A) (A)
                 (A) (A) (A) (A) (A) (A) (A) (A) (A) (A) (A) (A)
                 (A) (A) (A) (A) (A) (A) (A) (A) (A) (A) (A) (A)
                 (A) (A) (A) (A) (A) (A) (A) (A) (A) (A) (A) (A)
                 (A) (A) (A) (A) (A) (A) (A) (A) (A) (A) (A) (A)
                 (A) (A) (A) (A) (A) (A) (A) (A) (A) (A) (A) (A)
                 (A) (A) (A) (A) (A) (A) (A) (A) (A) (A) (A) (A)
                 (A) (A) (A) (A) (A) (A) (A) (A) (A) (A) (A) (A)
                 (A) (A) (A) (A) (A) (A) (A) (A) (A) (A) (A) (A)
                 (A) (A) (A) (A) (A) (A) (A) (A) (A) (A) (A) (A)
                 (A) (A) (A) (A) (A) (A) (A) (A) (A) (A) (A) (A)
                 (A) (A) (A) (A) (A) (A) (A) (A) (A) (A) (A) (A)
                 (A) (A) (A) (A) (A) (A) (A) (A) (A) (A) (A) (A)
                 (A) (A) (A) (A) (A) (A) (A) (A) (A) (A) (A) (A)
                 (A) (A) (A) (A) (A) (A) (A) (A) (A) (A) (A) (A)
                 (A) (A) (A) (A) (A) (A) (A) (A) (A) (A) (A) (A)
                 (A) (A) (A) (A) (A) (A) (A) (A) (A) (A) (A) (A)
                 (A) (A) (A) (A) (A) (A) (A) (A) (A) (A) (A) (A)
                 (A) (A) (A) (A) (A) (A) (A) (A) (A) (A) (A) (A)
                 (A) (A) (A) (A) (A) (A) (A) (A) (A) (A) (A) (A)
                 (A) (A) (A) (A) (A) (A) (A) (A) (A) (A) (A) (A)
                 (A) (A) (A) (A) (A) (A) (A) (A) (A) (A) (A) (A)
                 (A) (A) (A) (A) (A) (A) (A) (A) (A) (A) (A) (A)
                 (A) (A) (A) (A) (A) (A) (A) (A) (A) (A) (A) (A)
                 (A) (A) (A) (A) (A) (A) (A) (A) (A) (A) (A) (A)
                 (A) (A) (A) (A) (A) (A) (A) (A) (A) (A) (A) (A)
                 (A) (A) (A) (A) (A) (A) (A) (A) (A) (A) (A) (A)
                 (A) (A) (A) (A) (A) (A) (A) (A) (A) (A) (A) (A)
                 (A) (A) (A) (A) (A) (A) (A) (A) (A) (A) (A) (A)
                 (A) (A) (A) (A) (A) (A) (A) (A) (A) (A) (A) (A)
                 (A) (A) (A) (A) (A) (A) (A) (A) (A) (A) (A) (A)
                 (A) (A) (A) (A) (A) (A) (A) (A) (A) (A) (A) (A)
                 (A) (A) (A) (A) (A) (A) (A) (A) (A) (A) (A) (A)
                 (A) (A) (A) (A) (A) (A) (A) (A) (A) (A) (A) (A)
                 (A) (A) (A) (A) (A) (A) (A) (A) (A) (A) (A) (A)
                 (A) (A) (A) (A) (A) (A) (A) (A) (A) (A) (A) (A)
                 (A) (A) (A) (A) (A) (A) (A) (A) (A) (A) (A) (A)
                 (A) (A) (A) (A) (A) (A) (A) (A) (A) (A) (A) (A)
                 (A) (A) (A) (A) (A) (A) (A) (A) (A) (A) (A) (A)
                 (A) (A) (A) (A) (A) (A) (A) (A) (A) (A) (A) (A)
                 (A) (A) (A) (A) (A) (A) (A) (A) (A) (A) (A) (A)
                 (A) (A) (A) (A) (A) (A) (A) (A) (A) (A) (A) (A)
                 (A) (A) (A) (A) (A) (A) (A) (A) (A) (A) (A) (A)
                 (A) (A) (A) (A) (A) (A) (A) (A) (A) (A) (A) (A)
                 (A) (A) (A) (A) (A) (A) (A) (A) (A) (A) (A) (A)
                 (A) (A) (A) (A) (A) (A) (A) (A) (A) (A) (A) (A)
                 (A) (A) (A) (A) (A) (A) (A) (A) (A) (A) (A) (A)
                 (A) (A) (A) (A) (A) (A) (A) (A) (A) (A) (A) (A)
                 (A) (A) (A) (A) (A) (A) (A) (A) (A) (A) (A) (A)
                 (A) (A) (A) (A) (A) (A) (A) (A) (A) (A) (A) (A)
                 (A) (A) (A) (A) (A) (A) (A)
 The electronic state is 1-A.
 Alpha  occ. eigenvalues --  -89.86555 -19.66676 -19.63176 -19.61449 -19.61303
 Alpha  occ. eigenvalues --  -19.56586 -14.88412 -14.77791 -10.66714 -10.66414
 Alpha  occ. eigenvalues --  -10.64456 -10.64085 -10.61267 -10.61059 -10.61051
 Alpha  occ. eigenvalues --  -10.60434 -10.60177 -10.60032 -10.58535 -10.55268
 Alpha  occ. eigenvalues --  -10.53491 -10.52151 -10.51882 -10.48692  -8.22452
 Alpha  occ. eigenvalues --   -6.14422  -6.14199  -6.13924  -1.22668  -1.18720
 Alpha  occ. eigenvalues --   -1.17045  -1.15907  -1.13746  -1.09888  -1.03274
 Alpha  occ. eigenvalues --   -0.98088  -0.93570  -0.90801  -0.87997  -0.87360
 Alpha  occ. eigenvalues --   -0.85156  -0.81628  -0.80997  -0.78778  -0.77090
 Alpha  occ. eigenvalues --   -0.73276  -0.71465  -0.70025  -0.69153  -0.67221
 Alpha  occ. eigenvalues --   -0.65894  -0.64052  -0.62937  -0.62620  -0.61402
 Alpha  occ. eigenvalues --   -0.60073  -0.58300  -0.58054  -0.57484  -0.56141
 Alpha  occ. eigenvalues --   -0.56081  -0.54361  -0.53445  -0.52524  -0.51918
 Alpha  occ. eigenvalues --   -0.51551  -0.50903  -0.50107  -0.49915  -0.49020
 Alpha  occ. eigenvalues --   -0.48720  -0.48047  -0.47849  -0.47188  -0.45898
 Alpha  occ. eigenvalues --   -0.45693  -0.45567  -0.44650  -0.43301  -0.43269
 Alpha  occ. eigenvalues --   -0.42381  -0.40238  -0.39616  -0.38553  -0.38147
 Alpha  occ. eigenvalues --   -0.37813  -0.37290  -0.36841  -0.36640  -0.36207
 Alpha  occ. eigenvalues --   -0.34952  -0.34382  -0.29098  -0.27689  -0.21321
 Alpha virt. eigenvalues --   -0.06844  -0.04260   0.03869   0.04670   0.04995
 Alpha virt. eigenvalues --    0.06349   0.07109   0.07300   0.08189   0.08688
 Alpha virt. eigenvalues --    0.09364   0.09809   0.10366   0.11034   0.11349
 Alpha virt. eigenvalues --    0.11395   0.11843   0.12494   0.13077   0.13137
 Alpha virt. eigenvalues --    0.13558   0.14006   0.14168   0.14447   0.15126
 Alpha virt. eigenvalues --    0.15418   0.15588   0.16041   0.16582   0.16646
 Alpha virt. eigenvalues --    0.17282   0.17694   0.18602   0.18854   0.19322
 Alpha virt. eigenvalues --    0.20120   0.20756   0.21375   0.21526   0.22299
 Alpha virt. eigenvalues --    0.22427   0.22864   0.23369   0.23869   0.24350
 Alpha virt. eigenvalues --    0.24568   0.25005   0.25556   0.25743   0.26036
 Alpha virt. eigenvalues --    0.26586   0.27020   0.27853   0.28061   0.28366
 Alpha virt. eigenvalues --    0.29392   0.29510   0.29866   0.30399   0.31120
 Alpha virt. eigenvalues --    0.31724   0.31939   0.32563   0.33065   0.33882
 Alpha virt. eigenvalues --    0.34234   0.34489   0.34759   0.35893   0.36060
 Alpha virt. eigenvalues --    0.36391   0.36909   0.37440   0.37742   0.38317
 Alpha virt. eigenvalues --    0.38422   0.38901   0.39182   0.39567   0.40002
 Alpha virt. eigenvalues --    0.40250   0.40752   0.41104   0.41751   0.42035
 Alpha virt. eigenvalues --    0.42595   0.42945   0.43080   0.43697   0.44066
 Alpha virt. eigenvalues --    0.44253   0.44599   0.44925   0.45337   0.45715
 Alpha virt. eigenvalues --    0.46031   0.46149   0.46618   0.47067   0.47337
 Alpha virt. eigenvalues --    0.47795   0.48117   0.48428   0.48627   0.48937
 Alpha virt. eigenvalues --    0.49599   0.49707   0.50058   0.50160   0.50870
 Alpha virt. eigenvalues --    0.51213   0.51888   0.52097   0.52730   0.53000
 Alpha virt. eigenvalues --    0.53613   0.53823   0.54117   0.54336   0.55299
 Alpha virt. eigenvalues --    0.55650   0.55744   0.56210   0.56319   0.57296
 Alpha virt. eigenvalues --    0.57358   0.58564   0.58768   0.59262   0.59597
 Alpha virt. eigenvalues --    0.60562   0.60913   0.61568   0.61863   0.62329
 Alpha virt. eigenvalues --    0.62896   0.63375   0.63817   0.64615   0.65031
 Alpha virt. eigenvalues --    0.65445   0.66195   0.66801   0.67018   0.67345
 Alpha virt. eigenvalues --    0.67456   0.68089   0.68576   0.69671   0.70511
 Alpha virt. eigenvalues --    0.70898   0.71646   0.72040   0.72742   0.73118
 Alpha virt. eigenvalues --    0.73873   0.74768   0.74999   0.75674   0.76671
 Alpha virt. eigenvalues --    0.77419   0.78123   0.79065   0.79671   0.80161
 Alpha virt. eigenvalues --    0.80795   0.81235   0.82601   0.83285   0.83644
 Alpha virt. eigenvalues --    0.84586   0.85512   0.86637   0.86817   0.87219
 Alpha virt. eigenvalues --    0.87998   0.88674   0.89493   0.89798   0.90308
 Alpha virt. eigenvalues --    0.90509   0.90869   0.91723   0.92333   0.92935
 Alpha virt. eigenvalues --    0.93771   0.94100   0.94684   0.95526   0.96293
 Alpha virt. eigenvalues --    0.96903   0.97263   0.97416   0.98497   0.99589
 Alpha virt. eigenvalues --    0.99850   1.00614   1.01434   1.01747   1.02753
 Alpha virt. eigenvalues --    1.03475   1.03882   1.04806   1.05579   1.06637
 Alpha virt. eigenvalues --    1.07150   1.07903   1.08265   1.08916   1.09850
 Alpha virt. eigenvalues --    1.10449   1.11366   1.12038   1.12615   1.13264
 Alpha virt. eigenvalues --    1.14156   1.14741   1.15224   1.16234   1.16964
 Alpha virt. eigenvalues --    1.17893   1.18391   1.18905   1.19004   1.20290
 Alpha virt. eigenvalues --    1.21259   1.21371   1.22661   1.23317   1.24753
 Alpha virt. eigenvalues --    1.25202   1.25473   1.25875   1.26910   1.27893
 Alpha virt. eigenvalues --    1.28197   1.28840   1.29300   1.29427   1.30952
 Alpha virt. eigenvalues --    1.31633   1.31909   1.33461   1.33931   1.34441
 Alpha virt. eigenvalues --    1.34778   1.36247   1.36894   1.39084   1.39526
 Alpha virt. eigenvalues --    1.40188   1.41130   1.42329   1.42488   1.43840
 Alpha virt. eigenvalues --    1.45058   1.45406   1.46161   1.47590   1.49165
 Alpha virt. eigenvalues --    1.50073   1.50954   1.52317   1.52711   1.53424
 Alpha virt. eigenvalues --    1.53753   1.54478   1.54941   1.55323   1.56059
 Alpha virt. eigenvalues --    1.56412   1.57007   1.57578   1.57848   1.58800
 Alpha virt. eigenvalues --    1.59275   1.59632   1.60083   1.60366   1.60656
 Alpha virt. eigenvalues --    1.61091   1.61342   1.62321   1.63108   1.63141
 Alpha virt. eigenvalues --    1.63467   1.63779   1.64151   1.64390   1.65245
 Alpha virt. eigenvalues --    1.65962   1.66700   1.67027   1.68063   1.68506
 Alpha virt. eigenvalues --    1.68905   1.70072   1.70942   1.71360   1.71847
 Alpha virt. eigenvalues --    1.72435   1.73002   1.73395   1.74117   1.74546
 Alpha virt. eigenvalues --    1.75543   1.76326   1.76739   1.77382   1.77849
 Alpha virt. eigenvalues --    1.78069   1.78912   1.79259   1.80149   1.81076
 Alpha virt. eigenvalues --    1.81630   1.82561   1.83660   1.84533   1.85749
 Alpha virt. eigenvalues --    1.86247   1.86367   1.86908   1.88258   1.88740
 Alpha virt. eigenvalues --    1.89545   1.89930   1.90149   1.91350   1.91597
 Alpha virt. eigenvalues --    1.92210   1.92970   1.93272   1.93750   1.94551
 Alpha virt. eigenvalues --    1.95383   1.95819   1.96896   1.97235   1.97801
 Alpha virt. eigenvalues --    1.98972   1.99381   2.00134   2.01713   2.02119
 Alpha virt. eigenvalues --    2.02759   2.03704   2.03915   2.04744   2.05317
 Alpha virt. eigenvalues --    2.05831   2.06262   2.07131   2.07519   2.08754
 Alpha virt. eigenvalues --    2.09325   2.10333   2.11258   2.12940   2.13906
 Alpha virt. eigenvalues --    2.14524   2.14813   2.16030   2.16175   2.17268
 Alpha virt. eigenvalues --    2.17517   2.17979   2.18163   2.19101   2.19865
 Alpha virt. eigenvalues --    2.20787   2.20908   2.22001   2.22216   2.22707
 Alpha virt. eigenvalues --    2.23153   2.23696   2.24700   2.25242   2.26187
 Alpha virt. eigenvalues --    2.26446   2.27679   2.28579   2.28833   2.30088
 Alpha virt. eigenvalues --    2.30504   2.32093   2.32926   2.33261   2.33779
 Alpha virt. eigenvalues --    2.34352   2.34853   2.35427   2.35672   2.36432
 Alpha virt. eigenvalues --    2.37480   2.38021   2.38136   2.38684   2.39748
 Alpha virt. eigenvalues --    2.40513   2.41386   2.41789   2.42924   2.43750
 Alpha virt. eigenvalues --    2.44413   2.44763   2.45864   2.46543   2.47051
 Alpha virt. eigenvalues --    2.47838   2.48705   2.49893   2.51082   2.52339
 Alpha virt. eigenvalues --    2.52718   2.53756   2.54278   2.54980   2.56126
 Alpha virt. eigenvalues --    2.56911   2.57559   2.58239   2.58660   2.58987
 Alpha virt. eigenvalues --    2.59905   2.60248   2.60492   2.60717   2.61885
 Alpha virt. eigenvalues --    2.62244   2.62514   2.62783   2.64421   2.64671
 Alpha virt. eigenvalues --    2.65834   2.66333   2.67001   2.67169   2.67999
 Alpha virt. eigenvalues --    2.68123   2.69053   2.69364   2.69864   2.70292
 Alpha virt. eigenvalues --    2.71359   2.71780   2.72558   2.73298   2.73810
 Alpha virt. eigenvalues --    2.74131   2.75402   2.75933   2.76447   2.77416
 Alpha virt. eigenvalues --    2.79132   2.79507   2.80353   2.80671   2.80998
 Alpha virt. eigenvalues --    2.82081   2.82403   2.82845   2.83266   2.84026
 Alpha virt. eigenvalues --    2.85319   2.85528   2.85729   2.86455   2.87223
 Alpha virt. eigenvalues --    2.88736   2.89025   2.89857   2.90474   2.92197
 Alpha virt. eigenvalues --    2.92601   2.93591   2.93755   2.94539   2.95097
 Alpha virt. eigenvalues --    2.96421   2.97365   2.97677   2.98569   2.99067
 Alpha virt. eigenvalues --    3.00075   3.01157   3.01272   3.01961   3.02887
 Alpha virt. eigenvalues --    3.03805   3.04236   3.04846   3.05995   3.06476
 Alpha virt. eigenvalues --    3.07305   3.07968   3.08667   3.09589   3.09727
 Alpha virt. eigenvalues --    3.10801   3.11054   3.11478   3.11847   3.12387
 Alpha virt. eigenvalues --    3.13101   3.13588   3.13879   3.14277   3.14699
 Alpha virt. eigenvalues --    3.15742   3.16763   3.17097   3.17513   3.18040
 Alpha virt. eigenvalues --    3.18275   3.19287   3.19694   3.20755   3.20964
 Alpha virt. eigenvalues --    3.22377   3.22805   3.22988   3.23396   3.24286
 Alpha virt. eigenvalues --    3.24934   3.25828   3.26365   3.27183   3.27592
 Alpha virt. eigenvalues --    3.28520   3.29120   3.29989   3.30358   3.31516
 Alpha virt. eigenvalues --    3.31715   3.31967   3.32446   3.32725   3.33239
 Alpha virt. eigenvalues --    3.34283   3.35109   3.35471   3.36187   3.36518
 Alpha virt. eigenvalues --    3.37400   3.38328   3.39066   3.39555   3.40593
 Alpha virt. eigenvalues --    3.40989   3.41481   3.41990   3.42285   3.42594
 Alpha virt. eigenvalues --    3.43054   3.44215   3.45457   3.45602   3.45894
 Alpha virt. eigenvalues --    3.46620   3.47532   3.48150   3.48678   3.49956
 Alpha virt. eigenvalues --    3.50571   3.51116   3.51339   3.52703   3.53230
 Alpha virt. eigenvalues --    3.54402   3.54661   3.56010   3.56286   3.56671
 Alpha virt. eigenvalues --    3.57171   3.57648   3.58384   3.59218   3.60301
 Alpha virt. eigenvalues --    3.60575   3.61728   3.62885   3.63540   3.64482
 Alpha virt. eigenvalues --    3.65878   3.67267   3.68044   3.69340   3.69775
 Alpha virt. eigenvalues --    3.70806   3.71649   3.72835   3.73399   3.74945
 Alpha virt. eigenvalues --    3.75816   3.77157   3.78053   3.78429   3.79859
 Alpha virt. eigenvalues --    3.79982   3.80329   3.81780   3.83806   3.85173
 Alpha virt. eigenvalues --    3.85777   3.86352   3.87118   3.88026   3.88535
 Alpha virt. eigenvalues --    3.90343   3.91587   3.91740   3.92524   3.93579
 Alpha virt. eigenvalues --    3.95712   3.96850   3.97537   3.97873   3.98564
 Alpha virt. eigenvalues --    4.00134   4.01280   4.02412   4.05702   4.07097
 Alpha virt. eigenvalues --    4.07934   4.10533   4.10974   4.12512   4.13349
 Alpha virt. eigenvalues --    4.14202   4.15850   4.16737   4.17014   4.17525
 Alpha virt. eigenvalues --    4.18496   4.20135   4.20670   4.22894   4.24181
 Alpha virt. eigenvalues --    4.26648   4.27107   4.28956   4.29457   4.30941
 Alpha virt. eigenvalues --    4.31785   4.33081   4.35279   4.36412   4.37089
 Alpha virt. eigenvalues --    4.38666   4.39919   4.40746   4.41983   4.43697
 Alpha virt. eigenvalues --    4.43931   4.44734   4.45412   4.47333   4.48654
 Alpha virt. eigenvalues --    4.49988   4.50901   4.53964   4.56883   4.57950
 Alpha virt. eigenvalues --    4.58920   4.60590   4.61544   4.63083   4.66549
 Alpha virt. eigenvalues --    4.67923   4.71765   4.73085   4.75447   4.76106
 Alpha virt. eigenvalues --    4.77211   4.79631   4.81231   4.81322   4.83861
 Alpha virt. eigenvalues --    4.85562   4.86674   4.87903   4.88903   4.89877
 Alpha virt. eigenvalues --    4.90896   4.92926   4.94261   4.95525   4.98427
 Alpha virt. eigenvalues --    4.99827   5.01515   5.02572   5.04031   5.05141
 Alpha virt. eigenvalues --    5.07803   5.12433   5.13910   5.17717   5.19723
 Alpha virt. eigenvalues --    5.20828   5.24625   5.27028   5.27245   5.29487
 Alpha virt. eigenvalues --    5.30077   5.31129   5.32613   5.33428   5.37760
 Alpha virt. eigenvalues --    5.39650   5.41999   5.43772   5.44939   5.46578
 Alpha virt. eigenvalues --    5.48650   5.49294   5.49874   5.52901   5.59168
 Alpha virt. eigenvalues --    5.65117   5.67472   5.71840   5.74242   5.77580
 Alpha virt. eigenvalues --    5.80316   5.81529   5.83511   5.85234   5.86633
 Alpha virt. eigenvalues --    5.87969   5.90637   5.91764   5.94553   5.95064
 Alpha virt. eigenvalues --    5.97594   6.02720   6.05203   6.14849   6.18271
 Alpha virt. eigenvalues --    6.20278   6.22141   6.26491   6.27041   6.37752
 Alpha virt. eigenvalues --    6.42084   6.44418   6.48061   6.51043   6.56391
 Alpha virt. eigenvalues --    6.57467   6.70124   6.74010   6.75841   6.76518
 Alpha virt. eigenvalues --    6.76657   6.80728   6.83894   6.85037   6.87857
 Alpha virt. eigenvalues --    6.90500   6.95044   7.00194   7.08097   7.08503
 Alpha virt. eigenvalues --    7.10160   7.11073   7.17065   7.19013   7.25109
 Alpha virt. eigenvalues --    7.32107   7.42585   9.07707   9.41497   9.59772
 Alpha virt. eigenvalues --   19.80152  22.36082  22.46183  22.50242  22.55642
 Alpha virt. eigenvalues --   22.64603  22.67008  22.73985  22.75461  22.81380
 Alpha virt. eigenvalues --   22.86953  22.94183  22.96703  23.07050  23.19775
 Alpha virt. eigenvalues --   23.28141  23.51090  32.18784  33.15811  44.13166
 Alpha virt. eigenvalues --   44.24057  44.26405  44.39292  44.50856
          Condensed to atoms (all electrons):
[...]
 Center     Atomic                   Forces (Hartrees/Bohr)
 Number     Number              X              Y              Z
 -------------------------------------------------------------------
      1        6          -0.000040084   -0.000022488    0.000093391
      2        1           0.000005372   -0.000003862    0.000005919
      3        1          -0.000013658   -0.000017562    0.000013780
      4        6          -0.000094529    0.000031660   -0.000074304
      5        1          -0.000064845    0.000010976   -0.000008367
      6        8          -0.000240241    0.000019565   -0.000135941
      7        1          -0.000031226   -0.000002720   -0.000003614
      8        6          -0.000165597   -0.000051037    0.000086856
      9        1          -0.000044469   -0.000005776    0.000025543
     10        8          -0.000204474   -0.000179588    0.000334475
     11        1          -0.000045537    0.000016160    0.000021313
     12        6           0.000119683    0.000072557   -0.000025266
     13        1           0.000016149    0.000004304   -0.000035441
     14        6           0.000050929   -0.000028314    0.000174072
     15        1          -0.000015834   -0.000001463    0.000010435
     16        8           0.000225907    0.000064727    0.000078385
     17        7           0.000243344    0.000092556   -0.000251598
     18        6           0.000207469    0.000081504   -0.000307437
     19        1           0.000001202   -0.000009227   -0.000017771
     20        6           0.000284905    0.000110205   -0.000195799
     21        1           0.000017546    0.000020390   -0.000007997
     22        6           0.000164212   -0.000173561   -0.000273126
     23        1          -0.000028039    0.000018015   -0.000009321
     24        1          -0.000054844   -0.000006027   -0.000047956
     25        6           0.000105537    0.000347236    0.000123665
     26        6           0.000232125    0.000053614   -0.000007156
     27        1          -0.000012746    0.000013681   -0.000042516
     28        6          -0.000085819    0.000011735    0.000124101
     29        8          -0.000102766    0.000053944   -0.000101988
     30        7          -0.000008846    0.000039655    0.000330928
     31        1          -0.000028431    0.000015565    0.000051600
     32        1          -0.000111391   -0.000132647    0.000116159
     33        1          -0.000041664    0.000031066    0.000009931
     34        6          -0.000295431   -0.000054999    0.000186974
     35        6          -0.000206321   -0.000034977   -0.000132877
     36        6          -0.000162542    0.000196956    0.000244485
     37        6          -0.000314654   -0.000130981    0.000825027
     38        6          -0.000205223   -0.000013893    0.000100684
     39        8          -0.000039927   -0.000145890   -0.000300315
     40       16           0.000874892   -0.000051958   -0.001238523
     41        1          -0.000029571   -0.000019469    0.000002214
     42        1          -0.000017820   -0.000007335    0.000049695
     43        1           0.000065980   -0.000052744   -0.000002221
     44        1          -0.000045486   -0.000017418    0.000106978
     45        1           0.000024884    0.000031247    0.000063989
     46        1           0.000049298   -0.000019516    0.000004853
     47        1           0.000122620   -0.000144672    0.000052897
     48        1          -0.000060033   -0.000009197   -0.000018813
 -------------------------------------------------------------------
 Cartesian Forces:  Max     0.001238523 RMS     0.000187601
 Leave Link  716 at Sat Aug 13 21:01:57 2022, MaxMem=  2684354560 cpu:               0.4 elap:               0.0
 (Enter /storage/apps/GAUSSIAN/G16_RevA03/g16/l103.exe)

 GradGradGradGradGradGradGradGradGradGradGradGradGradGradGradGradGradGrad
 Berny optimization.
 Search for a local minimum.
 Step number   1 out of a maximum of    2
 All quantities printed in internal units (Hartrees-Bohrs-Radians)
 Second derivative matrix not updated -- first step.
 ITU=  0
     Eigenvalues ---    0.00046   0.00088   0.00113   0.00144   0.00210
     Eigenvalues ---    0.00213   0.00309   0.00358   0.00459   0.00523
     Eigenvalues ---    0.00611   0.00650   0.00804   0.00918   0.00957
     Eigenvalues ---    0.01104   0.01158   0.01237   0.01491   0.01622
     Eigenvalues ---    0.01826   0.02137   0.02408   0.02466   0.02814
     Eigenvalues ---    0.02954   0.03315   0.03662   0.04121   0.04386
     Eigenvalues ---    0.04577   0.04690   0.04984   0.05051   0.05243
     Eigenvalues ---    0.05383   0.05481   0.05727   0.05949   0.06059
     Eigenvalues ---    0.06146   0.06300   0.06635   0.06747   0.07065
     Eigenvalues ---    0.07114   0.07479   0.08104   0.08260   0.08501
     Eigenvalues ---    0.08674   0.09145   0.09283   0.09779   0.10738
     Eigenvalues ---    0.10839   0.11110   0.11290   0.12034   0.12615
     Eigenvalues ---    0.13018   0.13142   0.13277   0.13653   0.13711
     Eigenvalues ---    0.13961   0.14315   0.15976   0.16317   0.16798
     Eigenvalues ---    0.17971   0.18121   0.18613   0.19816   0.20304
     Eigenvalues ---    0.20539   0.20865   0.21826   0.22579   0.25155
     Eigenvalues ---    0.25614   0.27316   0.28056   0.30564   0.33209
     Eigenvalues ---    0.33666   0.34399   0.34597   0.37751   0.37830
     Eigenvalues ---    0.37830   0.37830   0.37830   0.37830   0.39961
     Eigenvalues ---    0.43900   0.47960   0.49305   0.57063   0.58394
     Eigenvalues ---    0.60058   0.61780   0.69525   0.71953   0.73904
     Eigenvalues ---    0.79024   0.81854   0.82534   0.87385   0.90851
     Eigenvalues ---    0.90999   0.91714   0.92296   0.93284   0.95269
     Eigenvalues ---    0.96878   0.99676   0.99788   1.01966   1.03938
     Eigenvalues ---    1.05879   1.08536   1.11172   1.11727   1.12547
     Eigenvalues ---    1.19727   1.20670   1.27353   1.27868   1.29260
     Eigenvalues ---    1.33620   1.37450   1.43010   1.56672   1.72409
     Eigenvalues ---    1.84180   1.86123   2.36167
 Quadratic step=8.255D-01 exceeds max=3.000D-01 adjusted using Lamda=-1.106D-03.
 Angle between NR and scaled steps=  19.98 degrees.
 Angle between quadratic step and forces=  65.28 degrees.
 Linear search not attempted -- first point.
 Variable       Old X    -DE/DX   Delta X   Delta X   Delta X     New X
                                 (Linear)    (Quad)   (Total)
    X1        6.75911  -0.00004   0.00000  -0.01917  -0.01917   6.73994
    Y1       -6.84958  -0.00002   0.00000  -0.02591  -0.02591  -6.87549
    Z1       -0.74651   0.00009   0.00000   0.02631   0.02631  -0.72020
    X2        7.09972   0.00001   0.00000  -0.01251  -0.01251   7.08721
    Y2       -7.02218  -0.00000   0.00000  -0.03349  -0.03349  -7.05567
    Z2       -2.76961   0.00001   0.00000   0.02736   0.02736  -2.74226
    X3        8.09441  -0.00001   0.00000  -0.02788  -0.02788   8.06653
    Y3       -8.06268  -0.00002   0.00000  -0.03160  -0.03160  -8.09428
    Z3        0.24829   0.00001   0.00000   0.03116   0.03116   0.27945
    X4        3.44802  -0.00009   0.00000  -0.00808  -0.00808   3.43994
    Y4       -2.71074   0.00003   0.00000   0.02678   0.02678  -2.68396
    Z4        2.34018  -0.00007   0.00000  -0.01369  -0.01369   2.32648
    X5        2.21304  -0.00006   0.00000  -0.02165  -0.02165   2.19139
    Y5       -4.34181   0.00001   0.00000   0.03813   0.03813  -4.30368
    Z5        1.98010  -0.00001   0.00000  -0.01661  -0.01661   1.96349
    X6        2.64689  -0.00024   0.00000  -0.01249  -0.01249   2.63440
    Y6       -1.28560   0.00002   0.00000   0.04836   0.04836  -1.23724
    Z6        4.36614  -0.00014   0.00000  -0.03037  -0.03037   4.33577
    X7        0.87503  -0.00003   0.00000   0.00273   0.00273   0.87776
    Y7       -0.67746  -0.00000   0.00000   0.07290   0.07290  -0.60456
    Z7        3.97627  -0.00000   0.00000  -0.05900  -0.05900   3.91726
    X8        6.17719  -0.00017   0.00000  -0.02083  -0.02083   6.15636
    Y8       -3.58242  -0.00005   0.00000  -0.00287  -0.00287  -3.58529
    Z8        2.74795   0.00009   0.00000   0.01162   0.01162   2.75958
    X9        6.27606  -0.00004   0.00000  -0.04571  -0.04571   6.23035
    Y9       -5.25462  -0.00001   0.00000   0.00038   0.00038  -5.25424
    Z9        3.96052   0.00003   0.00000   0.01722   0.01722   3.97774
   X10        7.59423  -0.00020   0.00000  -0.00641  -0.00641   7.58781
   Y10       -1.57161  -0.00018   0.00000  -0.01538  -0.01538  -1.58698
   Z10        3.74884   0.00033   0.00000   0.01623   0.01623   3.76507
   X11        6.51342  -0.00005   0.00000  -0.00747  -0.00747   6.50595
   Y11       -0.73144   0.00002   0.00000   0.01183   0.01183  -0.71960
   Z11        4.96269   0.00002   0.00000  -0.00460  -0.00460   4.95809
   X12        3.78139   0.00012   0.00000   0.02399   0.02399   3.80538
   Y12       -1.22596   0.00007   0.00000   0.00737   0.00737  -1.21859
   Z12       -0.14373  -0.00003   0.00000  -0.02086  -0.02086  -0.16459
   X13        4.29609   0.00002   0.00000   0.04177   0.04177   4.33786
   Y13        0.73242   0.00000   0.00000   0.00589   0.00589   0.73831
   Z13        0.25901  -0.00004   0.00000  -0.03691  -0.03691   0.22209
   X14        7.09365   0.00005   0.00000  -0.00562  -0.00562   7.08803
   Y14       -4.12971  -0.00003   0.00000  -0.02470  -0.02470  -4.15441
   Z14        0.07771   0.00017   0.00000   0.01972   0.01972   0.09743
   X15        9.05899  -0.00002   0.00000   0.00043   0.00043   9.05942
   Y15       -3.54049  -0.00000   0.00000  -0.04156  -0.04156  -3.58205
   Z15       -0.10684   0.00001   0.00000   0.02455   0.02455  -0.08229
   X16        5.61125   0.00023   0.00000   0.01924   0.01924   5.63048
   Y16       -2.49622   0.00006   0.00000  -0.02143  -0.02143  -2.51766
   Z16       -1.53856   0.00008   0.00000   0.00032   0.00032  -1.53824
   X17        1.47517   0.00024   0.00000   0.03019   0.03019   1.50537
   Y17       -1.11076   0.00009   0.00000   0.01203   0.01203  -1.09874
   Z17       -1.73700  -0.00025   0.00000  -0.02912  -0.02912  -1.76612
   X18        0.63789   0.00021   0.00000   0.03808   0.03808   0.67597
   Y18       -3.26198   0.00008   0.00000   0.01383   0.01383  -3.24815
   Z18       -2.81689  -0.00031   0.00000  -0.03890  -0.03890  -2.85578
   X19        1.77212   0.00000   0.00000   0.04777   0.04777   1.81988
   Y19       -4.92315  -0.00001   0.00000   0.01731   0.01731  -4.90584
   Z19       -2.48374  -0.00002   0.00000  -0.05298  -0.05298  -2.53672
   X20       -1.48387   0.00028   0.00000   0.03276   0.03276  -1.45111
   Y20       -3.23805   0.00011   0.00000   0.01082   0.01082  -3.22723
   Z20       -4.29769  -0.00020   0.00000  -0.03059  -0.03059  -4.32828
   X21       -2.12006   0.00002   0.00000   0.03998   0.03998  -2.08008
   Y21       -4.97198   0.00002   0.00000   0.01209   0.01209  -4.95990
   Z21       -5.16530  -0.00001   0.00000  -0.03895  -0.03895  -5.20425
   X22       -2.75268   0.00016   0.00000   0.01518   0.01518  -2.73750
   Y22       -0.96831  -0.00017   0.00000   0.00490   0.00490  -0.96341
   Z22       -4.68870  -0.00027   0.00000  -0.00699  -0.00699  -4.69570
   X23       -4.37891  -0.00003   0.00000   0.00754   0.00754  -4.37136
   Y23       -0.89634   0.00002   0.00000   0.00110   0.00110  -0.89525
   Z23       -5.92621  -0.00001   0.00000   0.00262   0.00262  -5.92359
   X24       -5.87230  -0.00005   0.00000  -0.01048  -0.01048  -5.88278
   Y24       -1.51361  -0.00001   0.00000   0.01382   0.01382  -1.49979
   Z24       -1.63821  -0.00005   0.00000  -0.01467  -0.01467  -1.65289
   X25       -1.86349   0.00011   0.00000   0.00542   0.00542  -1.85806
   Y25        1.22299   0.00035   0.00000   0.00364   0.00364   1.22664
   Z25       -3.55581   0.00012   0.00000   0.00502   0.00502  -3.55080
   X26        0.28626   0.00023   0.00000   0.01984   0.01984   0.30609
   Y26        1.08086   0.00005   0.00000   0.00884   0.00884   1.08971
   Z26       -2.07086  -0.00001   0.00000  -0.01469  -0.01469  -2.08554
   X27        1.04168  -0.00001   0.00000   0.01984   0.01984   1.06152
   Y27        2.74582   0.00001   0.00000   0.00882   0.00882   2.75464
   Z27       -1.15176  -0.00004   0.00000  -0.01534  -0.01534  -1.16710
   X28       -2.93613  -0.00009   0.00000  -0.02625  -0.02625  -2.96239
   Y28        3.80259   0.00001   0.00000  -0.00300  -0.00300   3.79958
   Z28       -4.03407   0.00012   0.00000   0.03894   0.03894  -3.99512
   X29       -1.60030  -0.00010   0.00000  -0.04777  -0.04777  -1.64807
   Y29        5.64845   0.00005   0.00000   0.01186   0.01186   5.66031
   Z29       -3.92449  -0.00010   0.00000   0.04894   0.04894  -3.87555
   X30       -5.40939  -0.00001   0.00000  -0.03061  -0.03061  -5.43999
   Y30        3.84345   0.00004   0.00000  -0.02405  -0.02405   3.81939
   Z30       -4.78531   0.00033   0.00000   0.05303   0.05303  -4.73228
   X31       -6.15201  -0.00003   0.00000  -0.04914  -0.04914  -6.20114
   Y31        5.59722   0.00002   0.00000  -0.03137  -0.03137   5.56585
   Z31       -4.89374   0.00005   0.00000   0.06382   0.06382  -4.82992
   X32       -6.55733  -0.00011   0.00000  -0.01305  -0.01305  -6.57038
   Y32        2.53397  -0.00013   0.00000  -0.04357  -0.04357   2.49040
   Z32       -4.00353   0.00012   0.00000   0.04618   0.04618  -3.95736
   X33        4.85329  -0.00004   0.00000  -0.02414  -0.02414   4.82915
   Y33       -7.52884   0.00003   0.00000  -0.01481  -0.01481  -7.54366
   Z33       -0.33409   0.00001   0.00000   0.01976   0.01976  -0.31432
   X34        0.26923  -0.00030   0.00000  -0.01083  -0.01083   0.25840
   Y34        4.11768  -0.00005   0.00000  -0.00029  -0.00029   4.11738
   Z34        5.43236   0.00019   0.00000   0.00296   0.00296   5.43531
   X35       -3.14766  -0.00021   0.00000   0.00059   0.00059  -3.14708
   Y35        1.66513  -0.00003   0.00000  -0.00631  -0.00631   1.65882
   Z35        2.23743  -0.00013   0.00000  -0.00692  -0.00692   2.23051
   X36       -5.42218  -0.00016   0.00000   0.00310   0.00310  -5.41908
   Y36        1.57309   0.00020   0.00000   0.00343   0.00343   1.57652
   Z36        1.02511   0.00024   0.00000  -0.00975  -0.00975   1.01537
   X37       -9.48763  -0.00031   0.00000  -0.00096  -0.00096  -9.48859
   Y37       -0.60789  -0.00013   0.00000  -0.00107  -0.00107  -0.60896
   Z37       -0.07022   0.00083   0.00000   0.01900   0.01900  -0.05122
   X38       -6.62403  -0.00021   0.00000   0.00041   0.00041  -6.62361
   Y38       -0.84149  -0.00001   0.00000   0.00448   0.00448  -0.83700
   Z38        0.18813   0.00010   0.00000  -0.00588  -0.00588   0.18225
   X39       -1.65562  -0.00004   0.00000  -0.02188  -0.02188  -1.67749
   Y39       -0.18418  -0.00015   0.00000  -0.01957  -0.01957  -0.20375
   Z39        2.62868  -0.00030   0.00000   0.01519   0.01519   2.64387
   X40       -2.16551   0.00087   0.00000   0.03789   0.03789  -2.12762
   Y40        4.81929  -0.00005   0.00000  -0.00545  -0.00545   4.81384
   Z40        3.15847  -0.00124   0.00000  -0.05132  -0.05132   3.10714
   X41        0.67719  -0.00003   0.00000  -0.01678  -0.01678   0.66040
   Y41        5.88520  -0.00002   0.00000   0.00588   0.00588   5.89109
   Z41        6.40213   0.00000   0.00000  -0.00576  -0.00576   6.39638
   X42        1.98539  -0.00002   0.00000   0.00273   0.00273   1.98813
   Y42        3.42832  -0.00001   0.00000  -0.01623  -0.01623   3.41209
   Z42        4.53826   0.00005   0.00000   0.04016   0.04016   4.57842
   X43      -10.34322   0.00007   0.00000   0.01274   0.01274 -10.33047
   Y43       -0.09683  -0.00005   0.00000  -0.01427  -0.01427  -0.11110
   Z43        1.73370  -0.00000   0.00000   0.02816   0.02816   1.76186
   X44       -9.99609  -0.00005   0.00000  -0.01106  -0.01106 -10.00714
   Y44        0.87226  -0.00002   0.00000   0.00647   0.00647   0.87873
   Z44       -1.42190   0.00011   0.00000   0.03088   0.03088  -1.39102
   X45      -10.34271   0.00002   0.00000   0.00158   0.00158 -10.34113
   Y45       -2.36787   0.00003   0.00000   0.00103   0.00103  -2.36684
   Z45       -0.71871   0.00006   0.00000   0.01109   0.01109  -0.70761
   X46       -6.13912   0.00005   0.00000   0.01815   0.01815  -6.12097
   Y46       -2.34845  -0.00002   0.00000   0.00118   0.00118  -2.34727
   Z46        1.51699   0.00000   0.00000  -0.01637  -0.01637   1.50061
   X47       -6.52235   0.00012   0.00000   0.01574   0.01574  -6.50661
   Y47        3.29859  -0.00014   0.00000   0.00972   0.00972   3.30831
   Z47        0.91331   0.00005   0.00000  -0.02331  -0.02331   0.88999
   X48       -0.39282  -0.00006   0.00000  -0.04223  -0.04223  -0.43505
   Y48        2.73123  -0.00001   0.00000   0.01425   0.01425   2.74548
   Z48        6.79945  -0.00002   0.00000   0.00180   0.00180   6.80125
         Item               Value     Threshold  Converged?
 Maximum Force            0.001239     0.000450     NO 
 RMS     Force            0.000188     0.000300     YES
 Maximum Displacement     0.072904     0.001800     NO 
 RMS     Displacement     0.025065     0.001200     NO 
 Predicted change in Energy=-1.916471D-04
 GradGradGradGradGradGradGradGradGradGradGradGradGradGradGradGradGradGrad

 Leave Link  103 at Sat Aug 13 21:01:57 2022, MaxMem=  2684354560 cpu:               1.5 elap:               0.1
 (Enter /storage/apps/GAUSSIAN/G16_RevA03/g16/l9999.exe)

 Test job not archived.
 1\1\GINC-T005\Force\RM062X\def2TZVP\C16H24N2O5S1\LV87696\13-Aug-2022\0
 \\#P M062X/Def2TZVP scf=(direct,conver=8) EmpiricalDispersion=GD3 Forc
 e Charge Prop=(Field,Read)\\Gaussian run\\0,1\C,3.576766,-3.624639,-0.
 395036\H,3.757009,-3.715979,-1.465617\H,4.283378,-4.266588,0.131387\C,
 1.824613,-1.43446,1.238368\H,1.171089,-2.297585,1.047822\O,1.400676,-0
 .680311,2.310464\H,0.463044,-0.358499,2.10415\C,3.268829,-1.895735,1.4
 54153\H,3.321148,-2.780627,2.095815\O,4.018692,-0.831658,1.983803\H,3.
 446754,-0.38706,2.626141\C,2.001024,-0.648749,-0.076058\H,2.273393,0.3
 87578,0.137061\C,3.753798,-2.18535,0.041125\H,4.79381,-1.873547,-0.056
 538\O,2.969344,-1.320944,-0.814171\N,0.780627,-0.58779,-0.91918\C,0.33
 7558,-1.726166,-1.490633\H,0.937764,-2.605218,-1.314339\C,-0.78523,-1.
 713501,-2.274241\H,-1.121885,-2.631061,-2.733357\C,-1.456657,-0.51241,
 -2.481155\H,-2.317218,-0.474324,-3.136014\H,-3.107485,-0.800968,-0.866
 906\C,-0.986114,0.647181,-1.881654\C,0.151482,0.571968,-1.09585\H,0.55
 1231,1.453026,-0.609485\C,-1.553735,2.012243,-2.134736\O,-0.846842,2.9
 8903,-2.076752\N,-2.862524,2.033865,-2.532278\H,-3.255501,2.961922,-2.
 589656\H,-3.469989,1.340921,-2.118579\H,2.568249,-3.984093,-0.176792\C
 ,0.142472,2.17898,2.874679\C,-1.665672,0.881148,1.183997\C,-2.869295,0
 .832444,0.542467\C,-5.020638,-0.321681,-0.037159\C,-3.505284,-0.445296
 ,0.099555\O,-0.876114,-0.097464,1.391037\S,-1.145941,2.55026,1.671388\
 H,0.358352,3.114316,3.387863\H,1.050625,1.814187,2.401545\H,-5.473394,
 -0.051242,0.917435\H,-5.289701,0.461579,-0.752438\H,-5.473126,-1.25302
 5,-0.380323\H,-3.24868,-1.242747,0.802756\H,-3.451481,1.745539,0.48330
 1\H,-0.207869,1.445303,3.598112\\Version=ES64L-G16RevA.03\State=1-A\HF
 =-1507.908052\RMSD=1.354e-09\RMSF=1.876e-04\Dipole=0.0692926,-2.349021
 6,-1.8428397\Quadrupole=0.7604576,1.0792709,-1.8397285,-4.5725242,8.37
 93359,5.8058859\PG=C01 [X(C16H24N2O5S1)]\\@


 THE UNDERLYING PHYSICAL LAWS NECESSARY FOR THE 
 MATHEMATICAL THEORY OF A LARGE PART OF PHYSICS AND THE
 WHOLE OF CHEMISTRY ARE THUS COMPLETELY KNOWN, AND THE
 DIFFICULTY IS ONLY THAT THE EXACT APPLICATION OF THESE
 LAWS LEADS TO EQUATIONS MUCH TOO COMPLICATED 
 TO BE SOLUBLE.

                                        -- P. A. M. DIRAC, 1929
 Job cpu time:       0 days  3 hours 38 minutes  5.8 seconds.
 Elapsed time:       0 days  0 hours 13 minutes 40.0 seconds.
 File lengths (MBytes):  RWF=    435 Int=      0 D2E=      0 Chk=     48 Scr=      1
 Normal termination of Gaussian 16 at Sat Aug 13 21:01:57 2022.
