 Entering Gaussian System, Link 0=g16
 Initial command:
 /storage/apps/GAUSSIAN/G16_RevA03/g16/l1.exe "/scratch/tmp/1019400/Gau-119497.inp" -scrdir="/scratch/tmp/1019400/"
 Entering Link 1 = /storage/apps/GAUSSIAN/G16_RevA03/g16/l1.exe PID=    119498.
  
 Copyright (c) 1988,1990,1992,1993,1995,1998,2003,2009,2016,
            Gaussian, Inc.  All Rights Reserved.
  
 This is part of the Gaussian(R) 16 program.  It is based on
 the Gaussian(R) 09 system (copyright 2009, Gaussian, Inc.),
 the Gaussian(R) 03 system (copyright 2003, Gaussian, Inc.),
 the Gaussian(R) 98 system (copyright 1998, Gaussian, Inc.),
 the Gaussian(R) 94 system (copyright 1995, Gaussian, Inc.),
 the Gaussian 92(TM) system (copyright 1992, Gaussian, Inc.),
 the Gaussian 90(TM) system (copyright 1990, Gaussian, Inc.),
 the Gaussian 88(TM) system (copyright 1988, Gaussian, Inc.),
 the Gaussian 86(TM) system (copyright 1986, Carnegie Mellon
 University), and the Gaussian 82(TM) system (copyright 1983,
 Carnegie Mellon University). Gaussian is a federally registered
 trademark of Gaussian, Inc.
  
 This software contains proprietary and confidential information,
 including trade secrets, belonging to Gaussian, Inc.
  
 This software is provided under written license and may be
 used, copied, transmitted, or stored only in accord with that
 written license.
  
 The following legend is applicable only to US Government
 contracts under FAR:
  
                    RESTRICTED RIGHTS LEGEND
  
 Use, reproduction and disclosure by the US Government is
 subject to restrictions as set forth in subparagraphs (a)
 and (c) of the Commercial Computer Software - Restricted
 Rights clause in FAR 52.227-19.
  
 Gaussian, Inc.
 340 Quinnipiac St., Bldg. 40, Wallingford CT 06492
  
  
 ---------------------------------------------------------------
 Warning -- This program may not be used in any manner that
 competes with the business of Gaussian, Inc. or will provide
 assistance to any competitor of Gaussian, Inc.  The licensee
 of this program is prohibited from giving any competitor of
 Gaussian, Inc. access to this program.  By using this program,
 the user acknowledges that Gaussian, Inc. is engaged in the
 business of creating and licensing software in the field of
 computational chemistry and represents and warrants to the
 licensee that it is not a competitor of Gaussian, Inc. and that
 it will not use this program in any manner prohibited above.
 ---------------------------------------------------------------
  

 Cite this work as:
 Gaussian 16, Revision A.03,
 M. J. Frisch, G. W. Trucks, H. B. Schlegel, G. E. Scuseria, 
 M. A. Robb, J. R. Cheeseman, G. Scalmani, V. Barone, 
 G. A. Petersson, H. Nakatsuji, X. Li, M. Caricato, A. V. Marenich, 
 J. Bloino, B. G. Janesko, R. Gomperts, B. Mennucci, H. P. Hratchian, 
 J. V. Ortiz, A. F. Izmaylov, J. L. Sonnenberg, D. Williams-Young, 
 F. Ding, F. Lipparini, F. Egidi, J. Goings, B. Peng, A. Petrone, 
 T. Henderson, D. Ranasinghe, V. G. Zakrzewski, J. Gao, N. Rega, 
 G. Zheng, W. Liang, M. Hada, M. Ehara, K. Toyota, R. Fukuda, 
 J. Hasegawa, M. Ishida, T. Nakajima, Y. Honda, O. Kitao, H. Nakai, 
 T. Vreven, K. Throssell, J. A. Montgomery, Jr., J. E. Peralta, 
 F. Ogliaro, M. J. Bearpark, J. J. Heyd, E. N. Brothers, K. N. Kudin, 
 V. N. Staroverov, T. A. Keith, R. Kobayashi, J. Normand, 
 K. Raghavachari, A. P. Rendell, J. C. Burant, S. S. Iyengar, 
 J. Tomasi, M. Cossi, J. M. Millam, M. Klene, C. Adamo, R. Cammi, 
 J. W. Ochterski, R. L. Martin, K. Morokuma, O. Farkas, 
 J. B. Foresman, and D. J. Fox, Gaussian, Inc., Wallingford CT, 2016.
 
 ******************************************
 Gaussian 16:  ES64L-G16RevA.03 25-Dec-2016
                13-Aug-2022 
 ******************************************
 %NProcShared=16
 Will use up to   16 processors via shared memory.
 %mem=20GB
 ----------------------------------------------------------------------
 #P M062X/Def2TZVP scf=(direct,conver=8) EmpiricalDispersion=GD3 Force 
 Charge Prop=(Field,Read)
 ----------------------------------------------------------------------
 1/10=7,18=10,28=-2,30=1,38=1,125=101/1,3;
 2/12=2,17=6,18=5,29=2,40=1/2;
 3/5=44,7=101,11=2,25=1,30=1,71=1,74=-55,124=31/1,2,3;
 4//1;
 5/5=2,6=8,38=5/2;
 6/7=2,8=2,9=2,10=2,14=2,15=1,28=1/1,2;
 7/7=1,16=-2,29=1/1,2,3,16;
 1/10=7,18=10,28=-2,30=1/3;
 99/12=1/99;
 Leave Link    1 at Sat Aug 13 20:48:17 2022, MaxMem=  2684354560 cpu:               0.7 elap:               0.1
 (Enter /storage/apps/GAUSSIAN/G16_RevA03/g16/l101.exe)
 ------------
 Gaussian run
 ------------
 Symbolic Z-matrix:
 Charge =  0 Multiplicity = 1
 C                     3.57577  -3.62547  -0.39196 
 H                     3.75988  -3.71649  -1.46192 
 H                     4.27906  -4.26923   0.13667 
 C                     1.82177  -1.43338   1.23633 
 H                     1.16724  -2.29503   1.0423 
 O                     1.39524  -0.67949   2.30728 
 H                     0.45714  -0.35819   2.09798 
 C                     3.26413  -1.89776   1.4573 
 H                     3.31191  -2.78357   2.09807 
 O                     4.0138   -0.83591   1.99155 
 H                     3.43966  -0.39088   2.63165 
 C                     2.00447  -0.64706  -0.07717 
 H                     2.27678   0.38903   0.13715 
 C                     3.75414  -2.18687   0.04599 
 H                     4.79514  -1.87711  -0.04743 
 O                     2.97484  -1.31996  -0.81172 
 N                     0.78637  -0.58492  -0.92418 
 C                     0.34578  -1.72215  -1.4991 
 H                     0.94821  -2.60033  -1.32588 
 C                    -0.77809  -1.70998  -2.28142 
 H                    -1.11288  -2.62691  -2.7431 
 C                    -1.45237  -0.50988  -2.48389 
 H                    -2.31436  -0.47166  -3.13696 
 H                    -3.12427  -0.79075  -0.87165 
 C                    -0.98354   0.64912  -1.88213 
 C                     0.15468   0.57425  -1.097 
 H                     0.55223   1.45441  -0.60709 
 C                    -1.55543   2.01309  -2.13222 
 O                    -0.8499    2.99107  -2.07932 
 N                    -2.86666   2.03171  -2.52163 
 H                    -3.26204   2.95896  -2.57652 
 H                    -3.46993   1.338    -2.10193 
 H                     2.56573  -3.98303  -0.17765 
 C                     0.1322    2.1771    2.88143 
 C                    -1.66622   0.88008   1.18013 
 C                    -2.87384   0.83269   0.54766 
 C                    -5.02839  -0.32576  -0.01253 
 C                    -3.51086  -0.4443    0.10296 
 O                    -0.87681  -0.10025   1.38296 
 S                    -1.13601   2.54912   1.65647 
 H                     0.34542   3.11365   3.3935 
 H                     1.04512   1.80489   2.42387 
 H                    -5.46912  -0.06493   0.95017 
 H                    -5.30987   0.46208  -0.71779 
 H                    -5.4817   -1.25617  -0.35693 
 H                    -3.24146  -1.2457    0.79666 
 H                    -3.45698   1.74593   0.49375 
 H                    -0.23348   1.44893   3.60278 
 
 ITRead=  0  0  0  0  0  0  0  0  0  0  0  0  0  0  0  0  0  0  0  0
 ITRead=  0  0  0  0  0  0  0  0  0  0  0  0  0  0  0  0  0  0  0  0
 ITRead=  0  0  0  0  0  0  0  0
 MicOpt= -1 -1 -1 -1 -1 -1 -1 -1 -1 -1 -1 -1 -1 -1 -1 -1 -1 -1 -1 -1
 MicOpt= -1 -1 -1 -1 -1 -1 -1 -1 -1 -1 -1 -1 -1 -1 -1 -1 -1 -1 -1 -1
 MicOpt= -1 -1 -1 -1 -1 -1 -1 -1
 NAtoms=     48 NQM=       48 NQMF=       0 NMMI=      0 NMMIF=      0
                NMic=       0 NMicF=      0.
                    Isotopes and Nuclear Properties:
 (Nuclear quadrupole moments (NQMom) in fm**2, nuclear magnetic moments (NMagM)
  in nuclear magnetons)

  Atom         1           2           3           4           5           6           7           8           9          10
 IAtWgt=          12           1           1          12           1          16           1          12           1          16
 AtmWgt=  12.0000000   1.0078250   1.0078250  12.0000000   1.0078250  15.9949146   1.0078250  12.0000000   1.0078250  15.9949146
 NucSpn=           0           1           1           0           1           0           1           0           1           0
 AtZEff=  -0.0000000  -0.0000000  -0.0000000  -0.0000000  -0.0000000  -0.0000000  -0.0000000  -0.0000000  -0.0000000  -0.0000000
 NQMom=    0.0000000   0.0000000   0.0000000   0.0000000   0.0000000   0.0000000   0.0000000   0.0000000   0.0000000   0.0000000
 NMagM=    0.0000000   2.7928460   2.7928460   0.0000000   2.7928460   0.0000000   2.7928460   0.0000000   2.7928460   0.0000000
 AtZNuc=   6.0000000   1.0000000   1.0000000   6.0000000   1.0000000   8.0000000   1.0000000   6.0000000   1.0000000   8.0000000

  Atom        11          12          13          14          15          16          17          18          19          20
 IAtWgt=           1          12           1          12           1          16          14          12           1          12
 AtmWgt=   1.0078250  12.0000000   1.0078250  12.0000000   1.0078250  15.9949146  14.0030740  12.0000000   1.0078250  12.0000000
 NucSpn=           1           0           1           0           1           0           2           0           1           0
 AtZEff=  -0.0000000  -0.0000000  -0.0000000  -0.0000000  -0.0000000  -0.0000000  -0.0000000  -0.0000000  -0.0000000  -0.0000000
 NQMom=    0.0000000   0.0000000   0.0000000   0.0000000   0.0000000   0.0000000   2.0440000   0.0000000   0.0000000   0.0000000
 NMagM=    2.7928460   0.0000000   2.7928460   0.0000000   2.7928460   0.0000000   0.4037610   0.0000000   2.7928460   0.0000000
 AtZNuc=   1.0000000   6.0000000   1.0000000   6.0000000   1.0000000   8.0000000   7.0000000   6.0000000   1.0000000   6.0000000

  Atom        21          22          23          24          25          26          27          28          29          30
 IAtWgt=           1          12           1           1          12          12           1          12          16          14
 AtmWgt=   1.0078250  12.0000000   1.0078250   1.0078250  12.0000000  12.0000000   1.0078250  12.0000000  15.9949146  14.0030740
 NucSpn=           1           0           1           1           0           0           1           0           0           2
 AtZEff=  -0.0000000  -0.0000000  -0.0000000  -0.0000000  -0.0000000  -0.0000000  -0.0000000  -0.0000000  -0.0000000  -0.0000000
 NQMom=    0.0000000   0.0000000   0.0000000   0.0000000   0.0000000   0.0000000   0.0000000   0.0000000   0.0000000   2.0440000
 NMagM=    2.7928460   0.0000000   2.7928460   2.7928460   0.0000000   0.0000000   2.7928460   0.0000000   0.0000000   0.4037610
 AtZNuc=   1.0000000   6.0000000   1.0000000   1.0000000   6.0000000   6.0000000   1.0000000   6.0000000   8.0000000   7.0000000

  Atom        31          32          33          34          35          36          37          38          39          40
 IAtWgt=           1           1           1          12          12          12          12          12          16          32
 AtmWgt=   1.0078250   1.0078250   1.0078250  12.0000000  12.0000000  12.0000000  12.0000000  12.0000000  15.9949146  31.9720718
 NucSpn=           1           1           1           0           0           0           0           0           0           0
 AtZEff=  -0.0000000  -0.0000000  -0.0000000  -0.0000000  -0.0000000  -0.0000000  -0.0000000  -0.0000000  -0.0000000  -0.0000000
 NQMom=    0.0000000   0.0000000   0.0000000   0.0000000   0.0000000   0.0000000   0.0000000   0.0000000   0.0000000   0.0000000
 NMagM=    2.7928460   2.7928460   2.7928460   0.0000000   0.0000000   0.0000000   0.0000000   0.0000000   0.0000000   0.0000000
 AtZNuc=   1.0000000   1.0000000   1.0000000   6.0000000   6.0000000   6.0000000   6.0000000   6.0000000   8.0000000  16.0000000

  Atom        41          42          43          44          45          46          47          48
 IAtWgt=           1           1           1           1           1           1           1           1
 AtmWgt=   1.0078250   1.0078250   1.0078250   1.0078250   1.0078250   1.0078250   1.0078250   1.0078250
 NucSpn=           1           1           1           1           1           1           1           1
 AtZEff=  -0.0000000  -0.0000000  -0.0000000  -0.0000000  -0.0000000  -0.0000000  -0.0000000  -0.0000000
 NQMom=    0.0000000   0.0000000   0.0000000   0.0000000   0.0000000   0.0000000   0.0000000   0.0000000
 NMagM=    2.7928460   2.7928460   2.7928460   2.7928460   2.7928460   2.7928460   2.7928460   2.7928460
 AtZNuc=   1.0000000   1.0000000   1.0000000   1.0000000   1.0000000   1.0000000   1.0000000   1.0000000
 Background charge distribution read from input stream:
 Leave Link  101 at Sat Aug 13 20:48:18 2022, MaxMem=  2684354560 cpu:               2.3 elap:               0.2
 (Enter /storage/apps/GAUSSIAN/G16_RevA03/g16/l103.exe)

 GradGradGradGradGradGradGradGradGradGradGradGradGradGradGradGradGradGrad
 Berny optimization.
 Initialization pass.
 Trust Radius=3.00D-01 FncErr=1.00D-07 GrdErr=1.00D-07 EigMax=2.50D+02 EigMin=1.00D-04
 Number of steps in this run=      2 maximum allowed number of steps=      2.
 GradGradGradGradGradGradGradGradGradGradGradGradGradGradGradGradGradGrad

 Leave Link  103 at Sat Aug 13 20:48:18 2022, MaxMem=  2684354560 cpu:               0.4 elap:               0.1
 (Enter /storage/apps/GAUSSIAN/G16_RevA03/g16/l202.exe)
 ---------------------------------------------------------------------------------------------------
                            Z-MATRIX (ANGSTROMS AND DEGREES)
   CD    Cent   Atom    N1       Length/X        N2       Alpha/Y        N3        Beta/Z          J
 ---------------------------------------------------------------------------------------------------
      1      1  C        0   3.575768         -3.625465         -0.391962
      2      2  H        0   3.759882         -3.716488         -1.461915
      3      3  H        0   4.279064         -4.269233          0.136672
      4      4  C        0   1.821769         -1.433377          1.236330
      5      5  H        0   1.167240         -2.295026          1.042304
      6      6  O        0   1.395236         -0.679487          2.307282
      7      7  H        0   0.457136         -0.358185          2.097976
      8      8  C        0   3.264130         -1.897763          1.457304
      9      9  H        0   3.311907         -2.783574          2.098071
     10     10  O        0   4.013799         -0.835913          1.991552
     11     11  H        0   3.439656         -0.390879          2.631648
     12     12  C        0   2.004466         -0.647059         -0.077169
     13     13  H        0   2.276783          0.389030          0.137153
     14     14  C        0   3.754138         -2.186873          0.045994
     15     15  H        0   4.795136         -1.877114         -0.047430
     16     16  O        0   2.974840         -1.319955         -0.811718
     17     17  N        0   0.786366         -0.584924         -0.924178
     18     18  C        0   0.345779         -1.722154         -1.499095
     19     19  H        0   0.948214         -2.600332         -1.325876
     20     20  C        0  -0.778086         -1.709978         -2.281420
     21     21  H        0  -1.112884         -2.626913         -2.743102
     22     22  C        0  -1.452368         -0.509880         -2.483893
     23     23  H        0  -2.314364         -0.471662         -3.136956
     24     24  H        0  -3.124275         -0.790746         -0.871654
     25     25  C        0  -0.983537          0.649118         -1.882134
     26     26  C        0   0.154682          0.574252         -1.097003
     27     27  H        0   0.552227          1.454412         -0.607088
     28     28  C        0  -1.555426          2.013095         -2.132224
     29     29  O        0  -0.849896          2.991073         -2.079315
     30     30  N        0  -2.866655          2.031712         -2.521626
     31     31  H        0  -3.262041          2.958957         -2.576516
     32     32  H        0  -3.469928          1.337999         -2.101933
     33     33  H        0   2.565732         -3.983031         -0.177653
     34     34  C        0   0.132201          2.177100          2.881432
     35     35  C        0  -1.666220          0.880084          1.180125
     36     36  C        0  -2.873840          0.832690          0.547657
     37     37  C        0  -5.028387         -0.325761         -0.012532
     38     38  C        0  -3.510857         -0.444298          0.102955
     39     39  O        0  -0.876810         -0.100253          1.382959
     40     40  S        0  -1.136012          2.549117          1.656472
     41     41  H        0   0.345422          3.113650          3.393495
     42     42  H        0   1.045117          1.804891          2.423865
     43     43  H        0  -5.469118         -0.064933          0.950174
     44     44  H        0  -5.309874          0.462079         -0.717788
     45     45  H        0  -5.481702         -1.256174         -0.356928
     46     46  H        0  -3.241459         -1.245695          0.796660
     47     47  H        0  -3.456976          1.745934          0.493749
     48     48  H        0  -0.233477          1.448927          3.602777
 ---------------------------------------------------------------------------------------------------
                         Z-Matrix orientation:                         
 ---------------------------------------------------------------------
 Center     Atomic      Atomic             Coordinates (Angstroms)
 Number     Number       Type             X           Y           Z
 ---------------------------------------------------------------------
      1          6           0        3.575768   -3.625465   -0.391962
      2          1           0        3.759882   -3.716488   -1.461915
      3          1           0        4.279064   -4.269233    0.136672
      4          6           0        1.821769   -1.433377    1.236330
      5          1           0        1.167240   -2.295026    1.042304
      6          8           0        1.395236   -0.679487    2.307282
      7          1           0        0.457136   -0.358185    2.097976
      8          6           0        3.264130   -1.897763    1.457304
      9          1           0        3.311907   -2.783574    2.098071
     10          8           0        4.013799   -0.835913    1.991552
     11          1           0        3.439656   -0.390879    2.631648
     12          6           0        2.004466   -0.647059   -0.077169
     13          1           0        2.276783    0.389030    0.137153
     14          6           0        3.754138   -2.186873    0.045994
     15          1           0        4.795136   -1.877114   -0.047430
     16          8           0        2.974840   -1.319955   -0.811718
     17          7           0        0.786366   -0.584924   -0.924178
     18          6           0        0.345779   -1.722154   -1.499095
     19          1           0        0.948214   -2.600332   -1.325876
     20          6           0       -0.778086   -1.709978   -2.281420
     21          1           0       -1.112884   -2.626913   -2.743102
     22          6           0       -1.452368   -0.509880   -2.483893
     23          1           0       -2.314364   -0.471662   -3.136956
     24          1           0       -3.124275   -0.790746   -0.871654
     25          6           0       -0.983537    0.649118   -1.882134
     26          6           0        0.154682    0.574252   -1.097003
     27          1           0        0.552227    1.454412   -0.607088
     28          6           0       -1.555426    2.013095   -2.132224
     29          8           0       -0.849896    2.991073   -2.079315
     30          7           0       -2.866655    2.031712   -2.521626
     31          1           0       -3.262041    2.958957   -2.576516
     32          1           0       -3.469928    1.337999   -2.101933
     33          1           0        2.565732   -3.983031   -0.177653
     34          6           0        0.132201    2.177100    2.881432
     35          6           0       -1.666220    0.880084    1.180125
     36          6           0       -2.873840    0.832690    0.547657
     37          6           0       -5.028387   -0.325761   -0.012532
     38          6           0       -3.510857   -0.444298    0.102955
     39          8           0       -0.876810   -0.100253    1.382959
     40         16           0       -1.136012    2.549117    1.656472
     41          1           0        0.345422    3.113650    3.393495
     42          1           0        1.045117    1.804891    2.423865
     43          1           0       -5.469118   -0.064933    0.950174
     44          1           0       -5.309874    0.462079   -0.717788
     45          1           0       -5.481702   -1.256174   -0.356928
     46          1           0       -3.241459   -1.245695    0.796660
     47          1           0       -3.456976    1.745934    0.493749
     48          1           0       -0.233477    1.448927    3.602777
 ---------------------------------------------------------------------
                    Distance matrix (angstroms):
                    1          2          3          4          5
     1  C    0.000000
     2  H    1.089487   0.000000
     3  H    1.090191   1.769338   0.000000
     4  C    3.245473   4.031055   3.910195   0.000000
     5  H    3.102933   3.874721   3.794880   1.099315   0.000000
     6  O    4.551859   5.387186   5.090608   1.377396   2.064490
     7  H    5.157594   5.904164   5.809487   1.939251   2.317336
     8  C    2.549874   3.474963   2.897935   1.531303   2.174164
     9  H    2.641717   3.707359   2.643797   2.187725   2.439861
    10  O    3.695215   4.504289   3.911347   2.394226   3.336612
    11  H    4.429818   5.283889   4.687338   2.377241   3.363876
    12  C    3.382157   3.797420   4.282484   1.541737   2.161010
    13  H    4.252469   4.648858   5.070359   2.176326   3.042128
    14  C    1.514321   2.147916   2.149417   2.391382   2.774234
    15  H    2.159234   2.540830   2.454070   3.268922   3.811010
    16  O    2.419233   2.604307   3.361352   2.353070   2.766872
    17  N    4.160397   4.351741   5.186374   2.541599   2.633736
    18  C    3.909113   3.954093   4.963273   3.121616   2.731609
    19  H    2.971049   3.028166   4.002354   2.947844   2.397803
    20  C    5.118123   5.028998   6.162120   4.382958   3.895345
    21  H    5.339328   5.154848   6.329567   5.086511   4.431525
    22  C    6.274169   6.204379   7.338216   5.041119   4.741641
    23  H    7.223235   7.087392   8.283205   6.095746   5.736936
    24  H    7.290838   7.503332   8.241724   5.414787   4.933882
    25  C    6.424946   6.460273   7.480690   4.683091   4.673988
    26  C    5.462466   5.616144   6.480110   3.500599   3.719498
    27  H    5.915508   6.144753   6.870415   3.653663   4.142103
    28  C    7.819912   7.844102   8.868867   5.884792   6.004202
    29  O    8.137090   8.162267   9.161270   6.140607   6.461903
    30  N    8.834248   8.836050   9.890893   6.936166   6.906125
    31  H    9.740766   9.752502  10.792423   7.724993   7.766513
    32  H    8.786456   8.844638   9.823405   6.842995   6.677456
    33  H    1.092682   1.773801   1.765281   3.008914   2.508672
    34  C    7.499535   8.170625   8.141584   4.312371   4.945059
    35  C    7.088714   7.586266   7.934145   4.185849   4.257794
    36  C    7.896548   8.290939   8.795599   5.259094   5.133966
    37  C    9.222987   9.530552  10.109494   7.050610   6.586082
    38  C    7.783638   8.125250   8.678372   5.540732   5.117828
    39  O    5.950035   6.532180   6.746604   3.013478   3.018479
    40  S    8.032585   8.541190   8.838707   4.978478   5.398879
    41  H    8.377380   9.048996   8.977048   5.244847   5.954600
    42  H    6.619807   7.277009   7.251527   3.535507   4.328157
    43  H    9.812680  10.214033  10.647299   7.423716   7.001646
    44  H    9.786154  10.013722  10.726749   7.633588   7.256208
    45  H    9.362293   9.627098  10.227156   7.477336   6.873536
    46  H    7.317835   7.760461   8.132382   5.085746   4.538509
    47  H    8.893588   9.259898   9.805919   6.206818   6.165521
    48  H    7.497849   8.263143   8.066862   4.258143   4.747127
                    6          7          8          9         10
     6  O    0.000000
     7  H    1.013447   0.000000
     8  C    2.387347   3.264962   0.000000
     9  H    2.853871   3.745962   1.094315   0.000000
    10  O    2.642163   3.590181   1.405329   2.073013   0.000000
    11  H    2.090015   3.030066   1.918487   2.454794   0.968204
    12  C    2.461264   2.684946   2.346406   3.317494   2.890102
    13  H    2.574551   2.777458   2.819056   3.870671   2.820728
    14  C    3.598618   4.292430   1.521673   2.182347   2.382795
    15  H    4.305613   5.072293   2.146772   2.761306   2.419098
    16  O    3.554365   3.966126   2.359240   3.274548   3.028540
    17  N    3.289681   3.048478   3.678902   4.510699   4.356696
    18  C    4.083751   3.848601   4.157873   4.781645   5.140468
    19  H    4.133922   4.122031   3.688246   4.164617   4.849362
    20  C    5.180871   4.746812   5.509340   6.087741   6.479540
    21  H    5.965695   5.572085   6.110100   6.560509   7.204687
    22  C    5.576107   4.966160   6.301159   6.990164   7.072120
    23  H    6.591210   5.924407   7.366178   8.025296   8.153522
    24  H    5.526662   4.672506   6.889213   7.363088   7.691040
    25  C    4.997495   4.351031   5.973368   6.787949   6.494931
    26  C    3.834057   3.341977   4.722712   5.608169   5.140090
    27  H    3.709143   3.257594   4.780503   5.735350   4.897040
    28  C    5.972070   5.250521   7.169912   8.037062   7.492572
    29  O    6.144580   5.511408   7.302986   8.253345   7.407652
    30  N    6.988037   6.172513   8.298143   9.094130   8.713937
    31  H    7.666811   6.832758   9.080217   9.901779   9.391812
    32  H    6.868861   5.994840   8.275618   8.978902   8.802766
    33  H    4.296320   4.771182   2.740290   2.678506   4.087383
    34  C    3.175688   2.673398   5.333069   5.944112   4.993690
    35  C    3.615973   2.623814   5.665829   6.248741   5.988796
    36  C    4.858803   3.862263   6.779197   7.331072   7.232471
    37  C    6.838830   5.877606   8.567231   8.947402   9.275653
    38  C    5.383690   4.442127   7.060260   7.483502   7.767922
    39  O    2.520333   1.535314   4.514859   5.025629   4.982935
    40  S    4.153872   3.344466   6.259046   6.958203   6.171812
    41  H    4.082874   3.707356   6.114078   6.727214   5.569693
    42  H    2.511635   2.265132   4.423563   5.128205   3.996725
    43  H    7.024157   6.043503   8.937901   9.263643   9.571029
    44  H    7.443972   6.469912   9.154967   9.633194   9.795723
    45  H    7.397490   6.488662   8.955035   9.256756   9.790634
    46  H    4.909329   4.020038   6.571479   6.856045   7.364405
    47  H    5.719749   4.724525   7.705727   8.301088   8.044988
    48  H    2.976770   2.450924   5.294964   5.722583   5.084869
                   11         12         13         14         15
    11  H    0.000000
    12  C    3.076213   0.000000
    13  H    2.860601   1.092507   0.000000
    14  C    3.163874   2.333998   2.970886   0.000000
    15  H    3.350176   3.049878   3.392872   1.090117   0.000000
    16  O    3.596666   1.390675   2.075637   1.447246   2.051351
    17  N    4.440890   1.484942   2.072765   3.509294   4.302171
    18  C    5.329860   2.434943   3.295934   3.770965   4.682747
    19  H    5.172133   2.547590   3.583551   3.150585   4.117800
    20  C    6.608147   3.705552   4.425783   5.117161   6.006617
    21  H    7.390088   4.554656   5.374163   5.626775   6.537090
    22  C    7.079182   4.214361   4.645911   6.026636   6.843755
    23  H    8.148133   5.295786   5.704315   7.063982   7.878163
    24  H    7.451054   5.191901   5.619697   7.078405   8.035957
    25  C    6.404722   3.723726   3.843807   5.848597   6.568185
    26  C    5.062151   2.439951   2.461861   4.678284   5.352066
    27  H    4.715056   2.608830   2.159404   4.892618   5.423519
    28  C    7.309200   4.896172   4.740621   7.111669   7.733675
    29  O    7.213254   5.039045   4.632438   7.247427   7.726201
    30  N    8.496749   6.072809   6.018510   8.259784   8.950062
    31  H    9.124643   6.854647   6.681848   9.087568   9.731493
    32  H    8.552085   6.165153   6.240091   8.320183   9.103253
    33  H    4.643218   3.384350   4.392893   2.165297   3.069542
    34  C    4.194779   4.498285   3.915034   6.340536   6.837971
    35  C    5.458226   4.169759   4.108065   6.330305   7.131490
    36  C    6.760205   5.135945   5.185968   7.300652   8.155388
    37  C    8.871509   7.040485   7.341583   8.977745   9.945326
    38  C    7.396403   5.521987   5.847425   7.471276   8.430012
    39  O    4.502840   3.276083   3.425869   5.252346   6.113446
    40  S    5.525512   4.804545   4.315261   6.995485   7.594295
    41  H    4.736710   5.379672   4.664491   7.135871   7.519817
    42  H    3.255518   3.631471   2.958161   5.378405   5.807504
    43  H    9.071926   7.566291   7.801671   9.507293  10.470631
    44  H    9.407472   7.425641   7.635026   9.473997  10.393865
    45  H    9.448331   7.516116   7.946377   9.291356  10.300231
    46  H    6.981059   5.351791   5.792950   7.098429   8.105433
    47  H    7.529948   5.989968   5.902910   8.226033   9.028660
    48  H    4.221360   4.789942   4.408553   6.463035   7.047944
                   16         17         18         19         20
    16  O    0.000000
    17  N    2.311349   0.000000
    18  C    2.747037   1.348310   0.000000
    19  H    2.451721   2.061413   1.078948   0.000000
    20  C    4.049271   2.356982   1.369399   2.164695   0.000000
    21  H    4.706152   3.329468   2.119868   2.501472   1.079819
    22  C    4.801308   2.729519   2.381757   3.387298   1.391361
    23  H    5.839693   3.811003   3.364919   4.296005   2.150702
    24  H    6.122325   3.916406   3.647256   4.479518   2.887392
    25  C    4.548823   2.360741   2.745311   3.820996   2.401452
    26  C    3.409208   1.331384   2.339162   3.280253   2.736897
    27  H    3.688908   2.077079   3.305884   4.136957   3.819226
    28  C    5.777220   3.700415   4.238811   5.310567   3.806283
    29  O    5.900879   4.098713   4.897020   5.921544   4.705941
    30  N    6.948419   4.768982   5.045474   6.118731   4.291860
    31  H    7.766742   5.628402   6.007495   7.084916   5.296798
    32  H    7.089740   4.816719   4.928242   5.969313   4.070429
    33  H    2.767920   3.907758   3.433069   2.417982   4.557820
    34  C    5.826607   4.747565   5.868459   6.418035   6.526334
    35  C    5.508815   3.548171   4.242405   5.022808   4.413558
    36  C    6.378780   4.192020   4.591554   5.468442   4.342928
    37  C    8.104243   5.891487   5.748169   6.528270   5.012880
    38  C    6.608152   4.420509   4.367278   5.154935   3.841253
    39  O    4.597770   2.885124   3.525836   4.113258   4.003578
    40  S    6.161232   4.491938   5.513353   6.305174   5.811626
    41  H    6.652406   5.702296   6.879131   7.435416   7.532219
    42  H    4.894639   4.121597   5.321535   5.785839   6.149641
    43  H    8.716638   6.550929   6.523674   7.265728   5.929178
    44  H    8.474724   6.188938   6.112915   6.993697   5.263067
    45  H    8.469003   6.329378   5.956611   6.639988   5.102314
    46  H    6.421430   4.429591   4.285532   4.888104   3.969678
    47  H    7.243768   5.044737   5.519059   6.450330   5.178933
    48  H    6.119458   5.066552   6.034931   6.487258   6.700676
                   21         22         23         24         25
    21  H    0.000000
    22  C    2.159692   0.000000
    23  H    2.498756   1.082122   0.000000
    24  H    3.304470   2.339546   2.426801   0.000000
    25  C    3.389746   1.387513   2.145187   2.770747   0.000000
    26  C    3.816258   2.383572   3.369204   3.558871   1.384766
    27  H    4.898200   3.376276   4.281044   4.315947   2.152397
    28  C    4.700924   2.549450   2.785586   3.451355   1.500012
    29  O    5.663174   3.575378   3.905612   4.575303   2.354038
    30  N    4.982725   2.908835   2.636387   3.279489   2.422117
    31  H    5.987368   3.913608   3.602961   4.121384   3.317997
    32  H    4.656961   2.762444   2.383584   2.482865   2.589403
    33  H    4.685382   5.790220   6.700935   6.561136   6.079422
    34  C    7.500944   6.206241   7.015883   5.787780   5.125540
    35  C    5.291211   3.924635   4.569956   3.021158   3.145923
    36  C    5.089098   3.607405   3.948509   2.170877   3.083963
    37  C    5.299290   4.350797   4.141163   2.140080   4.561427
    38  C    4.314409   3.306578   3.453892   1.104235   3.394626
    39  O    4.843978   3.930853   4.757535   3.257477   3.351683
    40  S    6.793237   5.157535   5.787104   4.636733   4.019325
    41  H    8.528689   7.134824   7.910481   6.743486   5.972630
    42  H    7.141107   5.973415   6.884151   5.914525   4.898252
    43  H    6.259457   5.303308   5.179047   3.056820   5.352782
    44  H    5.590930   4.352492   3.961985   2.523903   4.484181
    45  H    5.163267   4.616976   4.286729   2.457443   5.117605
    46  H    4.355285   3.808451   4.114847   1.733200   3.983022
    47  H    5.923999   4.239517   4.405146   2.899959   3.600795
    48  H    7.593155   6.509237   7.310455   5.778701   5.593437
                   26         27         28         29         30
    26  C    0.000000
    27  H    1.082931   0.000000
    28  C    2.463011   2.660896   0.000000
    29  O    2.795557   2.548476   1.207068   0.000000
    30  N    3.644478   3.960743   1.367955   2.276693   0.000000
    31  H    4.421512   4.548730   2.001146   2.463064   1.009518
    32  H    3.838097   4.292534   2.030268   3.098021   1.010603
    33  H    5.237098   5.814155   7.533778   7.995058   8.436953
    34  C    4.289239   3.587265   5.292611   5.122116   6.181206
    35  C    2.931643   2.906113   3.502520   3.968200   4.058356
    36  C    3.455957   3.668502   3.211438   3.956760   3.295179
    37  C    5.371248   5.887764   4.693059   5.721256   4.065257
    38  C    3.989175   4.540695   3.854675   4.862591   3.665249
    39  O    2.769322   2.901623   4.157315   4.641590   4.873453
    40  S    3.625963   3.028570   3.849343   3.772704   4.551850
    41  H    5.162315   4.335955   5.946261   5.603165   6.817381
    42  H    3.834561   3.090704   5.250154   5.027597   6.309619
    43  H    6.018855   6.402349   5.397811   6.313017   4.818934
    44  H    5.478847   5.946529   4.301414   5.304806   3.418611
    45  H    5.972185   6.619528   5.408830   6.516084   4.725948
    46  H    4.293244   4.863449   4.694761   5.651638   4.678985
    47  H    4.116723   4.167797   3.253153   3.868836   3.085877
    48  H    4.796213   4.282560   5.912366   5.919827   6.691904
                   31         32         33         34         35
    31  H    0.000000
    32  H    1.701749   0.000000
    33  H    9.375963   8.273174   0.000000
    34  C    6.474672   6.205913   7.295703   0.000000
    35  C    4.580470   3.772924   6.588085   2.794819   0.000000
    36  C    3.798969   2.762424   7.301109   4.036115   1.364041
    37  C    4.525855   3.092327   8.430512   6.424252   3.765722
    38  C    4.338619   2.835452   7.037493   5.278592   2.513358
    39  O    5.543062   4.575730   5.418724   2.906864   1.274900
    40  S    4.754593   4.586892   7.728899   1.802023   1.814855
    41  H    6.977016   6.921673   8.248985   1.088484   3.732898
    42  H    6.699798   6.409873   6.525351   1.086887   3.123060
    43  H    5.143213   3.909007   9.010122   6.334923   3.925298
    44  H    3.725975   2.463431   9.059576   6.746248   4.129530
    45  H    5.255549   3.717796   8.498769   7.334184   4.635087
    46  H    5.390532   3.889668   6.493517   5.238643   2.673455
    47  H    3.306955   2.627574   8.339354   4.332335   2.104190
    48  H    7.045286   6.559774   7.185638   1.088253   2.871511
                   36         37         38         39         40
    36  C    0.000000
    37  C    2.509560   0.000000
    38  C    1.494740   1.526527   0.000000
    39  O    2.357168   4.385640   2.948725   0.000000
    40  S    2.682469   5.118699   4.124783   2.676034   0.000000
    41  H    4.864691   7.232454   6.193346   3.983124   2.351721
    42  H    4.452365   6.882090   5.585908   2.899459   2.429010
    43  H    2.775467   1.090448   2.167137   4.612791   5.109591
    44  H    2.770012   1.094218   2.175224   4.937754   5.235834
    45  H    3.461585   1.090766   2.180565   5.056520   6.117110
    46  H    2.125284   2.166606   1.093636   2.692090   4.424114
    47  H    1.084882   2.649070   2.225475   3.294899   2.717334
    48  H    4.084730   6.261880   5.155024   2.782342   2.411035
                   41         42         43         44         45
    41  H    0.000000
    42  H    1.772740   0.000000
    43  H    7.062725   6.935652   0.000000
    44  H    7.477690   7.215195   1.756473   0.000000
    45  H    8.192460   7.726726   1.768539   1.764125   0.000000
    46  H    6.213949   5.507141   2.525912   3.080322   2.519834
    47  H    4.973671   4.898741   2.745228   2.559167   3.719653
    48  H    1.774888   1.775203   6.061354   6.738765   7.109198
                   46         47         48
    46  H    0.000000
    47  H    3.014639   0.000000
    48  H    4.917645   4.488342   0.000000
 Stoichiometry    C16H24N2O5S
 Framework group  C1[X(C16H24N2O5S)]
 Deg. of freedom   138
 Full point group                 C1      NOp   1
 Largest Abelian subgroup         C1      NOp   1
 Largest concise Abelian subgroup C1      NOp   1
                         Standard orientation:                         
 ---------------------------------------------------------------------
 Center     Atomic      Atomic             Coordinates (Angstroms)
 Number     Number       Type             X           Y           Z
 ---------------------------------------------------------------------
      1          6           0        4.699635   -1.840811    0.705118
      2          1           0        4.705574   -2.796746    0.182495
      3          1           0        5.703323   -1.646712    1.083870
      4          6           0        2.466793    0.514505    0.704872
      5          1           0        2.257683   -0.132285    1.568833
      6          8           0        1.946055    1.780520    0.857369
      7          1           0        0.944695    1.684181    0.980140
      8          6           0        3.974357    0.590089    0.447139
      9          1           0        4.539761    0.709167    1.376475
     10          8           0        4.236590    1.637917   -0.451883
     11          1           0        3.650385    2.366491   -0.200960
     12          6           0        2.024250   -0.217446   -0.577843
     13          1           0        1.824724    0.502979   -1.374554
     14          6           0        4.274649   -0.734963   -0.238098
     15          1           0        5.020412   -0.579584   -1.017874
     16          8           0        3.042219   -1.109156   -0.898109
     17          7           0        0.781646   -1.016034   -0.425375
     18          6           0        0.815275   -2.111841    0.359492
     19          1           0        1.773784   -2.349328    0.794222
     20          6           0       -0.310629   -2.871751    0.533067
     21          1           0       -0.265400   -3.752048    1.156799
     22          6           0       -1.484703   -2.505753   -0.117687
     23          1           0       -2.371226   -3.120152   -0.030630
     24          1           0       -2.514145   -1.383231    1.658170
     25          6           0       -1.498853   -1.373699   -0.919839
     26          6           0       -0.331184   -0.641286   -1.052874
     27          1           0       -0.299814    0.250192   -1.666896
     28          6           0       -2.667839   -0.959546   -1.763630
     29          8           0       -2.493617   -0.373119   -2.804189
     30          7           0       -3.887650   -1.391289   -1.319827
     31          1           0       -4.667006   -1.010692   -1.836427
     32          1           0       -4.016904   -1.419953   -0.317934
     33          1           0        4.024865   -1.912861    1.561534
     34          6           0       -0.357930    3.592337   -0.364912
     35          6           0       -1.637690    1.335223    0.673678
     36          6           0       -2.781632    0.668760    1.002053
     37          6           0       -4.225666   -0.560969    2.645351
     38          6           0       -2.830793   -0.399275    2.046627
     39          8           0       -0.464318    1.087581    1.106394
     40         16           0       -1.855524    2.616417   -0.593125
     41          1           0       -0.508634    4.516274   -0.920273
     42          1           0        0.522798    3.084639   -0.749468
     43          1           0       -4.552274    0.365963    3.117793
     44          1           0       -4.961098   -0.802939    1.872109
     45          1           0       -4.255815   -1.355913    3.391626
     46          1           0       -2.101764   -0.174975    2.830364
     47          1           0       -3.717611    1.028354    0.587802
     48          1           0       -0.209575    3.826383    0.687471
 ---------------------------------------------------------------------
 Rotational constants (GHZ):           0.3329215           0.1632969           0.1403874
 Leave Link  202 at Sat Aug 13 20:48:18 2022, MaxMem=  2684354560 cpu:               0.4 elap:               0.1
 (Enter /storage/apps/GAUSSIAN/G16_RevA03/g16/l301.exe)
 Standard basis: def2TZVP (5D, 7F)
 Ernie: Thresh=  0.10000D-02 Tol=  0.10000D-05 Strict=F.
 There are  1014 symmetry adapted cartesian basis functions of A   symmetry.
 There are   894 symmetry adapted basis functions of A   symmetry.
   894 basis functions,  1434 primitive gaussians,  1014 cartesian basis functions
    95 alpha electrons       95 beta electrons
       nuclear repulsion energy      2495.2358178531 Hartrees.
 IExCor= 4336 DFT=T Ex+Corr=M062X ExCW=0 ScaHFX=  0.540000
 ScaDFX=  1.000000  1.000000  1.000000  1.000000 ScalE2=  1.000000  1.000000
 IRadAn=      5 IRanWt=     -1 IRanGd=            0 ICorTp=0 IEmpDi=131
 NAtoms=   48 NActive=   48 NUniq=   48 SFac= 1.00D+00 NAtFMM=   60 NAOKFM=F Big=F
 Integral buffers will be    131072 words long.
 Raffenetti 2 integral format.
 Two-electron integral symmetry is turned on.
 R6Disp:  Grimme-D3 Dispersion energy=       -0.0042610088 Hartrees.
 Nuclear repulsion after empirical dispersion term =     2495.2315568444 Hartrees.
 Leave Link  301 at Sat Aug 13 20:48:18 2022, MaxMem=  2684354560 cpu:               1.7 elap:               0.1
 (Enter /storage/apps/GAUSSIAN/G16_RevA03/g16/l302.exe)
 NPDir=0 NMtPBC=     1 NCelOv=     1 NCel=       1 NClECP=     1 NCelD=      1
         NCelK=      1 NCelE2=     1 NClLst=     1 CellRange=     0.0.
 One-electron integrals computed using PRISM.
 One-electron integral symmetry used in STVInt
   1 Symmetry operations used in ECPInt.
 ECPInt:  NShTT=   65703 NPrTT=  200010 LenC2=   56889 LenP2D=  121108.
 LDataN:  DoStor=T MaxTD1= 6 Len=  172
 NBasis=   894 RedAO= T EigKep=  1.98D-05  NBF=   894
 NBsUse=   894 1.00D-06 EigRej= -1.00D+00 NBFU=   894
 Precomputing XC quadrature grid using
 IXCGrd= 4 IRadAn=           5 IRanWt=          -1 IRanGd=           0 AccXCQ= 0.00D+00.
 Generated NRdTot=       0 NPtTot=           0 NUsed=           0 NTot=          32
 NSgBfM=  1000  1000  1000  1000  1000 MxSgAt=    48 MxSgA2=    48.
 Leave Link  302 at Sat Aug 13 20:48:19 2022, MaxMem=  2684354560 cpu:              20.0 elap:               1.3
 (Enter /storage/apps/GAUSSIAN/G16_RevA03/g16/l303.exe)
 DipDrv:  MaxL=1.
 Leave Link  303 at Sat Aug 13 20:48:19 2022, MaxMem=  2684354560 cpu:               2.2 elap:               0.2
 (Enter /storage/apps/GAUSSIAN/G16_RevA03/g16/l401.exe)
 ExpMin= 9.52D-02 ExpMax= 6.07D+04 ExpMxC= 2.07D+03 IAcc=3 IRadAn=         5 AccDes= 0.00D+00
 Harris functional with IExCor= 1009 and IRadAn=       5 diagonalized for initial guess.
 HarFok:  IExCor= 1009 AccDes= 0.00D+00 IRadAn=         5 IDoV= 1 UseB2=F ITyADJ=14
 ICtDFT=  3500011 ScaDFX=  1.000000  1.000000  1.000000  1.000000
 FoFCou: FMM=F IPFlag=           0 FMFlag=      100000 FMFlg1=           0
         NFxFlg=           0 DoJE=T BraDBF=F KetDBF=T FulRan=T
         wScrn=  0.000000 ICntrl=       500 IOpCl=  0 I1Cent=   200000004 NGrid=           0
         NMat0=    1 NMatS0=      1 NMatT0=    0 NMatD0=    1 NMtDS0=    0 NMtDT0=    0
 Petite list used in FoFCou.
 Harris En= -1507.24568540189    
 JPrj=0 DoOrth=F DoCkMO=F.
 Leave Link  401 at Sat Aug 13 20:48:23 2022, MaxMem=  2684354560 cpu:              62.8 elap:               4.0
 (Enter /storage/apps/GAUSSIAN/G16_RevA03/g16/l502.exe)
 Integral symmetry usage will be decided dynamically.
 Closed shell SCF:
 Using DIIS extrapolation, IDIIS=  1040.
 NGot=  2684354560 LenX=  2682272944 LenY=  2681243734
 Requested convergence on RMS density matrix=1.00D-08 within 128 cycles.
 Requested convergence on MAX density matrix=1.00D-06.
 Requested convergence on             energy=1.00D-06.
 No special actions if energy rises.
 Fock matrices will be formed incrementally for  20 cycles.
 Integral accuracy reduced to 1.0D-05 until final iterations.

 Cycle   1  Pass 0  IDiag  1:
 FoFJK:  IHMeth= 1 ICntrl=       0 DoSepK=F KAlg= 0 I1Cent=           0 FoldK=F
 IRaf= 790000000 NMat=       1 IRICut=       1 DoRegI=T DoRafI=F ISym2E= 0 IDoP0=0 IntGTp=1.
 FoFCou: FMM=F IPFlag=           0 FMFlag=      100000 FMFlg1=           0
         NFxFlg=           0 DoJE=F BraDBF=F KetDBF=F FulRan=T
         wScrn=  0.000000 ICntrl=         0 IOpCl=  0 I1Cent=           0 NGrid=           0
         NMat0=    1 NMatS0=      1 NMatT0=    0 NMatD0=    1 NMtDS0=    0 NMtDT0=    0
 Symmetry not used in FoFCou.
 E= -1507.17096270020    
 DIIS: error= 1.98D-02 at cycle   1 NSaved=   1.
 NSaved= 1 IEnMin= 1 EnMin= -1507.17096270020     IErMin= 1 ErrMin= 1.98D-02
 ErrMax= 1.98D-02  0.00D+00 EMaxC= 1.00D-01 BMatC= 9.91D-01 BMatP= 9.91D-01
 IDIUse=3 WtCom= 8.02D-01 WtEn= 1.98D-01
 Coeff-Com:  0.100D+01
 Coeff-En:   0.100D+01
 Coeff:      0.100D+01
 Gap=     0.173 Goal=   None    Shift=    0.000
 GapD=    0.173 DampG=1.000 DampE=0.500 DampFc=0.5000 IDamp=-1.
 Damping current iteration by 5.00D-01
 RMSDP=3.98D-03 MaxDP=7.43D-01              OVMax= 5.07D-01

 Cycle   2  Pass 0  IDiag  1:
 RMSU=  1.99D-03    CP:  1.01D+00
 E= -1507.48503500498     Delta-E=       -0.314072304778 Rises=F Damp=T
 DIIS: error= 4.14D-03 at cycle   2 NSaved=   2.
 NSaved= 2 IEnMin= 2 EnMin= -1507.48503500498     IErMin= 2 ErrMin= 4.14D-03
 ErrMax= 4.14D-03  0.00D+00 EMaxC= 1.00D-01 BMatC= 9.24D-02 BMatP= 9.91D-01
 IDIUse=3 WtCom= 9.59D-01 WtEn= 4.14D-02
 Coeff-Com:  0.156D-02 0.998D+00
 Coeff-En:   0.972D-01 0.903D+00
 Coeff:      0.552D-02 0.994D+00
 Gap=     0.167 Goal=   None    Shift=    0.000
 RMSDP=1.36D-03 MaxDP=1.82D-01 DE=-3.14D-01 OVMax= 3.59D-01

 Cycle   3  Pass 0  IDiag  1:
 RMSU=  1.16D-03    CP:  9.99D-01  6.49D-01
 E= -1507.85163419120     Delta-E=       -0.366599186225 Rises=F Damp=F
 DIIS: error= 4.51D-03 at cycle   3 NSaved=   3.
 NSaved= 3 IEnMin= 3 EnMin= -1507.85163419120     IErMin= 2 ErrMin= 4.14D-03
 ErrMax= 4.51D-03  0.00D+00 EMaxC= 1.00D-01 BMatC= 5.85D-02 BMatP= 9.24D-02
 IDIUse=3 WtCom= 9.55D-01 WtEn= 4.51D-02
 Coeff-Com: -0.793D-01 0.464D+00 0.615D+00
 Coeff-En:   0.000D+00 0.000D+00 0.100D+01
 Coeff:     -0.757D-01 0.443D+00 0.633D+00
 Gap=     0.134 Goal=   None    Shift=    0.000
 RMSDP=5.27D-04 MaxDP=3.07D-02 DE=-3.67D-01 OVMax= 1.05D-01

 Cycle   4  Pass 0  IDiag  1:
 RMSU=  4.07D-04    CP:  1.00D+00  8.01D-01  8.75D-01
 E= -1507.90197985528     Delta-E=       -0.050345664077 Rises=F Damp=F
 DIIS: error= 1.34D-03 at cycle   4 NSaved=   4.
 NSaved= 4 IEnMin= 4 EnMin= -1507.90197985528     IErMin= 4 ErrMin= 1.34D-03
 ErrMax= 1.34D-03  0.00D+00 EMaxC= 1.00D-01 BMatC= 6.56D-03 BMatP= 5.85D-02
 IDIUse=3 WtCom= 9.87D-01 WtEn= 1.34D-02
 Coeff-Com: -0.389D-01 0.104D+00 0.287D+00 0.648D+00
 Coeff-En:   0.000D+00 0.000D+00 0.000D+00 0.100D+01
 Coeff:     -0.383D-01 0.103D+00 0.283D+00 0.652D+00
 Gap=     0.144 Goal=   None    Shift=    0.000
 RMSDP=1.77D-04 MaxDP=2.86D-02 DE=-5.03D-02 OVMax= 3.51D-02

 Cycle   5  Pass 0  IDiag  1:
 RMSU=  1.63D-04    CP:  1.00D+00  7.95D-01  9.28D-01  9.31D-01
 E= -1507.90772036303     Delta-E=       -0.005740507750 Rises=F Damp=F
 DIIS: error= 5.42D-04 at cycle   5 NSaved=   5.
 NSaved= 5 IEnMin= 5 EnMin= -1507.90772036303     IErMin= 5 ErrMin= 5.42D-04
 ErrMax= 5.42D-04  0.00D+00 EMaxC= 1.00D-01 BMatC= 5.03D-04 BMatP= 6.56D-03
 IDIUse=3 WtCom= 9.95D-01 WtEn= 5.42D-03
 Coeff-Com: -0.117D-01 0.211D-01 0.809D-01 0.292D+00 0.618D+00
 Coeff-En:   0.000D+00 0.000D+00 0.000D+00 0.000D+00 0.100D+01
 Coeff:     -0.117D-01 0.210D-01 0.805D-01 0.290D+00 0.620D+00
 Gap=     0.145 Goal=   None    Shift=    0.000
 RMSDP=5.71D-05 MaxDP=5.34D-03 DE=-5.74D-03 OVMax= 6.20D-03

 Cycle   6  Pass 0  IDiag  1:
 RMSU=  5.41D-05    CP:  1.00D+00  7.94D-01  9.25D-01  9.71D-01  9.55D-01
 E= -1507.90821175872     Delta-E=       -0.000491395688 Rises=F Damp=F
 DIIS: error= 1.72D-04 at cycle   6 NSaved=   6.
 NSaved= 6 IEnMin= 6 EnMin= -1507.90821175872     IErMin= 6 ErrMin= 1.72D-04
 ErrMax= 1.72D-04  0.00D+00 EMaxC= 1.00D-01 BMatC= 6.16D-05 BMatP= 5.03D-04
 IDIUse=3 WtCom= 9.98D-01 WtEn= 1.72D-03
 Coeff-Com:  0.356D-04-0.396D-02-0.706D-02 0.397D-01 0.281D+00 0.690D+00
 Coeff-En:   0.000D+00 0.000D+00 0.000D+00 0.000D+00 0.000D+00 0.100D+01
 Coeff:      0.356D-04-0.395D-02-0.705D-02 0.397D-01 0.280D+00 0.691D+00
 Gap=     0.145 Goal=   None    Shift=    0.000
 RMSDP=4.22D-05 MaxDP=7.04D-03 DE=-4.91D-04 OVMax= 6.11D-03

 Cycle   7  Pass 0  IDiag  1:
 RMSU=  2.10D-05    CP:  1.00D+00  7.97D-01  9.31D-01  1.01D+00  1.15D+00
                    CP:  1.03D+00
 E= -1507.90829410542     Delta-E=       -0.000082346708 Rises=F Damp=F
 DIIS: error= 5.39D-05 at cycle   7 NSaved=   7.
 NSaved= 7 IEnMin= 7 EnMin= -1507.90829410542     IErMin= 7 ErrMin= 5.39D-05
 ErrMax= 5.39D-05  0.00D+00 EMaxC= 1.00D-01 BMatC= 5.72D-06 BMatP= 6.16D-05
 IDIUse=1 WtCom= 1.00D+00 WtEn= 0.00D+00
 Coeff-Com:  0.162D-02-0.422D-02-0.152D-01-0.249D-01 0.216D-01 0.233D+00
 Coeff-Com:  0.788D+00
 Coeff:      0.162D-02-0.422D-02-0.152D-01-0.249D-01 0.216D-01 0.233D+00
 Coeff:      0.788D+00
 Gap=     0.145 Goal=   None    Shift=    0.000
 RMSDP=1.99D-05 MaxDP=2.49D-03 DE=-8.23D-05 OVMax= 3.69D-03

 Cycle   8  Pass 0  IDiag  1:
 RMSU=  1.14D-05    CP:  1.00D+00  7.96D-01  9.29D-01  1.02D+00  1.22D+00
                    CP:  1.18D+00  1.25D+00
 E= -1507.90830147743     Delta-E=       -0.000007372004 Rises=F Damp=F
 DIIS: error= 3.14D-05 at cycle   8 NSaved=   8.
 NSaved= 8 IEnMin= 8 EnMin= -1507.90830147743     IErMin= 8 ErrMin= 3.14D-05
 ErrMax= 3.14D-05  0.00D+00 EMaxC= 1.00D-01 BMatC= 1.52D-06 BMatP= 5.72D-06
 IDIUse=1 WtCom= 1.00D+00 WtEn= 0.00D+00
 Coeff-Com:  0.750D-03-0.134D-02-0.697D-02-0.180D-01-0.324D-01 0.336D-03
 Coeff-Com:  0.365D+00 0.693D+00
 Coeff:      0.750D-03-0.134D-02-0.697D-02-0.180D-01-0.324D-01 0.336D-03
 Coeff:      0.365D+00 0.693D+00
 Gap=     0.145 Goal=   None    Shift=    0.000
 RMSDP=1.61D-05 MaxDP=1.65D-03 DE=-7.37D-06 OVMax= 2.20D-03

 Cycle   9  Pass 0  IDiag  1:
 RMSU=  1.24D-05    CP:  1.00D+00  7.95D-01  9.28D-01  1.03D+00  1.24D+00
                    CP:  1.26D+00  1.45D+00  1.64D+00
 E= -1507.90829778255     Delta-E=        0.000003694873 Rises=F Damp=F
 DIIS: error= 1.50D-05 at cycle   9 NSaved=   9.
 NSaved= 9 IEnMin= 8 EnMin= -1507.90830147743     IErMin= 9 ErrMin= 1.50D-05
 ErrMax= 1.50D-05  0.00D+00 EMaxC= 1.00D-01 BMatC= 3.98D-07 BMatP= 1.52D-06
 IDIUse=1 WtCom= 1.00D+00 WtEn= 0.00D+00
 Coeff-Com:  0.212D-03-0.273D-03-0.230D-02-0.657D-02-0.200D-01-0.284D-01
 Coeff-Com:  0.822D-01 0.349D+00 0.626D+00
 Coeff:      0.212D-03-0.273D-03-0.230D-02-0.657D-02-0.200D-01-0.284D-01
 Coeff:      0.822D-01 0.349D+00 0.626D+00
 Gap=     0.145 Goal=   None    Shift=    0.000
 RMSDP=2.06D-05 MaxDP=2.60D-03 DE= 3.69D-06 OVMax= 9.03D-04

 Cycle  10  Pass 0  IDiag  1:
 RMSU=  7.55D-06    CP:  1.00D+00  7.95D-01  9.28D-01  1.03D+00  1.25D+00
                    CP:  1.33D+00  1.56D+00  2.34D+00  2.36D+00
 E= -1507.90829415367     Delta-E=        0.000003628887 Rises=F Damp=F
 DIIS: error= 2.48D-05 at cycle  10 NSaved=  10.
 NSaved=10 IEnMin= 8 EnMin= -1507.90830147743     IErMin= 9 ErrMin= 1.50D-05
 ErrMax= 2.48D-05  0.00D+00 EMaxC= 1.00D-01 BMatC= 4.10D-07 BMatP= 3.98D-07
 IDIUse=1 WtCom= 1.00D+00 WtEn= 0.00D+00
 Coeff-Com:  0.213D-03-0.274D-03-0.230D-02-0.659D-02-0.201D-01-0.285D-01
 Coeff-Com:  0.824D-01 0.350D+00 0.629D+00-0.380D-02
 Coeff:      0.213D-03-0.274D-03-0.230D-02-0.659D-02-0.201D-01-0.285D-01
 Coeff:      0.824D-01 0.350D+00 0.629D+00-0.380D-02
 Gap=     0.145 Goal=   None    Shift=    0.000
 RMSDP=1.85D-07 MaxDP=2.45D-05 DE= 3.63D-06 OVMax= 2.05D-06

 Initial convergence to 1.0D-05 achieved.  Increase integral accuracy.
 Cycle  11  Pass 1  IDiag  1:
 E= -1507.90818800966     Delta-E=        0.000106144004 Rises=F Damp=F
 DIIS: error= 3.33D-04 at cycle   1 NSaved=   1.
 NSaved= 1 IEnMin= 1 EnMin= -1507.90818800966     IErMin= 1 ErrMin= 3.33D-04
 ErrMax= 3.33D-04  0.00D+00 EMaxC= 1.00D-01 BMatC= 9.53D-05 BMatP= 9.53D-05
 IDIUse=3 WtCom= 9.97D-01 WtEn= 3.33D-03
 Coeff-Com:  0.100D+01
 Coeff-En:   0.100D+01
 Coeff:      0.100D+01
 Gap=     0.145 Goal=   None    Shift=    0.000
 RMSDP=1.85D-07 MaxDP=2.45D-05 DE= 1.06D-04 OVMax= 1.04D-03

 Cycle  12  Pass 1  IDiag  1:
 RMSU=  5.79D-04    CP:  9.90D-01
 E= -1507.90825020557     Delta-E=       -0.000062195911 Rises=F Damp=F
 DIIS: error= 1.05D-05 at cycle   2 NSaved=   2.
 NSaved= 2 IEnMin= 2 EnMin= -1507.90825020557     IErMin= 2 ErrMin= 1.05D-05
 ErrMax= 1.05D-05  0.00D+00 EMaxC= 1.00D-01 BMatC= 1.49D-07 BMatP= 9.53D-05
 IDIUse=1 WtCom= 1.00D+00 WtEn= 0.00D+00
 Coeff-Com: -0.157D-01 0.102D+01
 Coeff:     -0.157D-01 0.102D+01
 Gap=     0.145 Goal=   None    Shift=    0.000
 RMSDP=2.19D-05 MaxDP=1.99D-03 DE=-6.22D-05 OVMax= 4.00D-04

 Cycle  13  Pass 1  IDiag  1:
 RMSU=  8.33D-06    CP:  9.89D-01  1.03D+00
 E= -1507.90825022016     Delta-E=       -0.000000014586 Rises=F Damp=F
 DIIS: error= 8.67D-06 at cycle   3 NSaved=   3.
 NSaved= 3 IEnMin= 3 EnMin= -1507.90825022016     IErMin= 3 ErrMin= 8.67D-06
 ErrMax= 8.67D-06  0.00D+00 EMaxC= 1.00D-01 BMatC= 2.48D-07 BMatP= 1.49D-07
 IDIUse=1 WtCom= 1.00D+00 WtEn= 0.00D+00
 Coeff-Com: -0.105D-01 0.601D+00 0.410D+00
 Coeff:     -0.105D-01 0.601D+00 0.410D+00
 Gap=     0.145 Goal=   None    Shift=    0.000
 RMSDP=9.33D-07 MaxDP=9.83D-05 DE=-1.46D-08 OVMax= 1.06D-04

 Cycle  14  Pass 1  IDiag  1:
 RMSU=  8.71D-07    CP:  9.89D-01  1.04D+00  1.01D+00
 E= -1507.90825042211     Delta-E=       -0.000000201954 Rises=F Damp=F
 DIIS: error= 1.66D-06 at cycle   4 NSaved=   4.
 NSaved= 4 IEnMin= 4 EnMin= -1507.90825042211     IErMin= 4 ErrMin= 1.66D-06
 ErrMax= 1.66D-06  0.00D+00 EMaxC= 1.00D-01 BMatC= 3.81D-09 BMatP= 1.49D-07
 IDIUse=1 WtCom= 1.00D+00 WtEn= 0.00D+00
 Coeff-Com: -0.837D-03 0.357D-01 0.906D-01 0.875D+00
 Coeff:     -0.837D-03 0.357D-01 0.906D-01 0.875D+00
 Gap=     0.145 Goal=   None    Shift=    0.000
 RMSDP=5.70D-07 MaxDP=5.17D-05 DE=-2.02D-07 OVMax= 1.09D-04

 Cycle  15  Pass 1  IDiag  1:
 RMSU=  3.13D-07    CP:  9.89D-01  1.04D+00  1.05D+00  9.98D-01
 E= -1507.90825043136     Delta-E=       -0.000000009245 Rises=F Damp=F
 DIIS: error= 1.07D-06 at cycle   5 NSaved=   5.
 NSaved= 5 IEnMin= 5 EnMin= -1507.90825043136     IErMin= 5 ErrMin= 1.07D-06
 ErrMax= 1.07D-06  0.00D+00 EMaxC= 1.00D-01 BMatC= 1.62D-09 BMatP= 3.81D-09
 IDIUse=1 WtCom= 1.00D+00 WtEn= 0.00D+00
 Coeff-Com:  0.898D-03-0.580D-01-0.110D-01 0.442D+00 0.626D+00
 Coeff:      0.898D-03-0.580D-01-0.110D-01 0.442D+00 0.626D+00
 Gap=     0.145 Goal=   None    Shift=    0.000
 RMSDP=1.94D-07 MaxDP=1.92D-05 DE=-9.25D-09 OVMax= 6.06D-05

 Cycle  16  Pass 1  IDiag  1:
 RMSU=  1.13D-07    CP:  9.89D-01  1.04D+00  1.06D+00  1.02D+00  1.35D+00
 E= -1507.90825043483     Delta-E=       -0.000000003470 Rises=F Damp=F
 DIIS: error= 4.19D-07 at cycle   6 NSaved=   6.
 NSaved= 6 IEnMin= 6 EnMin= -1507.90825043483     IErMin= 6 ErrMin= 4.19D-07
 ErrMax= 4.19D-07  0.00D+00 EMaxC= 1.00D-01 BMatC= 2.30D-10 BMatP= 1.62D-09
 IDIUse=1 WtCom= 1.00D+00 WtEn= 0.00D+00
 Coeff-Com:  0.454D-03-0.261D-01-0.235D-01-0.198D-01 0.227D+00 0.842D+00
 Coeff:      0.454D-03-0.261D-01-0.235D-01-0.198D-01 0.227D+00 0.842D+00
 Gap=     0.145 Goal=   None    Shift=    0.000
 RMSDP=1.19D-07 MaxDP=1.45D-05 DE=-3.47D-09 OVMax= 4.15D-05

 Cycle  17  Pass 1  IDiag  1:
 RMSU=  6.14D-08    CP:  9.89D-01  1.04D+00  1.06D+00  1.02D+00  1.64D+00
                    CP:  1.32D+00
 E= -1507.90825043576     Delta-E=       -0.000000000934 Rises=F Damp=F
 DIIS: error= 2.00D-07 at cycle   7 NSaved=   7.
 NSaved= 7 IEnMin= 7 EnMin= -1507.90825043576     IErMin= 7 ErrMin= 2.00D-07
 ErrMax= 2.00D-07  0.00D+00 EMaxC= 1.00D-01 BMatC= 6.35D-11 BMatP= 2.30D-10
 IDIUse=1 WtCom= 1.00D+00 WtEn= 0.00D+00
 Coeff-Com: -0.729D-04 0.639D-02-0.101D-01-0.161D+00-0.693D-01 0.451D+00
 Coeff-Com:  0.783D+00
 Coeff:     -0.729D-04 0.639D-02-0.101D-01-0.161D+00-0.693D-01 0.451D+00
 Coeff:      0.783D+00
 Gap=     0.145 Goal=   None    Shift=    0.000
 RMSDP=8.32D-08 MaxDP=1.18D-05 DE=-9.34D-10 OVMax= 2.79D-05

 Cycle  18  Pass 1  IDiag  1:
 RMSU=  2.79D-08    CP:  9.89D-01  1.04D+00  1.06D+00  1.02D+00  1.83D+00
                    CP:  1.63D+00  1.42D+00
 E= -1507.90825043600     Delta-E=       -0.000000000236 Rises=F Damp=F
 DIIS: error= 4.67D-08 at cycle   8 NSaved=   8.
 NSaved= 8 IEnMin= 8 EnMin= -1507.90825043600     IErMin= 8 ErrMin= 4.67D-08
 ErrMax= 4.67D-08  0.00D+00 EMaxC= 1.00D-01 BMatC= 4.33D-12 BMatP= 6.35D-11
 IDIUse=1 WtCom= 1.00D+00 WtEn= 0.00D+00
 Coeff-Com: -0.670D-04 0.463D-02-0.162D-02-0.540D-01-0.412D-01 0.744D-01
 Coeff-Com:  0.282D+00 0.735D+00
 Coeff:     -0.670D-04 0.463D-02-0.162D-02-0.540D-01-0.412D-01 0.744D-01
 Coeff:      0.282D+00 0.735D+00
 Gap=     0.145 Goal=   None    Shift=    0.000
 RMSDP=1.54D-08 MaxDP=1.74D-06 DE=-2.36D-10 OVMax= 5.08D-06

 Cycle  19  Pass 1  IDiag  1:
 RMSU=  4.91D-09    CP:  9.89D-01  1.04D+00  1.06D+00  1.02D+00  1.85D+00
                    CP:  1.69D+00  1.56D+00  1.11D+00
 E= -1507.90825043607     Delta-E=       -0.000000000075 Rises=F Damp=F
 DIIS: error= 1.54D-08 at cycle   9 NSaved=   9.
 NSaved= 9 IEnMin= 9 EnMin= -1507.90825043607     IErMin= 9 ErrMin= 1.54D-08
 ErrMax= 1.54D-08  0.00D+00 EMaxC= 1.00D-01 BMatC= 4.77D-13 BMatP= 4.33D-12
 IDIUse=1 WtCom= 1.00D+00 WtEn= 0.00D+00
 Coeff-Com: -0.112D-04 0.579D-03 0.783D-03 0.457D-02-0.301D-02-0.445D-01
 Coeff-Com: -0.187D-01 0.224D+00 0.836D+00
 Coeff:     -0.112D-04 0.579D-03 0.783D-03 0.457D-02-0.301D-02-0.445D-01
 Coeff:     -0.187D-01 0.224D+00 0.836D+00
 Gap=     0.145 Goal=   None    Shift=    0.000
 RMSDP=7.08D-09 MaxDP=1.08D-06 DE=-7.55D-11 OVMax= 2.00D-06

 Cycle  20  Pass 1  IDiag  1:
 RMSU=  2.34D-09    CP:  9.89D-01  1.04D+00  1.06D+00  1.02D+00  1.87D+00
                    CP:  1.71D+00  1.62D+00  1.20D+00  1.23D+00
 E= -1507.90825043603     Delta-E=        0.000000000039 Rises=F Damp=F
 DIIS: error= 6.58D-09 at cycle  10 NSaved=  10.
 NSaved=10 IEnMin= 9 EnMin= -1507.90825043607     IErMin=10 ErrMin= 6.58D-09
 ErrMax= 6.58D-09  0.00D+00 EMaxC= 1.00D-01 BMatC= 1.17D-13 BMatP= 4.77D-13
 IDIUse=1 WtCom= 1.00D+00 WtEn= 0.00D+00
 Coeff-Com:  0.346D-05-0.330D-03 0.545D-03 0.909D-02 0.472D-02-0.281D-01
 Coeff-Com: -0.441D-01 0.250D-02 0.394D+00 0.662D+00
 Coeff:      0.346D-05-0.330D-03 0.545D-03 0.909D-02 0.472D-02-0.281D-01
 Coeff:     -0.441D-01 0.250D-02 0.394D+00 0.662D+00
 Gap=     0.145 Goal=   None    Shift=    0.000
 RMSDP=1.30D-09 MaxDP=9.38D-08 DE= 3.87D-11 OVMax= 3.45D-07

 SCF Done:  E(RM062X) =  -1507.90825044     A.U. after   20 cycles
            NFock= 20  Conv=0.13D-08     -V/T= 2.0037
 KE= 1.502288000140D+03 PE=-8.527928835631D+03 EE= 3.022501028211D+03
 Leave Link  502 at Sat Aug 13 20:58:22 2022, MaxMem=  2684354560 cpu:            9558.5 elap:             598.1
 (Enter /storage/apps/GAUSSIAN/G16_RevA03/g16/l601.exe)
 Copying SCF densities to generalized density rwf, IOpCl= 0 IROHF=0.

 **********************************************************************

            Population analysis using the SCF density.

 **********************************************************************

 Orbital symmetries:
       Occupied  (A) (A) (A) (A) (A) (A) (A) (A) (A) (A) (A) (A)
                 (A) (A) (A) (A) (A) (A) (A) (A) (A) (A) (A) (A)
                 (A) (A) (A) (A) (A) (A) (A) (A) (A) (A) (A) (A)
                 (A) (A) (A) (A) (A) (A) (A) (A) (A) (A) (A) (A)
                 (A) (A) (A) (A) (A) (A) (A) (A) (A) (A) (A) (A)
                 (A) (A) (A) (A) (A) (A) (A) (A) (A) (A) (A) (A)
                 (A) (A) (A) (A) (A) (A) (A) (A) (A) (A) (A) (A)
                 (A) (A) (A) (A) (A) (A) (A) (A) (A) (A) (A)
       Virtual   (A) (A) (A) (A) (A) (A) (A) (A) (A) (A) (A) (A)
                 (A) (A) (A) (A) (A) (A) (A) (A) (A) (A) (A) (A)
                 (A) (A) (A) (A) (A) (A) (A) (A) (A) (A) (A) (A)
                 (A) (A) (A) (A) (A) (A) (A) (A) (A) (A) (A) (A)
                 (A) (A) (A) (A) (A) (A) (A) (A) (A) (A) (A) (A)
                 (A) (A) (A) (A) (A) (A) (A) (A) (A) (A) (A) (A)
                 (A) (A) (A) (A) (A) (A) (A) (A) (A) (A) (A) (A)
                 (A) (A) (A) (A) (A) (A) (A) (A) (A) (A) (A) (A)
                 (A) (A) (A) (A) (A) (A) (A) (A) (A) (A) (A) (A)
                 (A) (A) (A) (A) (A) (A) (A) (A) (A) (A) (A) (A)
                 (A) (A) (A) (A) (A) (A) (A) (A) (A) (A) (A) (A)
                 (A) (A) (A) (A) (A) (A) (A) (A) (A) (A) (A) (A)
                 (A) (A) (A) (A) (A) (A) (A) (A) (A) (A) (A) (A)
                 (A) (A) (A) (A) (A) (A) (A) (A) (A) (A) (A) (A)
                 (A) (A) (A) (A) (A) (A) (A) (A) (A) (A) (A) (A)
                 (A) (A) (A) (A) (A) (A) (A) (A) (A) (A) (A) (A)
                 (A) (A) (A) (A) (A) (A) (A) (A) (A) (A) (A) (A)
                 (A) (A) (A) (A) (A) (A) (A) (A) (A) (A) (A) (A)
                 (A) (A) (A) (A) (A) (A) (A) (A) (A) (A) (A) (A)
                 (A) (A) (A) (A) (A) (A) (A) (A) (A) (A) (A) (A)
                 (A) (A) (A) (A) (A) (A) (A) (A) (A) (A) (A) (A)
                 (A) (A) (A) (A) (A) (A) (A) (A) (A) (A) (A) (A)
                 (A) (A) (A) (A) (A) (A) (A) (A) (A) (A) (A) (A)
                 (A) (A) (A) (A) (A) (A) (A) (A) (A) (A) (A) (A)
                 (A) (A) (A) (A) (A) (A) (A) (A) (A) (A) (A) (A)
                 (A) (A) (A) (A) (A) (A) (A) (A) (A) (A) (A) (A)
                 (A) (A) (A) (A) (A) (A) (A) (A) (A) (A) (A) (A)
                 (A) (A) (A) (A) (A) (A) (A) (A) (A) (A) (A) (A)
                 (A) (A) (A) (A) (A) (A) (A) (A) (A) (A) (A) (A)
                 (A) (A) (A) (A) (A) (A) (A) (A) (A) (A) (A) (A)
                 (A) (A) (A) (A) (A) (A) (A) (A) (A) (A) (A) (A)
                 (A) (A) (A) (A) (A) (A) (A) (A) (A) (A) (A) (A)
                 (A) (A) (A) (A) (A) (A) (A) (A) (A) (A) (A) (A)
                 (A) (A) (A) (A) (A) (A) (A) (A) (A) (A) (A) (A)
                 (A) (A) (A) (A) (A) (A) (A) (A) (A) (A) (A) (A)
                 (A) (A) (A) (A) (A) (A) (A) (A) (A) (A) (A) (A)
                 (A) (A) (A) (A) (A) (A) (A) (A) (A) (A) (A) (A)
                 (A) (A) (A) (A) (A) (A) (A) (A) (A) (A) (A) (A)
                 (A) (A) (A) (A) (A) (A) (A) (A) (A) (A) (A) (A)
                 (A) (A) (A) (A) (A) (A) (A) (A) (A) (A) (A) (A)
                 (A) (A) (A) (A) (A) (A) (A) (A) (A) (A) (A) (A)
                 (A) (A) (A) (A) (A) (A) (A) (A) (A) (A) (A) (A)
                 (A) (A) (A) (A) (A) (A) (A) (A) (A) (A) (A) (A)
                 (A) (A) (A) (A) (A) (A) (A) (A) (A) (A) (A) (A)
                 (A) (A) (A) (A) (A) (A) (A) (A) (A) (A) (A) (A)
                 (A) (A) (A) (A) (A) (A) (A) (A) (A) (A) (A) (A)
                 (A) (A) (A) (A) (A) (A) (A) (A) (A) (A) (A) (A)
                 (A) (A) (A) (A) (A) (A) (A) (A) (A) (A) (A) (A)
                 (A) (A) (A) (A) (A) (A) (A) (A) (A) (A) (A) (A)
                 (A) (A) (A) (A) (A) (A) (A) (A) (A) (A) (A) (A)
                 (A) (A) (A) (A) (A) (A) (A) (A) (A) (A) (A) (A)
                 (A) (A) (A) (A) (A) (A) (A) (A) (A) (A) (A) (A)
                 (A) (A) (A) (A) (A) (A) (A) (A) (A) (A) (A) (A)
                 (A) (A) (A) (A) (A) (A) (A) (A) (A) (A) (A) (A)
                 (A) (A) (A) (A) (A) (A) (A) (A) (A) (A) (A) (A)
                 (A) (A) (A) (A) (A) (A) (A) (A) (A) (A) (A) (A)
                 (A) (A) (A) (A) (A) (A) (A) (A) (A) (A) (A) (A)
                 (A) (A) (A) (A) (A) (A) (A) (A) (A) (A) (A) (A)
                 (A) (A) (A) (A) (A) (A) (A) (A) (A) (A) (A) (A)
                 (A) (A) (A) (A) (A) (A) (A) (A) (A) (A) (A) (A)
                 (A) (A) (A) (A) (A) (A) (A) (A) (A) (A) (A) (A)
                 (A) (A) (A) (A) (A) (A) (A) (A) (A) (A) (A) (A)
                 (A) (A) (A) (A) (A) (A) (A) (A) (A) (A) (A) (A)
                 (A) (A) (A) (A) (A) (A) (A) (A) (A) (A) (A) (A)
                 (A) (A) (A) (A) (A) (A) (A) (A) (A) (A) (A) (A)
                 (A) (A) (A) (A) (A) (A) (A) (A) (A) (A) (A) (A)
                 (A) (A) (A) (A) (A) (A) (A)
 The electronic state is 1-A.
 Alpha  occ. eigenvalues --  -89.86547 -19.66682 -19.63163 -19.61460 -19.61261
 Alpha  occ. eigenvalues --  -19.56553 -14.88431 -14.77788 -10.66719 -10.66415
 Alpha  occ. eigenvalues --  -10.64465 -10.64122 -10.61267 -10.61079 -10.61045
 Alpha  occ. eigenvalues --  -10.60422 -10.60200 -10.60048 -10.58505 -10.55271
 Alpha  occ. eigenvalues --  -10.53469 -10.52158 -10.51855 -10.48694  -8.22443
 Alpha  occ. eigenvalues --   -6.14413  -6.14191  -6.13915  -1.22668  -1.18730
 Alpha  occ. eigenvalues --   -1.17035  -1.15915  -1.13721  -1.09848  -1.03271
 Alpha  occ. eigenvalues --   -0.98103  -0.93586  -0.90804  -0.87984  -0.87354
 Alpha  occ. eigenvalues --   -0.85141  -0.81629  -0.81012  -0.78770  -0.77099
 Alpha  occ. eigenvalues --   -0.73269  -0.71455  -0.70022  -0.69146  -0.67223
 Alpha  occ. eigenvalues --   -0.65891  -0.64047  -0.62933  -0.62626  -0.61407
 Alpha  occ. eigenvalues --   -0.60066  -0.58299  -0.58057  -0.57490  -0.56146
 Alpha  occ. eigenvalues --   -0.56078  -0.54361  -0.53454  -0.52518  -0.51912
 Alpha  occ. eigenvalues --   -0.51546  -0.50899  -0.50096  -0.49896  -0.49026
 Alpha  occ. eigenvalues --   -0.48724  -0.48043  -0.47852  -0.47172  -0.45887
 Alpha  occ. eigenvalues --   -0.45685  -0.45559  -0.44649  -0.43308  -0.43238
 Alpha  occ. eigenvalues --   -0.42362  -0.40228  -0.39614  -0.38585  -0.38128
 Alpha  occ. eigenvalues --   -0.37815  -0.37288  -0.36839  -0.36628  -0.36202
 Alpha  occ. eigenvalues --   -0.34950  -0.34360  -0.29093  -0.27650  -0.21364
 Alpha virt. eigenvalues --   -0.06860  -0.04268   0.03874   0.04671   0.04987
 Alpha virt. eigenvalues --    0.06356   0.07110   0.07303   0.08174   0.08672
 Alpha virt. eigenvalues --    0.09368   0.09793   0.10365   0.11054   0.11352
 Alpha virt. eigenvalues --    0.11408   0.11837   0.12493   0.13084   0.13122
 Alpha virt. eigenvalues --    0.13543   0.14003   0.14168   0.14442   0.15125
 Alpha virt. eigenvalues --    0.15412   0.15601   0.16028   0.16580   0.16663
 Alpha virt. eigenvalues --    0.17268   0.17699   0.18600   0.18863   0.19301
 Alpha virt. eigenvalues --    0.20112   0.20769   0.21368   0.21527   0.22240
 Alpha virt. eigenvalues --    0.22431   0.22856   0.23376   0.23886   0.24349
 Alpha virt. eigenvalues --    0.24565   0.24980   0.25538   0.25714   0.26051
 Alpha virt. eigenvalues --    0.26561   0.26993   0.27846   0.28077   0.28361
 Alpha virt. eigenvalues --    0.29365   0.29524   0.29864   0.30381   0.31130
 Alpha virt. eigenvalues --    0.31751   0.31933   0.32568   0.33064   0.33894
 Alpha virt. eigenvalues --    0.34191   0.34464   0.34772   0.35915   0.36050
 Alpha virt. eigenvalues --    0.36344   0.36876   0.37444   0.37747   0.38285
 Alpha virt. eigenvalues --    0.38395   0.38910   0.39209   0.39566   0.40021
 Alpha virt. eigenvalues --    0.40252   0.40771   0.41125   0.41725   0.42027
 Alpha virt. eigenvalues --    0.42524   0.42945   0.43086   0.43686   0.44068
 Alpha virt. eigenvalues --    0.44243   0.44553   0.44940   0.45317   0.45702
 Alpha virt. eigenvalues --    0.46022   0.46192   0.46647   0.47120   0.47336
 Alpha virt. eigenvalues --    0.47752   0.48157   0.48413   0.48619   0.48930
 Alpha virt. eigenvalues --    0.49596   0.49723   0.50046   0.50164   0.50913
 Alpha virt. eigenvalues --    0.51196   0.51871   0.52099   0.52693   0.53016
 Alpha virt. eigenvalues --    0.53622   0.53812   0.54149   0.54335   0.55273
 Alpha virt. eigenvalues --    0.55660   0.55763   0.56211   0.56328   0.57272
 Alpha virt. eigenvalues --    0.57349   0.58550   0.58726   0.59237   0.59482
 Alpha virt. eigenvalues --    0.60548   0.60913   0.61559   0.61869   0.62401
 Alpha virt. eigenvalues --    0.62894   0.63367   0.63777   0.64560   0.65067
 Alpha virt. eigenvalues --    0.65413   0.66179   0.66808   0.67060   0.67364
 Alpha virt. eigenvalues --    0.67511   0.68100   0.68625   0.69659   0.70539
 Alpha virt. eigenvalues --    0.70874   0.71625   0.72075   0.72705   0.73209
 Alpha virt. eigenvalues --    0.73839   0.74732   0.75003   0.75711   0.76742
 Alpha virt. eigenvalues --    0.77448   0.78080   0.79001   0.79663   0.80108
 Alpha virt. eigenvalues --    0.80742   0.81216   0.82579   0.83278   0.83666
 Alpha virt. eigenvalues --    0.84646   0.85422   0.86579   0.86776   0.87205
 Alpha virt. eigenvalues --    0.88028   0.88675   0.89473   0.89717   0.90272
 Alpha virt. eigenvalues --    0.90507   0.90855   0.91708   0.92339   0.92929
 Alpha virt. eigenvalues --    0.93768   0.94096   0.94666   0.95549   0.96289
 Alpha virt. eigenvalues --    0.96863   0.97287   0.97458   0.98434   0.99456
 Alpha virt. eigenvalues --    0.99881   1.00565   1.01424   1.01726   1.02702
 Alpha virt. eigenvalues --    1.03508   1.03929   1.04891   1.05561   1.06636
 Alpha virt. eigenvalues --    1.07200   1.07899   1.08309   1.08956   1.09791
 Alpha virt. eigenvalues --    1.10444   1.11391   1.11991   1.12627   1.13217
 Alpha virt. eigenvalues --    1.14160   1.14673   1.15239   1.16216   1.16886
 Alpha virt. eigenvalues --    1.17924   1.18370   1.18932   1.18990   1.20237
 Alpha virt. eigenvalues --    1.21296   1.21414   1.22655   1.23322   1.24801
 Alpha virt. eigenvalues --    1.25182   1.25480   1.25890   1.26885   1.27912
 Alpha virt. eigenvalues --    1.28226   1.28854   1.29247   1.29407   1.30999
 Alpha virt. eigenvalues --    1.31587   1.31910   1.33439   1.33968   1.34437
 Alpha virt. eigenvalues --    1.34834   1.36285   1.36898   1.39077   1.39461
 Alpha virt. eigenvalues --    1.40234   1.41102   1.42320   1.42464   1.43913
 Alpha virt. eigenvalues --    1.45021   1.45411   1.46140   1.47670   1.49084
 Alpha virt. eigenvalues --    1.50059   1.50970   1.52295   1.52709   1.53375
 Alpha virt. eigenvalues --    1.53757   1.54439   1.54888   1.55419   1.56065
 Alpha virt. eigenvalues --    1.56427   1.56960   1.57652   1.57779   1.58828
 Alpha virt. eigenvalues --    1.59298   1.59694   1.60085   1.60383   1.60673
 Alpha virt. eigenvalues --    1.61079   1.61374   1.62273   1.63122   1.63170
 Alpha virt. eigenvalues --    1.63476   1.63783   1.64180   1.64394   1.65292
 Alpha virt. eigenvalues --    1.65986   1.66695   1.67006   1.68067   1.68467
 Alpha virt. eigenvalues --    1.68944   1.70096   1.70921   1.71355   1.71807
 Alpha virt. eigenvalues --    1.72465   1.73052   1.73411   1.74086   1.74583
 Alpha virt. eigenvalues --    1.75487   1.76307   1.76733   1.77396   1.77777
 Alpha virt. eigenvalues --    1.78154   1.78904   1.79199   1.80115   1.81042
 Alpha virt. eigenvalues --    1.81562   1.82552   1.83685   1.84575   1.85737
 Alpha virt. eigenvalues --    1.86253   1.86444   1.86953   1.88332   1.88720
 Alpha virt. eigenvalues --    1.89578   1.89910   1.90215   1.91410   1.91577
 Alpha virt. eigenvalues --    1.92156   1.92875   1.93280   1.93769   1.94606
 Alpha virt. eigenvalues --    1.95401   1.95841   1.96923   1.97233   1.97830
 Alpha virt. eigenvalues --    1.98940   1.99359   2.00159   2.01713   2.02064
 Alpha virt. eigenvalues --    2.02755   2.03584   2.03972   2.04778   2.05393
 Alpha virt. eigenvalues --    2.05899   2.06302   2.07069   2.07539   2.08708
 Alpha virt. eigenvalues --    2.09345   2.10356   2.11327   2.12932   2.13865
 Alpha virt. eigenvalues --    2.14553   2.14873   2.16041   2.16070   2.17155
 Alpha virt. eigenvalues --    2.17481   2.18058   2.18185   2.19074   2.19852
 Alpha virt. eigenvalues --    2.20710   2.20870   2.22060   2.22163   2.22665
 Alpha virt. eigenvalues --    2.23109   2.23700   2.24665   2.25259   2.26201
 Alpha virt. eigenvalues --    2.26415   2.27681   2.28605   2.28738   2.30073
 Alpha virt. eigenvalues --    2.30555   2.32106   2.32968   2.33194   2.33740
 Alpha virt. eigenvalues --    2.34257   2.34828   2.35454   2.35569   2.36423
 Alpha virt. eigenvalues --    2.37470   2.38070   2.38152   2.38684   2.39744
 Alpha virt. eigenvalues --    2.40511   2.41352   2.41924   2.42918   2.43775
 Alpha virt. eigenvalues --    2.44403   2.44716   2.45814   2.46474   2.47007
 Alpha virt. eigenvalues --    2.47865   2.48728   2.49888   2.51048   2.52355
 Alpha virt. eigenvalues --    2.52672   2.53755   2.54293   2.55015   2.56141
 Alpha virt. eigenvalues --    2.56948   2.57569   2.58225   2.58694   2.59070
 Alpha virt. eigenvalues --    2.59888   2.60225   2.60531   2.60767   2.61907
 Alpha virt. eigenvalues --    2.62347   2.62439   2.62780   2.64444   2.64701
 Alpha virt. eigenvalues --    2.65828   2.66346   2.67106   2.67136   2.68021
 Alpha virt. eigenvalues --    2.68079   2.69091   2.69386   2.69896   2.70335
 Alpha virt. eigenvalues --    2.71292   2.71787   2.72535   2.73229   2.73811
 Alpha virt. eigenvalues --    2.74152   2.75381   2.75893   2.76443   2.77357
 Alpha virt. eigenvalues --    2.79076   2.79484   2.80253   2.80697   2.80980
 Alpha virt. eigenvalues --    2.82059   2.82350   2.82829   2.83225   2.84032
 Alpha virt. eigenvalues --    2.85301   2.85499   2.85697   2.86404   2.87121
 Alpha virt. eigenvalues --    2.88666   2.88989   2.89885   2.90486   2.92219
 Alpha virt. eigenvalues --    2.92576   2.93537   2.93870   2.94537   2.95170
 Alpha virt. eigenvalues --    2.96461   2.97347   2.97653   2.98559   2.99012
 Alpha virt. eigenvalues --    3.00071   3.01140   3.01277   3.01968   3.02869
 Alpha virt. eigenvalues --    3.03827   3.04154   3.04890   3.05945   3.06457
 Alpha virt. eigenvalues --    3.07339   3.08042   3.08678   3.09574   3.09732
 Alpha virt. eigenvalues --    3.10856   3.11059   3.11456   3.11835   3.12415
 Alpha virt. eigenvalues --    3.13112   3.13615   3.13868   3.14198   3.14687
 Alpha virt. eigenvalues --    3.15675   3.16835   3.17061   3.17462   3.17983
 Alpha virt. eigenvalues --    3.18205   3.19269   3.19695   3.20730   3.20953
 Alpha virt. eigenvalues --    3.22312   3.22839   3.23040   3.23417   3.24259
 Alpha virt. eigenvalues --    3.24917   3.25846   3.26341   3.27217   3.27571
 Alpha virt. eigenvalues --    3.28565   3.29042   3.29928   3.30348   3.31502
 Alpha virt. eigenvalues --    3.31766   3.32024   3.32427   3.32723   3.33179
 Alpha virt. eigenvalues --    3.34239   3.35072   3.35453   3.36239   3.36520
 Alpha virt. eigenvalues --    3.37410   3.38300   3.39041   3.39548   3.40647
 Alpha virt. eigenvalues --    3.40968   3.41518   3.41978   3.42331   3.42614
 Alpha virt. eigenvalues --    3.43064   3.44156   3.45431   3.45585   3.45939
 Alpha virt. eigenvalues --    3.46692   3.47561   3.48179   3.48729   3.49945
 Alpha virt. eigenvalues --    3.50597   3.51100   3.51345   3.52681   3.53228
 Alpha virt. eigenvalues --    3.54393   3.54668   3.56005   3.56229   3.56633
 Alpha virt. eigenvalues --    3.57132   3.57716   3.58377   3.59235   3.60273
 Alpha virt. eigenvalues --    3.60628   3.61726   3.62926   3.63495   3.64465
 Alpha virt. eigenvalues --    3.65872   3.67275   3.68104   3.69308   3.69755
 Alpha virt. eigenvalues --    3.70798   3.71613   3.72836   3.73387   3.74860
 Alpha virt. eigenvalues --    3.75826   3.77174   3.78088   3.78414   3.79847
 Alpha virt. eigenvalues --    3.79998   3.80315   3.81730   3.83823   3.85144
 Alpha virt. eigenvalues --    3.85777   3.86340   3.87107   3.88182   3.88530
 Alpha virt. eigenvalues --    3.90310   3.91557   3.91779   3.92404   3.93524
 Alpha virt. eigenvalues --    3.95695   3.96846   3.97528   3.97872   3.98558
 Alpha virt. eigenvalues --    4.00169   4.01277   4.02396   4.05710   4.07157
 Alpha virt. eigenvalues --    4.07921   4.10523   4.10942   4.12484   4.13373
 Alpha virt. eigenvalues --    4.14226   4.15861   4.16763   4.16987   4.17516
 Alpha virt. eigenvalues --    4.18566   4.20141   4.20651   4.22911   4.24247
 Alpha virt. eigenvalues --    4.26635   4.27115   4.28945   4.29437   4.30895
 Alpha virt. eigenvalues --    4.31730   4.33034   4.35262   4.36390   4.36995
 Alpha virt. eigenvalues --    4.38599   4.39866   4.40765   4.41963   4.43739
 Alpha virt. eigenvalues --    4.43941   4.44722   4.45418   4.47313   4.48670
 Alpha virt. eigenvalues --    4.49971   4.50828   4.53851   4.56854   4.57957
 Alpha virt. eigenvalues --    4.58929   4.60662   4.61496   4.63037   4.66573
 Alpha virt. eigenvalues --    4.67937   4.71823   4.73078   4.75416   4.76090
 Alpha virt. eigenvalues --    4.77157   4.79659   4.81198   4.81373   4.83888
 Alpha virt. eigenvalues --    4.85564   4.86704   4.87780   4.88878   4.89839
 Alpha virt. eigenvalues --    4.90868   4.92821   4.94200   4.95458   4.98446
 Alpha virt. eigenvalues --    4.99782   5.01260   5.02613   5.03928   5.05160
 Alpha virt. eigenvalues --    5.07743   5.12376   5.13814   5.17663   5.19672
 Alpha virt. eigenvalues --    5.20817   5.24606   5.27035   5.27255   5.29502
 Alpha virt. eigenvalues --    5.30020   5.31154   5.32659   5.33374   5.37769
 Alpha virt. eigenvalues --    5.39662   5.41960   5.43838   5.44913   5.46545
 Alpha virt. eigenvalues --    5.48617   5.49299   5.49835   5.52881   5.59243
 Alpha virt. eigenvalues --    5.65174   5.67482   5.71812   5.74228   5.77586
 Alpha virt. eigenvalues --    5.80333   5.81540   5.83500   5.85263   5.86614
 Alpha virt. eigenvalues --    5.87911   5.90645   5.91760   5.94599   5.95055
 Alpha virt. eigenvalues --    5.97626   6.02691   6.05125   6.14813   6.18305
 Alpha virt. eigenvalues --    6.20280   6.22094   6.26500   6.27160   6.37735
 Alpha virt. eigenvalues --    6.42094   6.44431   6.48070   6.51114   6.56489
 Alpha virt. eigenvalues --    6.57425   6.70276   6.74035   6.75880   6.76508
 Alpha virt. eigenvalues --    6.76649   6.80741   6.83900   6.85040   6.87916
 Alpha virt. eigenvalues --    6.90559   6.95033   7.00219   7.08055   7.08548
 Alpha virt. eigenvalues --    7.10178   7.11079   7.17077   7.18983   7.25292
 Alpha virt. eigenvalues --    7.32072   7.42703   9.07881   9.41338   9.59882
 Alpha virt. eigenvalues --   19.79963  22.35985  22.46180  22.50298  22.55469
 Alpha virt. eigenvalues --   22.64563  22.66873  22.73931  22.75479  22.81238
 Alpha virt. eigenvalues --   22.87016  22.94117  22.96683  23.07013  23.19915
 Alpha virt. eigenvalues --   23.28063  23.51052  32.18786  33.15734  44.13185
 Alpha virt. eigenvalues --   44.24148  44.26402  44.39506  44.50806
          Condensed to atoms (all electrons):
[...]
 ***** Axes restored to original set *****
 -------------------------------------------------------------------
 Center     Atomic                   Forces (Hartrees/Bohr)
 Number     Number              X              Y              Z
 -------------------------------------------------------------------
      1        6          -0.000036648   -0.000017211    0.000079368
      2        1           0.000005350   -0.000003637    0.000002938
      3        1          -0.000010815   -0.000017178    0.000012143
      4        6          -0.000084634    0.000034351   -0.000075382
      5        1          -0.000063925    0.000010866   -0.000006065
      6        8          -0.000223401    0.000037481   -0.000126896
      7        1          -0.000017898   -0.000002673    0.000002528
      8        6          -0.000156184   -0.000047301    0.000075626
      9        1          -0.000041663   -0.000006395    0.000023271
     10        8          -0.000181663   -0.000179413    0.000314248
     11        1          -0.000044735    0.000018175    0.000015169
     12        6           0.000097999    0.000070066   -0.000022333
     13        1           0.000014629    0.000005422   -0.000036568
     14        6           0.000048113   -0.000026749    0.000155896
     15        1          -0.000015897    0.000001661    0.000006047
     16        8           0.000199695    0.000061893    0.000063084
     17        7           0.000241691    0.000072099   -0.000220118
     18        6           0.000172720    0.000078726   -0.000268667
     19        1          -0.000005139   -0.000013217   -0.000007122
     20        6           0.000270379    0.000094782   -0.000177468
     21        1           0.000012382    0.000015046   -0.000002644
     22        6           0.000114333   -0.000084745   -0.000222042
     23        1           0.000004632    0.000013293    0.000003171
     24        1          -0.000064695    0.000021989   -0.000004074
     25        6           0.000135233    0.000258724    0.000082370
     26        6           0.000192384    0.000081249   -0.000003727
     27        1          -0.000013322    0.000004103   -0.000073744
     28        6          -0.000020766    0.000019593    0.000086906
     29        8          -0.000067302    0.000073596   -0.000078986
     30        7          -0.000301171   -0.000196109    0.000456435
     31        1           0.000007622   -0.000002709    0.000036549
     32        1           0.000094177    0.000117616   -0.000037908
     33        1          -0.000040514    0.000030993    0.000007607
     34        6          -0.000359972   -0.000009812    0.000193073
     35        6          -0.000019774   -0.000018742   -0.000045694
     36        6          -0.000501919    0.000386209    0.000138045
     37        6          -0.000247136   -0.000140086    0.000772291
     38        6          -0.000147960   -0.000028497    0.000034726
     39        8          -0.000068512   -0.000126930   -0.000273362
     40       16           0.000835643   -0.000084396   -0.001171710
     41        1          -0.000028632   -0.000019465    0.000004302
     42        1           0.000035093   -0.000027235    0.000031935
     43        1           0.000038657   -0.000026995    0.000075392
     44        1          -0.000039268   -0.000003381    0.000080879
     45        1           0.000010108   -0.000006791    0.000037012
     46        1           0.000043482   -0.000024033    0.000005701
     47        1           0.000308820   -0.000368141    0.000048051
     48        1          -0.000079598   -0.000026094    0.000009750
 -------------------------------------------------------------------
 Cartesian Forces:  Max     0.001171710 RMS     0.000187407
 Leave Link  716 at Sat Aug 13 21:01:43 2022, MaxMem=  2684354560 cpu:               0.8 elap:               0.1
 (Enter /storage/apps/GAUSSIAN/G16_RevA03/g16/l103.exe)

 GradGradGradGradGradGradGradGradGradGradGradGradGradGradGradGradGradGrad
 Berny optimization.
 Search for a local minimum.
 Step number   1 out of a maximum of    2
 All quantities printed in internal units (Hartrees-Bohrs-Radians)
 Second derivative matrix not updated -- first step.
 ITU=  0
     Eigenvalues ---    0.00046   0.00086   0.00113   0.00145   0.00211
     Eigenvalues ---    0.00213   0.00308   0.00357   0.00460   0.00522
     Eigenvalues ---    0.00610   0.00649   0.00802   0.00918   0.00956
     Eigenvalues ---    0.01106   0.01160   0.01245   0.01492   0.01623
     Eigenvalues ---    0.01824   0.02136   0.02401   0.02465   0.02811
     Eigenvalues ---    0.02943   0.03317   0.03660   0.04119   0.04386
     Eigenvalues ---    0.04577   0.04692   0.04984   0.05051   0.05241
     Eigenvalues ---    0.05385   0.05481   0.05723   0.05949   0.06056
     Eigenvalues ---    0.06146   0.06299   0.06630   0.06745   0.07064
     Eigenvalues ---    0.07117   0.07479   0.08105   0.08261   0.08499
     Eigenvalues ---    0.08665   0.09151   0.09293   0.09781   0.10752
     Eigenvalues ---    0.10836   0.11108   0.11299   0.12021   0.12613
     Eigenvalues ---    0.13017   0.13144   0.13280   0.13655   0.13714
     Eigenvalues ---    0.13957   0.14321   0.15957   0.16333   0.16798
     Eigenvalues ---    0.17967   0.18115   0.18610   0.19813   0.20296
     Eigenvalues ---    0.20528   0.20861   0.21825   0.22582   0.25158
     Eigenvalues ---    0.25630   0.27305   0.28060   0.30556   0.33205
     Eigenvalues ---    0.33668   0.34394   0.34585   0.37756   0.37825
     Eigenvalues ---    0.37825   0.37825   0.37825   0.37825   0.39982
     Eigenvalues ---    0.43903   0.47943   0.49311   0.57055   0.58376
     Eigenvalues ---    0.60060   0.61773   0.69515   0.71908   0.73902
     Eigenvalues ---    0.78997   0.81834   0.82501   0.87367   0.90778
     Eigenvalues ---    0.90991   0.91671   0.92303   0.93281   0.95257
     Eigenvalues ---    0.96901   0.99655   0.99796   1.01944   1.03899
     Eigenvalues ---    1.05862   1.08530   1.11110   1.11722   1.12533
     Eigenvalues ---    1.19578   1.20672   1.27338   1.27870   1.29319
     Eigenvalues ---    1.33613   1.37476   1.42978   1.56683   1.72392
     Eigenvalues ---    1.84170   1.85929   2.36210
 Quadratic step=7.275D-01 exceeds max=3.000D-01 adjusted using Lamda=-9.343D-04.
 Angle between NR and scaled steps=  18.66 degrees.
 Angle between quadratic step and forces=  67.12 degrees.
 Linear search not attempted -- first point.
 Variable       Old X    -DE/DX   Delta X   Delta X   Delta X     New X
                                 (Linear)    (Quad)   (Total)
    X1        6.75722  -0.00004   0.00000  -0.01857  -0.01857   6.73866
    Y1       -6.85114  -0.00002   0.00000  -0.02537  -0.02537  -6.87651
    Z1       -0.74070   0.00008   0.00000   0.02509   0.02509  -0.71561
    X2        7.10515   0.00001   0.00000  -0.01120  -0.01120   7.09395
    Y2       -7.02314  -0.00000   0.00000  -0.03271  -0.03271  -7.05585
    Z2       -2.76262   0.00000   0.00000   0.02629   0.02629  -2.73633
    X3        8.08626  -0.00001   0.00000  -0.02732  -0.02732   8.05894
    Y3       -8.06768  -0.00002   0.00000  -0.03080  -0.03080  -8.09848
    Z3        0.25827   0.00001   0.00000   0.03028   0.03028   0.28855
    X4        3.44264  -0.00008   0.00000  -0.00797  -0.00797   3.43467
    Y4       -2.70869   0.00003   0.00000   0.02713   0.02713  -2.68156
    Z4        2.33633  -0.00008   0.00000  -0.01327  -0.01327   2.32306
    X5        2.20576  -0.00006   0.00000  -0.02213  -0.02213   2.18363
    Y5       -4.33697   0.00001   0.00000   0.03880   0.03880  -4.29817
    Z5        1.96967  -0.00001   0.00000  -0.01564  -0.01564   1.95403
    X6        2.63661  -0.00022   0.00000  -0.01101  -0.01101   2.62561
    Y6       -1.28404   0.00004   0.00000   0.04912   0.04912  -1.23492
    Z6        4.36013  -0.00013   0.00000  -0.02970  -0.02970   4.33043
    X7        0.86386  -0.00002   0.00000   0.00412   0.00412   0.86798
    Y7       -0.67687  -0.00000   0.00000   0.07377   0.07377  -0.60310
    Z7        3.96460   0.00000   0.00000  -0.05738  -0.05738   3.90722
    X8        6.16831  -0.00016   0.00000  -0.02099  -0.02099   6.14733
    Y8       -3.58625  -0.00005   0.00000  -0.00325  -0.00325  -3.58950
    Z8        2.75391   0.00008   0.00000   0.01111   0.01111   2.76501
    X9        6.25860  -0.00004   0.00000  -0.04620  -0.04620   6.21239
    Y9       -5.26019  -0.00001   0.00000  -0.00047  -0.00047  -5.26067
    Z9        3.96478   0.00002   0.00000   0.01599   0.01599   3.98077
   X10        7.58498  -0.00018   0.00000  -0.00620  -0.00620   7.57878
   Y10       -1.57965  -0.00018   0.00000  -0.01647  -0.01647  -1.59611
   Z10        3.76349   0.00031   0.00000   0.01652   0.01652   3.78000
   X11        6.50001  -0.00004   0.00000  -0.00701  -0.00701   6.49300
   Y11       -0.73865   0.00002   0.00000   0.00994   0.00994  -0.72872
   Z11        4.97309   0.00002   0.00000  -0.00358  -0.00358   4.96952
   X12        3.78789   0.00010   0.00000   0.02342   0.02342   3.81131
   Y12       -1.22276   0.00007   0.00000   0.00757   0.00757  -1.21519
   Z12       -0.14583  -0.00002   0.00000  -0.02042  -0.02042  -0.16625
   X13        4.30250   0.00001   0.00000   0.04119   0.04119   4.34369
   Y13        0.73516   0.00001   0.00000   0.00609   0.00609   0.74125
   Z13        0.25918  -0.00004   0.00000  -0.03642  -0.03642   0.22276
   X14        7.09429   0.00005   0.00000  -0.00600  -0.00600   7.08829
   Y14       -4.13259  -0.00003   0.00000  -0.02418  -0.02418  -4.15677
   Z14        0.08692   0.00016   0.00000   0.01901   0.01901   0.10592
   X15        9.06149  -0.00002   0.00000  -0.00016  -0.00016   9.06133
   Y15       -3.54723   0.00000   0.00000  -0.04052  -0.04052  -3.58775
   Z15       -0.08963   0.00001   0.00000   0.02418   0.02418  -0.06545
   X16        5.62163   0.00020   0.00000   0.01832   0.01832   5.63996
   Y16       -2.49435   0.00006   0.00000  -0.02099  -0.02099  -2.51535
   Z16       -1.53392   0.00006   0.00000   0.00017   0.00017  -1.53376
   X17        1.48602   0.00024   0.00000   0.02939   0.02939   1.51541
   Y17       -1.10535   0.00007   0.00000   0.01211   0.01211  -1.09324
   Z17       -1.74644  -0.00022   0.00000  -0.02819  -0.02819  -1.77463
   X18        0.65343   0.00017   0.00000   0.03687   0.03687   0.69029
   Y18       -3.25440   0.00008   0.00000   0.01376   0.01376  -3.24064
   Z18       -2.83288  -0.00027   0.00000  -0.03723  -0.03723  -2.87011
   X19        1.79186  -0.00001   0.00000   0.04620   0.04620   1.83806
   Y19       -4.91392  -0.00001   0.00000   0.01718   0.01718  -4.89674
   Z19       -2.50554  -0.00001   0.00000  -0.05066  -0.05066  -2.55620
   X20       -1.47037   0.00027   0.00000   0.03198   0.03198  -1.43839
   Y20       -3.23139   0.00009   0.00000   0.01074   0.01074  -3.22065
   Z20       -4.31126  -0.00018   0.00000  -0.02950  -0.02950  -4.34076
   X21       -2.10305   0.00001   0.00000   0.03926   0.03926  -2.06378
   Y21       -4.96415   0.00002   0.00000   0.01197   0.01197  -4.95218
   Z21       -5.18371  -0.00000   0.00000  -0.03777  -0.03777  -5.22149
   X22       -2.74458   0.00011   0.00000   0.01501   0.01501  -2.72956
   Y22       -0.96353  -0.00008   0.00000   0.00493   0.00493  -0.95860
   Z22       -4.69388  -0.00022   0.00000  -0.00684  -0.00684  -4.70072
   X23       -4.37351   0.00000   0.00000   0.00794   0.00794  -4.36557
   Y23       -0.89131   0.00001   0.00000   0.00102   0.00102  -0.89029
   Z23       -5.92799   0.00000   0.00000   0.00223   0.00223  -5.92575
   X24       -5.90402  -0.00006   0.00000  -0.01184  -0.01184  -5.91587
   Y24       -1.49429   0.00002   0.00000   0.01467   0.01467  -1.47963
   Z24       -1.64719  -0.00000   0.00000  -0.01707  -0.01707  -1.66426
   X25       -1.85862   0.00014   0.00000   0.00558   0.00558  -1.85303
   Y25        1.22666   0.00026   0.00000   0.00364   0.00364   1.23029
   Z25       -3.55672   0.00008   0.00000   0.00451   0.00451  -3.55221
   X26        0.29231   0.00019   0.00000   0.01955   0.01955   0.31185
   Y26        1.08518   0.00008   0.00000   0.00900   0.00900   1.09418
   Z26       -2.07304  -0.00000   0.00000  -0.01470  -0.01470  -2.08774
   X27        1.04356  -0.00001   0.00000   0.01985   0.01985   1.06341
   Y27        2.74844   0.00000   0.00000   0.00912   0.00912   2.75756
   Z27       -1.14723  -0.00007   0.00000  -0.01599  -0.01599  -1.16322
   X28       -2.93933  -0.00002   0.00000  -0.02578  -0.02578  -2.96511
   Y28        3.80420   0.00002   0.00000  -0.00313  -0.00313   3.80107
   Z28       -4.02932   0.00009   0.00000   0.03798   0.03798  -3.99134
   X29       -1.60607  -0.00007   0.00000  -0.04766  -0.04766  -1.65373
   Y29        5.65231   0.00007   0.00000   0.01196   0.01196   5.66427
   Z29       -3.92934  -0.00008   0.00000   0.04952   0.04952  -3.87981
   X30       -5.41719  -0.00030   0.00000  -0.02998  -0.02998  -5.44718
   Y30        3.83938  -0.00020   0.00000  -0.02461  -0.02461   3.81476
   Z30       -4.76518   0.00046   0.00000   0.05153   0.05153  -4.71365
   X31       -6.16436   0.00001   0.00000  -0.04857  -0.04857  -6.21293
   Y31        5.59162  -0.00000   0.00000  -0.03210  -0.03210   5.55952
   Z31       -4.86891   0.00004   0.00000   0.06287   0.06287  -4.80604
   X32       -6.55721   0.00009   0.00000  -0.01192  -0.01192  -6.56913
   Y32        2.52845   0.00012   0.00000  -0.04397  -0.04397   2.48448
   Z32       -3.97208  -0.00004   0.00000   0.04378   0.04378  -3.92829
   X33        4.84853  -0.00004   0.00000  -0.02340  -0.02340   4.82513
   Y33       -7.52684   0.00003   0.00000  -0.01493  -0.01493  -7.54177
   Z33       -0.33572   0.00001   0.00000   0.01790   0.01790  -0.31781
   X34        0.24982  -0.00036   0.00000  -0.01229  -0.01229   0.23754
   Y34        4.11412  -0.00001   0.00000  -0.00039  -0.00039   4.11373
   Z34        5.44512   0.00019   0.00000   0.00339   0.00339   5.44851
   X35       -3.14870  -0.00002   0.00000   0.00106   0.00106  -3.14764
   Y35        1.66312  -0.00002   0.00000  -0.00642  -0.00642   1.65670
   Z35        2.23011  -0.00005   0.00000  -0.00749  -0.00749   2.22262
   X36       -5.43077  -0.00050   0.00000   0.00419   0.00419  -5.42658
   Y36        1.57356   0.00039   0.00000   0.00373   0.00373   1.57729
   Z36        1.03492   0.00014   0.00000  -0.01227  -0.01227   1.02265
   X37       -9.50227  -0.00025   0.00000  -0.00029  -0.00029  -9.50256
   Y37       -0.61560  -0.00014   0.00000  -0.00105  -0.00105  -0.61665
   Z37       -0.02368   0.00077   0.00000   0.02066   0.02066  -0.00302
   X38       -6.63456  -0.00015   0.00000   0.00103   0.00103  -6.63353
   Y38       -0.83960  -0.00003   0.00000   0.00488   0.00488  -0.83472
   Z38        0.19456   0.00003   0.00000  -0.00783  -0.00783   0.18673
   X39       -1.65693  -0.00007   0.00000  -0.02244  -0.02244  -1.67937
   Y39       -0.18945  -0.00013   0.00000  -0.02005  -0.02005  -0.20950
   Z39        2.61341  -0.00027   0.00000   0.01689   0.01689   2.63030
   X40       -2.14675   0.00084   0.00000   0.03785   0.03785  -2.10890
   Y40        4.81713  -0.00008   0.00000  -0.00635  -0.00635   4.81079
   Z40        3.13028  -0.00117   0.00000  -0.05075  -0.05075   3.07952
   X41        0.65275  -0.00003   0.00000  -0.01623  -0.01623   0.63653
   Y41        5.88395  -0.00002   0.00000   0.00645   0.00645   5.89039
   Z41        6.41278   0.00000   0.00000  -0.00748  -0.00748   6.40530
   X42        1.97498   0.00004   0.00000   0.00004   0.00004   1.97503
   Y42        3.41075  -0.00003   0.00000  -0.01908  -0.01908   3.39167
   Z42        4.58044   0.00003   0.00000   0.04158   0.04158   4.62203
   X43      -10.33514   0.00004   0.00000   0.01597   0.01597 -10.31916
   Y43       -0.12271  -0.00003   0.00000  -0.01492  -0.01492  -0.13763
   Z43        1.79557   0.00008   0.00000   0.03113   0.03113   1.82670
   X44      -10.03421  -0.00004   0.00000  -0.01214  -0.01214 -10.04634
   Y44        0.87320  -0.00000   0.00000   0.00686   0.00686   0.88006
   Z44       -1.35642   0.00008   0.00000   0.03397   0.03397  -1.32246
   X45      -10.35892   0.00001   0.00000   0.00130   0.00130 -10.35761
   Y45       -2.37382  -0.00001   0.00000   0.00117   0.00117  -2.37266
   Z45       -0.67450   0.00004   0.00000   0.01329   0.01329  -0.66120
   X46       -6.12547   0.00004   0.00000   0.01982   0.01982  -6.10565
   Y46       -2.35402  -0.00002   0.00000   0.00152   0.00152  -2.35250
   Z46        1.50547   0.00001   0.00000  -0.01924  -0.01924   1.48623
   X47       -6.53274   0.00031   0.00000   0.01817   0.01817  -6.51457
   Y47        3.29934  -0.00037   0.00000   0.00993   0.00993   3.30926
   Z47        0.93305   0.00005   0.00000  -0.02720  -0.02720   0.90585
   X48       -0.44121  -0.00008   0.00000  -0.04511  -0.04511  -0.48632
   Y48        2.73808  -0.00003   0.00000   0.01652   0.01652   2.75459
   Z48        6.80826   0.00001   0.00000   0.00326   0.00326   6.81152
         Item               Value     Threshold  Converged?
 Maximum Force            0.001172     0.000450     NO 
 RMS     Force            0.000187     0.000300     YES
 Maximum Displacement     0.073770     0.001800     NO 
 RMS     Displacement     0.025009     0.001200     NO 
 Predicted change in Energy=-1.732737D-04
 GradGradGradGradGradGradGradGradGradGradGradGradGradGradGradGradGradGrad

 Leave Link  103 at Sat Aug 13 21:01:43 2022, MaxMem=  2684354560 cpu:               1.4 elap:               0.1
 (Enter /storage/apps/GAUSSIAN/G16_RevA03/g16/l9999.exe)

 Test job not archived.
 1\1\GINC-T028\Force\RM062X\def2TZVP\C16H24N2O5S1\LV87696\13-Aug-2022\0
 \\#P M062X/Def2TZVP scf=(direct,conver=8) EmpiricalDispersion=GD3 Forc
 e Charge Prop=(Field,Read)\\Gaussian run\\0,1\C,3.575768,-3.625465,-0.
 391962\H,3.759882,-3.716488,-1.461915\H,4.279064,-4.269233,0.136672\C,
 1.821769,-1.433377,1.23633\H,1.16724,-2.295026,1.042304\O,1.395236,-0.
 679487,2.307282\H,0.457136,-0.358185,2.097976\C,3.26413,-1.897763,1.45
 7304\H,3.311907,-2.783574,2.098071\O,4.013799,-0.835913,1.991552\H,3.4
 39656,-0.390879,2.631648\C,2.004466,-0.647059,-0.077169\H,2.276783,0.3
 8903,0.137153\C,3.754138,-2.186873,0.045994\H,4.795136,-1.877114,-0.04
 743\O,2.97484,-1.319955,-0.811718\N,0.786366,-0.584924,-0.924178\C,0.3
 45779,-1.722154,-1.499095\H,0.948214,-2.600332,-1.325876\C,-0.778086,-
 1.709978,-2.28142\H,-1.112884,-2.626913,-2.743102\C,-1.452368,-0.50988
 ,-2.483893\H,-2.314364,-0.471662,-3.136956\H,-3.124275,-0.790746,-0.87
 1654\C,-0.983537,0.649118,-1.882134\C,0.154682,0.574252,-1.097003\H,0.
 552227,1.454412,-0.607088\C,-1.555426,2.013095,-2.132224\O,-0.849896,2
 .991073,-2.079315\N,-2.866655,2.031712,-2.521626\H,-3.262041,2.958957,
 -2.576516\H,-3.469928,1.337999,-2.101933\H,2.565732,-3.983031,-0.17765
 3\C,0.132201,2.1771,2.881432\C,-1.66622,0.880084,1.180125\C,-2.87384,0
 .83269,0.547657\C,-5.028387,-0.325761,-0.012532\C,-3.510857,-0.444298,
 0.102955\O,-0.87681,-0.100253,1.382959\S,-1.136012,2.549117,1.656472\H
 ,0.345422,3.11365,3.393495\H,1.045117,1.804891,2.423865\H,-5.469118,-0
 .064933,0.950174\H,-5.309874,0.462079,-0.717788\H,-5.481702,-1.256174,
 -0.356928\H,-3.241459,-1.245695,0.79666\H,-3.456976,1.745934,0.493749\
 H,-0.233477,1.448927,3.602777\\Version=ES64L-G16RevA.03\State=1-A\HF=-
 1507.9082504\RMSD=1.298e-09\RMSF=1.874e-04\Dipole=0.0685237,-2.3506376
 ,-1.8441099\Quadrupole=0.7235538,1.0499606,-1.7735144,-4.6040926,8.264
 7761,5.9021536\PG=C01 [X(C16H24N2O5S1)]\\@


 Human beings, who are almost unique in having the
 ability to learn from the experience of others, are
 also remarkable for their apparent disinclination to do so.
                               -- Douglas Adams,
                                Last Chance to See
 Job cpu time:       0 days  3 hours 34 minutes 24.4 seconds.
 Elapsed time:       0 days  0 hours 13 minutes 25.7 seconds.
 File lengths (MBytes):  RWF=    435 Int=      0 D2E=      0 Chk=     48 Scr=      1
 Normal termination of Gaussian 16 at Sat Aug 13 21:01:43 2022.
