 Entering Gaussian System, Link 0=g16
 Initial command:
 /storage/apps/GAUSSIAN/G16_RevA03/g16/l1.exe "/scratch/tmp/1019401/Gau-189747.inp" -scrdir="/scratch/tmp/1019401/"
 Entering Link 1 = /storage/apps/GAUSSIAN/G16_RevA03/g16/l1.exe PID=    189748.
  
 Copyright (c) 1988,1990,1992,1993,1995,1998,2003,2009,2016,
            Gaussian, Inc.  All Rights Reserved.
  
 This is part of the Gaussian(R) 16 program.  It is based on
 the Gaussian(R) 09 system (copyright 2009, Gaussian, Inc.),
 the Gaussian(R) 03 system (copyright 2003, Gaussian, Inc.),
 the Gaussian(R) 98 system (copyright 1998, Gaussian, Inc.),
 the Gaussian(R) 94 system (copyright 1995, Gaussian, Inc.),
 the Gaussian 92(TM) system (copyright 1992, Gaussian, Inc.),
 the Gaussian 90(TM) system (copyright 1990, Gaussian, Inc.),
 the Gaussian 88(TM) system (copyright 1988, Gaussian, Inc.),
 the Gaussian 86(TM) system (copyright 1986, Carnegie Mellon
 University), and the Gaussian 82(TM) system (copyright 1983,
 Carnegie Mellon University). Gaussian is a federally registered
 trademark of Gaussian, Inc.
  
 This software contains proprietary and confidential information,
 including trade secrets, belonging to Gaussian, Inc.
  
 This software is provided under written license and may be
 used, copied, transmitted, or stored only in accord with that
 written license.
  
 The following legend is applicable only to US Government
 contracts under FAR:
  
                    RESTRICTED RIGHTS LEGEND
  
 Use, reproduction and disclosure by the US Government is
 subject to restrictions as set forth in subparagraphs (a)
 and (c) of the Commercial Computer Software - Restricted
 Rights clause in FAR 52.227-19.
  
 Gaussian, Inc.
 340 Quinnipiac St., Bldg. 40, Wallingford CT 06492
  
  
 ---------------------------------------------------------------
 Warning -- This program may not be used in any manner that
 competes with the business of Gaussian, Inc. or will provide
 assistance to any competitor of Gaussian, Inc.  The licensee
 of this program is prohibited from giving any competitor of
 Gaussian, Inc. access to this program.  By using this program,
 the user acknowledges that Gaussian, Inc. is engaged in the
 business of creating and licensing software in the field of
 computational chemistry and represents and warrants to the
 licensee that it is not a competitor of Gaussian, Inc. and that
 it will not use this program in any manner prohibited above.
 ---------------------------------------------------------------
  

 Cite this work as:
 Gaussian 16, Revision A.03,
 M. J. Frisch, G. W. Trucks, H. B. Schlegel, G. E. Scuseria, 
 M. A. Robb, J. R. Cheeseman, G. Scalmani, V. Barone, 
 G. A. Petersson, H. Nakatsuji, X. Li, M. Caricato, A. V. Marenich, 
 J. Bloino, B. G. Janesko, R. Gomperts, B. Mennucci, H. P. Hratchian, 
 J. V. Ortiz, A. F. Izmaylov, J. L. Sonnenberg, D. Williams-Young, 
 F. Ding, F. Lipparini, F. Egidi, J. Goings, B. Peng, A. Petrone, 
 T. Henderson, D. Ranasinghe, V. G. Zakrzewski, J. Gao, N. Rega, 
 G. Zheng, W. Liang, M. Hada, M. Ehara, K. Toyota, R. Fukuda, 
 J. Hasegawa, M. Ishida, T. Nakajima, Y. Honda, O. Kitao, H. Nakai, 
 T. Vreven, K. Throssell, J. A. Montgomery, Jr., J. E. Peralta, 
 F. Ogliaro, M. J. Bearpark, J. J. Heyd, E. N. Brothers, K. N. Kudin, 
 V. N. Staroverov, T. A. Keith, R. Kobayashi, J. Normand, 
 K. Raghavachari, A. P. Rendell, J. C. Burant, S. S. Iyengar, 
 J. Tomasi, M. Cossi, J. M. Millam, M. Klene, C. Adamo, R. Cammi, 
 J. W. Ochterski, R. L. Martin, K. Morokuma, O. Farkas, 
 J. B. Foresman, and D. J. Fox, Gaussian, Inc., Wallingford CT, 2016.
 
 ******************************************
 Gaussian 16:  ES64L-G16RevA.03 25-Dec-2016
                13-Aug-2022 
 ******************************************
 %NProcShared=16
 Will use up to   16 processors via shared memory.
 %mem=20GB
 ----------------------------------------------------------------------
 #P M062X/Def2TZVP scf=(direct,conver=8) EmpiricalDispersion=GD3 Force 
 Charge Prop=(Field,Read)
 ----------------------------------------------------------------------
 1/10=7,18=10,28=-2,30=1,38=1,125=101/1,3;
 2/12=2,17=6,18=5,29=2,40=1/2;
 3/5=44,7=101,11=2,25=1,30=1,71=1,74=-55,124=31/1,2,3;
 4//1;
 5/5=2,6=8,38=5/2;
 6/7=2,8=2,9=2,10=2,14=2,15=1,28=1/1,2;
 7/7=1,16=-2,29=1/1,2,3,16;
 1/10=7,18=10,28=-2,30=1/3;
 99/12=1/99;
 Leave Link    1 at Sat Aug 13 20:49:17 2022, MaxMem=  2684354560 cpu:               0.6 elap:               0.0
 (Enter /storage/apps/GAUSSIAN/G16_RevA03/g16/l101.exe)
 ------------
 Gaussian run
 ------------
 Symbolic Z-matrix:
 Charge =  0 Multiplicity = 1
 C                     3.57561  -3.6256   -0.39148 
 H                     3.76034  -3.71655  -1.46133 
 H                     4.27838  -4.26966   0.1375 
 C                     1.8213   -1.43318   1.236 
 H                     1.16659  -2.29459   1.04143 
 O                     1.39438  -0.67931   2.30676 
 H                     0.4562   -0.35813   2.09703 
 C                     3.26336  -1.8981    1.45781 
 H                     3.31039  -2.78407   2.09843 
 O                     4.01301  -0.83663   1.99282 
 H                     3.43852  -0.39151   2.63255 
 C                     2.00502  -0.64677  -0.07735 
 H                     2.27735   0.38927   0.13718 
 C                     3.75418  -2.18712   0.04678 
 H                     4.79534  -1.87768  -0.04596 
 O                     2.97571  -1.3198   -0.81133 
 N                     0.78727  -0.58442  -0.92494 
 C                     0.34709  -1.72152  -1.50048 
 H                     0.94986  -2.59957  -1.32772 
 C                    -0.77695  -1.70942  -2.28257 
 H                    -1.11143  -2.62628  -2.74469 
 C                    -1.45161  -0.50957  -2.48444 
 H                    -2.31386  -0.47122  -3.13721 
 H                    -3.127    -0.78896  -0.87239 
 C                    -0.98314   0.64953  -1.88203 
 C                     0.15526   0.57466  -1.0972 
 H                     0.55255   1.45465  -0.60696 
 C                    -1.55567   2.01324  -2.13182 
 O                    -0.85035   2.99144  -2.07975 
 N                    -2.86737   2.03146  -2.51961 
 H                    -3.26288   2.95857  -2.57473 
 H                    -3.46993   1.33749  -2.10054 
 H                     2.56533  -3.98287  -0.17781 
 C                     0.1304    2.17682   2.88265 
 C                    -1.66627   0.87992   1.17948 
 C                    -2.87484   0.83272   0.54866 
 C                    -5.02967  -0.32651  -0.00844 
 C                    -3.51175  -0.44421   0.10346 
 O                    -0.87697  -0.10073   1.38167 
 S                    -1.13434   2.54892   1.65394 
 H                     0.34313   3.11359   3.39452 
 H                     1.04439   1.80314   2.42802 
 H                    -5.46826  -0.06724   0.95572 
 H                    -5.31316   0.4621   -0.71204 
 H                    -5.48318  -1.25675  -0.35308 
 H                    -3.24032  -1.24622   0.79563 
 H                    -3.45561   1.74578   0.49303 
 H                    -0.2382    1.44967   3.60374 
 
 ITRead=  0  0  0  0  0  0  0  0  0  0  0  0  0  0  0  0  0  0  0  0
 ITRead=  0  0  0  0  0  0  0  0  0  0  0  0  0  0  0  0  0  0  0  0
 ITRead=  0  0  0  0  0  0  0  0
 MicOpt= -1 -1 -1 -1 -1 -1 -1 -1 -1 -1 -1 -1 -1 -1 -1 -1 -1 -1 -1 -1
 MicOpt= -1 -1 -1 -1 -1 -1 -1 -1 -1 -1 -1 -1 -1 -1 -1 -1 -1 -1 -1 -1
 MicOpt= -1 -1 -1 -1 -1 -1 -1 -1
 NAtoms=     48 NQM=       48 NQMF=       0 NMMI=      0 NMMIF=      0
                NMic=       0 NMicF=      0.
                    Isotopes and Nuclear Properties:
 (Nuclear quadrupole moments (NQMom) in fm**2, nuclear magnetic moments (NMagM)
  in nuclear magnetons)

  Atom         1           2           3           4           5           6           7           8           9          10
 IAtWgt=          12           1           1          12           1          16           1          12           1          16
 AtmWgt=  12.0000000   1.0078250   1.0078250  12.0000000   1.0078250  15.9949146   1.0078250  12.0000000   1.0078250  15.9949146
 NucSpn=           0           1           1           0           1           0           1           0           1           0
 AtZEff=  -0.0000000  -0.0000000  -0.0000000  -0.0000000  -0.0000000  -0.0000000  -0.0000000  -0.0000000  -0.0000000  -0.0000000
 NQMom=    0.0000000   0.0000000   0.0000000   0.0000000   0.0000000   0.0000000   0.0000000   0.0000000   0.0000000   0.0000000
 NMagM=    0.0000000   2.7928460   2.7928460   0.0000000   2.7928460   0.0000000   2.7928460   0.0000000   2.7928460   0.0000000
 AtZNuc=   6.0000000   1.0000000   1.0000000   6.0000000   1.0000000   8.0000000   1.0000000   6.0000000   1.0000000   8.0000000

  Atom        11          12          13          14          15          16          17          18          19          20
 IAtWgt=           1          12           1          12           1          16          14          12           1          12
 AtmWgt=   1.0078250  12.0000000   1.0078250  12.0000000   1.0078250  15.9949146  14.0030740  12.0000000   1.0078250  12.0000000
 NucSpn=           1           0           1           0           1           0           2           0           1           0
 AtZEff=  -0.0000000  -0.0000000  -0.0000000  -0.0000000  -0.0000000  -0.0000000  -0.0000000  -0.0000000  -0.0000000  -0.0000000
 NQMom=    0.0000000   0.0000000   0.0000000   0.0000000   0.0000000   0.0000000   2.0440000   0.0000000   0.0000000   0.0000000
 NMagM=    2.7928460   0.0000000   2.7928460   0.0000000   2.7928460   0.0000000   0.4037610   0.0000000   2.7928460   0.0000000
 AtZNuc=   1.0000000   6.0000000   1.0000000   6.0000000   1.0000000   8.0000000   7.0000000   6.0000000   1.0000000   6.0000000

  Atom        21          22          23          24          25          26          27          28          29          30
 IAtWgt=           1          12           1           1          12          12           1          12          16          14
 AtmWgt=   1.0078250  12.0000000   1.0078250   1.0078250  12.0000000  12.0000000   1.0078250  12.0000000  15.9949146  14.0030740
 NucSpn=           1           0           1           1           0           0           1           0           0           2
 AtZEff=  -0.0000000  -0.0000000  -0.0000000  -0.0000000  -0.0000000  -0.0000000  -0.0000000  -0.0000000  -0.0000000  -0.0000000
 NQMom=    0.0000000   0.0000000   0.0000000   0.0000000   0.0000000   0.0000000   0.0000000   0.0000000   0.0000000   2.0440000
 NMagM=    2.7928460   0.0000000   2.7928460   2.7928460   0.0000000   0.0000000   2.7928460   0.0000000   0.0000000   0.4037610
 AtZNuc=   1.0000000   6.0000000   1.0000000   1.0000000   6.0000000   6.0000000   1.0000000   6.0000000   8.0000000   7.0000000

  Atom        31          32          33          34          35          36          37          38          39          40
 IAtWgt=           1           1           1          12          12          12          12          12          16          32
 AtmWgt=   1.0078250   1.0078250   1.0078250  12.0000000  12.0000000  12.0000000  12.0000000  12.0000000  15.9949146  31.9720718
 NucSpn=           1           1           1           0           0           0           0           0           0           0
 AtZEff=  -0.0000000  -0.0000000  -0.0000000  -0.0000000  -0.0000000  -0.0000000  -0.0000000  -0.0000000  -0.0000000  -0.0000000
 NQMom=    0.0000000   0.0000000   0.0000000   0.0000000   0.0000000   0.0000000   0.0000000   0.0000000   0.0000000   0.0000000
 NMagM=    2.7928460   2.7928460   2.7928460   0.0000000   0.0000000   0.0000000   0.0000000   0.0000000   0.0000000   0.0000000
 AtZNuc=   1.0000000   1.0000000   1.0000000   6.0000000   6.0000000   6.0000000   6.0000000   6.0000000   8.0000000  16.0000000

  Atom        41          42          43          44          45          46          47          48
 IAtWgt=           1           1           1           1           1           1           1           1
 AtmWgt=   1.0078250   1.0078250   1.0078250   1.0078250   1.0078250   1.0078250   1.0078250   1.0078250
 NucSpn=           1           1           1           1           1           1           1           1
 AtZEff=  -0.0000000  -0.0000000  -0.0000000  -0.0000000  -0.0000000  -0.0000000  -0.0000000  -0.0000000
 NQMom=    0.0000000   0.0000000   0.0000000   0.0000000   0.0000000   0.0000000   0.0000000   0.0000000
 NMagM=    2.7928460   2.7928460   2.7928460   2.7928460   2.7928460   2.7928460   2.7928460   2.7928460
 AtZNuc=   1.0000000   1.0000000   1.0000000   1.0000000   1.0000000   1.0000000   1.0000000   1.0000000
 Background charge distribution read from input stream:
 Leave Link  101 at Sat Aug 13 20:49:17 2022, MaxMem=  2684354560 cpu:               1.4 elap:               0.1
 (Enter /storage/apps/GAUSSIAN/G16_RevA03/g16/l103.exe)

 GradGradGradGradGradGradGradGradGradGradGradGradGradGradGradGradGradGrad
 Berny optimization.
 Initialization pass.
 Trust Radius=3.00D-01 FncErr=1.00D-07 GrdErr=1.00D-07 EigMax=2.50D+02 EigMin=1.00D-04
 Number of steps in this run=      2 maximum allowed number of steps=      2.
 GradGradGradGradGradGradGradGradGradGradGradGradGradGradGradGradGradGrad

 Leave Link  103 at Sat Aug 13 20:49:17 2022, MaxMem=  2684354560 cpu:               0.3 elap:               0.0
 (Enter /storage/apps/GAUSSIAN/G16_RevA03/g16/l202.exe)
 ---------------------------------------------------------------------------------------------------
                            Z-MATRIX (ANGSTROMS AND DEGREES)
   CD    Cent   Atom    N1       Length/X        N2       Alpha/Y        N3        Beta/Z          J
 ---------------------------------------------------------------------------------------------------
      1      1  C        0   3.575606         -3.625597         -0.391480
      2      2  H        0   3.760343         -3.716551         -1.461334
      3      3  H        0   4.278380         -4.269656          0.137500
      4      4  C        0   1.821302         -1.433183          1.236002
      5      5  H        0   1.166594         -2.294586          1.041433
      6      6  O        0   1.394378         -0.679306          2.306759
      7      7  H        0   0.456197         -0.358125          2.097026
      8      8  C        0   3.263356         -1.898099          1.457813
      9      9  H        0   3.310392         -2.784067          2.098426
     10     10  O        0   4.013012         -0.836634          1.992820
     11     11  H        0   3.438519         -0.391508          2.632546
     12     12  C        0   2.005024         -0.646773         -0.077348
     13     13  H        0   2.277349          0.389270          0.137175
     14     14  C        0   3.754181         -2.187121          0.046777
     15     15  H        0   4.795341         -1.877684         -0.045957
     16     16  O        0   2.975708         -1.319796         -0.811332
     17     17  N        0   0.787269         -0.584420         -0.924940
     18     18  C        0   0.347088         -1.721524         -1.500478
     19     19  H        0   0.949858         -2.599572         -1.327717
     20     20  C        0  -0.776945         -1.709420         -2.282573
     21     21  H        0  -1.111433         -2.626283         -2.744686
     22     22  C        0  -1.451608         -0.509572         -2.484438
     23     23  H        0  -2.313859         -0.471217         -3.137209
     24     24  H        0  -3.126997         -0.788964         -0.872386
     25     25  C        0  -0.983139          0.649533         -1.882034
     26     26  C        0   0.155264          0.574656         -1.097205
     27     27  H        0   0.552552          1.454653         -0.606957
     28     28  C        0  -1.555673          2.013239         -2.131824
     29     29  O        0  -0.850353          2.991437         -2.079747
     30     30  N        0  -2.867369          2.031455         -2.519612
     31     31  H        0  -3.262884          2.958567         -2.574726
     32     32  H        0  -3.469931          1.337489         -2.100542
     33     33  H        0   2.565330         -3.982872         -0.177807
     34     34  C        0   0.130399          2.176821          2.882653
     35     35  C        0  -1.666272          0.879924          1.179483
     36     36  C        0  -2.874837          0.832718          0.548658
     37     37  C        0  -5.029672         -0.326507         -0.008436
     38     38  C        0  -3.511752         -0.444212          0.103462
     39     39  O        0  -0.876966         -0.100734          1.381665
     40     40  S        0  -1.134339          2.548918          1.653942
     41     41  H        0   0.343134          3.113592          3.394521
     42     42  H        0   1.044388          1.803141          2.428019
     43     43  H        0  -5.468255         -0.067239          0.955718
     44     44  H        0  -5.313156          0.462102         -0.712043
     45     45  H        0  -5.483181         -1.256746         -0.353078
     46     46  H        0  -3.240323         -1.246218          0.795633
     47     47  H        0  -3.455608          1.745780          0.493030
     48     48  H        0  -0.238200          1.449666          3.603739
 ---------------------------------------------------------------------------------------------------
                         Z-Matrix orientation:                         
 ---------------------------------------------------------------------
 Center     Atomic      Atomic             Coordinates (Angstroms)
 Number     Number       Type             X           Y           Z
 ---------------------------------------------------------------------
      1          6           0        3.575606   -3.625597   -0.391480
      2          1           0        3.760343   -3.716551   -1.461334
      3          1           0        4.278380   -4.269656    0.137500
      4          6           0        1.821302   -1.433183    1.236002
      5          1           0        1.166594   -2.294586    1.041433
      6          8           0        1.394378   -0.679306    2.306759
      7          1           0        0.456197   -0.358125    2.097026
      8          6           0        3.263356   -1.898099    1.457813
      9          1           0        3.310392   -2.784067    2.098426
     10          8           0        4.013012   -0.836634    1.992820
     11          1           0        3.438519   -0.391508    2.632546
     12          6           0        2.005024   -0.646773   -0.077348
     13          1           0        2.277349    0.389270    0.137175
     14          6           0        3.754181   -2.187121    0.046777
     15          1           0        4.795341   -1.877684   -0.045957
     16          8           0        2.975708   -1.319796   -0.811332
     17          7           0        0.787269   -0.584420   -0.924940
     18          6           0        0.347088   -1.721524   -1.500478
     19          1           0        0.949858   -2.599572   -1.327717
     20          6           0       -0.776945   -1.709420   -2.282573
     21          1           0       -1.111433   -2.626283   -2.744686
     22          6           0       -1.451608   -0.509572   -2.484438
     23          1           0       -2.313859   -0.471217   -3.137209
     24          1           0       -3.126997   -0.788964   -0.872386
     25          6           0       -0.983139    0.649533   -1.882034
     26          6           0        0.155264    0.574656   -1.097205
     27          1           0        0.552552    1.454653   -0.606957
     28          6           0       -1.555673    2.013239   -2.131824
     29          8           0       -0.850353    2.991437   -2.079747
     30          7           0       -2.867369    2.031455   -2.519612
     31          1           0       -3.262884    2.958567   -2.574726
     32          1           0       -3.469931    1.337489   -2.100542
     33          1           0        2.565330   -3.982872   -0.177807
     34          6           0        0.130399    2.176821    2.882653
     35          6           0       -1.666272    0.879924    1.179483
     36          6           0       -2.874837    0.832718    0.548658
     37          6           0       -5.029672   -0.326507   -0.008436
     38          6           0       -3.511752   -0.444212    0.103462
     39          8           0       -0.876966   -0.100734    1.381665
     40         16           0       -1.134339    2.548918    1.653942
     41          1           0        0.343134    3.113592    3.394521
     42          1           0        1.044388    1.803141    2.428019
     43          1           0       -5.468255   -0.067239    0.955718
     44          1           0       -5.313156    0.462102   -0.712043
     45          1           0       -5.483181   -1.256746   -0.353078
     46          1           0       -3.240323   -1.246218    0.795633
     47          1           0       -3.455608    1.745780    0.493030
     48          1           0       -0.238200    1.449666    3.603739
 ---------------------------------------------------------------------
                    Distance matrix (angstroms):
                    1          2          3          4          5
     1  C    0.000000
     2  H    1.089490   0.000000
     3  H    1.090194   1.769338   0.000000
     4  C    3.245452   4.031038   3.910181   0.000000
     5  H    3.102929   3.874708   3.794892   1.099325   0.000000
     6  O    4.551800   5.387130   5.090556   1.377358   2.064477
     7  H    5.157494   5.904095   5.809380   1.939233   2.317072
     8  C    2.549830   3.474936   2.897893   1.531296   2.174163
     9  H    2.641618   3.707273   2.643711   2.187705   2.439815
    10  O    3.695203   4.504325   3.911301   2.394209   3.336594
    11  H    4.429769   5.283875   4.687286   2.377144   3.363776
    12  C    3.382129   3.797381   4.282475   1.541779   2.161001
    13  H    4.252541   4.648900   5.070475   2.176404   3.042128
    14  C    1.514322   2.147928   2.149411   2.391380   2.774256
    15  H    2.159245   2.540855   2.454065   3.268931   3.811040
    16  O    2.419271   2.604340   3.361385   2.353101   2.766920
    17  N    4.160308   4.351682   5.186290   2.541514   2.633473
    18  C    3.908798   3.953729   4.962963   3.121661   2.731538
    19  H    2.970491   3.027263   4.001887   2.948310   2.398513
    20  C    5.117877   5.028915   6.161808   4.382644   3.894712
    21  H    5.338964   5.154598   6.329120   5.086285   4.431041
    22  C    6.273991   6.204506   7.337953   5.040503   4.740572
    23  H    7.223222   7.087784   8.283084   6.095073   5.735789
    24  H    7.294014   7.506869   8.244677   5.417193   4.936043
    25  C    6.425001   6.460673   7.480676   4.682387   4.672884
    26  C    5.462501   5.616373   6.480119   3.500136   3.718751
    27  H    5.915592   6.145017   6.870497   3.653193   4.141380
    28  C    7.820185   7.844748   8.869091   5.884219   6.003137
    29  O    8.137844   8.163214   9.162072   6.140781   6.461569
    30  N    8.834201   8.836634   9.890701   6.934839   6.904240
    31  H    9.740776   9.753079  10.792314   7.723863   7.764824
    32  H    8.785938   8.844703   9.822690   6.841513   6.675428
    33  H    1.092684   1.773816   1.765277   3.008878   2.508649
    34  C    7.500497   8.171814   8.142400   4.313090   4.945429
    35  C    7.088366   7.586148   7.933649   4.185311   4.256959
    36  C    7.897382   8.292257   8.796123   5.259322   5.133812
    37  C    9.223965   9.532454  10.109874   7.050475   6.585535
    38  C    7.784396   8.126509   8.678787   5.540954   5.117675
    39  O    5.949294   6.531570   6.745773   3.012854   3.017430
    40  S    8.030689   8.539260   8.836859   4.976707   5.397128
    41  H    8.378505   9.050276   8.978123   5.245698   5.955124
    42  H    6.620259   7.278082   7.251486   3.535292   4.327692
    43  H    9.811640  10.214041  10.645501   7.421725   6.999260
    44  H    9.788878  10.017533  10.728878   7.634623   7.256801
    45  H    9.363469   9.629206  10.227725   7.477418   6.873229
    46  H    7.316254   7.759238   8.130511   5.084184   4.536564
    47  H    8.892245   9.258863   9.804409   6.205126   6.163607
    48  H    7.501012   8.266384   8.070003   4.261284   4.749556
                    6          7          8          9         10
     6  O    0.000000
     7  H    1.013572   0.000000
     8  C    2.387309   3.265005   0.000000
     9  H    2.853862   3.745881   1.094320   0.000000
    10  O    2.642074   3.590371   1.405320   2.072999   0.000000
    11  H    2.089851   3.030205   1.918462   2.454799   0.968209
    12  C    2.461283   2.685160   2.346473   3.317530   2.890270
    13  H    2.574604   2.777807   2.819282   3.870885   2.821132
    14  C    3.598568   4.292487   1.521665   2.182328   2.382833
    15  H    4.305570   5.072436   2.146793   2.761337   2.419181
    16  O    3.554339   3.966269   2.359278   3.274568   3.028649
    17  N    3.289599   3.048458   3.678895   4.510581   4.356874
    18  C    4.083882   3.848740   4.157798   4.781451   5.140541
    19  H    4.134542   4.122699   3.688294   4.164687   4.849415
    20  C    5.180516   4.746317   5.509094   6.087228   6.479539
    21  H    5.965476   5.571730   6.109830   6.559967   7.204633
    22  C    5.575304   4.965125   6.300812   6.989464   7.072120
    23  H    6.590228   5.923109   7.365836   8.024547   8.153528
    24  H    5.528275   4.673576   6.891779   7.365198   7.693595
    25  C    4.996437   4.349710   5.973084   6.787347   6.494976
    26  C    3.833379   3.341220   4.722591   5.607844   5.140254
    27  H    3.708395   3.256835   4.780448   5.735113   4.897307
    28  C    5.971065   5.249206   7.169874   8.036650   7.492978
    29  O    6.144478   5.511086   7.303732   8.253810   7.408930
    30  N    6.986027   6.170051   8.297415   9.092869   8.713646
    31  H    7.665057   6.830613   9.079669   9.900715   9.391735
    32  H    6.866824   5.992426   8.274544   8.977268   8.802094
    33  H    4.296248   4.770964   2.740214   2.678337   4.087324
    34  C    3.175966   2.673818   5.333907   5.944559   4.994737
    35  C    3.615180   2.622885   5.665343   6.247917   5.988519
    36  C    4.858326   3.861520   6.779479   7.330755   7.232897
    37  C    6.837618   5.876115   8.567036   8.946236   9.275526
    38  C    5.383298   4.441433   7.060463   7.483078   7.768252
    39  O    2.519831   1.534704   4.514265   5.024738   4.982664
    40  S    4.152350   3.343206   6.257328   6.956574   6.170253
    41  H    4.083432   3.707977   6.115193   6.728065   5.571091
    42  H    2.509928   2.264199   4.423155   5.126976   3.996316
    43  H    7.021087   6.040392   8.935613   9.260215   9.568802
    44  H    7.443587   6.469086   9.156166   9.633376   9.796959
    45  H    7.396552   6.487429   8.955030   9.255782   9.790680
    46  H    4.907682   4.018282   6.569724   6.853767   7.362872
    47  H    5.717781   4.722440   7.704099   8.299130   8.043539
    48  H    2.979931   2.453667   5.298436   5.725641   5.088716
                   11         12         13         14         15
    11  H    0.000000
    12  C    3.076295   0.000000
    13  H    2.860910   1.092505   0.000000
    14  C    3.163869   2.334016   2.971026   0.000000
    15  H    3.350233   3.049917   3.393067   1.090122   0.000000
    16  O    3.596694   1.390654   2.075639   1.447282   2.051366
    17  N    4.440951   1.485001   2.072800   3.509338   4.302300
    18  C    5.329895   2.434983   3.295947   3.770817   4.682624
    19  H    5.172298   2.547591   3.583478   3.150171   4.117253
    20  C    6.607982   3.705616   4.425878   5.117145   6.006757
    21  H    7.389919   4.554718   5.374247   5.626662   6.537088
    22  C    7.078899   4.214405   4.646062   6.026729   6.844143
    23  H    8.147778   5.295878   5.704491   7.064220   7.878751
    24  H    7.453088   5.195185   5.622669   7.081689   8.039387
    25  C    6.404394   3.723764   3.843920   5.848856   6.568777
    26  C    5.062043   2.440002   2.461972   4.678494   5.352514
    27  H    4.715029   2.608860   2.159560   4.892884   5.424062
    28  C    7.309171   4.896437   4.741064   7.112234   7.734695
    29  O    7.214184   5.039777   4.633415   7.248538   7.727775
    30  N    8.495864   6.072707   6.018589   8.260004   8.950836
    31  H    9.124006   6.854650   6.682056   9.087881   9.732368
    32  H    8.550920   6.164880   6.240010   8.319955   9.103482
    33  H    4.643107   3.384315   4.392923   2.165301   3.069552
    34  C    4.195536   4.499834   3.916935   6.341765   6.839404
    35  C    5.457731   4.169993   4.108442   6.330174   7.131518
    36  C    6.760161   5.137492   5.187580   7.301725   8.156683
    37  C    8.870697   7.042320   7.343439   8.978920   9.946780
    38  C    7.396304   5.523454   5.848890   7.472264   8.431190
    39  O    4.502517   3.276087   3.426159   5.251901   6.113160
    40  S    5.524020   4.802646   4.313268   6.993617   7.592468
    41  H    4.737905   5.381087   4.666200   7.137240   7.521428
    42  H    3.254255   3.633423   2.960944   5.379171   5.808501
    43  H    9.069042   7.566570   7.802102   9.506492  10.470075
    44  H    9.407802   7.428876   7.638209   9.476856  10.397114
    45  H    9.447715   7.518065   7.948304   9.292704  10.301840
    46  H    6.979377   5.351177   5.792503   7.097124   8.104253
    47  H    7.528248   5.989002   5.901995   8.224835   9.027633
    48  H    4.225092   4.793486   4.412425   6.466630   7.051814
                   16         17         18         19         20
    16  O    0.000000
    17  N    2.311482   0.000000
    18  C    2.746989   1.348336   0.000000
    19  H    2.451234   2.061432   1.078956   0.000000
    20  C    4.049538   2.357023   1.369405   2.164710   0.000000
    21  H    4.706324   3.329527   2.119888   2.501487   1.079846
    22  C    4.801757   2.729507   2.381662   3.387203   1.391242
    23  H    5.840318   3.811029   3.364936   4.296045   2.150733
    24  H    6.126052   3.919959   3.651498   4.484013   2.891126
    25  C    4.549410   2.360723   2.745360   3.821051   2.401584
    26  C    3.409630   1.331376   2.339202   3.280280   2.736990
    27  H    3.689312   2.077023   3.305858   4.136918   3.819242
    28  C    5.778082   3.700511   4.238815   5.310584   3.806223
    29  O    5.902063   4.099041   4.897083   5.921629   4.705803
    30  N    6.949148   4.768874   5.045416   6.118680   4.291877
    31  H    7.767495   5.628347   6.007425   7.084853   5.296730
    32  H    7.090098   4.816589   4.928212   5.969275   4.070499
    33  H    2.767984   3.907580   3.432747   2.417760   4.557349
    34  C    5.828176   4.749073   5.869914   6.419709   6.527304
    35  C    5.509092   3.548628   4.243034   5.023652   4.413778
    36  C    6.380577   4.194138   4.593899   5.470803   4.345053
    37  C    8.106625   5.894345   5.751679   6.531624   5.016955
    38  C    6.609889   4.422539   4.369759   5.157501   3.843577
    39  O    4.597656   2.885144   3.525907   4.113664   4.003063
    40  S    6.159303   4.490102   5.511957   6.304056   5.810105
    41  H    6.653914   5.703533   6.880362   7.436927   7.532955
    42  H    4.896542   4.124184   5.323775   5.787778   6.151830
    43  H    8.717332   6.552552   6.525931   7.267665   5.932257
    44  H    8.478814   6.193199   6.117860   6.998446   5.268708
    45  H    8.471527   6.332266   5.960250   6.643575   5.106518
    46  H    6.420809   4.429429   4.285739   4.888538   3.969652
    47  H    7.242993   5.044054   5.518765   6.450220   5.178573
    48  H    6.123069   5.069322   6.037552   6.490537   6.702144
                   21         22         23         24         25
    21  H    0.000000
    22  C    2.159610   0.000000
    23  H    2.498842   1.082154   0.000000
    24  H    3.308133   2.341730   2.427258   0.000000
    25  C    3.389926   1.387760   2.145311   2.772145   0.000000
    26  C    3.816376   2.383695   3.369278   3.561354   1.384747
    27  H    4.898242   3.376355   4.281059   4.317795   2.152298
    28  C    4.700863   2.549459   2.785349   3.450737   1.499961
    29  O    5.662957   3.575241   3.905131   4.575179   2.353983
    30  N    4.982820   2.909026   2.636506   3.276511   2.422093
    31  H    5.987335   3.913676   3.602840   4.118302   3.317936
    32  H    4.657137   2.762723   2.383820   2.479470   2.589433
    33  H    4.684847   5.789659   6.700468   6.563998   6.079079
    34  C    7.501926   6.206861   7.016070   5.788508   5.125897
    35  C    5.291544   3.924423   4.569330   3.021435   3.145256
    36  C    5.091208   3.609293   3.949754   2.170899   3.085505
    37  C    5.303643   4.355071   4.145576   2.140198   4.564806
    38  C    4.316817   3.308427   3.455087   1.104160   3.395932
    39  O    4.843567   3.929900   4.756274   3.258381   3.350508
    40  S    6.791992   5.155697   5.785120   4.636213   4.016672
    41  H    8.529466   7.135165   7.910371   6.743756   5.972656
    42  H    7.143125   5.975857   6.886384   5.917105   4.900840
    43  H    6.262874   5.306956   5.183191   3.056851   5.355639
    44  H    5.596806   4.358565   3.968412   2.523919   4.489216
    45  H    5.167940   4.621098   4.291042   2.457662   5.120741
    46  H    4.355526   3.808020   4.114147   1.733266   3.982292
    47  H    5.923926   4.238861   4.404237   2.897805   3.599415
    48  H    7.594629   6.509752   7.310166   5.778608   5.593644
                   26         27         28         29         30
    26  C    0.000000
    27  H    1.082855   0.000000
    28  C    2.463181   2.661175   0.000000
    29  O    2.795977   2.549305   1.207087   0.000000
    30  N    3.644422   3.960658   1.367939   2.276708   0.000000
    31  H    4.421520   4.548783   2.001094   2.463004   1.009458
    32  H    3.838051   4.292423   2.030271   3.098091   1.010094
    33  H    5.236867   5.813959   7.533538   7.995327   8.436255
    34  C    4.290317   3.588470   5.292880   5.123562   6.179985
    35  C    2.931636   2.906004   3.501627   3.968223   4.056102
    36  C    3.457886   3.670047   3.212290   3.958171   3.294132
    37  C    5.374111   5.889990   4.695940   5.724141   4.067130
    38  C    3.990827   4.541910   3.855102   4.863448   3.663970
    39  O    2.768835   2.901270   4.156216   4.641509   4.871129
    40  S    3.623478   3.025670   3.846622   3.770531   4.548595
    41  H    5.163051   4.336792   5.946153   5.604190   6.815814
    42  H    3.837567   3.094257   5.253249   5.032101   6.311341
    43  H    6.020838   6.403766   5.400889   6.316214   4.821519
    44  H    5.483123   5.950019   4.305866   5.308932   3.422287
    45  H    5.974933   6.621647   5.411290   6.518554   4.727431
    46  H    4.292835   4.862907   4.693837   5.651326   4.676867
    47  H    4.115674   4.166542   3.251330   3.867583   3.082799
    48  H    4.797846   4.284306   5.911855   5.920625   6.689278
                   31         32         33         34         35
    31  H    0.000000
    32  H    1.701650   0.000000
    33  H    9.375333   8.272093   0.000000
    34  C    6.473676   6.204763   7.296377   0.000000
    35  C    4.578647   3.771089   6.587524   2.794773   0.000000
    36  C    3.798071   2.761737   7.301580   4.035541   1.364111
    37  C    4.527593   3.094928   8.430999   6.422724   3.765513
    38  C    4.337457   2.834403   7.037908   5.278161   2.513355
    39  O    5.541205   4.573589   5.417781   2.907749   1.274979
    40  S    4.751857   4.584616   7.727039   1.802151   1.814829
    41  H    6.975622   6.920240   8.249817   1.088487   3.732744
    42  H    6.701870   6.411222   6.525453   1.087062   3.123916
    43  H    5.146183   3.912453   9.008637   6.331967   3.924572
    44  H    3.729013   2.468139   9.061663   6.744953   4.129432
    45  H    5.256834   3.719793   8.499471   7.332913   4.634965
    46  H    5.388882   3.887942   6.491723   5.237806   2.673099
    47  H    3.304409   2.625552   8.337816   4.330767   2.103009
    48  H    7.042650   6.557095   7.188347   1.088386   2.870716
                   36         37         38         39         40
    36  C    0.000000
    37  C    2.509476   0.000000
    38  C    1.494794   1.526583   0.000000
    39  O    2.357270   4.385011   2.948538   0.000000
    40  S    2.682597   5.119100   4.124913   2.676010   0.000000
    41  H    4.863811   7.230591   6.192672   3.983984   2.351893
    42  H    4.453543   6.882290   5.586821   2.900207   2.429451
    43  H    2.775146   1.090490   2.167107   4.611126   5.110247
    44  H    2.769860   1.094226   2.175203   4.937629   5.235952
    45  H    3.461567   1.090776   2.180636   5.055978   6.117486
    46  H    2.125218   2.166602   1.093612   2.690915   4.424355
    47  H    1.083546   2.650192   2.225080   3.293734   2.716806
    48  H    4.082401   6.257859   5.153140   2.783770   2.411043
                   41         42         43         44         45
    41  H    0.000000
    42  H    1.772897   0.000000
    43  H    7.059581   6.934011   0.000000
    44  H    7.475820   7.216422   1.756612   0.000000
    45  H    8.190867   7.727002   1.768643   1.764144   0.000000
    46  H    6.213158   5.506544   2.525728   3.080273   2.519933
    47  H    4.971921   4.898718   2.748066   2.559397   3.720499
    48  H    1.774928   1.775470   6.055286   6.734719   7.105694
                   46         47         48
    46  H    0.000000
    47  H    3.014957   0.000000
    48  H    4.915892   4.485076   0.000000
 Stoichiometry    C16H24N2O5S
 Framework group  C1[X(C16H24N2O5S)]
 Deg. of freedom   138
 Full point group                 C1      NOp   1
 Largest Abelian subgroup         C1      NOp   1
 Largest concise Abelian subgroup C1      NOp   1
                         Standard orientation:                         
 ---------------------------------------------------------------------
 Center     Atomic      Atomic             Coordinates (Angstroms)
 Number     Number       Type             X           Y           Z
 ---------------------------------------------------------------------
      1          6           0        4.699885   -1.839541    0.706531
      2          1           0        4.706524   -2.795525    0.183999
      3          1           0        5.703263   -1.645024    1.085896
      4          6           0        2.466136    0.514886    0.704689
      5          1           0        2.256699   -0.131935    1.568560
      6          8           0        1.944835    1.780683    0.856733
      7          1           0        0.943388    1.683813    0.979410
      8          6           0        3.973835    0.591019    0.447951
      9          1           0        4.538563    0.710298    1.377678
     10          8           0        4.236277    1.638974   -0.450848
     11          1           0        3.649535    2.367265   -0.200337
     12          6           0        2.024657   -0.217411   -0.578245
     13          1           0        1.825141    0.502803   -1.375146
     14          6           0        4.275084   -0.733930   -0.237048
     15          1           0        5.021288   -0.578319   -1.016362
     16          8           0        3.043207   -1.108656   -0.897868
     17          7           0        0.782253   -1.016485   -0.426123
     18          6           0        0.816174   -2.112401    0.358624
     19          1           0        1.774838   -2.349871    0.793040
     20          6           0       -0.309702   -2.872252    0.532689
     21          1           0       -0.264226   -3.752595    1.156386
     22          6           0       -1.483893   -2.506325   -0.117638
     23          1           0       -2.370564   -3.120517   -0.030220
     24          1           0       -2.517348   -1.382919    1.658208
     25          6           0       -1.498403   -1.374027   -0.919866
     26          6           0       -0.330723   -0.641752   -1.053357
     27          1           0       -0.299531    0.249661   -1.667348
     28          6           0       -2.667778   -0.960323   -1.763249
     29          8           0       -2.494012   -0.374934   -2.804491
     30          7           0       -3.887481   -1.390897   -1.318065
     31          1           0       -4.666952   -1.010900   -1.834817
     32          1           0       -4.016173   -1.419769   -0.316619
     33          1           0        4.024613   -1.911756    1.562540
     34          6           0       -0.359628    3.592858   -0.364837
     35          6           0       -1.637998    1.334579    0.672806
     36          6           0       -2.782471    0.669526    1.002477
     37          6           0       -4.225758   -0.557454    2.648355
     38          6           0       -2.831571   -0.398469    2.047171
     39          8           0       -0.464680    1.086557    1.105682
     40         16           0       -1.854766    2.613695   -0.596241
     41          1           0       -0.510991    4.516443   -0.920611
     42          1           0        0.523343    3.087022   -0.747194
     43          1           0       -4.549683    0.370279    3.121168
     44          1           0       -4.962894   -0.798205    1.876345
     45          1           0       -4.256132   -1.352232    3.394812
     46          1           0       -2.100859   -0.175202    2.829604
     47          1           0       -3.716651    1.027420    0.586195
     48          1           0       -0.214427    3.827415    0.688009
 ---------------------------------------------------------------------
 Rotational constants (GHZ):           0.3329357           0.1632800           0.1404009
 Leave Link  202 at Sat Aug 13 20:49:17 2022, MaxMem=  2684354560 cpu:               0.2 elap:               0.0
 (Enter /storage/apps/GAUSSIAN/G16_RevA03/g16/l301.exe)
 Standard basis: def2TZVP (5D, 7F)
 Ernie: Thresh=  0.10000D-02 Tol=  0.10000D-05 Strict=F.
 There are  1014 symmetry adapted cartesian basis functions of A   symmetry.
 There are   894 symmetry adapted basis functions of A   symmetry.
   894 basis functions,  1434 primitive gaussians,  1014 cartesian basis functions
    95 alpha electrons       95 beta electrons
       nuclear repulsion energy      2495.2528084527 Hartrees.
 IExCor= 4336 DFT=T Ex+Corr=M062X ExCW=0 ScaHFX=  0.540000
 ScaDFX=  1.000000  1.000000  1.000000  1.000000 ScalE2=  1.000000  1.000000
 IRadAn=      5 IRanWt=     -1 IRanGd=            0 ICorTp=0 IEmpDi=131
 NAtoms=   48 NActive=   48 NUniq=   48 SFac= 1.00D+00 NAtFMM=   60 NAOKFM=F Big=F
 Integral buffers will be    131072 words long.
 Raffenetti 2 integral format.
 Two-electron integral symmetry is turned on.
 R6Disp:  Grimme-D3 Dispersion energy=       -0.0042606198 Hartrees.
 Nuclear repulsion after empirical dispersion term =     2495.2485478329 Hartrees.
 Leave Link  301 at Sat Aug 13 20:49:18 2022, MaxMem=  2684354560 cpu:               0.8 elap:               0.1
 (Enter /storage/apps/GAUSSIAN/G16_RevA03/g16/l302.exe)
 NPDir=0 NMtPBC=     1 NCelOv=     1 NCel=       1 NClECP=     1 NCelD=      1
         NCelK=      1 NCelE2=     1 NClLst=     1 CellRange=     0.0.
 One-electron integrals computed using PRISM.
 One-electron integral symmetry used in STVInt
   1 Symmetry operations used in ECPInt.
 ECPInt:  NShTT=   65703 NPrTT=  200010 LenC2=   56889 LenP2D=  121101.
 LDataN:  DoStor=T MaxTD1= 6 Len=  172
 NBasis=   894 RedAO= T EigKep=  1.98D-05  NBF=   894
 NBsUse=   894 1.00D-06 EigRej= -1.00D+00 NBFU=   894
 Precomputing XC quadrature grid using
 IXCGrd= 4 IRadAn=           5 IRanWt=          -1 IRanGd=           0 AccXCQ= 0.00D+00.
 Generated NRdTot=       0 NPtTot=           0 NUsed=           0 NTot=          32
 NSgBfM=  1000  1000  1000  1000  1000 MxSgAt=    48 MxSgA2=    48.
 Leave Link  302 at Sat Aug 13 20:49:19 2022, MaxMem=  2684354560 cpu:              18.9 elap:               1.2
 (Enter /storage/apps/GAUSSIAN/G16_RevA03/g16/l303.exe)
 DipDrv:  MaxL=1.
 Leave Link  303 at Sat Aug 13 20:49:19 2022, MaxMem=  2684354560 cpu:               2.0 elap:               0.2
 (Enter /storage/apps/GAUSSIAN/G16_RevA03/g16/l401.exe)
 ExpMin= 9.52D-02 ExpMax= 6.07D+04 ExpMxC= 2.07D+03 IAcc=3 IRadAn=         5 AccDes= 0.00D+00
 Harris functional with IExCor= 1009 and IRadAn=       5 diagonalized for initial guess.
 HarFok:  IExCor= 1009 AccDes= 0.00D+00 IRadAn=         5 IDoV= 1 UseB2=F ITyADJ=14
 ICtDFT=  3500011 ScaDFX=  1.000000  1.000000  1.000000  1.000000
 FoFCou: FMM=F IPFlag=           0 FMFlag=      100000 FMFlg1=           0
         NFxFlg=           0 DoJE=T BraDBF=F KetDBF=T FulRan=T
         wScrn=  0.000000 ICntrl=       500 IOpCl=  0 I1Cent=   200000004 NGrid=           0
         NMat0=    1 NMatS0=      1 NMatT0=    0 NMatD0=    1 NMtDS0=    0 NMtDT0=    0
 Petite list used in FoFCou.
 Harris En= -1507.24579951007    
 JPrj=0 DoOrth=F DoCkMO=F.
 Leave Link  401 at Sat Aug 13 20:49:23 2022, MaxMem=  2684354560 cpu:              60.8 elap:               3.8
 (Enter /storage/apps/GAUSSIAN/G16_RevA03/g16/l502.exe)
 Integral symmetry usage will be decided dynamically.
 Closed shell SCF:
 Using DIIS extrapolation, IDIIS=  1040.
 NGot=  2684354560 LenX=  2682272944 LenY=  2681243734
 Requested convergence on RMS density matrix=1.00D-08 within 128 cycles.
 Requested convergence on MAX density matrix=1.00D-06.
 Requested convergence on             energy=1.00D-06.
 No special actions if energy rises.
 Fock matrices will be formed incrementally for  20 cycles.
 Integral accuracy reduced to 1.0D-05 until final iterations.

 Cycle   1  Pass 0  IDiag  1:
 FoFJK:  IHMeth= 1 ICntrl=       0 DoSepK=F KAlg= 0 I1Cent=           0 FoldK=F
 IRaf= 790000000 NMat=       1 IRICut=       1 DoRegI=T DoRafI=F ISym2E= 0 IDoP0=0 IntGTp=1.
 FoFCou: FMM=F IPFlag=           0 FMFlag=      100000 FMFlg1=           0
         NFxFlg=           0 DoJE=F BraDBF=F KetDBF=F FulRan=T
         wScrn=  0.000000 ICntrl=         0 IOpCl=  0 I1Cent=           0 NGrid=           0
         NMat0=    1 NMatS0=      1 NMatT0=    0 NMatD0=    1 NMtDS0=    0 NMtDT0=    0
 Symmetry not used in FoFCou.
 E= -1507.17094915085    
 DIIS: error= 1.98D-02 at cycle   1 NSaved=   1.
 NSaved= 1 IEnMin= 1 EnMin= -1507.17094915085     IErMin= 1 ErrMin= 1.98D-02
 ErrMax= 1.98D-02  0.00D+00 EMaxC= 1.00D-01 BMatC= 9.91D-01 BMatP= 9.91D-01
 IDIUse=3 WtCom= 8.02D-01 WtEn= 1.98D-01
 Coeff-Com:  0.100D+01
 Coeff-En:   0.100D+01
 Coeff:      0.100D+01
 Gap=     0.173 Goal=   None    Shift=    0.000
 GapD=    0.173 DampG=1.000 DampE=0.500 DampFc=0.5000 IDamp=-1.
 Damping current iteration by 5.00D-01
 RMSDP=3.99D-03 MaxDP=7.43D-01              OVMax= 5.08D-01

 Cycle   2  Pass 0  IDiag  1:
 RMSU=  1.99D-03    CP:  1.01D+00
 E= -1507.48497750117     Delta-E=       -0.314028350326 Rises=F Damp=T
 DIIS: error= 4.14D-03 at cycle   2 NSaved=   2.
 NSaved= 2 IEnMin= 2 EnMin= -1507.48497750117     IErMin= 2 ErrMin= 4.14D-03
 ErrMax= 4.14D-03  0.00D+00 EMaxC= 1.00D-01 BMatC= 9.24D-02 BMatP= 9.91D-01
 IDIUse=3 WtCom= 9.59D-01 WtEn= 4.14D-02
 Coeff-Com:  0.156D-02 0.998D+00
 Coeff-En:   0.973D-01 0.903D+00
 Coeff:      0.553D-02 0.994D+00
 Gap=     0.167 Goal=   None    Shift=    0.000
 RMSDP=1.36D-03 MaxDP=1.83D-01 DE=-3.14D-01 OVMax= 3.59D-01

 Cycle   3  Pass 0  IDiag  1:
 RMSU=  1.16D-03    CP:  9.99D-01  6.49D-01
 E= -1507.85162946868     Delta-E=       -0.366651967509 Rises=F Damp=F
 DIIS: error= 4.53D-03 at cycle   3 NSaved=   3.
 NSaved= 3 IEnMin= 3 EnMin= -1507.85162946868     IErMin= 2 ErrMin= 4.14D-03
 ErrMax= 4.53D-03  0.00D+00 EMaxC= 1.00D-01 BMatC= 5.85D-02 BMatP= 9.24D-02
 IDIUse=3 WtCom= 9.55D-01 WtEn= 4.53D-02
 Coeff-Com: -0.793D-01 0.464D+00 0.615D+00
 Coeff-En:   0.000D+00 0.000D+00 0.100D+01
 Coeff:     -0.757D-01 0.443D+00 0.633D+00
 Gap=     0.134 Goal=   None    Shift=    0.000
 RMSDP=5.27D-04 MaxDP=3.08D-02 DE=-3.67D-01 OVMax= 1.05D-01

 Cycle   4  Pass 0  IDiag  1:
 RMSU=  4.07D-04    CP:  1.00D+00  8.00D-01  8.75D-01
 E= -1507.90201818581     Delta-E=       -0.050388717125 Rises=F Damp=F
 DIIS: error= 1.34D-03 at cycle   4 NSaved=   4.
 NSaved= 4 IEnMin= 4 EnMin= -1507.90201818581     IErMin= 4 ErrMin= 1.34D-03
 ErrMax= 1.34D-03  0.00D+00 EMaxC= 1.00D-01 BMatC= 6.55D-03 BMatP= 5.85D-02
 IDIUse=3 WtCom= 9.87D-01 WtEn= 1.34D-02
 Coeff-Com: -0.388D-01 0.104D+00 0.287D+00 0.648D+00
 Coeff-En:   0.000D+00 0.000D+00 0.000D+00 0.100D+01
 Coeff:     -0.383D-01 0.103D+00 0.283D+00 0.653D+00
 Gap=     0.144 Goal=   None    Shift=    0.000
 RMSDP=1.76D-04 MaxDP=2.83D-02 DE=-5.04D-02 OVMax= 3.50D-02

 Cycle   5  Pass 0  IDiag  1:
 RMSU=  1.62D-04    CP:  1.00D+00  7.94D-01  9.28D-01  9.30D-01
 E= -1507.90775149103     Delta-E=       -0.005733305221 Rises=F Damp=F
 DIIS: error= 5.42D-04 at cycle   5 NSaved=   5.
 NSaved= 5 IEnMin= 5 EnMin= -1507.90775149103     IErMin= 5 ErrMin= 5.42D-04
 ErrMax= 5.42D-04  0.00D+00 EMaxC= 1.00D-01 BMatC= 5.04D-04 BMatP= 6.55D-03
 IDIUse=3 WtCom= 9.95D-01 WtEn= 5.42D-03
 Coeff-Com: -0.117D-01 0.211D-01 0.809D-01 0.292D+00 0.618D+00
 Coeff-En:   0.000D+00 0.000D+00 0.000D+00 0.000D+00 0.100D+01
 Coeff:     -0.117D-01 0.210D-01 0.804D-01 0.290D+00 0.620D+00
 Gap=     0.145 Goal=   None    Shift=    0.000
 RMSDP=5.69D-05 MaxDP=5.33D-03 DE=-5.73D-03 OVMax= 6.20D-03

 Cycle   6  Pass 0  IDiag  1:
 RMSU=  5.39D-05    CP:  1.00D+00  7.93D-01  9.25D-01  9.70D-01  9.54D-01
 E= -1507.90824359674     Delta-E=       -0.000492105715 Rises=F Damp=F
 DIIS: error= 1.72D-04 at cycle   6 NSaved=   6.
 NSaved= 6 IEnMin= 6 EnMin= -1507.90824359674     IErMin= 6 ErrMin= 1.72D-04
 ErrMax= 1.72D-04  0.00D+00 EMaxC= 1.00D-01 BMatC= 6.17D-05 BMatP= 5.04D-04
 IDIUse=3 WtCom= 9.98D-01 WtEn= 1.72D-03
 Coeff-Com:  0.399D-04-0.397D-02-0.712D-02 0.396D-01 0.281D+00 0.690D+00
 Coeff-En:   0.000D+00 0.000D+00 0.000D+00 0.000D+00 0.000D+00 0.100D+01
 Coeff:      0.398D-04-0.397D-02-0.711D-02 0.396D-01 0.280D+00 0.691D+00
 Gap=     0.145 Goal=   None    Shift=    0.000
 RMSDP=4.22D-05 MaxDP=7.06D-03 DE=-4.92D-04 OVMax= 6.13D-03

 Cycle   7  Pass 0  IDiag  1:
 RMSU=  2.10D-05    CP:  1.00D+00  7.96D-01  9.31D-01  1.01D+00  1.15D+00
                    CP:  1.04D+00
 E= -1507.90832620613     Delta-E=       -0.000082609390 Rises=F Damp=F
 DIIS: error= 5.37D-05 at cycle   7 NSaved=   7.
 NSaved= 7 IEnMin= 7 EnMin= -1507.90832620613     IErMin= 7 ErrMin= 5.37D-05
 ErrMax= 5.37D-05  0.00D+00 EMaxC= 1.00D-01 BMatC= 5.72D-06 BMatP= 6.17D-05
 IDIUse=1 WtCom= 1.00D+00 WtEn= 0.00D+00
 Coeff-Com:  0.162D-02-0.422D-02-0.152D-01-0.249D-01 0.216D-01 0.233D+00
 Coeff-Com:  0.788D+00
 Coeff:      0.162D-02-0.422D-02-0.152D-01-0.249D-01 0.216D-01 0.233D+00
 Coeff:      0.788D+00
 Gap=     0.145 Goal=   None    Shift=    0.000
 RMSDP=1.93D-05 MaxDP=2.33D-03 DE=-8.26D-05 OVMax= 3.71D-03

 Cycle   8  Pass 0  IDiag  1:
 RMSU=  1.17D-05    CP:  1.00D+00  7.95D-01  9.29D-01  1.02D+00  1.22D+00
                    CP:  1.17D+00  1.25D+00
 E= -1507.90833348647     Delta-E=       -0.000007280335 Rises=F Damp=F
 DIIS: error= 3.15D-05 at cycle   8 NSaved=   8.
 NSaved= 8 IEnMin= 8 EnMin= -1507.90833348647     IErMin= 8 ErrMin= 3.15D-05
 ErrMax= 3.15D-05  0.00D+00 EMaxC= 1.00D-01 BMatC= 1.52D-06 BMatP= 5.72D-06
 IDIUse=1 WtCom= 1.00D+00 WtEn= 0.00D+00
 Coeff-Com:  0.750D-03-0.134D-02-0.696D-02-0.180D-01-0.324D-01 0.123D-03
 Coeff-Com:  0.365D+00 0.693D+00
 Coeff:      0.750D-03-0.134D-02-0.696D-02-0.180D-01-0.324D-01 0.123D-03
 Coeff:      0.365D+00 0.693D+00
 Gap=     0.145 Goal=   None    Shift=    0.000
 RMSDP=1.55D-05 MaxDP=1.60D-03 DE=-7.28D-06 OVMax= 2.21D-03

 Cycle   9  Pass 0  IDiag  1:
 RMSU=  1.17D-05    CP:  1.00D+00  7.94D-01  9.28D-01  1.02D+00  1.23D+00
                    CP:  1.25D+00  1.45D+00  1.64D+00
 E= -1507.90833046600     Delta-E=        0.000003020467 Rises=F Damp=F
 DIIS: error= 1.49D-05 at cycle   9 NSaved=   9.
 NSaved= 9 IEnMin= 8 EnMin= -1507.90833348647     IErMin= 9 ErrMin= 1.49D-05
 ErrMax= 1.49D-05  0.00D+00 EMaxC= 1.00D-01 BMatC= 3.94D-07 BMatP= 1.52D-06
 IDIUse=1 WtCom= 1.00D+00 WtEn= 0.00D+00
 Coeff-Com:  0.207D-03-0.262D-03-0.225D-02-0.647D-02-0.199D-01-0.288D-01
 Coeff-Com:  0.798D-01 0.347D+00 0.631D+00
 Coeff:      0.207D-03-0.262D-03-0.225D-02-0.647D-02-0.199D-01-0.288D-01
 Coeff:      0.798D-01 0.347D+00 0.631D+00
 Gap=     0.145 Goal=   None    Shift=    0.000
 RMSDP=2.01D-05 MaxDP=2.49D-03 DE= 3.02D-06 OVMax= 9.14D-04

 Cycle  10  Pass 0  IDiag  1:
 RMSU=  7.48D-06    CP:  1.00D+00  7.93D-01  9.27D-01  1.02D+00  1.22D+00
                    CP:  1.32D+00  1.56D+00  2.35D+00  2.35D+00
 E= -1507.90832733387     Delta-E=        0.000003132129 Rises=F Damp=F
 DIIS: error= 2.46D-05 at cycle  10 NSaved=  10.
 NSaved=10 IEnMin= 8 EnMin= -1507.90833348647     IErMin= 9 ErrMin= 1.49D-05
 ErrMax= 2.46D-05  0.00D+00 EMaxC= 1.00D-01 BMatC= 3.94D-07 BMatP= 3.94D-07
 IDIUse=1 WtCom= 1.00D+00 WtEn= 0.00D+00
 Coeff-Com:  0.203D-03-0.258D-03-0.222D-02-0.634D-02-0.195D-01-0.281D-01
 Coeff-Com:  0.782D-01 0.339D+00 0.616D+00 0.231D-01
 Coeff:      0.203D-03-0.258D-03-0.222D-02-0.634D-02-0.195D-01-0.281D-01
 Coeff:      0.782D-01 0.339D+00 0.616D+00 0.231D-01
 Gap=     0.145 Goal=   None    Shift=    0.000
 RMSDP=1.04D-06 MaxDP=1.40D-04 DE= 3.13D-06 OVMax= 1.28D-05

 Initial convergence to 1.0D-05 achieved.  Increase integral accuracy.
 Cycle  11  Pass 1  IDiag  1:
 E= -1507.90822011157     Delta-E=        0.000107222303 Rises=F Damp=F
 DIIS: error= 3.33D-04 at cycle   1 NSaved=   1.
 NSaved= 1 IEnMin= 1 EnMin= -1507.90822011157     IErMin= 1 ErrMin= 3.33D-04
 ErrMax= 3.33D-04  0.00D+00 EMaxC= 1.00D-01 BMatC= 9.52D-05 BMatP= 9.52D-05
 IDIUse=3 WtCom= 9.97D-01 WtEn= 3.33D-03
 Coeff-Com:  0.100D+01
 Coeff-En:   0.100D+01
 Coeff:      0.100D+01
 Gap=     0.145 Goal=   None    Shift=    0.000
 RMSDP=1.04D-06 MaxDP=1.40D-04 DE= 1.07D-04 OVMax= 1.03D-03

 Cycle  12  Pass 1  IDiag  1:
 RMSU=  5.76D-04    CP:  9.90D-01
 E= -1507.90828219927     Delta-E=       -0.000062087706 Rises=F Damp=F
 DIIS: error= 1.05D-05 at cycle   2 NSaved=   2.
 NSaved= 2 IEnMin= 2 EnMin= -1507.90828219927     IErMin= 2 ErrMin= 1.05D-05
 ErrMax= 1.05D-05  0.00D+00 EMaxC= 1.00D-01 BMatC= 1.42D-07 BMatP= 9.52D-05
 IDIUse=1 WtCom= 1.00D+00 WtEn= 0.00D+00
 Coeff-Com: -0.158D-01 0.102D+01
 Coeff:     -0.158D-01 0.102D+01
 Gap=     0.145 Goal=   None    Shift=    0.000
 RMSDP=2.18D-05 MaxDP=1.99D-03 DE=-6.21D-05 OVMax= 3.92D-04

 Cycle  13  Pass 1  IDiag  1:
 RMSU=  8.37D-06    CP:  9.90D-01  1.03D+00
 E= -1507.90828222339     Delta-E=       -0.000000024114 Rises=F Damp=F
 DIIS: error= 8.18D-06 at cycle   3 NSaved=   3.
 NSaved= 3 IEnMin= 3 EnMin= -1507.90828222339     IErMin= 3 ErrMin= 8.18D-06
 ErrMax= 8.18D-06  0.00D+00 EMaxC= 1.00D-01 BMatC= 2.27D-07 BMatP= 1.42D-07
 IDIUse=1 WtCom= 1.00D+00 WtEn= 0.00D+00
 Coeff-Com: -0.104D-01 0.598D+00 0.413D+00
 Coeff:     -0.104D-01 0.598D+00 0.413D+00
 Gap=     0.145 Goal=   None    Shift=    0.000
 RMSDP=9.02D-07 MaxDP=9.57D-05 DE=-2.41D-08 OVMax= 1.01D-04

 Cycle  14  Pass 1  IDiag  1:
 RMSU=  8.39D-07    CP:  9.90D-01  1.04D+00  1.01D+00
 E= -1507.90828240801     Delta-E=       -0.000000184620 Rises=F Damp=F
 DIIS: error= 1.67D-06 at cycle   4 NSaved=   4.
 NSaved= 4 IEnMin= 4 EnMin= -1507.90828240801     IErMin= 4 ErrMin= 1.67D-06
 ErrMax= 1.67D-06  0.00D+00 EMaxC= 1.00D-01 BMatC= 3.84D-09 BMatP= 1.42D-07
 IDIUse=1 WtCom= 1.00D+00 WtEn= 0.00D+00
 Coeff-Com: -0.804D-03 0.339D-01 0.949D-01 0.872D+00
 Coeff:     -0.804D-03 0.339D-01 0.949D-01 0.872D+00
 Gap=     0.145 Goal=   None    Shift=    0.000
 RMSDP=5.73D-07 MaxDP=5.24D-05 DE=-1.85D-07 OVMax= 1.08D-04

 Cycle  15  Pass 1  IDiag  1:
 RMSU=  3.14D-07    CP:  9.90D-01  1.04D+00  1.05D+00  9.93D-01
 E= -1507.90828241709     Delta-E=       -0.000000009079 Rises=F Damp=F
 DIIS: error= 1.05D-06 at cycle   5 NSaved=   5.
 NSaved= 5 IEnMin= 5 EnMin= -1507.90828241709     IErMin= 5 ErrMin= 1.05D-06
 ErrMax= 1.05D-06  0.00D+00 EMaxC= 1.00D-01 BMatC= 1.57D-09 BMatP= 3.84D-09
 IDIUse=1 WtCom= 1.00D+00 WtEn= 0.00D+00
 Coeff-Com:  0.883D-03-0.571D-01-0.860D-02 0.439D+00 0.625D+00
 Coeff:      0.883D-03-0.571D-01-0.860D-02 0.439D+00 0.625D+00
 Gap=     0.145 Goal=   None    Shift=    0.000
 RMSDP=1.91D-07 MaxDP=1.85D-05 DE=-9.08D-09 OVMax= 5.92D-05

 Cycle  16  Pass 1  IDiag  1:
 RMSU=  1.11D-07    CP:  9.90D-01  1.04D+00  1.06D+00  1.02D+00  1.34D+00
 E= -1507.90828242041     Delta-E=       -0.000000003323 Rises=F Damp=F
 DIIS: error= 4.15D-07 at cycle   6 NSaved=   6.
 NSaved= 6 IEnMin= 6 EnMin= -1507.90828242041     IErMin= 6 ErrMin= 4.15D-07
 ErrMax= 4.15D-07  0.00D+00 EMaxC= 1.00D-01 BMatC= 2.24D-10 BMatP= 1.57D-09
 IDIUse=1 WtCom= 1.00D+00 WtEn= 0.00D+00
 Coeff-Com:  0.444D-03-0.255D-01-0.237D-01-0.200D-01 0.227D+00 0.842D+00
 Coeff:      0.444D-03-0.255D-01-0.237D-01-0.200D-01 0.227D+00 0.842D+00
 Gap=     0.145 Goal=   None    Shift=    0.000
 RMSDP=1.17D-07 MaxDP=1.44D-05 DE=-3.32D-09 OVMax= 4.08D-05

 Cycle  17  Pass 1  IDiag  1:
 RMSU=  6.02D-08    CP:  9.90D-01  1.04D+00  1.07D+00  1.02D+00  1.62D+00
                    CP:  1.32D+00
 E= -1507.90828242137     Delta-E=       -0.000000000955 Rises=F Damp=F
 DIIS: error= 1.97D-07 at cycle   7 NSaved=   7.
 NSaved= 7 IEnMin= 7 EnMin= -1507.90828242137     IErMin= 7 ErrMin= 1.97D-07
 ErrMax= 1.97D-07  0.00D+00 EMaxC= 1.00D-01 BMatC= 6.17D-11 BMatP= 2.24D-10
 IDIUse=1 WtCom= 1.00D+00 WtEn= 0.00D+00
 Coeff-Com: -0.722D-04 0.633D-02-0.112D-01-0.160D+00-0.684D-01 0.451D+00
 Coeff-Com:  0.782D+00
 Coeff:     -0.722D-04 0.633D-02-0.112D-01-0.160D+00-0.684D-01 0.451D+00
 Coeff:      0.782D+00
 Gap=     0.145 Goal=   None    Shift=    0.000
 RMSDP=8.14D-08 MaxDP=1.16D-05 DE=-9.55D-10 OVMax= 2.74D-05

 Cycle  18  Pass 1  IDiag  1:
 RMSU=  2.75D-08    CP:  9.90D-01  1.04D+00  1.07D+00  1.02D+00  1.82D+00
                    CP:  1.62D+00  1.41D+00
 E= -1507.90828242163     Delta-E=       -0.000000000263 Rises=F Damp=F
 DIIS: error= 4.74D-08 at cycle   8 NSaved=   8.
 NSaved= 8 IEnMin= 8 EnMin= -1507.90828242163     IErMin= 8 ErrMin= 4.74D-08
 ErrMax= 4.74D-08  0.00D+00 EMaxC= 1.00D-01 BMatC= 4.38D-12 BMatP= 6.17D-11
 IDIUse=1 WtCom= 1.00D+00 WtEn= 0.00D+00
 Coeff-Com: -0.669D-04 0.463D-02-0.198D-02-0.543D-01-0.416D-01 0.754D-01
 Coeff-Com:  0.286D+00 0.732D+00
 Coeff:     -0.669D-04 0.463D-02-0.198D-02-0.543D-01-0.416D-01 0.754D-01
 Coeff:      0.286D+00 0.732D+00
 Gap=     0.145 Goal=   None    Shift=    0.000
 RMSDP=1.52D-08 MaxDP=1.74D-06 DE=-2.63D-10 OVMax= 5.08D-06

 Cycle  19  Pass 1  IDiag  1:
 RMSU=  4.89D-09    CP:  9.90D-01  1.04D+00  1.07D+00  1.02D+00  1.84D+00
                    CP:  1.68D+00  1.55D+00  1.11D+00
 E= -1507.90828242160     Delta-E=        0.000000000032 Rises=F Damp=F
 DIIS: error= 1.64D-08 at cycle   9 NSaved=   9.
 NSaved= 9 IEnMin= 8 EnMin= -1507.90828242163     IErMin= 9 ErrMin= 1.64D-08
 ErrMax= 1.64D-08  0.00D+00 EMaxC= 1.00D-01 BMatC= 4.84D-13 BMatP= 4.38D-12
 IDIUse=1 WtCom= 1.00D+00 WtEn= 0.00D+00
 Coeff-Com: -0.116D-04 0.604D-03 0.809D-03 0.422D-02-0.343D-02-0.445D-01
 Coeff-Com: -0.173D-01 0.226D+00 0.833D+00
 Coeff:     -0.116D-04 0.604D-03 0.809D-03 0.422D-02-0.343D-02-0.445D-01
 Coeff:     -0.173D-01 0.226D+00 0.833D+00
 Gap=     0.145 Goal=   None    Shift=    0.000
 RMSDP=7.08D-09 MaxDP=1.09D-06 DE= 3.18D-11 OVMax= 2.02D-06

 Cycle  20  Pass 1  IDiag  1:
 RMSU=  2.32D-09    CP:  9.90D-01  1.04D+00  1.07D+00  1.02D+00  1.85D+00
                    CP:  1.70D+00  1.62D+00  1.21D+00  1.22D+00
 E= -1507.90828242162     Delta-E=       -0.000000000021 Rises=F Damp=F
 DIIS: error= 6.48D-09 at cycle  10 NSaved=  10.
 NSaved=10 IEnMin= 8 EnMin= -1507.90828242163     IErMin=10 ErrMin= 6.48D-09
 ErrMax= 6.48D-09  0.00D+00 EMaxC= 1.00D-01 BMatC= 1.17D-13 BMatP= 4.84D-13
 IDIUse=1 WtCom= 1.00D+00 WtEn= 0.00D+00
 Coeff-Com:  0.339D-05-0.325D-03 0.602D-03 0.904D-02 0.466D-02-0.282D-01
 Coeff-Com: -0.442D-01 0.305D-02 0.392D+00 0.663D+00
 Coeff:      0.339D-05-0.325D-03 0.602D-03 0.904D-02 0.466D-02-0.282D-01
 Coeff:     -0.442D-01 0.305D-02 0.392D+00 0.663D+00
 Gap=     0.145 Goal=   None    Shift=    0.000
 RMSDP=1.29D-09 MaxDP=9.29D-08 DE=-2.14D-11 OVMax= 3.44D-07

 SCF Done:  E(RM062X) =  -1507.90828242     A.U. after   20 cycles
            NFock= 20  Conv=0.13D-08     -V/T= 2.0037
 KE= 1.502289206169D+03 PE=-8.527964946582D+03 EE= 3.022518910158D+03
 Leave Link  502 at Sat Aug 13 20:59:16 2022, MaxMem=  2684354560 cpu:            9475.2 elap:             593.2
 (Enter /storage/apps/GAUSSIAN/G16_RevA03/g16/l601.exe)
 Copying SCF densities to generalized density rwf, IOpCl= 0 IROHF=0.

 **********************************************************************

            Population analysis using the SCF density.

 **********************************************************************

 Orbital symmetries:
       Occupied  (A) (A) (A) (A) (A) (A) (A) (A) (A) (A) (A) (A)
                 (A) (A) (A) (A) (A) (A) (A) (A) (A) (A) (A) (A)
                 (A) (A) (A) (A) (A) (A) (A) (A) (A) (A) (A) (A)
                 (A) (A) (A) (A) (A) (A) (A) (A) (A) (A) (A) (A)
                 (A) (A) (A) (A) (A) (A) (A) (A) (A) (A) (A) (A)
                 (A) (A) (A) (A) (A) (A) (A) (A) (A) (A) (A) (A)
                 (A) (A) (A) (A) (A) (A) (A) (A) (A) (A) (A) (A)
                 (A) (A) (A) (A) (A) (A) (A) (A) (A) (A) (A)
       Virtual   (A) (A) (A) (A) (A) (A) (A) (A) (A) (A) (A) (A)
                 (A) (A) (A) (A) (A) (A) (A) (A) (A) (A) (A) (A)
                 (A) (A) (A) (A) (A) (A) (A) (A) (A) (A) (A) (A)
                 (A) (A) (A) (A) (A) (A) (A) (A) (A) (A) (A) (A)
                 (A) (A) (A) (A) (A) (A) (A) (A) (A) (A) (A) (A)
                 (A) (A) (A) (A) (A) (A) (A) (A) (A) (A) (A) (A)
                 (A) (A) (A) (A) (A) (A) (A) (A) (A) (A) (A) (A)
                 (A) (A) (A) (A) (A) (A) (A) (A) (A) (A) (A) (A)
                 (A) (A) (A) (A) (A) (A) (A) (A) (A) (A) (A) (A)
                 (A) (A) (A) (A) (A) (A) (A) (A) (A) (A) (A) (A)
                 (A) (A) (A) (A) (A) (A) (A) (A) (A) (A) (A) (A)
                 (A) (A) (A) (A) (A) (A) (A) (A) (A) (A) (A) (A)
                 (A) (A) (A) (A) (A) (A) (A) (A) (A) (A) (A) (A)
                 (A) (A) (A) (A) (A) (A) (A) (A) (A) (A) (A) (A)
                 (A) (A) (A) (A) (A) (A) (A) (A) (A) (A) (A) (A)
                 (A) (A) (A) (A) (A) (A) (A) (A) (A) (A) (A) (A)
                 (A) (A) (A) (A) (A) (A) (A) (A) (A) (A) (A) (A)
                 (A) (A) (A) (A) (A) (A) (A) (A) (A) (A) (A) (A)
                 (A) (A) (A) (A) (A) (A) (A) (A) (A) (A) (A) (A)
                 (A) (A) (A) (A) (A) (A) (A) (A) (A) (A) (A) (A)
                 (A) (A) (A) (A) (A) (A) (A) (A) (A) (A) (A) (A)
                 (A) (A) (A) (A) (A) (A) (A) (A) (A) (A) (A) (A)
                 (A) (A) (A) (A) (A) (A) (A) (A) (A) (A) (A) (A)
                 (A) (A) (A) (A) (A) (A) (A) (A) (A) (A) (A) (A)
                 (A) (A) (A) (A) (A) (A) (A) (A) (A) (A) (A) (A)
                 (A) (A) (A) (A) (A) (A) (A) (A) (A) (A) (A) (A)
                 (A) (A) (A) (A) (A) (A) (A) (A) (A) (A) (A) (A)
                 (A) (A) (A) (A) (A) (A) (A) (A) (A) (A) (A) (A)
                 (A) (A) (A) (A) (A) (A) (A) (A) (A) (A) (A) (A)
                 (A) (A) (A) (A) (A) (A) (A) (A) (A) (A) (A) (A)
                 (A) (A) (A) (A) (A) (A) (A) (A) (A) (A) (A) (A)
                 (A) (A) (A) (A) (A) (A) (A) (A) (A) (A) (A) (A)
                 (A) (A) (A) (A) (A) (A) (A) (A) (A) (A) (A) (A)
                 (A) (A) (A) (A) (A) (A) (A) (A) (A) (A) (A) (A)
                 (A) (A) (A) (A) (A) (A) (A) (A) (A) (A) (A) (A)
                 (A) (A) (A) (A) (A) (A) (A) (A) (A) (A) (A) (A)
                 (A) (A) (A) (A) (A) (A) (A) (A) (A) (A) (A) (A)
                 (A) (A) (A) (A) (A) (A) (A) (A) (A) (A) (A) (A)
                 (A) (A) (A) (A) (A) (A) (A) (A) (A) (A) (A) (A)
                 (A) (A) (A) (A) (A) (A) (A) (A) (A) (A) (A) (A)
                 (A) (A) (A) (A) (A) (A) (A) (A) (A) (A) (A) (A)
                 (A) (A) (A) (A) (A) (A) (A) (A) (A) (A) (A) (A)
                 (A) (A) (A) (A) (A) (A) (A) (A) (A) (A) (A) (A)
                 (A) (A) (A) (A) (A) (A) (A) (A) (A) (A) (A) (A)
                 (A) (A) (A) (A) (A) (A) (A) (A) (A) (A) (A) (A)
                 (A) (A) (A) (A) (A) (A) (A) (A) (A) (A) (A) (A)
                 (A) (A) (A) (A) (A) (A) (A) (A) (A) (A) (A) (A)
                 (A) (A) (A) (A) (A) (A) (A) (A) (A) (A) (A) (A)
                 (A) (A) (A) (A) (A) (A) (A) (A) (A) (A) (A) (A)
                 (A) (A) (A) (A) (A) (A) (A) (A) (A) (A) (A) (A)
                 (A) (A) (A) (A) (A) (A) (A) (A) (A) (A) (A) (A)
                 (A) (A) (A) (A) (A) (A) (A) (A) (A) (A) (A) (A)
                 (A) (A) (A) (A) (A) (A) (A) (A) (A) (A) (A) (A)
                 (A) (A) (A) (A) (A) (A) (A) (A) (A) (A) (A) (A)
                 (A) (A) (A) (A) (A) (A) (A) (A) (A) (A) (A) (A)
                 (A) (A) (A) (A) (A) (A) (A) (A) (A) (A) (A) (A)
                 (A) (A) (A) (A) (A) (A) (A) (A) (A) (A) (A) (A)
                 (A) (A) (A) (A) (A) (A) (A) (A) (A) (A) (A) (A)
                 (A) (A) (A) (A) (A) (A) (A) (A) (A) (A) (A) (A)
                 (A) (A) (A) (A) (A) (A) (A) (A) (A) (A) (A) (A)
                 (A) (A) (A) (A) (A) (A) (A) (A) (A) (A) (A) (A)
                 (A) (A) (A) (A) (A) (A) (A) (A) (A) (A) (A) (A)
                 (A) (A) (A) (A) (A) (A) (A) (A) (A) (A) (A) (A)
                 (A) (A) (A) (A) (A) (A) (A) (A) (A) (A) (A) (A)
                 (A) (A) (A) (A) (A) (A) (A) (A) (A) (A) (A) (A)
                 (A) (A) (A) (A) (A) (A) (A) (A) (A) (A) (A) (A)
                 (A) (A) (A) (A) (A) (A) (A)
 The electronic state is 1-A.
 Alpha  occ. eigenvalues --  -89.86546 -19.66682 -19.63161 -19.61461 -19.61254
 Alpha  occ. eigenvalues --  -19.56545 -14.88433 -14.77788 -10.66722 -10.66414
 Alpha  occ. eigenvalues --  -10.64464 -10.64128 -10.61266 -10.61086 -10.61042
 Alpha  occ. eigenvalues --  -10.60419 -10.60203 -10.60052 -10.58499 -10.55272
 Alpha  occ. eigenvalues --  -10.53469 -10.52157 -10.51850 -10.48683  -8.22442
 Alpha  occ. eigenvalues --   -6.14412  -6.14190  -6.13914  -1.22667  -1.18730
 Alpha  occ. eigenvalues --   -1.17033  -1.15915  -1.13717  -1.09840  -1.03279
 Alpha  occ. eigenvalues --   -0.98104  -0.93589  -0.90804  -0.87982  -0.87352
 Alpha  occ. eigenvalues --   -0.85136  -0.81629  -0.81014  -0.78767  -0.77100
 Alpha  occ. eigenvalues --   -0.73268  -0.71452  -0.70022  -0.69148  -0.67225
 Alpha  occ. eigenvalues --   -0.65891  -0.64052  -0.62944  -0.62627  -0.61407
 Alpha  occ. eigenvalues --   -0.60065  -0.58299  -0.58058  -0.57496  -0.56149
 Alpha  occ. eigenvalues --   -0.56078  -0.54361  -0.53455  -0.52516  -0.51911
 Alpha  occ. eigenvalues --   -0.51548  -0.50897  -0.50094  -0.49892  -0.49027
 Alpha  occ. eigenvalues --   -0.48727  -0.48040  -0.47852  -0.47168  -0.45887
 Alpha  occ. eigenvalues --   -0.45683  -0.45557  -0.44649  -0.43306  -0.43234
 Alpha  occ. eigenvalues --   -0.42358  -0.40223  -0.39615  -0.38590  -0.38128
 Alpha  occ. eigenvalues --   -0.37817  -0.37287  -0.36837  -0.36625  -0.36201
 Alpha  occ. eigenvalues --   -0.34950  -0.34356  -0.29090  -0.27644  -0.21366
 Alpha virt. eigenvalues --   -0.06864  -0.04268   0.03875   0.04672   0.04986
 Alpha virt. eigenvalues --    0.06356   0.07110   0.07304   0.08171   0.08671
 Alpha virt. eigenvalues --    0.09368   0.09791   0.10363   0.11058   0.11353
 Alpha virt. eigenvalues --    0.11411   0.11837   0.12493   0.13088   0.13122
 Alpha virt. eigenvalues --    0.13540   0.14003   0.14168   0.14443   0.15127
 Alpha virt. eigenvalues --    0.15411   0.15605   0.16026   0.16579   0.16670
 Alpha virt. eigenvalues --    0.17266   0.17700   0.18600   0.18866   0.19299
 Alpha virt. eigenvalues --    0.20110   0.20771   0.21365   0.21527   0.22229
 Alpha virt. eigenvalues --    0.22431   0.22856   0.23375   0.23887   0.24349
 Alpha virt. eigenvalues --    0.24564   0.24979   0.25536   0.25710   0.26052
 Alpha virt. eigenvalues --    0.26557   0.26990   0.27843   0.28079   0.28361
 Alpha virt. eigenvalues --    0.29360   0.29525   0.29861   0.30378   0.31132
 Alpha virt. eigenvalues --    0.31757   0.31935   0.32570   0.33065   0.33896
 Alpha virt. eigenvalues --    0.34183   0.34463   0.34775   0.35920   0.36049
 Alpha virt. eigenvalues --    0.36336   0.36873   0.37449   0.37750   0.38283
 Alpha virt. eigenvalues --    0.38390   0.38911   0.39213   0.39567   0.40022
 Alpha virt. eigenvalues --    0.40258   0.40777   0.41135   0.41721   0.42025
 Alpha virt. eigenvalues --    0.42515   0.42945   0.43090   0.43684   0.44071
 Alpha virt. eigenvalues --    0.44242   0.44546   0.44941   0.45313   0.45699
 Alpha virt. eigenvalues --    0.46019   0.46198   0.46652   0.47127   0.47339
 Alpha virt. eigenvalues --    0.47743   0.48162   0.48410   0.48618   0.48927
 Alpha virt. eigenvalues --    0.49597   0.49724   0.50044   0.50165   0.50923
 Alpha virt. eigenvalues --    0.51195   0.51877   0.52101   0.52686   0.53019
 Alpha virt. eigenvalues --    0.53624   0.53813   0.54156   0.54336   0.55268
 Alpha virt. eigenvalues --    0.55658   0.55769   0.56212   0.56331   0.57263
 Alpha virt. eigenvalues --    0.57347   0.58549   0.58714   0.59230   0.59460
 Alpha virt. eigenvalues --    0.60542   0.60912   0.61558   0.61870   0.62410
 Alpha virt. eigenvalues --    0.62893   0.63367   0.63775   0.64546   0.65077
 Alpha virt. eigenvalues --    0.65403   0.66182   0.66809   0.67065   0.67364
 Alpha virt. eigenvalues --    0.67522   0.68099   0.68633   0.69660   0.70547
 Alpha virt. eigenvalues --    0.70868   0.71625   0.72078   0.72698   0.73223
 Alpha virt. eigenvalues --    0.73834   0.74726   0.74999   0.75726   0.76751
 Alpha virt. eigenvalues --    0.77452   0.78073   0.78988   0.79663   0.80098
 Alpha virt. eigenvalues --    0.80735   0.81218   0.82580   0.83276   0.83672
 Alpha virt. eigenvalues --    0.84658   0.85414   0.86571   0.86772   0.87200
 Alpha virt. eigenvalues --    0.88033   0.88675   0.89471   0.89704   0.90266
 Alpha virt. eigenvalues --    0.90503   0.90858   0.91705   0.92340   0.92926
 Alpha virt. eigenvalues --    0.93770   0.94093   0.94663   0.95545   0.96287
 Alpha virt. eigenvalues --    0.96856   0.97292   0.97469   0.98425   0.99430
 Alpha virt. eigenvalues --    0.99883   1.00556   1.01422   1.01728   1.02691
 Alpha virt. eigenvalues --    1.03513   1.03939   1.04907   1.05556   1.06636
 Alpha virt. eigenvalues --    1.07206   1.07893   1.08317   1.08965   1.09777
 Alpha virt. eigenvalues --    1.10443   1.11394   1.11980   1.12629   1.13206
 Alpha virt. eigenvalues --    1.14154   1.14663   1.15248   1.16207   1.16877
 Alpha virt. eigenvalues --    1.17928   1.18367   1.18933   1.19000   1.20225
 Alpha virt. eigenvalues --    1.21305   1.21416   1.22654   1.23323   1.24811
 Alpha virt. eigenvalues --    1.25175   1.25483   1.25890   1.26875   1.27913
 Alpha virt. eigenvalues --    1.28228   1.28853   1.29229   1.29400   1.31004
 Alpha virt. eigenvalues --    1.31577   1.31912   1.33436   1.33974   1.34432
 Alpha virt. eigenvalues --    1.34840   1.36293   1.36891   1.39060   1.39449
 Alpha virt. eigenvalues --    1.40244   1.41096   1.42319   1.42462   1.43922
 Alpha virt. eigenvalues --    1.45023   1.45411   1.46154   1.47687   1.49077
 Alpha virt. eigenvalues --    1.50056   1.50974   1.52275   1.52709   1.53370
 Alpha virt. eigenvalues --    1.53759   1.54431   1.54881   1.55437   1.56066
 Alpha virt. eigenvalues --    1.56434   1.56950   1.57665   1.57766   1.58831
 Alpha virt. eigenvalues --    1.59303   1.59706   1.60086   1.60386   1.60681
 Alpha virt. eigenvalues --    1.61078   1.61378   1.62265   1.63121   1.63179
 Alpha virt. eigenvalues --    1.63479   1.63785   1.64184   1.64394   1.65297
 Alpha virt. eigenvalues --    1.65986   1.66696   1.67000   1.68065   1.68457
 Alpha virt. eigenvalues --    1.68954   1.70099   1.70920   1.71354   1.71799
 Alpha virt. eigenvalues --    1.72480   1.73056   1.73413   1.74081   1.74584
 Alpha virt. eigenvalues --    1.75475   1.76307   1.76735   1.77390   1.77765
 Alpha virt. eigenvalues --    1.78164   1.78905   1.79183   1.80116   1.81027
 Alpha virt. eigenvalues --    1.81552   1.82549   1.83693   1.84581   1.85737
 Alpha virt. eigenvalues --    1.86252   1.86440   1.86966   1.88336   1.88710
 Alpha virt. eigenvalues --    1.89589   1.89919   1.90226   1.91419   1.91565
 Alpha virt. eigenvalues --    1.92145   1.92846   1.93293   1.93773   1.94618
 Alpha virt. eigenvalues --    1.95399   1.95843   1.96919   1.97227   1.97841
 Alpha virt. eigenvalues --    1.98932   1.99350   2.00158   2.01713   2.02052
 Alpha virt. eigenvalues --    2.02757   2.03572   2.03979   2.04783   2.05406
 Alpha virt. eigenvalues --    2.05907   2.06303   2.07062   2.07544   2.08700
 Alpha virt. eigenvalues --    2.09341   2.10357   2.11349   2.12933   2.13851
 Alpha virt. eigenvalues --    2.14554   2.14888   2.16047   2.16060   2.17135
 Alpha virt. eigenvalues --    2.17474   2.18078   2.18191   2.19067   2.19848
 Alpha virt. eigenvalues --    2.20702   2.20864   2.22065   2.22156   2.22659
 Alpha virt. eigenvalues --    2.23114   2.23704   2.24663   2.25259   2.26203
 Alpha virt. eigenvalues --    2.26416   2.27680   2.28610   2.28717   2.30073
 Alpha virt. eigenvalues --    2.30565   2.32116   2.32978   2.33181   2.33743
 Alpha virt. eigenvalues --    2.34246   2.34824   2.35462   2.35562   2.36423
 Alpha virt. eigenvalues --    2.37467   2.38078   2.38157   2.38683   2.39743
 Alpha virt. eigenvalues --    2.40513   2.41335   2.41952   2.42914   2.43781
 Alpha virt. eigenvalues --    2.44421   2.44711   2.45803   2.46458   2.47010
 Alpha virt. eigenvalues --    2.47875   2.48733   2.49887   2.51055   2.52368
 Alpha virt. eigenvalues --    2.52678   2.53749   2.54293   2.55024   2.56144
 Alpha virt. eigenvalues --    2.56959   2.57564   2.58213   2.58700   2.59071
 Alpha virt. eigenvalues --    2.59887   2.60218   2.60535   2.60780   2.61909
 Alpha virt. eigenvalues --    2.62356   2.62435   2.62781   2.64447   2.64707
 Alpha virt. eigenvalues --    2.65833   2.66348   2.67115   2.67127   2.68016
 Alpha virt. eigenvalues --    2.68093   2.69089   2.69388   2.69903   2.70353
 Alpha virt. eigenvalues --    2.71288   2.71794   2.72529   2.73218   2.73812
 Alpha virt. eigenvalues --    2.74168   2.75384   2.75891   2.76440   2.77377
 Alpha virt. eigenvalues --    2.79067   2.79487   2.80246   2.80707   2.80978
 Alpha virt. eigenvalues --    2.82059   2.82356   2.82820   2.83231   2.84034
 Alpha virt. eigenvalues --    2.85287   2.85497   2.85689   2.86399   2.87143
 Alpha virt. eigenvalues --    2.88656   2.88986   2.89888   2.90503   2.92233
 Alpha virt. eigenvalues --    2.92579   2.93534   2.93885   2.94539   2.95186
 Alpha virt. eigenvalues --    2.96471   2.97410   2.97646   2.98564   2.98995
 Alpha virt. eigenvalues --    3.00091   3.01140   3.01281   3.01971   3.02878
 Alpha virt. eigenvalues --    3.03820   3.04145   3.04892   3.05943   3.06468
 Alpha virt. eigenvalues --    3.07350   3.08055   3.08677   3.09583   3.09731
 Alpha virt. eigenvalues --    3.10867   3.11060   3.11454   3.11834   3.12421
 Alpha virt. eigenvalues --    3.13120   3.13620   3.13871   3.14184   3.14689
 Alpha virt. eigenvalues --    3.15665   3.16839   3.17064   3.17456   3.17987
 Alpha virt. eigenvalues --    3.18193   3.19271   3.19697   3.20724   3.20949
 Alpha virt. eigenvalues --    3.22298   3.22842   3.23056   3.23418   3.24247
 Alpha virt. eigenvalues --    3.24922   3.25849   3.26335   3.27223   3.27566
 Alpha virt. eigenvalues --    3.28570   3.29039   3.29917   3.30343   3.31506
 Alpha virt. eigenvalues --    3.31773   3.32036   3.32432   3.32727   3.33170
 Alpha virt. eigenvalues --    3.34229   3.35064   3.35466   3.36257   3.36519
 Alpha virt. eigenvalues --    3.37413   3.38297   3.39037   3.39552   3.40655
 Alpha virt. eigenvalues --    3.40966   3.41523   3.41981   3.42350   3.42622
 Alpha virt. eigenvalues --    3.43076   3.44146   3.45426   3.45588   3.45947
 Alpha virt. eigenvalues --    3.46706   3.47549   3.48178   3.48735   3.49941
 Alpha virt. eigenvalues --    3.50595   3.51094   3.51332   3.52670   3.53223
 Alpha virt. eigenvalues --    3.54394   3.54676   3.56013   3.56217   3.56635
 Alpha virt. eigenvalues --    3.57132   3.57728   3.58373   3.59239   3.60257
 Alpha virt. eigenvalues --    3.60635   3.61725   3.62938   3.63492   3.64453
 Alpha virt. eigenvalues --    3.65866   3.67273   3.68117   3.69311   3.69743
 Alpha virt. eigenvalues --    3.70789   3.71611   3.72818   3.73387   3.74855
 Alpha virt. eigenvalues --    3.75819   3.77176   3.78095   3.78410   3.79847
 Alpha virt. eigenvalues --    3.80000   3.80313   3.81717   3.83824   3.85141
 Alpha virt. eigenvalues --    3.85774   3.86338   3.87104   3.88217   3.88526
 Alpha virt. eigenvalues --    3.90301   3.91543   3.91779   3.92366   3.93508
 Alpha virt. eigenvalues --    3.95706   3.96841   3.97558   3.97881   3.98557
 Alpha virt. eigenvalues --    4.00173   4.01285   4.02407   4.05711   4.07223
 Alpha virt. eigenvalues --    4.07917   4.10521   4.10933   4.12461   4.13381
 Alpha virt. eigenvalues --    4.14227   4.15854   4.16766   4.16985   4.17508
 Alpha virt. eigenvalues --    4.18581   4.20143   4.20640   4.22912   4.24239
 Alpha virt. eigenvalues --    4.26630   4.27113   4.28933   4.29422   4.30877
 Alpha virt. eigenvalues --    4.31722   4.33031   4.35250   4.36384   4.36989
 Alpha virt. eigenvalues --    4.38589   4.39844   4.40766   4.41952   4.43750
 Alpha virt. eigenvalues --    4.43929   4.44727   4.45425   4.47318   4.48676
 Alpha virt. eigenvalues --    4.49968   4.50827   4.53860   4.56850   4.57960
 Alpha virt. eigenvalues --    4.58926   4.60686   4.61486   4.63036   4.66579
 Alpha virt. eigenvalues --    4.67939   4.71835   4.73080   4.75413   4.76108
 Alpha virt. eigenvalues --    4.77182   4.79663   4.81184   4.81371   4.83886
 Alpha virt. eigenvalues --    4.85565   4.86707   4.87770   4.88875   4.89842
 Alpha virt. eigenvalues --    4.90881   4.92815   4.94190   4.95440   4.98454
 Alpha virt. eigenvalues --    4.99774   5.01225   5.02618   5.03939   5.05183
 Alpha virt. eigenvalues --    5.07733   5.12365   5.13835   5.17654   5.19658
 Alpha virt. eigenvalues --    5.20811   5.24606   5.27037   5.27253   5.29500
 Alpha virt. eigenvalues --    5.29999   5.31157   5.32666   5.33391   5.37767
 Alpha virt. eigenvalues --    5.39662   5.41950   5.43847   5.44903   5.46534
 Alpha virt. eigenvalues --    5.48606   5.49283   5.49823   5.52877   5.59253
 Alpha virt. eigenvalues --    5.65182   5.67488   5.71814   5.74226   5.77588
 Alpha virt. eigenvalues --    5.80337   5.81543   5.83505   5.85291   5.86612
 Alpha virt. eigenvalues --    5.87963   5.90657   5.91767   5.94610   5.95057
 Alpha virt. eigenvalues --    5.97631   6.02693   6.05110   6.14808   6.18300
 Alpha virt. eigenvalues --    6.20278   6.22091   6.26502   6.27185   6.37724
 Alpha virt. eigenvalues --    6.42093   6.44432   6.48072   6.51129   6.56505
 Alpha virt. eigenvalues --    6.57421   6.70300   6.74038   6.75885   6.76499
 Alpha virt. eigenvalues --    6.76647   6.80743   6.83898   6.85041   6.87926
 Alpha virt. eigenvalues --    6.90563   6.95030   7.00224   7.08049   7.08556
 Alpha virt. eigenvalues --    7.10183   7.11084   7.17079   7.18979   7.25321
 Alpha virt. eigenvalues --    7.32066   7.42721   9.07912   9.41312   9.59899
 Alpha virt. eigenvalues --   19.79926  22.35924  22.46158  22.50306  22.55435
 Alpha virt. eigenvalues --   22.64555  22.66862  22.73939  22.75485  22.81313
 Alpha virt. eigenvalues --   22.87028  22.94099  22.96679  23.07010  23.19942
 Alpha virt. eigenvalues --   23.28033  23.51045  32.18799  33.15717  44.13187
 Alpha virt. eigenvalues --   44.24168  44.26402  44.39543  44.50797
          Condensed to atoms (all electrons):
[...]
 (Enter /storage/apps/GAUSSIAN/G16_RevA03/g16/l716.exe)
 Dipole        = 8.00425703D-01-2.75550396D+00 8.38716730D-01
 ***** Axes restored to original set *****
 -------------------------------------------------------------------
 Center     Atomic                   Forces (Hartrees/Bohr)
 Number     Number              X              Y              Z
 -------------------------------------------------------------------
      1        6          -0.000034854   -0.000017290    0.000076648
      2        1           0.000004991   -0.000004130    0.000003626
      3        1          -0.000012047   -0.000016050    0.000010851
      4        6          -0.000079436    0.000034489   -0.000075389
      5        1          -0.000063380    0.000013062   -0.000006246
      6        8          -0.000210427    0.000036248   -0.000121353
      7        1          -0.000030058    0.000000125   -0.000000633
      8        6          -0.000154722   -0.000048029    0.000072957
      9        1          -0.000042214   -0.000005476    0.000021186
     10        8          -0.000178457   -0.000176703    0.000312068
     11        1          -0.000043763    0.000016720    0.000012642
     12        6           0.000089295    0.000068825   -0.000022087
     13        1           0.000014938    0.000007137   -0.000036381
     14        6           0.000047769   -0.000022331    0.000151208
     15        1          -0.000020165    0.000001212    0.000005432
     16        8           0.000199010    0.000056976    0.000065101
     17        7           0.000253463   -0.000028374   -0.000254442
     18        6           0.000201413    0.000132651   -0.000200760
     19        1          -0.000006331   -0.000008582   -0.000004195
     20        6           0.000275725    0.000030129   -0.000208785
     21        1           0.000019360    0.000029369    0.000005507
     22        6           0.000096246    0.000161218   -0.000107673
     23        1           0.000027452   -0.000000150    0.000007920
     24        1          -0.000044801    0.000002294   -0.000060764
     25        6           0.000088240    0.000035561   -0.000062268
     26        6           0.000144657    0.000087242   -0.000016420
     27        1           0.000008903    0.000045855   -0.000040253
     28        6          -0.000048141    0.000032494    0.000119113
     29        8          -0.000089920    0.000059511   -0.000089521
     30        7           0.000043974    0.000090306    0.000239740
     31        1          -0.000036303    0.000019109    0.000040196
     32        1          -0.000153451   -0.000161594    0.000153508
     33        1          -0.000039390    0.000031421    0.000007172
     34        6          -0.000321569   -0.000093649    0.000210814
     35        6          -0.000142699   -0.000080279   -0.000115883
     36        6           0.000236851   -0.000309637    0.000144175
     37        6          -0.000233063   -0.000140007    0.000767839
     38        6          -0.000215106    0.000046270    0.000120494
     39        8          -0.000076132   -0.000122968   -0.000221843
     40       16           0.000876592   -0.000083094   -0.001156800
     41        1          -0.000029417   -0.000019122   -0.000002465
     42        1          -0.000080217    0.000014309    0.000067297
     43        1           0.000042163   -0.000034088    0.000041106
     44        1          -0.000042553   -0.000008873    0.000095141
     45        1           0.000009352   -0.000004060    0.000042402
     46        1           0.000054280   -0.000017588   -0.000001541
     47        1          -0.000264440    0.000324272    0.000058765
     48        1          -0.000041617    0.000025266   -0.000047208
 -------------------------------------------------------------------
 Cartesian Forces:  Max     0.001156800 RMS     0.000176779
 Leave Link  716 at Sat Aug 13 21:02:33 2022, MaxMem=  2684354560 cpu:               0.4 elap:               0.0
 (Enter /storage/apps/GAUSSIAN/G16_RevA03/g16/l103.exe)

 GradGradGradGradGradGradGradGradGradGradGradGradGradGradGradGradGradGrad
 Berny optimization.
 Search for a local minimum.
 Step number   1 out of a maximum of    2
 All quantities printed in internal units (Hartrees-Bohrs-Radians)
 Second derivative matrix not updated -- first step.
 ITU=  0
     Eigenvalues ---    0.00046   0.00086   0.00113   0.00145   0.00211
     Eigenvalues ---    0.00213   0.00308   0.00357   0.00460   0.00522
     Eigenvalues ---    0.00610   0.00648   0.00801   0.00918   0.00956
     Eigenvalues ---    0.01106   0.01160   0.01246   0.01492   0.01624
     Eigenvalues ---    0.01824   0.02136   0.02400   0.02465   0.02811
     Eigenvalues ---    0.02942   0.03318   0.03660   0.04120   0.04386
     Eigenvalues ---    0.04577   0.04692   0.04985   0.05052   0.05240
     Eigenvalues ---    0.05388   0.05483   0.05722   0.05949   0.06056
     Eigenvalues ---    0.06146   0.06299   0.06631   0.06748   0.07064
     Eigenvalues ---    0.07118   0.07480   0.08105   0.08262   0.08500
     Eigenvalues ---    0.08666   0.09152   0.09297   0.09783   0.10754
     Eigenvalues ---    0.10837   0.11110   0.11300   0.12023   0.12613
     Eigenvalues ---    0.13014   0.13141   0.13280   0.13655   0.13714
     Eigenvalues ---    0.13956   0.14322   0.15955   0.16338   0.16798
     Eigenvalues ---    0.17976   0.18118   0.18610   0.19816   0.20305
     Eigenvalues ---    0.20537   0.20867   0.21825   0.22583   0.25158
     Eigenvalues ---    0.25667   0.27294   0.28060   0.30555   0.33205
     Eigenvalues ---    0.33670   0.34391   0.34574   0.37754   0.37827
     Eigenvalues ---    0.37827   0.37827   0.37827   0.37827   0.39988
     Eigenvalues ---    0.43901   0.47939   0.49311   0.57054   0.58373
     Eigenvalues ---    0.60057   0.61771   0.69514   0.71966   0.73909
     Eigenvalues ---    0.78994   0.81834   0.82494   0.87364   0.90769
     Eigenvalues ---    0.90967   0.91666   0.92337   0.93256   0.95254
     Eigenvalues ---    0.96910   0.99654   0.99807   1.01941   1.03892
     Eigenvalues ---    1.05859   1.08528   1.11212   1.11723   1.12538
     Eigenvalues ---    1.19738   1.20675   1.27346   1.27872   1.29319
     Eigenvalues ---    1.33603   1.37484   1.43000   1.56659   1.72385
     Eigenvalues ---    1.84170   1.85886   2.36199
 Quadratic step=7.079D-01 exceeds max=3.000D-01 adjusted using Lamda=-9.027D-04.
 Angle between NR and scaled steps=  18.38 degrees.
 Angle between quadratic step and forces=  66.06 degrees.
 Linear search not attempted -- first point.
 Variable       Old X    -DE/DX   Delta X   Delta X   Delta X     New X
                                 (Linear)    (Quad)   (Total)
    X1        6.75692  -0.00003   0.00000  -0.01839  -0.01839   6.73853
    Y1       -6.85139  -0.00002   0.00000  -0.02533  -0.02533  -6.87672
    Z1       -0.73979   0.00008   0.00000   0.02489   0.02489  -0.71490
    X2        7.10602   0.00000   0.00000  -0.01087  -0.01087   7.09515
    Y2       -7.02326  -0.00000   0.00000  -0.03270  -0.03270  -7.05596
    Z2       -2.76152   0.00000   0.00000   0.02613   0.02613  -2.73540
    X3        8.08497  -0.00001   0.00000  -0.02714  -0.02714   8.05782
    Y3       -8.06848  -0.00002   0.00000  -0.03069  -0.03069  -8.09917
    Z3        0.25984   0.00001   0.00000   0.03016   0.03016   0.29000
    X4        3.44176  -0.00008   0.00000  -0.00788  -0.00788   3.43388
    Y4       -2.70832   0.00003   0.00000   0.02715   0.02715  -2.68117
    Z4        2.33571  -0.00008   0.00000  -0.01318  -0.01318   2.32253
    X5        2.20454  -0.00006   0.00000  -0.02206  -0.02206   2.18248
    Y5       -4.33614   0.00001   0.00000   0.03882   0.03882  -4.29732
    Z5        1.96802  -0.00001   0.00000  -0.01545  -0.01545   1.95257
    X6        2.63499  -0.00021   0.00000  -0.01076  -0.01076   2.62423
    Y6       -1.28370   0.00004   0.00000   0.04919   0.04919  -1.23451
    Z6        4.35914  -0.00012   0.00000  -0.02958  -0.02958   4.32957
    X7        0.86209  -0.00003   0.00000   0.00425   0.00425   0.86633
    Y7       -0.67676   0.00000   0.00000   0.07365   0.07365  -0.60311
    Z7        3.96280  -0.00000   0.00000  -0.05710  -0.05710   3.90571
    X8        6.16685  -0.00015   0.00000  -0.02091  -0.02091   6.14594
    Y8       -3.58689  -0.00005   0.00000  -0.00328  -0.00328  -3.59016
    Z8        2.75487   0.00007   0.00000   0.01098   0.01098   2.76585
    X9        6.25573  -0.00004   0.00000  -0.04610  -0.04610   6.20964
    Y9       -5.26112  -0.00001   0.00000  -0.00060  -0.00060  -5.26172
    Z9        3.96545   0.00002   0.00000   0.01571   0.01571   3.98116
   X10        7.58349  -0.00018   0.00000  -0.00606  -0.00606   7.57743
   Y10       -1.58101  -0.00018   0.00000  -0.01658  -0.01658  -1.59758
   Z10        3.76588   0.00031   0.00000   0.01646   0.01646   3.78234
   X11        6.49786  -0.00004   0.00000  -0.00673  -0.00673   6.49113
   Y11       -0.73984   0.00002   0.00000   0.00948   0.00948  -0.73037
   Z11        4.97479   0.00001   0.00000  -0.00328  -0.00328   4.97151
   X12        3.78895   0.00009   0.00000   0.02331   0.02331   3.81226
   Y12       -1.22222   0.00007   0.00000   0.00757   0.00757  -1.21465
   Z12       -0.14617  -0.00002   0.00000  -0.02033  -0.02033  -0.16650
   X13        4.30357   0.00001   0.00000   0.04115   0.04115   4.34471
   Y13        0.73561   0.00001   0.00000   0.00608   0.00608   0.74169
   Z13        0.25922  -0.00004   0.00000  -0.03631  -0.03631   0.22292
   X14        7.09437   0.00005   0.00000  -0.00605  -0.00605   7.08833
   Y14       -4.13306  -0.00002   0.00000  -0.02410  -0.02410  -4.15716
   Z14        0.08840   0.00015   0.00000   0.01883   0.01883   0.10722
   X15        9.06188  -0.00002   0.00000  -0.00025  -0.00025   9.06163
   Y15       -3.54831   0.00000   0.00000  -0.04037  -0.04037  -3.58868
   Z15       -0.08685   0.00001   0.00000   0.02401   0.02401  -0.06284
   X16        5.62327   0.00020   0.00000   0.01812   0.01812   5.64139
   Y16       -2.49405   0.00006   0.00000  -0.02097  -0.02097  -2.51502
   Z16       -1.53320   0.00007   0.00000   0.00012   0.00012  -1.53308
   X17        1.48772   0.00025   0.00000   0.02919   0.02919   1.51691
   Y17       -1.10439  -0.00003   0.00000   0.01210   0.01210  -1.09230
   Z17       -1.74788  -0.00025   0.00000  -0.02796  -0.02796  -1.77584
   X18        0.65590   0.00020   0.00000   0.03661   0.03661   0.69251
   Y18       -3.25321   0.00013   0.00000   0.01386   0.01386  -3.23935
   Z18       -2.83549  -0.00020   0.00000  -0.03680  -0.03680  -2.87230
   X19        1.79497  -0.00001   0.00000   0.04595   0.04595   1.84092
   Y19       -4.91248  -0.00001   0.00000   0.01730   0.01730  -4.89518
   Z19       -2.50902  -0.00000   0.00000  -0.05022  -0.05022  -2.55924
   X20       -1.46821   0.00028   0.00000   0.03175   0.03175  -1.43646
   Y20       -3.23034   0.00003   0.00000   0.01092   0.01092  -3.21942
   Z20       -4.31344  -0.00021   0.00000  -0.02921  -0.02921  -4.34265
   X21       -2.10030   0.00002   0.00000   0.03915   0.03915  -2.06116
   Y21       -4.96296   0.00003   0.00000   0.01223   0.01223  -4.95072
   Z21       -5.18670   0.00001   0.00000  -0.03761  -0.03761  -5.22431
   X22       -2.74314   0.00010   0.00000   0.01473   0.01473  -2.72841
   Y22       -0.96295   0.00016   0.00000   0.00523   0.00523  -0.95772
   Z22       -4.69491  -0.00011   0.00000  -0.00645  -0.00645  -4.70136
   X23       -4.37256   0.00003   0.00000   0.00784   0.00784  -4.36472
   Y23       -0.89047  -0.00000   0.00000   0.00124   0.00124  -0.88924
   Z23       -5.92847   0.00001   0.00000   0.00250   0.00250  -5.92597
   X24       -5.90917  -0.00004   0.00000  -0.01198  -0.01198  -5.92115
   Y24       -1.49093   0.00000   0.00000   0.01545   0.01545  -1.47548
   Z24       -1.64857  -0.00006   0.00000  -0.01842  -0.01842  -1.66699
   X25       -1.85786   0.00009   0.00000   0.00547   0.00547  -1.85239
   Y25        1.22744   0.00004   0.00000   0.00358   0.00358   1.23102
   Z25       -3.55653  -0.00006   0.00000   0.00440   0.00440  -3.55213
   X26        0.29341   0.00014   0.00000   0.01927   0.01927   0.31268
   Y26        1.08594   0.00009   0.00000   0.00901   0.00901   1.09496
   Z26       -2.07342  -0.00002   0.00000  -0.01451  -0.01451  -2.08793
   X27        1.04417   0.00001   0.00000   0.01960   0.01960   1.06377
   Y27        2.74890   0.00005   0.00000   0.00919   0.00919   2.75808
   Z27       -1.14698  -0.00004   0.00000  -0.01555  -0.01555  -1.16253
   X28       -2.93980  -0.00005   0.00000  -0.02577  -0.02577  -2.96557
   Y28        3.80447   0.00003   0.00000  -0.00309  -0.00309   3.80138
   Z28       -4.02856   0.00012   0.00000   0.03776   0.03776  -3.99080
   X29       -1.60693  -0.00009   0.00000  -0.04776  -0.04776  -1.65469
   Y29        5.65300   0.00006   0.00000   0.01204   0.01204   5.66504
   Z29       -3.93015  -0.00009   0.00000   0.04943   0.04943  -3.88072
   X30       -5.41854   0.00004   0.00000  -0.02961  -0.02961  -5.44815
   Y30        3.83889   0.00009   0.00000  -0.02458  -0.02458   3.81432
   Z30       -4.76138   0.00024   0.00000   0.05052   0.05052  -4.71086
   X31       -6.16596  -0.00004   0.00000  -0.04854  -0.04854  -6.21450
   Y31        5.59088   0.00002   0.00000  -0.03211  -0.03211   5.55877
   Z31       -4.86553   0.00004   0.00000   0.06194   0.06194  -4.80358
   X32       -6.55722  -0.00015   0.00000  -0.01203  -0.01203  -6.56925
   Y32        2.52749  -0.00016   0.00000  -0.04445  -0.04445   2.48304
   Z32       -3.96945   0.00015   0.00000   0.04336   0.04336  -3.92609
   X33        4.84777  -0.00004   0.00000  -0.02318  -0.02318   4.82459
   Y33       -7.52654   0.00003   0.00000  -0.01505  -0.01505  -7.54159
   Z33       -0.33601   0.00001   0.00000   0.01759   0.01759  -0.31842
   X34        0.24642  -0.00032   0.00000  -0.01260  -0.01260   0.23382
   Y34        4.11360  -0.00009   0.00000  -0.00060  -0.00060   4.11299
   Z34        5.44742   0.00021   0.00000   0.00325   0.00325   5.45068
   X35       -3.14880  -0.00014   0.00000   0.00103   0.00103  -3.14777
   Y35        1.66282  -0.00008   0.00000  -0.00663  -0.00663   1.65619
   Z35        2.22890  -0.00012   0.00000  -0.00738  -0.00738   2.22152
   X36       -5.43265   0.00024   0.00000   0.00488   0.00488  -5.42778
   Y36        1.57361  -0.00031   0.00000   0.00387   0.00387   1.57748
   Z36        1.03681   0.00014   0.00000  -0.01300  -0.01300   1.02381
   X37       -9.50470  -0.00023   0.00000   0.00019   0.00019  -9.50451
   Y37       -0.61701  -0.00014   0.00000  -0.00118  -0.00118  -0.61819
   Z37       -0.01594   0.00077   0.00000   0.02101   0.02101   0.00506
   X38       -6.63625  -0.00022   0.00000   0.00154   0.00154  -6.63471
   Y38       -0.83944   0.00005   0.00000   0.00524   0.00524  -0.83420
   Z38        0.19551   0.00012   0.00000  -0.00862  -0.00862   0.18690
   X39       -1.65723  -0.00008   0.00000  -0.02337  -0.02337  -1.68059
   Y39       -0.19036  -0.00012   0.00000  -0.02056  -0.02056  -0.21092
   Z39        2.61097  -0.00022   0.00000   0.01909   0.01909   2.63006
   X40       -2.14359   0.00088   0.00000   0.03824   0.03824  -2.10535
   Y40        4.81676  -0.00008   0.00000  -0.00660  -0.00660   4.81015
   Z40        3.12550  -0.00116   0.00000  -0.05114  -0.05114   3.07435
   X41        0.64843  -0.00003   0.00000  -0.01582  -0.01582   0.63261
   Y41        5.88384  -0.00002   0.00000   0.00637   0.00637   5.89021
   Z41        6.41472  -0.00000   0.00000  -0.00821  -0.00821   6.40651
   X42        1.97361  -0.00008   0.00000  -0.00106  -0.00106   1.97255
   Y42        3.40744   0.00001   0.00000  -0.02003  -0.02003   3.38741
   Z42        4.58829   0.00007   0.00000   0.04164   0.04164   4.62993
   X43      -10.33350   0.00004   0.00000   0.01705   0.01705 -10.31645
   Y43       -0.12706  -0.00003   0.00000  -0.01575  -0.01575  -0.14281
   Z43        1.80605   0.00004   0.00000   0.03176   0.03176   1.83781
   X44      -10.04041  -0.00004   0.00000  -0.01251  -0.01251 -10.05292
   Y44        0.87325  -0.00001   0.00000   0.00699   0.00699   0.88024
   Z44       -1.34557   0.00010   0.00000   0.03509   0.03509  -1.31047
   X45      -10.36171   0.00001   0.00000   0.00179   0.00179 -10.35992
   Y45       -2.37491  -0.00000   0.00000   0.00108   0.00108  -2.37383
   Z45       -0.66722   0.00004   0.00000   0.01357   0.01357  -0.65365
   X46       -6.12332   0.00005   0.00000   0.02116   0.02116  -6.10216
   Y46       -2.35501  -0.00002   0.00000   0.00169   0.00169  -2.35332
   Z46        1.50353  -0.00000   0.00000  -0.02067  -0.02067   1.48286
   X47       -6.53015  -0.00026   0.00000   0.01610   0.01610  -6.51405
   Y47        3.29905   0.00032   0.00000   0.01130   0.01130   3.31035
   Z47        0.93169   0.00006   0.00000  -0.02652  -0.02652   0.90518
   X48       -0.45013  -0.00004   0.00000  -0.04565  -0.04565  -0.49578
   Y48        2.73947   0.00003   0.00000   0.01701   0.01701   2.75648
   Z48        6.81008  -0.00005   0.00000   0.00321   0.00321   6.81329
         Item               Value     Threshold  Converged?
 Maximum Force            0.001157     0.000450     NO 
 RMS     Force            0.000177     0.000300     YES
 Maximum Displacement     0.073652     0.001800     NO 
 RMS     Displacement     0.025006     0.001200     NO 
 Predicted change in Energy=-1.697994D-04
 GradGradGradGradGradGradGradGradGradGradGradGradGradGradGradGradGradGrad

 Leave Link  103 at Sat Aug 13 21:02:33 2022, MaxMem=  2684354560 cpu:               1.0 elap:               0.1
 (Enter /storage/apps/GAUSSIAN/G16_RevA03/g16/l9999.exe)

 Test job not archived.
 1\1\GINC-T083\Force\RM062X\def2TZVP\C16H24N2O5S1\LV87696\13-Aug-2022\0
 \\#P M062X/Def2TZVP scf=(direct,conver=8) EmpiricalDispersion=GD3 Forc
 e Charge Prop=(Field,Read)\\Gaussian run\\0,1\C,3.575606,-3.625597,-0.
 39148\H,3.760343,-3.716551,-1.461334\H,4.27838,-4.269656,0.1375\C,1.82
 1302,-1.433183,1.236002\H,1.166594,-2.294586,1.041433\O,1.394378,-0.67
 9306,2.306759\H,0.456197,-0.358125,2.097026\C,3.263356,-1.898099,1.457
 813\H,3.310392,-2.784067,2.098426\O,4.013012,-0.836634,1.99282\H,3.438
 519,-0.391508,2.632546\C,2.005024,-0.646773,-0.077348\H,2.277349,0.389
 27,0.137175\C,3.754181,-2.187121,0.046777\H,4.795341,-1.877684,-0.0459
 57\O,2.975708,-1.319796,-0.811332\N,0.787269,-0.58442,-0.92494\C,0.347
 088,-1.721524,-1.500478\H,0.949858,-2.599572,-1.327717\C,-0.776945,-1.
 70942,-2.282573\H,-1.111433,-2.626283,-2.744686\C,-1.451608,-0.509572,
 -2.484438\H,-2.313859,-0.471217,-3.137209\H,-3.126997,-0.788964,-0.872
 386\C,-0.983139,0.649533,-1.882034\C,0.155264,0.574656,-1.097205\H,0.5
 52552,1.454653,-0.606957\C,-1.555673,2.013239,-2.131824\O,-0.850353,2.
 991437,-2.079747\N,-2.867369,2.031455,-2.519612\H,-3.262884,2.958567,-
 2.574726\H,-3.469931,1.337489,-2.100542\H,2.56533,-3.982872,-0.177807\
 C,0.130399,2.176821,2.882653\C,-1.666272,0.879924,1.179483\C,-2.874837
 ,0.832718,0.548658\C,-5.029672,-0.326507,-0.008436\C,-3.511752,-0.4442
 12,0.103462\O,-0.876966,-0.100734,1.381665\S,-1.134339,2.548918,1.6539
 42\H,0.343134,3.113592,3.394521\H,1.044388,1.803141,2.428019\H,-5.4682
 55,-0.067239,0.955718\H,-5.313156,0.462102,-0.712043\H,-5.483181,-1.25
 6746,-0.353078\H,-3.240323,-1.246218,0.795633\H,-3.455608,1.74578,0.49
 303\H,-0.2382,1.449666,3.603739\\Version=ES64L-G16RevA.03\State=1-A\HF
 =-1507.9082824\RMSD=1.295e-09\RMSF=1.768e-04\Dipole=0.0682065,-2.35048
 33,-1.8459429\Quadrupole=0.7115969,1.0442876,-1.7558845,-4.611551,8.26
 04902,5.9118691\PG=C01 [X(C16H24N2O5S1)]\\@


 OLD AGE AND TREACHERY WILL ALWAYS PREVAIL OVER YOUTH AND SKILL.
 Job cpu time:       0 days  3 hours 31 minutes 49.5 seconds.
 Elapsed time:       0 days  0 hours 13 minutes 16.0 seconds.
 File lengths (MBytes):  RWF=    435 Int=      0 D2E=      0 Chk=     48 Scr=      1
 Normal termination of Gaussian 16 at Sat Aug 13 21:02:33 2022.
