 Entering Gaussian System, Link 0=g16
 Initial command:
 /storage/apps/GAUSSIAN/G16_RevA03/g16/l1.exe "/scratch/tmp/1019415/Gau-142553.inp" -scrdir="/scratch/tmp/1019415/"
 Entering Link 1 = /storage/apps/GAUSSIAN/G16_RevA03/g16/l1.exe PID=    142554.
  
 Copyright (c) 1988,1990,1992,1993,1995,1998,2003,2009,2016,
            Gaussian, Inc.  All Rights Reserved.
  
 This is part of the Gaussian(R) 16 program.  It is based on
 the Gaussian(R) 09 system (copyright 2009, Gaussian, Inc.),
 the Gaussian(R) 03 system (copyright 2003, Gaussian, Inc.),
 the Gaussian(R) 98 system (copyright 1998, Gaussian, Inc.),
 the Gaussian(R) 94 system (copyright 1995, Gaussian, Inc.),
 the Gaussian 92(TM) system (copyright 1992, Gaussian, Inc.),
 the Gaussian 90(TM) system (copyright 1990, Gaussian, Inc.),
 the Gaussian 88(TM) system (copyright 1988, Gaussian, Inc.),
 the Gaussian 86(TM) system (copyright 1986, Carnegie Mellon
 University), and the Gaussian 82(TM) system (copyright 1983,
 Carnegie Mellon University). Gaussian is a federally registered
 trademark of Gaussian, Inc.
  
 This software contains proprietary and confidential information,
 including trade secrets, belonging to Gaussian, Inc.
  
 This software is provided under written license and may be
 used, copied, transmitted, or stored only in accord with that
 written license.
  
 The following legend is applicable only to US Government
 contracts under FAR:
  
                    RESTRICTED RIGHTS LEGEND
  
 Use, reproduction and disclosure by the US Government is
 subject to restrictions as set forth in subparagraphs (a)
 and (c) of the Commercial Computer Software - Restricted
 Rights clause in FAR 52.227-19.
  
 Gaussian, Inc.
 340 Quinnipiac St., Bldg. 40, Wallingford CT 06492
  
  
 ---------------------------------------------------------------
 Warning -- This program may not be used in any manner that
 competes with the business of Gaussian, Inc. or will provide
 assistance to any competitor of Gaussian, Inc.  The licensee
 of this program is prohibited from giving any competitor of
 Gaussian, Inc. access to this program.  By using this program,
 the user acknowledges that Gaussian, Inc. is engaged in the
 business of creating and licensing software in the field of
 computational chemistry and represents and warrants to the
 licensee that it is not a competitor of Gaussian, Inc. and that
 it will not use this program in any manner prohibited above.
 ---------------------------------------------------------------
  

 Cite this work as:
 Gaussian 16, Revision A.03,
 M. J. Frisch, G. W. Trucks, H. B. Schlegel, G. E. Scuseria, 
 M. A. Robb, J. R. Cheeseman, G. Scalmani, V. Barone, 
 G. A. Petersson, H. Nakatsuji, X. Li, M. Caricato, A. V. Marenich, 
 J. Bloino, B. G. Janesko, R. Gomperts, B. Mennucci, H. P. Hratchian, 
 J. V. Ortiz, A. F. Izmaylov, J. L. Sonnenberg, D. Williams-Young, 
 F. Ding, F. Lipparini, F. Egidi, J. Goings, B. Peng, A. Petrone, 
 T. Henderson, D. Ranasinghe, V. G. Zakrzewski, J. Gao, N. Rega, 
 G. Zheng, W. Liang, M. Hada, M. Ehara, K. Toyota, R. Fukuda, 
 J. Hasegawa, M. Ishida, T. Nakajima, Y. Honda, O. Kitao, H. Nakai, 
 T. Vreven, K. Throssell, J. A. Montgomery, Jr., J. E. Peralta, 
 F. Ogliaro, M. J. Bearpark, J. J. Heyd, E. N. Brothers, K. N. Kudin, 
 V. N. Staroverov, T. A. Keith, R. Kobayashi, J. Normand, 
 K. Raghavachari, A. P. Rendell, J. C. Burant, S. S. Iyengar, 
 J. Tomasi, M. Cossi, J. M. Millam, M. Klene, C. Adamo, R. Cammi, 
 J. W. Ochterski, R. L. Martin, K. Morokuma, O. Farkas, 
 J. B. Foresman, and D. J. Fox, Gaussian, Inc., Wallingford CT, 2016.
 
 ******************************************
 Gaussian 16:  ES64L-G16RevA.03 25-Dec-2016
                13-Aug-2022 
 ******************************************
 %NProcShared=16
 Will use up to   16 processors via shared memory.
 %mem=20GB
 ----------------------------------------------------------------------
 #P M062X/Def2TZVP scf=(direct,conver=8) EmpiricalDispersion=GD3 Force 
 Charge Prop=(Field,Read)
 ----------------------------------------------------------------------
 1/10=7,18=10,28=-2,30=1,38=1,125=101/1,3;
 2/12=2,17=6,18=5,29=2,40=1/2;
 3/5=44,7=101,11=2,25=1,30=1,71=1,74=-55,124=31/1,2,3;
 4//1;
 5/5=2,6=8,38=5/2;
 6/7=2,8=2,9=2,10=2,14=2,15=1,28=1/1,2;
 7/7=1,16=-2,29=1/1,2,3,16;
 1/10=7,18=10,28=-2,30=1/3;
 99/12=1/99;
 Leave Link    1 at Sat Aug 13 20:58:47 2022, MaxMem=  2684354560 cpu:               0.5 elap:               0.0
 (Enter /storage/apps/GAUSSIAN/G16_RevA03/g16/l101.exe)
 ------------
 Gaussian run
 ------------
 Symbolic Z-matrix:
 Charge =  0 Multiplicity = 1
 C                     3.57348  -3.62713  -0.38557 
 H                     3.76682  -3.71706  -1.454 
 H                     4.26911  -4.27506   0.1481 
 C                     1.81505  -1.42978   1.23152 
 H                     1.15756  -2.28759   1.03005 
 O                     1.38306  -0.67551   2.29939 
 H                     0.44322  -0.35671   2.08354 
 C                     3.25265  -1.90259   1.46437 
 H                     3.28918  -2.79092   2.10242 
 O                     4.00265  -0.84698   2.01008 
 H                     3.42364  -0.40039   2.64472 
 C                     2.01237  -0.64267  -0.08002 
 H                     2.28483   0.39286   0.13676 
 C                     3.75443  -2.19025   0.05699 
 H                     4.79757  -1.88495  -0.0264 
 O                     2.98705  -1.31773  -0.8063 
 N                     0.79946  -0.57783  -0.93564 
 C                     0.36352  -1.71281  -1.51718 
 H                     0.97007  -2.58934  -1.34964 
 C                    -0.76258  -1.70167  -2.29676 
 H                    -1.09395  -2.6174   -2.7632 
 C                    -1.44264  -0.50364  -2.4902 
 H                    -2.3078   -0.46527  -3.13929 
 H                    -3.16857  -0.76217  -0.88598 
 C                    -0.97691   0.65425  -1.8843 
 C                     0.16302   0.58023  -1.10121 
 H                     0.55654   1.45864  -0.6047 
 C                    -1.5581    2.01579  -2.12775 
 O                    -0.85593   2.99658  -2.08505 
 N                    -2.87447   2.0281   -2.49917 
 H                    -3.27464   2.95355  -2.54955 
 H                    -3.46869   1.33217  -2.07072 
 H                     2.56003  -3.98059  -0.18076 
 C                     0.10052   2.17362   2.90259 
 C                    -1.66677   0.87676   1.17031 
 C                    -2.88384   0.83337   0.55844 
 C                    -5.04548  -0.33809   0.05208 
 C                    -3.52361  -0.44145   0.10957 
 O                    -0.87953  -0.1085    1.36509 
 S                    -1.11061   2.54485   1.61919 
 H                     0.30676   3.1143    3.4099 
 H                     1.02619   1.77958   2.48983 
 H                    -5.45282  -0.10365   1.03588 
 H                    -5.36016   0.4617   -0.62485 
 H                    -5.50094  -1.26614  -0.29599 
 H                    -3.21928  -1.25276   0.77635 
 H                    -3.46479   1.7475    0.51231 
 H                    -0.30828   1.46245   3.61839 
 
 ITRead=  0  0  0  0  0  0  0  0  0  0  0  0  0  0  0  0  0  0  0  0
 ITRead=  0  0  0  0  0  0  0  0  0  0  0  0  0  0  0  0  0  0  0  0
 ITRead=  0  0  0  0  0  0  0  0
 MicOpt= -1 -1 -1 -1 -1 -1 -1 -1 -1 -1 -1 -1 -1 -1 -1 -1 -1 -1 -1 -1
 MicOpt= -1 -1 -1 -1 -1 -1 -1 -1 -1 -1 -1 -1 -1 -1 -1 -1 -1 -1 -1 -1
 MicOpt= -1 -1 -1 -1 -1 -1 -1 -1
 NAtoms=     48 NQM=       48 NQMF=       0 NMMI=      0 NMMIF=      0
                NMic=       0 NMicF=      0.
                    Isotopes and Nuclear Properties:
 (Nuclear quadrupole moments (NQMom) in fm**2, nuclear magnetic moments (NMagM)
  in nuclear magnetons)

  Atom         1           2           3           4           5           6           7           8           9          10
 IAtWgt=          12           1           1          12           1          16           1          12           1          16
 AtmWgt=  12.0000000   1.0078250   1.0078250  12.0000000   1.0078250  15.9949146   1.0078250  12.0000000   1.0078250  15.9949146
 NucSpn=           0           1           1           0           1           0           1           0           1           0
 AtZEff=  -0.0000000  -0.0000000  -0.0000000  -0.0000000  -0.0000000  -0.0000000  -0.0000000  -0.0000000  -0.0000000  -0.0000000
 NQMom=    0.0000000   0.0000000   0.0000000   0.0000000   0.0000000   0.0000000   0.0000000   0.0000000   0.0000000   0.0000000
 NMagM=    0.0000000   2.7928460   2.7928460   0.0000000   2.7928460   0.0000000   2.7928460   0.0000000   2.7928460   0.0000000
 AtZNuc=   6.0000000   1.0000000   1.0000000   6.0000000   1.0000000   8.0000000   1.0000000   6.0000000   1.0000000   8.0000000

  Atom        11          12          13          14          15          16          17          18          19          20
 IAtWgt=           1          12           1          12           1          16          14          12           1          12
 AtmWgt=   1.0078250  12.0000000   1.0078250  12.0000000   1.0078250  15.9949146  14.0030740  12.0000000   1.0078250  12.0000000
 NucSpn=           1           0           1           0           1           0           2           0           1           0
 AtZEff=  -0.0000000  -0.0000000  -0.0000000  -0.0000000  -0.0000000  -0.0000000  -0.0000000  -0.0000000  -0.0000000  -0.0000000
 NQMom=    0.0000000   0.0000000   0.0000000   0.0000000   0.0000000   0.0000000   2.0440000   0.0000000   0.0000000   0.0000000
 NMagM=    2.7928460   0.0000000   2.7928460   0.0000000   2.7928460   0.0000000   0.4037610   0.0000000   2.7928460   0.0000000
 AtZNuc=   1.0000000   6.0000000   1.0000000   6.0000000   1.0000000   8.0000000   7.0000000   6.0000000   1.0000000   6.0000000

  Atom        21          22          23          24          25          26          27          28          29          30
 IAtWgt=           1          12           1           1          12          12           1          12          16          14
 AtmWgt=   1.0078250  12.0000000   1.0078250   1.0078250  12.0000000  12.0000000   1.0078250  12.0000000  15.9949146  14.0030740
 NucSpn=           1           0           1           1           0           0           1           0           0           2
 AtZEff=  -0.0000000  -0.0000000  -0.0000000  -0.0000000  -0.0000000  -0.0000000  -0.0000000  -0.0000000  -0.0000000  -0.0000000
 NQMom=    0.0000000   0.0000000   0.0000000   0.0000000   0.0000000   0.0000000   0.0000000   0.0000000   0.0000000   2.0440000
 NMagM=    2.7928460   0.0000000   2.7928460   2.7928460   0.0000000   0.0000000   2.7928460   0.0000000   0.0000000   0.4037610
 AtZNuc=   1.0000000   6.0000000   1.0000000   1.0000000   6.0000000   6.0000000   1.0000000   6.0000000   8.0000000   7.0000000

  Atom        31          32          33          34          35          36          37          38          39          40
 IAtWgt=           1           1           1          12          12          12          12          12          16          32
 AtmWgt=   1.0078250   1.0078250   1.0078250  12.0000000  12.0000000  12.0000000  12.0000000  12.0000000  15.9949146  31.9720718
 NucSpn=           1           1           1           0           0           0           0           0           0           0
 AtZEff=  -0.0000000  -0.0000000  -0.0000000  -0.0000000  -0.0000000  -0.0000000  -0.0000000  -0.0000000  -0.0000000  -0.0000000
 NQMom=    0.0000000   0.0000000   0.0000000   0.0000000   0.0000000   0.0000000   0.0000000   0.0000000   0.0000000   0.0000000
 NMagM=    2.7928460   2.7928460   2.7928460   0.0000000   0.0000000   0.0000000   0.0000000   0.0000000   0.0000000   0.0000000
 AtZNuc=   1.0000000   1.0000000   1.0000000   6.0000000   6.0000000   6.0000000   6.0000000   6.0000000   8.0000000  16.0000000

  Atom        41          42          43          44          45          46          47          48
 IAtWgt=           1           1           1           1           1           1           1           1
 AtmWgt=   1.0078250   1.0078250   1.0078250   1.0078250   1.0078250   1.0078250   1.0078250   1.0078250
 NucSpn=           1           1           1           1           1           1           1           1
 AtZEff=  -0.0000000  -0.0000000  -0.0000000  -0.0000000  -0.0000000  -0.0000000  -0.0000000  -0.0000000
 NQMom=    0.0000000   0.0000000   0.0000000   0.0000000   0.0000000   0.0000000   0.0000000   0.0000000
 NMagM=    2.7928460   2.7928460   2.7928460   2.7928460   2.7928460   2.7928460   2.7928460   2.7928460
 AtZNuc=   1.0000000   1.0000000   1.0000000   1.0000000   1.0000000   1.0000000   1.0000000   1.0000000
 Background charge distribution read from input stream:
 Leave Link  101 at Sat Aug 13 20:58:47 2022, MaxMem=  2684354560 cpu:               1.5 elap:               0.1
 (Enter /storage/apps/GAUSSIAN/G16_RevA03/g16/l103.exe)

 GradGradGradGradGradGradGradGradGradGradGradGradGradGradGradGradGradGrad
 Berny optimization.
 Initialization pass.
 Trust Radius=3.00D-01 FncErr=1.00D-07 GrdErr=1.00D-07 EigMax=2.50D+02 EigMin=1.00D-04
 Number of steps in this run=      2 maximum allowed number of steps=      2.
 GradGradGradGradGradGradGradGradGradGradGradGradGradGradGradGradGradGrad

 Leave Link  103 at Sat Aug 13 20:58:47 2022, MaxMem=  2684354560 cpu:               0.3 elap:               0.0
 (Enter /storage/apps/GAUSSIAN/G16_RevA03/g16/l202.exe)
 ---------------------------------------------------------------------------------------------------
                            Z-MATRIX (ANGSTROMS AND DEGREES)
   CD    Cent   Atom    N1       Length/X        N2       Alpha/Y        N3        Beta/Z          J
 ---------------------------------------------------------------------------------------------------
      1      1  C        0   3.573484         -3.627128         -0.385566
      2      2  H        0   3.766815         -3.717058         -1.453998
      3      3  H        0   4.269112         -4.275057          0.148098
      4      4  C        0   1.815048         -1.429779          1.231520
      5      5  H        0   1.157562         -2.287588          1.030045
      6      6  O        0   1.383058         -0.675510          2.299385
      7      7  H        0   0.443224         -0.356711          2.083544
      8      8  C        0   3.252654         -1.902586          1.464367
      9      9  H        0   3.289180         -2.790917          2.102424
     10     10  O        0   4.002655         -0.846984          2.010077
     11     11  H        0   3.423635         -0.400385          2.644722
     12     12  C        0   2.012367         -0.642674         -0.080022
     13     13  H        0   2.284831          0.392861          0.136757
     14     14  C        0   3.754425         -2.190252          0.056994
     15     15  H        0   4.797565         -1.884948         -0.026402
     16     16  O        0   2.987045         -1.317727         -0.806298
     17     17  N        0   0.799458         -0.577827         -0.935636
     18     18  C        0   0.363517         -1.712806         -1.517180
     19     19  H        0   0.970065         -2.589344         -1.349639
     20     20  C        0  -0.762580         -1.701673         -2.296756
     21     21  H        0  -1.093954         -2.617404         -2.763204
     22     22  C        0  -1.442642         -0.503644         -2.490203
     23     23  H        0  -2.307797         -0.465269         -3.139288
     24     24  H        0  -3.168573         -0.762174         -0.885977
     25     25  C        0  -0.976912          0.654250         -1.884297
     26     26  C        0   0.163016          0.580232         -1.101211
     27     27  H        0   0.556535          1.458641         -0.604699
     28     28  C        0  -1.558095          2.015793         -2.127747
     29     29  O        0  -0.855932          2.996579         -2.085053
     30     30  N        0  -2.874466          2.028097         -2.499173
     31     31  H        0  -3.274637          2.953549         -2.549551
     32     32  H        0  -3.468692          1.332166         -2.070717
     33     33  H        0   2.560027         -3.980594         -0.180756
     34     34  C        0   0.100522          2.173624          2.902589
     35     35  C        0  -1.666765          0.876763          1.170311
     36     36  C        0  -2.883843          0.833374          0.558441
     37     37  C        0  -5.045484         -0.338088          0.052076
     38     38  C        0  -3.523607         -0.441450          0.109571
     39     39  O        0  -0.879526         -0.108500          1.365093
     40     40  S        0  -1.110609          2.544847          1.619189
     41     41  H        0   0.306763          3.114302          3.409898
     42     42  H        0   1.026187          1.779584          2.489834
     43     43  H        0  -5.452819         -0.103653          1.035877
     44     44  H        0  -5.360161          0.461700         -0.624849
     45     45  H        0  -5.500941         -1.266136         -0.295986
     46     46  H        0  -3.219283         -1.252764          0.776347
     47     47  H        0  -3.464790          1.747501          0.512309
     48     48  H        0  -0.308278          1.462449          3.618392
 ---------------------------------------------------------------------------------------------------
                         Z-Matrix orientation:                         
 ---------------------------------------------------------------------
 Center     Atomic      Atomic             Coordinates (Angstroms)
 Number     Number       Type             X           Y           Z
 ---------------------------------------------------------------------
      1          6           0        3.573484   -3.627128   -0.385566
      2          1           0        3.766815   -3.717058   -1.453998
      3          1           0        4.269112   -4.275057    0.148098
      4          6           0        1.815048   -1.429779    1.231520
      5          1           0        1.157562   -2.287588    1.030045
      6          8           0        1.383058   -0.675510    2.299385
      7          1           0        0.443224   -0.356711    2.083544
      8          6           0        3.252654   -1.902586    1.464367
      9          1           0        3.289180   -2.790917    2.102424
     10          8           0        4.002655   -0.846984    2.010077
     11          1           0        3.423635   -0.400385    2.644722
     12          6           0        2.012367   -0.642674   -0.080022
     13          1           0        2.284831    0.392861    0.136757
     14          6           0        3.754425   -2.190252    0.056994
     15          1           0        4.797565   -1.884948   -0.026402
     16          8           0        2.987045   -1.317727   -0.806298
     17          7           0        0.799458   -0.577827   -0.935636
     18          6           0        0.363517   -1.712806   -1.517180
     19          1           0        0.970065   -2.589344   -1.349639
     20          6           0       -0.762580   -1.701673   -2.296756
     21          1           0       -1.093954   -2.617404   -2.763204
     22          6           0       -1.442642   -0.503644   -2.490203
     23          1           0       -2.307797   -0.465269   -3.139288
     24          1           0       -3.168573   -0.762174   -0.885977
     25          6           0       -0.976912    0.654250   -1.884297
     26          6           0        0.163016    0.580232   -1.101211
     27          1           0        0.556535    1.458641   -0.604699
     28          6           0       -1.558095    2.015793   -2.127747
     29          8           0       -0.855932    2.996579   -2.085053
     30          7           0       -2.874466    2.028097   -2.499173
     31          1           0       -3.274637    2.953549   -2.549551
     32          1           0       -3.468692    1.332166   -2.070717
     33          1           0        2.560027   -3.980594   -0.180756
     34          6           0        0.100522    2.173624    2.902589
     35          6           0       -1.666765    0.876763    1.170311
     36          6           0       -2.883843    0.833374    0.558441
     37          6           0       -5.045484   -0.338088    0.052076
     38          6           0       -3.523607   -0.441450    0.109571
     39          8           0       -0.879526   -0.108500    1.365093
     40         16           0       -1.110609    2.544847    1.619189
     41          1           0        0.306763    3.114302    3.409898
     42          1           0        1.026187    1.779584    2.489834
     43          1           0       -5.452819   -0.103653    1.035877
     44          1           0       -5.360161    0.461700   -0.624849
     45          1           0       -5.500941   -1.266136   -0.295986
     46          1           0       -3.219283   -1.252764    0.776347
     47          1           0       -3.464790    1.747501    0.512309
     48          1           0       -0.308278    1.462449    3.618392
 ---------------------------------------------------------------------
                    Distance matrix (angstroms):
                    1          2          3          4          5
     1  C    0.000000
     2  H    1.089500   0.000000
     3  H    1.090187   1.769287   0.000000
     4  C    3.245829   4.031507   3.910478   0.000000
     5  H    3.104030   3.875830   3.795999   1.099416   0.000000
     6  O    4.551810   5.387132   5.090588   1.376907   2.064187
     7  H    5.156613   5.903591   5.808339   1.938897   2.312666
     8  C    2.549359   3.474698   2.897304   1.531168   2.173999
     9  H    2.640108   3.705942   2.642410   2.187290   2.438674
    10  O    3.694928   4.504749   3.910198   2.394040   3.336219
    11  H    4.429105   5.283711   4.686261   2.375783   3.362113
    12  C    3.381924   3.797069   4.282423   1.542275   2.160713
    13  H    4.253676   4.649539   5.072175   2.177434   3.041958
    14  C    1.514335   2.148112   2.149329   2.391446   2.774887
    15  H    2.159297   2.541083   2.454044   3.268785   3.811538
    16  O    2.419558   2.604678   3.361602   2.353473   2.767633
    17  N    4.158850   4.350710   5.184832   2.540435   2.629719
    18  C    3.905005   3.950121   4.959027   3.121282   2.729329
    19  H    2.963819   3.017356   3.996068   2.953129   2.406056
    20  C    5.114829   5.028662   6.157722   4.377993   3.885595
    21  H    5.334574   5.152702   6.323446   5.082378   4.423442
    22  C    6.272732   6.207914   7.335416   5.032047   4.726062
    23  H    7.222867   7.093324   8.281131   6.085400   5.719519
    24  H    7.342595   7.560000   8.290284   5.455820   4.971265
    25  C    6.425146   6.465016   7.479937   4.674028   4.658732
    26  C    5.463087   5.619477   6.480326   3.494422   3.708877
    27  H    5.917351   6.149396   6.872061   3.646714   4.131326
    28  C    7.823737   7.853291   8.871900   5.876626   5.988784
    29  O    8.147483   8.175631   9.172226   6.142185   6.456037
    30  N    8.833174   8.843405   9.887796   6.918563   6.880245
    31  H    9.740888   9.761111  10.790654   7.708110   7.741280
    32  H    8.776478   8.844635   9.810082   6.815498   6.642256
    33  H    1.092694   1.773960   1.765170   3.009348   2.509824
    34  C    7.518122   8.192783   8.157809   4.326267   4.952390
    35  C    7.082796   7.583797   7.925958   4.176949   4.243774
    36  C    7.904701   8.305877   8.799387   5.258752   5.127940
    37  C    9.235579   9.557317  10.112895   7.046260   6.575314
    38  C    7.795024   8.143992   8.684728   5.544078   5.115549
    39  O    5.939263   6.523607   6.734222   3.004055   3.001734
    40  S    8.003315   8.511474   8.810028   4.950496   5.370672
    41  H    8.397850   9.071765   8.996787   5.260126   5.963889
    42  H    6.632434   7.299173   7.256650   3.536335   4.323208
    43  H    9.793341  10.210672  10.616247   7.390452   6.961806
    44  H    9.827807  10.072299  10.759053   7.649015   7.264845
    45  H    9.376966   9.656051  10.232534   7.475543   6.865667
    46  H    7.288987   7.736456   8.099692   5.057965   4.504664
    47  H    8.901130   9.274906   9.809031   6.203955   6.157608
    48  H    7.550070   8.316418   8.118769   4.309368   4.786544
                    6          7          8          9         10
     6  O    0.000000
     7  H    1.015632   0.000000
     8  C    2.387124   3.265885   0.000000
     9  H    2.854302   3.745021   1.094341   0.000000
    10  O    2.641097   3.593788   1.405203   2.072788   0.000000
    11  H    2.087799   3.033097   1.918093   2.454956   0.968240
    12  C    2.461440   2.687936   2.347515   3.317871   2.893355
    13  H    2.575184   2.782688   2.822819   3.874146   2.827979
    14  C    3.598075   4.293347   1.521586   2.181980   2.383384
    15  H    4.304751   5.074216   2.146964   2.761866   2.420020
    16  O    3.553939   3.968093   2.359773   3.274483   3.030682
    17  N    3.288692   3.048154   3.678746   4.508469   4.360062
    18  C    4.084313   3.848449   4.156050   4.777380   5.141451
    19  H    4.141099   4.129038   3.687883   4.163612   4.849754
    20  C    5.175064   4.738134   5.505317   6.079144   6.479720
    21  H    5.961237   5.564586   6.105434   6.551054   7.203751
    22  C    5.563656   4.949469   6.296147   6.979540   7.072599
    23  H    6.576152   5.904056   7.360580   8.013135   8.153740
    24  H    5.556203   4.693350   6.932302   7.399251   7.734393
    25  C    4.984066   4.333889   5.969940   6.779577   6.497379
    26  C    3.824846   3.331523   4.721487   5.603644   5.143917
    27  H    3.697492   3.245765   4.779952   5.731894   4.901908
    28  C    5.957599   5.231541   7.169399   8.030871   7.499268
    29  O    6.141711   5.505412   7.313049   8.259057   7.426233
    30  N    6.961477   6.139680   8.288638   9.076790   8.711729
    31  H    7.640443   6.800432   9.071886   9.885517   9.391125
    32  H    6.831400   5.950906   8.254510   8.948953   8.787639
    33  H    4.296503   4.768693   2.739394   2.675800   4.086617
    34  C    3.182188   2.681581   5.349758   5.954366   5.014708
    35  C    3.603579   2.609120   5.657909   6.235551   5.984884
    36  C    4.849130   3.848586   6.779585   7.322949   7.235655
    37  C    6.818387   5.852617   8.561619   8.926753   9.271546
    38  C    5.378237   4.431647   7.063151   7.477000   7.773095
    39  O    2.512705   1.525598   4.505942   5.011699   4.979664
    40  S    4.129375   3.324013   6.232310   6.932679   6.148397
    41  H    4.093205   3.718302   6.134536   6.743583   5.595615
    42  H    2.488195   2.251372   4.423473   5.114753   3.998548
    43  H    6.975148   5.993744   8.899720   9.207685   9.534547
    44  H    7.437432   6.456351   9.172527   9.634762   9.814164
    45  H    7.380666   6.467017   8.951499   9.238158   9.788358
    46  H    4.882050   3.990693   6.540765   6.817953   7.337788
    47  H    5.706685   4.708403   7.704129   8.291068   8.045955
    48  H    3.028410   2.495968   5.351964   5.773299   5.148233
                   11         12         13         14         15
    11  H    0.000000
    12  C    3.078086   0.000000
    13  H    2.866357   1.092503   0.000000
    14  C    3.163761   2.334210   2.972968   0.000000
    15  H    3.350599   3.050155   3.395419   1.090095   0.000000
    16  O    3.597453   1.390385   2.075709   1.447565   2.051331
    17  N    4.442607   1.485742   2.073305   3.509567   4.303502
    18  C    5.329934   2.435018   3.295571   3.768851   4.681115
    19  H    5.173632   2.547125   3.582112   3.144925   4.110582
    20  C    6.605751   3.706173   4.426711   5.116853   6.008603
    21  H    7.387114   4.555025   5.374724   5.625189   6.537322
    22  C    7.075222   4.214901   4.647440   6.028463   6.849708
    23  H    8.142991   5.296640   5.706233   7.066988   7.886173
    24  H    7.486917   5.244615   5.667425   7.131375   8.090664
    25  C    6.402272   3.724676   3.846031   5.851953   6.576008
    26  C    5.062140   2.440989   2.463691   4.681371   5.358299
    27  H    4.715398   2.609647   2.161632   4.896811   5.431422
    28  C    7.309720   4.899880   4.746574   7.119465   7.747635
    29  O    7.226675   5.048906   4.645447   7.262711   7.747863
    30  N    8.486652   6.071775   6.020006   8.262606   8.960278
    31  H    9.115711   6.854473   6.684389   9.091781   9.743602
    32  H    8.528849   6.156693   6.233640   8.313122   9.102750
    33  H    4.641879   3.384049   4.393593   2.165280   3.069549
    34  C    4.211306   4.525777   3.948690   6.363319   6.863906
    35  C    5.451345   4.172294   4.113090   6.327350   7.130689
    36  C    6.757145   5.153564   5.204523   7.311660   8.169170
    37  C    8.857295   7.065655   7.367155   8.992716   9.964163
    38  C    7.395461   5.542873   5.868114   7.485374   8.446542
    39  O    4.498871   3.276697   3.431228   5.245790   6.109123
    40  S    5.503224   4.774996   4.284584   6.966360   7.565552
    41  H    4.759560   5.404026   4.693873   7.160072   7.547712
    42  H    3.244073   3.666612   3.007350   5.396442   5.829539
    43  H    9.025955   7.567349   7.805522   9.491335  10.458098
    44  H    9.412139   7.474667   7.683143   9.517008  10.442428
    45  H    9.436384   7.542224   7.972314   9.308082  10.320602
    46  H    6.953110   5.336266   5.780348   7.073115   8.081702
    47  H    7.524028   6.005251   5.918972   8.235914   9.041648
    48  H    4.283148   4.847185   4.471019   6.521605   7.110501
                   16         17         18         19         20
    16  O    0.000000
    17  N    2.312946   0.000000
    18  C    2.746696   1.347745   0.000000
    19  H    2.445493   2.060754   1.079022   0.000000
    20  C    4.053217   2.357041   1.369656   2.164959   0.000000
    21  H    4.708842   3.329398   2.120164   2.501825   1.079790
    22  C    4.808367   2.729321   2.381398   3.387062   1.391107
    23  H    5.848494   3.811008   3.365041   4.296384   2.150872
    24  H    6.181150   3.972621   3.711843   4.547731   2.943086
    25  C    4.556724   2.360818   2.744901   3.820665   2.401340
    26  C    3.415313   1.331756   2.339071   3.280131   2.737361
    27  H    3.695435   2.077434   3.305746   4.136680   3.819778
    28  C    5.789377   3.702168   4.238848   5.310775   3.805386
    29  O    5.917510   4.103395   4.897739   5.922637   4.703946
    30  N    6.958281   4.767935   5.044125   6.117402   4.290946
    31  H    7.777621   5.627929   6.006399   7.083851   5.295793
    32  H    7.092054   4.811817   4.925859   5.966637   4.071648
    33  H    2.768485   3.904903   3.428345   2.414507   4.550896
    34  C    5.854690   4.773988   5.891338   6.443866   6.541870
    35  C    5.511871   3.554307   4.248590   5.031592   4.414344
    36  C    6.399771   4.217874   4.619154   5.496215   4.367879
    37  C    8.137446   5.932655   5.797388   6.574176   5.071454
    38  C    6.632893   4.449713   4.401409   5.189974   3.873221
    39  O    4.596470   2.886626   3.525117   4.116472   3.995124
    40  S    6.131332   4.463920   5.489760   6.285146   5.786941
    41  H    6.678555   5.723481   6.897847   7.458199   7.543408
    42  H    4.929786   4.164449   5.356499   5.816548   6.183064
    43  H    8.723468   6.572874   6.552651   7.288538   5.971470
    44  H    8.536693   6.254447   6.187505   7.064414   5.349131
    45  H    8.503469   6.370082   6.006887   6.688422   5.161864
    46  H    6.405271   4.420034   4.278827   4.884352   3.959908
    47  H    7.263644   5.068284   5.545132   6.476343   5.204766
    48  H    6.177897   5.111651   6.075167   6.537012   6.723618
                   21         22         23         24         25
    21  H    0.000000
    22  C    2.159651   0.000000
    23  H    2.499308   1.082256   0.000000
    24  H    3.357068   2.370489   2.430329   0.000000
    25  C    3.389675   1.387352   2.144663   2.793972   0.000000
    26  C    3.816683   2.383742   3.369235   3.598314   1.384969
    27  H    4.898714   3.376743   4.281351   4.345983   2.153108
    28  C    4.699548   2.547993   2.782254   3.442780   1.500280
    29  O    5.659801   3.572105   3.899194   4.573217   2.354027
    30  N    4.982029   2.908593   2.635856   3.236435   2.422032
    31  H    5.986363   3.913044   3.601512   4.072508   3.317963
    32  H    4.660260   2.766052   2.391714   2.424859   2.589071
    33  H    4.677489   5.783086   6.693738   6.608511   6.074024
    34  C    7.515446   6.215410   7.019119   5.801648   5.136501
    35  C    5.292434   3.918561   4.559015   3.028178   3.139433
    36  C    5.113208   3.627521   3.961250   2.170988   3.104101
    37  C    5.360566   4.412603   4.206651   2.140698   4.613844
    38  C    4.346358   3.330632   3.468983   1.104549   3.414927
    39  O    4.835640   3.916190   4.738849   3.276331   3.339133
    40  S    6.771594   5.127440   5.756489   4.631140   3.983296
    41  H    8.539417   7.138707   7.908292   6.749783   5.977305
    42  H    7.170977   6.009078   6.916779   5.954212   4.940830
    43  H    6.304892   5.354881   5.239650   3.056952   5.397738
    44  H    5.679257   4.445041   4.061847   2.523710   4.564664
    45  H    5.228253   4.676085   4.349934   2.458050   5.165022
    46  H    4.348297   3.793149   4.096725   1.733947   3.967865
    47  H    5.949979   4.262841   4.423703   2.888151   3.623321
    48  H    7.614936   6.516689   7.306190   5.780967   5.601771
                   26         27         28         29         30
    26  C    0.000000
    27  H    1.083044   0.000000
    28  C    2.465124   2.664912   0.000000
    29  O    2.800881   2.559641   1.206978   0.000000
    30  N    3.643749   3.960439   1.367824   2.276825   0.000000
    31  H    4.421287   4.549184   2.000955   2.463279   1.009523
    32  H    3.833360   4.285750   2.030020   3.097901   1.010445
    33  H    5.233931   5.811969   7.530363   7.998504   8.426929
    34  C    4.309666   3.608354   5.299076   5.144767   6.168530
    35  C    2.931867   2.903843   3.490900   3.968434   4.031033
    36  C    3.478775   3.685113   3.220455   3.972397   3.282751
    37  C    5.413119   5.919646   4.738593   5.765386   4.101344
    38  C    4.012607   4.557202   3.860942   4.873695   3.650423
    39  O    2.764761   2.897979   4.144033   4.641722   4.845347
    40  S    3.589207   2.984106   3.810469   3.740365   4.509892
    41  H    5.176126   4.349780   5.945581   5.617847   6.798322
    42  H    3.883183   3.146381   5.296826   5.094413   6.337748
    43  H    6.047516   6.422195   5.446966   6.362626   4.867118
    44  H    5.544949   6.000132   4.373741   5.370837   3.485021
    45  H    6.011478   6.649265   5.447242   6.553442   4.754406
    46  H    4.280776   4.849310   4.677261   5.641804   4.648869
    47  H    4.138471   4.183563   3.267623   3.887496   3.081597
    48  H    4.824425   4.310732   5.906466   5.931506   6.658069
                   31         32         33         34         35
    31  H    0.000000
    32  H    1.701712   0.000000
    33  H    9.366794   8.254867   0.000000
    34  C    6.459552   6.179087   7.309622   0.000000
    35  C    4.553643   3.736120   6.579139   2.793911   0.000000
    36  C    3.782522   2.739218   7.304548   4.024641   1.362918
    37  C    4.554035   3.127662   8.435986   6.396522   3.760592
    38  C    4.319599   2.811118   7.044177   5.270092   2.512114
    39  O    5.516986   4.536969   5.404932   2.921041   1.276099
    40  S    4.714705   4.543848   7.700308   1.803264   1.814747
    41  H    6.954660   6.889645   8.264838   1.088473   3.730569
    42  H    6.728349   6.418936   6.531797   1.087424   3.131807
    43  H    5.190978   3.955915   8.984240   6.285714   3.913246
    44  H    3.776665   2.534936   9.091786   6.722541   4.127475
    45  H    5.276431   3.745782   8.506513   7.310213   4.630653
    46  H    5.362623   3.853549   6.462006   5.223231   2.664659
    47  H    3.296316   2.616208   8.342052   4.313522   2.103341
    48  H    7.004726   6.509313   7.231004   1.088697   2.860352
                   36         37         38         39         40
    36  C    0.000000
    37  C    2.510263   0.000000
    38  C    1.495312   1.526466   0.000000
    39  O    2.356926   4.374006   2.945905   0.000000
    40  S    2.683037   5.123514   4.125467   2.675484   0.000000
    41  H    4.849062   7.200036   6.181203   3.996869   2.353691
    42  H    4.462502   6.876946   5.594575   2.908891   2.430956
    43  H    2.775897   1.090296   2.166566   4.585130   5.119531
    44  H    2.769561   1.094034   2.174393   4.935695   5.237738
    45  H    3.462252   1.090808   2.180466   5.045471   6.120989
    46  H    2.124141   2.167074   1.093359   2.670286   4.424787
    47  H    1.084092   2.657083   2.226469   3.294779   2.720866
    48  H    4.048774   6.196908   5.125914   2.805630   2.410837
                   41         42         43         44         45
    41  H    0.000000
    42  H    1.773573   0.000000
    43  H    7.011704   6.902035   0.000000
    44  H    7.445100   7.226584   1.756764   0.000000
    45  H    8.164021   7.722733   1.768486   1.764479   0.000000
    46  H    6.199988   5.491374   2.525172   3.079951   2.521119
    47  H    4.948614   4.907190   2.766433   2.557116   3.725756
    48  H    1.774926   1.776236   5.965598   6.672939   7.052041
                   46         47         48
    46  H    0.000000
    47  H    3.021850   0.000000
    48  H    4.891171   4.437632   0.000000
 Stoichiometry    C16H24N2O5S
 Framework group  C1[X(C16H24N2O5S)]
 Deg. of freedom   138
 Full point group                 C1      NOp   1
 Largest Abelian subgroup         C1      NOp   1
 Largest concise Abelian subgroup C1      NOp   1
                         Standard orientation:                         
 ---------------------------------------------------------------------
 Center     Atomic      Atomic             Coordinates (Angstroms)
 Number     Number       Type             X           Y           Z
 ---------------------------------------------------------------------
      1          6           0        4.703439   -1.821001    0.727550
      2          1           0        4.719810   -2.778244    0.207522
      3          1           0        5.702491   -1.620043    1.114873
      4          6           0        2.456962    0.521652    0.700723
      5          1           0        2.242851   -0.123933    1.564490
      6          8           0        1.927738    1.784668    0.844202
      7          1           0        0.924949    1.679939    0.966488
      8          6           0        3.966464    0.604558    0.457812
      9          1           0        4.521633    0.727432    1.392837
     10          8           0        4.232368    1.653132   -0.439063
     11          1           0        3.638339    2.377883   -0.195436
     12          6           0        2.029955   -0.217689   -0.583665
     13          1           0        1.830348    0.498155   -1.384468
     14          6           0        4.280661   -0.719873   -0.222179
     15          1           0        5.032501   -0.561954   -0.995552
     16          8           0        3.056464   -1.102992   -0.893003
     17          7           0        0.790741   -1.023681   -0.434823
     18          6           0        0.827950   -2.117782    0.351290
     19          1           0        1.788396   -2.353630    0.782808
     20          6           0       -0.297351   -2.877222    0.532689
     21          1           0       -0.249131   -3.755994    1.158294
     22          6           0       -1.474105   -2.512409   -0.113331
     23          1           0       -2.361412   -3.124865   -0.019198
     24          1           0       -2.566397   -1.379175    1.659209
     25          6           0       -1.491532   -1.383621   -0.919730
     26          6           0       -0.324679   -0.650803   -1.059622
     27          1           0       -0.296276    0.240674   -1.673989
     28          6           0       -2.666450   -0.974616   -1.758255
     29          8           0       -2.498675   -0.403386   -2.808180
     30          7           0       -3.884005   -1.393657   -1.296838
     31          1           0       -4.666274   -1.016051   -1.811235
     32          1           0       -4.003635   -1.407862   -0.293600
     33          1           0        4.021480   -1.894670    1.578129
     34          6           0       -0.387521    3.602097   -0.365279
     35          6           0       -1.641696    1.325525    0.659516
     36          6           0       -2.790765    0.678065    1.002999
     37          6           0       -4.223968   -0.502725    2.692108
     38          6           0       -2.842591   -0.384986    2.053331
     39          8           0       -0.469240    1.074234    1.096127
     40         16           0       -1.843244    2.574362   -0.641672
     41          1           0       -0.548641    4.518840   -0.929546
     42          1           0        0.523920    3.122784   -0.714598
     43          1           0       -4.508127    0.435002    3.170300
     44          1           0       -4.987378   -0.724287    1.940427
     45          1           0       -4.256604   -1.294307    3.441904
     46          1           0       -2.084723   -0.178682    2.813928
     47          1           0       -3.724277    1.039768    0.587086
     48          1           0       -0.286967    3.844516    0.691311
 ---------------------------------------------------------------------
 Rotational constants (GHZ):           0.3329947           0.1630741           0.1406039
 Leave Link  202 at Sat Aug 13 20:58:47 2022, MaxMem=  2684354560 cpu:               0.2 elap:               0.0
 (Enter /storage/apps/GAUSSIAN/G16_RevA03/g16/l301.exe)
 Standard basis: def2TZVP (5D, 7F)
 Ernie: Thresh=  0.10000D-02 Tol=  0.10000D-05 Strict=F.
 There are  1014 symmetry adapted cartesian basis functions of A   symmetry.
 There are   894 symmetry adapted basis functions of A   symmetry.
   894 basis functions,  1434 primitive gaussians,  1014 cartesian basis functions
    95 alpha electrons       95 beta electrons
       nuclear repulsion energy      2495.4596098278 Hartrees.
 IExCor= 4336 DFT=T Ex+Corr=M062X ExCW=0 ScaHFX=  0.540000
 ScaDFX=  1.000000  1.000000  1.000000  1.000000 ScalE2=  1.000000  1.000000
 IRadAn=      5 IRanWt=     -1 IRanGd=            0 ICorTp=0 IEmpDi=131
 NAtoms=   48 NActive=   48 NUniq=   48 SFac= 1.00D+00 NAtFMM=   60 NAOKFM=F Big=F
 Integral buffers will be    131072 words long.
 Raffenetti 2 integral format.
 Two-electron integral symmetry is turned on.
 R6Disp:  Grimme-D3 Dispersion energy=       -0.0042554421 Hartrees.
 Nuclear repulsion after empirical dispersion term =     2495.4553543857 Hartrees.
 Leave Link  301 at Sat Aug 13 20:58:47 2022, MaxMem=  2684354560 cpu:               0.8 elap:               0.1
 (Enter /storage/apps/GAUSSIAN/G16_RevA03/g16/l302.exe)
 NPDir=0 NMtPBC=     1 NCelOv=     1 NCel=       1 NClECP=     1 NCelD=      1
         NCelK=      1 NCelE2=     1 NClLst=     1 CellRange=     0.0.
 One-electron integrals computed using PRISM.
 One-electron integral symmetry used in STVInt
   1 Symmetry operations used in ECPInt.
 ECPInt:  NShTT=   65703 NPrTT=  200010 LenC2=   56867 LenP2D=  121061.
 LDataN:  DoStor=T MaxTD1= 6 Len=  172
 NBasis=   894 RedAO= T EigKep=  2.01D-05  NBF=   894
 NBsUse=   894 1.00D-06 EigRej= -1.00D+00 NBFU=   894
 Precomputing XC quadrature grid using
 IXCGrd= 4 IRadAn=           5 IRanWt=          -1 IRanGd=           0 AccXCQ= 0.00D+00.
 Generated NRdTot=       0 NPtTot=           0 NUsed=           0 NTot=          32
 NSgBfM=   999   999   999   999   999 MxSgAt=    48 MxSgA2=    48.
 Leave Link  302 at Sat Aug 13 20:58:48 2022, MaxMem=  2684354560 cpu:              18.4 elap:               1.2
 (Enter /storage/apps/GAUSSIAN/G16_RevA03/g16/l303.exe)
 DipDrv:  MaxL=1.
 Leave Link  303 at Sat Aug 13 20:58:48 2022, MaxMem=  2684354560 cpu:               2.0 elap:               0.2
 (Enter /storage/apps/GAUSSIAN/G16_RevA03/g16/l401.exe)
 ExpMin= 9.52D-02 ExpMax= 6.07D+04 ExpMxC= 2.07D+03 IAcc=3 IRadAn=         5 AccDes= 0.00D+00
 Harris functional with IExCor= 1009 and IRadAn=       5 diagonalized for initial guess.
 HarFok:  IExCor= 1009 AccDes= 0.00D+00 IRadAn=         5 IDoV= 1 UseB2=F ITyADJ=14
 ICtDFT=  3500011 ScaDFX=  1.000000  1.000000  1.000000  1.000000
 FoFCou: FMM=F IPFlag=           0 FMFlag=      100000 FMFlg1=           0
         NFxFlg=           0 DoJE=T BraDBF=F KetDBF=T FulRan=T
         wScrn=  0.000000 ICntrl=       500 IOpCl=  0 I1Cent=   200000004 NGrid=           0
         NMat0=    1 NMatS0=      1 NMatT0=    0 NMatD0=    1 NMtDS0=    0 NMtDT0=    0
 Petite list used in FoFCou.
 Harris En= -1507.24594816451    
 JPrj=0 DoOrth=F DoCkMO=F.
 Leave Link  401 at Sat Aug 13 20:58:52 2022, MaxMem=  2684354560 cpu:              59.3 elap:               3.7
 (Enter /storage/apps/GAUSSIAN/G16_RevA03/g16/l502.exe)
 Integral symmetry usage will be decided dynamically.
 Closed shell SCF:
 Using DIIS extrapolation, IDIIS=  1040.
 NGot=  2684354560 LenX=  2682272944 LenY=  2681243734
 Requested convergence on RMS density matrix=1.00D-08 within 128 cycles.
 Requested convergence on MAX density matrix=1.00D-06.
 Requested convergence on             energy=1.00D-06.
 No special actions if energy rises.
 Fock matrices will be formed incrementally for  20 cycles.
 Integral accuracy reduced to 1.0D-05 until final iterations.

 Cycle   1  Pass 0  IDiag  1:
 FoFJK:  IHMeth= 1 ICntrl=       0 DoSepK=F KAlg= 0 I1Cent=           0 FoldK=F
 IRaf= 790000000 NMat=       1 IRICut=       1 DoRegI=T DoRafI=F ISym2E= 0 IDoP0=0 IntGTp=1.
 FoFCou: FMM=F IPFlag=           0 FMFlag=      100000 FMFlg1=           0
         NFxFlg=           0 DoJE=F BraDBF=F KetDBF=F FulRan=T
         wScrn=  0.000000 ICntrl=         0 IOpCl=  0 I1Cent=           0 NGrid=           0
         NMat0=    1 NMatS0=      1 NMatT0=    0 NMatD0=    1 NMtDS0=    0 NMtDT0=    0
 Symmetry not used in FoFCou.
 E= -1507.17228812282    
 DIIS: error= 1.78D-02 at cycle   1 NSaved=   1.
 NSaved= 1 IEnMin= 1 EnMin= -1507.17228812282     IErMin= 1 ErrMin= 1.78D-02
 ErrMax= 1.78D-02  0.00D+00 EMaxC= 1.00D-01 BMatC= 9.90D-01 BMatP= 9.90D-01
 IDIUse=3 WtCom= 8.22D-01 WtEn= 1.78D-01
 Coeff-Com:  0.100D+01
 Coeff-En:   0.100D+01
 Coeff:      0.100D+01
 Gap=     0.176 Goal=   None    Shift=    0.000
 GapD=    0.176 DampG=1.000 DampE=0.500 DampFc=0.5000 IDamp=-1.
 Damping current iteration by 5.00D-01
 RMSDP=4.01D-03 MaxDP=7.41D-01              OVMax= 4.91D-01

 Cycle   2  Pass 0  IDiag  1:
 RMSU=  2.01D-03    CP:  1.01D+00
 E= -1507.48909796096     Delta-E=       -0.316809838139 Rises=F Damp=T
 DIIS: error= 3.76D-03 at cycle   2 NSaved=   2.
 NSaved= 2 IEnMin= 2 EnMin= -1507.48909796096     IErMin= 2 ErrMin= 3.76D-03
 ErrMax= 3.76D-03  0.00D+00 EMaxC= 1.00D-01 BMatC= 9.11D-02 BMatP= 9.90D-01
 IDIUse=3 WtCom= 9.62D-01 WtEn= 3.76D-02
 Coeff-Com: -0.111D-02 0.100D+01
 Coeff-En:   0.888D-01 0.911D+00
 Coeff:      0.226D-02 0.998D+00
 Gap=     0.171 Goal=   None    Shift=    0.000
 RMSDP=1.36D-03 MaxDP=1.86D-01 DE=-3.17D-01 OVMax= 3.39D-01

 Cycle   3  Pass 0  IDiag  1:
 RMSU=  1.16D-03    CP:  9.99D-01  6.48D-01
 E= -1507.85603816752     Delta-E=       -0.366940206555 Rises=F Damp=F
 DIIS: error= 4.35D-03 at cycle   3 NSaved=   3.
 NSaved= 3 IEnMin= 3 EnMin= -1507.85603816752     IErMin= 2 ErrMin= 3.76D-03
 ErrMax= 4.35D-03  0.00D+00 EMaxC= 1.00D-01 BMatC= 5.52D-02 BMatP= 9.11D-02
 IDIUse=3 WtCom= 9.56D-01 WtEn= 4.35D-02
 Coeff-Com: -0.804D-01 0.457D+00 0.623D+00
 Coeff-En:   0.000D+00 0.000D+00 0.100D+01
 Coeff:     -0.769D-01 0.437D+00 0.640D+00
 Gap=     0.136 Goal=   None    Shift=    0.000
 RMSDP=5.14D-04 MaxDP=3.38D-02 DE=-3.67D-01 OVMax= 9.52D-02

 Cycle   4  Pass 0  IDiag  1:
 RMSU=  3.92D-04    CP:  1.00D+00  8.00D-01  8.85D-01
 E= -1507.90274217915     Delta-E=       -0.046704011627 Rises=F Damp=F
 DIIS: error= 1.26D-03 at cycle   4 NSaved=   4.
 NSaved= 4 IEnMin= 4 EnMin= -1507.90274217915     IErMin= 4 ErrMin= 1.26D-03
 ErrMax= 1.26D-03  0.00D+00 EMaxC= 1.00D-01 BMatC= 6.32D-03 BMatP= 5.52D-02
 IDIUse=3 WtCom= 9.87D-01 WtEn= 1.26D-02
 Coeff-Com: -0.384D-01 0.102D+00 0.291D+00 0.645D+00
 Coeff-En:   0.000D+00 0.000D+00 0.000D+00 0.100D+01
 Coeff:     -0.380D-01 0.101D+00 0.287D+00 0.650D+00
 Gap=     0.145 Goal=   None    Shift=    0.000
 RMSDP=1.67D-04 MaxDP=2.52D-02 DE=-4.67D-02 OVMax= 3.19D-02

 Cycle   5  Pass 0  IDiag  1:
 RMSU=  1.53D-04    CP:  1.00D+00  7.93D-01  9.35D-01  9.29D-01
 E= -1507.90822455440     Delta-E=       -0.005482375259 Rises=F Damp=F
 DIIS: error= 4.74D-04 at cycle   5 NSaved=   5.
 NSaved= 5 IEnMin= 5 EnMin= -1507.90822455440     IErMin= 5 ErrMin= 4.74D-04
 ErrMax= 4.74D-04  0.00D+00 EMaxC= 1.00D-01 BMatC= 4.53D-04 BMatP= 6.32D-03
 IDIUse=3 WtCom= 9.95D-01 WtEn= 4.74D-03
 Coeff-Com: -0.115D-01 0.207D-01 0.826D-01 0.287D+00 0.621D+00
 Coeff-En:   0.000D+00 0.000D+00 0.000D+00 0.000D+00 0.100D+01
 Coeff:     -0.115D-01 0.206D-01 0.822D-01 0.286D+00 0.623D+00
 Gap=     0.146 Goal=   None    Shift=    0.000
 RMSDP=5.25D-05 MaxDP=5.58D-03 DE=-5.48D-03 OVMax= 6.28D-03

 Cycle   6  Pass 0  IDiag  1:
 RMSU=  5.01D-05    CP:  1.00D+00  7.92D-01  9.35D-01  9.59D-01  9.35D-01
 E= -1507.90866235120     Delta-E=       -0.000437796795 Rises=F Damp=F
 DIIS: error= 1.56D-04 at cycle   6 NSaved=   6.
 NSaved= 6 IEnMin= 6 EnMin= -1507.90866235120     IErMin= 6 ErrMin= 1.56D-04
 ErrMax= 1.56D-04  0.00D+00 EMaxC= 1.00D-01 BMatC= 5.64D-05 BMatP= 4.53D-04
 IDIUse=3 WtCom= 9.98D-01 WtEn= 1.56D-03
 Coeff-Com:  0.442D-04-0.388D-02-0.586D-02 0.393D-01 0.283D+00 0.688D+00
 Coeff-En:   0.000D+00 0.000D+00 0.000D+00 0.000D+00 0.000D+00 0.100D+01
 Coeff:      0.441D-04-0.387D-02-0.585D-02 0.392D-01 0.282D+00 0.688D+00
 Gap=     0.146 Goal=   None    Shift=    0.000
 RMSDP=4.02D-05 MaxDP=6.73D-03 DE=-4.38D-04 OVMax= 5.80D-03

 Cycle   7  Pass 0  IDiag  1:
 RMSU=  2.02D-05    CP:  1.00D+00  7.95D-01  9.40D-01  9.96D-01  1.13D+00
                    CP:  1.02D+00
 E= -1507.90873917106     Delta-E=       -0.000076819857 Rises=F Damp=F
 DIIS: error= 4.97D-05 at cycle   7 NSaved=   7.
 NSaved= 7 IEnMin= 7 EnMin= -1507.90873917106     IErMin= 7 ErrMin= 4.97D-05
 ErrMax= 4.97D-05  0.00D+00 EMaxC= 1.00D-01 BMatC= 4.76D-06 BMatP= 5.64D-05
 IDIUse=1 WtCom= 1.00D+00 WtEn= 0.00D+00
 Coeff-Com:  0.158D-02-0.406D-02-0.147D-01-0.252D-01 0.177D-01 0.216D+00
 Coeff-Com:  0.809D+00
 Coeff:      0.158D-02-0.406D-02-0.147D-01-0.252D-01 0.177D-01 0.216D+00
 Coeff:      0.809D+00
 Gap=     0.146 Goal=   None    Shift=    0.000
 RMSDP=1.73D-05 MaxDP=1.98D-03 DE=-7.68D-05 OVMax= 3.67D-03

 Cycle   8  Pass 0  IDiag  1:
 RMSU=  1.06D-05    CP:  1.00D+00  7.94D-01  9.40D-01  1.01D+00  1.19D+00
                    CP:  1.16D+00  1.25D+00
 E= -1507.90874490175     Delta-E=       -0.000005730692 Rises=F Damp=F
 DIIS: error= 3.11D-05 at cycle   8 NSaved=   8.
 NSaved= 8 IEnMin= 8 EnMin= -1507.90874490175     IErMin= 8 ErrMin= 3.11D-05
 ErrMax= 3.11D-05  0.00D+00 EMaxC= 1.00D-01 BMatC= 1.25D-06 BMatP= 4.76D-06
 IDIUse=1 WtCom= 1.00D+00 WtEn= 0.00D+00
 Coeff-Com:  0.706D-03-0.124D-02-0.661D-02-0.174D-01-0.324D-01-0.886D-02
 Coeff-Com:  0.360D+00 0.706D+00
 Coeff:      0.706D-03-0.124D-02-0.661D-02-0.174D-01-0.324D-01-0.886D-02
 Coeff:      0.360D+00 0.706D+00
 Gap=     0.146 Goal=   None    Shift=    0.000
 RMSDP=1.36D-05 MaxDP=9.67D-04 DE=-5.73D-06 OVMax= 2.10D-03

 Cycle   9  Pass 0  IDiag  1:
 RMSU=  9.59D-06    CP:  1.00D+00  7.93D-01  9.39D-01  1.01D+00  1.21D+00
                    CP:  1.23D+00  1.47D+00  1.67D+00
 E= -1507.90873991334     Delta-E=        0.000004988412 Rises=F Damp=F
 DIIS: error= 1.47D-05 at cycle   9 NSaved=   9.
 NSaved= 9 IEnMin= 8 EnMin= -1507.90874490175     IErMin= 9 ErrMin= 1.47D-05
 ErrMax= 1.47D-05  0.00D+00 EMaxC= 1.00D-01 BMatC= 3.08D-07 BMatP= 1.25D-06
 IDIUse=1 WtCom= 1.00D+00 WtEn= 0.00D+00
 Coeff-Com:  0.169D-03-0.202D-03-0.192D-02-0.557D-02-0.180D-01-0.310D-01
 Coeff-Com:  0.675D-01 0.323D+00 0.666D+00
 Coeff:      0.169D-03-0.202D-03-0.192D-02-0.557D-02-0.180D-01-0.310D-01
 Coeff:      0.675D-01 0.323D+00 0.666D+00
 Gap=     0.146 Goal=   None    Shift=    0.000
 RMSDP=1.94D-05 MaxDP=1.84D-03 DE= 4.99D-06 OVMax= 8.61D-04

 Cycle  10  Pass 0  IDiag  1:
 RMSU=  7.56D-06    CP:  1.00D+00  7.92D-01  9.39D-01  1.01D+00  1.20D+00
                    CP:  1.28D+00  1.58D+00  2.62D+00  2.44D+00
 E= -1507.90873702516     Delta-E=        0.000002888181 Rises=F Damp=F
 DIIS: error= 2.40D-05 at cycle  10 NSaved=  10.
 NSaved=10 IEnMin= 8 EnMin= -1507.90874490175     IErMin= 9 ErrMin= 1.47D-05
 ErrMax= 2.40D-05  0.00D+00 EMaxC= 1.00D-01 BMatC= 3.94D-07 BMatP= 3.08D-07
 IDIUse=1 WtCom= 1.00D+00 WtEn= 0.00D+00
 Coeff-Com:  0.176D-03-0.200D-03-0.199D-02-0.596D-02-0.199D-01-0.356D-01
 Coeff-Com:  0.688D-01 0.355D+00 0.772D+00-0.132D+00
 Coeff:      0.176D-03-0.200D-03-0.199D-02-0.596D-02-0.199D-01-0.356D-01
 Coeff:      0.688D-01 0.355D+00 0.772D+00-0.132D+00
 Gap=     0.146 Goal=   None    Shift=    0.000
 RMSDP=5.61D-06 MaxDP=6.30D-04 DE= 2.89D-06 OVMax= 4.86D-05

 Initial convergence to 1.0D-05 achieved.  Increase integral accuracy.
 Cycle  11  Pass 1  IDiag  1:
 E= -1507.90863835062     Delta-E=        0.000098674534 Rises=F Damp=F
 DIIS: error= 3.33D-04 at cycle   1 NSaved=   1.
 NSaved= 1 IEnMin= 1 EnMin= -1507.90863835062     IErMin= 1 ErrMin= 3.33D-04
 ErrMax= 3.33D-04  0.00D+00 EMaxC= 1.00D-01 BMatC= 9.50D-05 BMatP= 9.50D-05
 IDIUse=3 WtCom= 9.97D-01 WtEn= 3.33D-03
 Coeff-Com:  0.100D+01
 Coeff-En:   0.100D+01
 Coeff:      0.100D+01
 Gap=     0.146 Goal=   None    Shift=    0.000
 RMSDP=5.61D-06 MaxDP=6.30D-04 DE= 9.87D-05 OVMax= 9.84D-04

 Cycle  12  Pass 1  IDiag  1:
 RMSU=  5.66D-04    CP:  9.90D-01
 E= -1507.90870007567     Delta-E=       -0.000061725047 Rises=F Damp=F
 DIIS: error= 1.04D-05 at cycle   2 NSaved=   2.
 NSaved= 2 IEnMin= 2 EnMin= -1507.90870007567     IErMin= 2 ErrMin= 1.04D-05
 ErrMax= 1.04D-05  0.00D+00 EMaxC= 1.00D-01 BMatC= 1.28D-07 BMatP= 9.50D-05
 IDIUse=1 WtCom= 1.00D+00 WtEn= 0.00D+00
 Coeff-Com: -0.160D-01 0.102D+01
 Coeff:     -0.160D-01 0.102D+01
 Gap=     0.146 Goal=   None    Shift=    0.000
 RMSDP=2.12D-05 MaxDP=1.75D-03 DE=-6.17D-05 OVMax= 3.13D-04

 Cycle  13  Pass 1  IDiag  1:
 RMSU=  8.06D-06    CP:  9.90D-01  1.03D+00
 E= -1507.90870014690     Delta-E=       -0.000000071230 Rises=F Damp=F
 DIIS: error= 5.51D-06 at cycle   3 NSaved=   3.
 NSaved= 3 IEnMin= 3 EnMin= -1507.90870014690     IErMin= 3 ErrMin= 5.51D-06
 ErrMax= 5.51D-06  0.00D+00 EMaxC= 1.00D-01 BMatC= 1.51D-07 BMatP= 1.28D-07
 IDIUse=1 WtCom= 1.00D+00 WtEn= 0.00D+00
 Coeff-Com: -0.978D-02 0.561D+00 0.448D+00
 Coeff:     -0.978D-02 0.561D+00 0.448D+00
 Gap=     0.146 Goal=   None    Shift=    0.000
 RMSDP=7.52D-07 MaxDP=8.15D-05 DE=-7.12D-08 OVMax= 8.26D-05

 Cycle  14  Pass 1  IDiag  1:
 RMSU=  6.59D-07    CP:  9.90D-01  1.04D+00  1.02D+00
 E= -1507.90870026127     Delta-E=       -0.000000114369 Rises=F Damp=F
 DIIS: error= 1.53D-06 at cycle   4 NSaved=   4.
 NSaved= 4 IEnMin= 4 EnMin= -1507.90870026127     IErMin= 4 ErrMin= 1.53D-06
 ErrMax= 1.53D-06  0.00D+00 EMaxC= 1.00D-01 BMatC= 4.65D-09 BMatP= 1.28D-07
 IDIUse=1 WtCom= 1.00D+00 WtEn= 0.00D+00
 Coeff-Com: -0.959D-03 0.431D-01 0.136D+00 0.822D+00
 Coeff:     -0.959D-03 0.431D-01 0.136D+00 0.822D+00
 Gap=     0.146 Goal=   None    Shift=    0.000
 RMSDP=5.12D-07 MaxDP=4.26D-05 DE=-1.14D-07 OVMax= 9.86D-05

 Cycle  15  Pass 1  IDiag  1:
 RMSU=  3.01D-07    CP:  9.90D-01  1.04D+00  1.06D+00  1.03D+00
 E= -1507.90870026970     Delta-E=       -0.000000008434 Rises=F Damp=F
 DIIS: error= 7.47D-07 at cycle   5 NSaved=   5.
 NSaved= 5 IEnMin= 5 EnMin= -1507.90870026970     IErMin= 5 ErrMin= 7.47D-07
 ErrMax= 7.47D-07  0.00D+00 EMaxC= 1.00D-01 BMatC= 1.53D-09 BMatP= 4.65D-09
 IDIUse=1 WtCom= 1.00D+00 WtEn= 0.00D+00
 Coeff-Com:  0.825D-03-0.537D-01 0.796D-02 0.422D+00 0.622D+00
 Coeff:      0.825D-03-0.537D-01 0.796D-02 0.422D+00 0.622D+00
 Gap=     0.146 Goal=   None    Shift=    0.000
 RMSDP=1.81D-07 MaxDP=1.52D-05 DE=-8.43D-09 OVMax= 5.36D-05

 Cycle  16  Pass 1  IDiag  1:
 RMSU=  1.06D-07    CP:  9.90D-01  1.04D+00  1.07D+00  1.11D+00  1.29D+00
 E= -1507.90870027266     Delta-E=       -0.000000002955 Rises=F Damp=F
 DIIS: error= 4.60D-07 at cycle   6 NSaved=   6.
 NSaved= 6 IEnMin= 6 EnMin= -1507.90870027266     IErMin= 6 ErrMin= 4.60D-07
 ErrMax= 4.60D-07  0.00D+00 EMaxC= 1.00D-01 BMatC= 1.83D-10 BMatP= 1.53D-09
 IDIUse=1 WtCom= 1.00D+00 WtEn= 0.00D+00
 Coeff-Com:  0.438D-03-0.255D-01-0.203D-01 0.454D-02 0.218D+00 0.823D+00
 Coeff:      0.438D-03-0.255D-01-0.203D-01 0.454D-02 0.218D+00 0.823D+00
 Gap=     0.146 Goal=   None    Shift=    0.000
 RMSDP=1.13D-07 MaxDP=1.59D-05 DE=-2.96D-09 OVMax= 3.85D-05

 Cycle  17  Pass 1  IDiag  1:
 RMSU=  5.52D-08    CP:  9.90D-01  1.04D+00  1.07D+00  1.13D+00  1.57D+00
                    CP:  1.34D+00
 E= -1507.90870027348     Delta-E=       -0.000000000825 Rises=F Damp=F
 DIIS: error= 2.20D-07 at cycle   7 NSaved=   7.
 NSaved= 7 IEnMin= 7 EnMin= -1507.90870027348     IErMin= 7 ErrMin= 2.20D-07
 ErrMax= 2.20D-07  0.00D+00 EMaxC= 1.00D-01 BMatC= 6.65D-11 BMatP= 1.83D-10
 IDIUse=1 WtCom= 1.00D+00 WtEn= 0.00D+00
 Coeff-Com: -0.569D-04 0.534D-02-0.144D-01-0.148D+00-0.923D-01 0.466D+00
 Coeff-Com:  0.783D+00
 Coeff:     -0.569D-04 0.534D-02-0.144D-01-0.148D+00-0.923D-01 0.466D+00
 Coeff:      0.783D+00
 Gap=     0.146 Goal=   None    Shift=    0.000
 RMSDP=7.54D-08 MaxDP=9.99D-06 DE=-8.25D-10 OVMax= 2.67D-05

 Cycle  18  Pass 1  IDiag  1:
 RMSU=  2.10D-08    CP:  9.90D-01  1.04D+00  1.07D+00  1.16D+00  1.75D+00
                    CP:  1.65D+00  1.48D+00
 E= -1507.90870027377     Delta-E=       -0.000000000288 Rises=F Damp=F
 DIIS: error= 5.80D-08 at cycle   8 NSaved=   8.
 NSaved= 8 IEnMin= 8 EnMin= -1507.90870027377     IErMin= 8 ErrMin= 5.80D-08
 ErrMax= 5.80D-08  0.00D+00 EMaxC= 1.00D-01 BMatC= 5.33D-12 BMatP= 6.65D-11
 IDIUse=1 WtCom= 1.00D+00 WtEn= 0.00D+00
 Coeff-Com: -0.694D-04 0.489D-02-0.378D-02-0.611D-01-0.593D-01 0.106D+00
 Coeff-Com:  0.325D+00 0.689D+00
 Coeff:     -0.694D-04 0.489D-02-0.378D-02-0.611D-01-0.593D-01 0.106D+00
 Coeff:      0.325D+00 0.689D+00
 Gap=     0.146 Goal=   None    Shift=    0.000
 RMSDP=1.71D-08 MaxDP=2.46D-06 DE=-2.88D-10 OVMax= 5.45D-06

 Cycle  19  Pass 1  IDiag  1:
 RMSU=  5.64D-09    CP:  9.90D-01  1.04D+00  1.07D+00  1.16D+00  1.78D+00
                    CP:  1.72D+00  1.65D+00  1.15D+00
 E= -1507.90870027379     Delta-E=       -0.000000000018 Rises=F Damp=F
 DIIS: error= 1.42D-08 at cycle   9 NSaved=   9.
 NSaved= 9 IEnMin= 9 EnMin= -1507.90870027379     IErMin= 9 ErrMin= 1.42D-08
 ErrMax= 1.42D-08  0.00D+00 EMaxC= 1.00D-01 BMatC= 6.30D-13 BMatP= 5.33D-12
 IDIUse=1 WtCom= 1.00D+00 WtEn= 0.00D+00
 Coeff-Com: -0.179D-04 0.106D-02 0.626D-03-0.185D-02-0.875D-02-0.306D-01
 Coeff-Com:  0.644D-03 0.246D+00 0.792D+00
 Coeff:     -0.179D-04 0.106D-02 0.626D-03-0.185D-02-0.875D-02-0.306D-01
 Coeff:      0.644D-03 0.246D+00 0.792D+00
 Gap=     0.146 Goal=   None    Shift=    0.000
 RMSDP=6.68D-09 MaxDP=9.74D-07 DE=-1.77D-11 OVMax= 2.04D-06

 SCF Done:  E(RM062X) =  -1507.90870027     A.U. after   19 cycles
            NFock= 19  Conv=0.67D-08     -V/T= 2.0037
 KE= 1.502287536166D+03 PE=-8.528394898924D+03 EE= 3.022743308098D+03
 Leave Link  502 at Sat Aug 13 21:07:51 2022, MaxMem=  2684354560 cpu:            8613.1 elap:             538.9
 (Enter /storage/apps/GAUSSIAN/G16_RevA03/g16/l601.exe)
 Copying SCF densities to generalized density rwf, IOpCl= 0 IROHF=0.

 **********************************************************************

            Population analysis using the SCF density.

 **********************************************************************

 Orbital symmetries:
       Occupied  (A) (A) (A) (A) (A) (A) (A) (A) (A) (A) (A) (A)
                 (A) (A) (A) (A) (A) (A) (A) (A) (A) (A) (A) (A)
                 (A) (A) (A) (A) (A) (A) (A) (A) (A) (A) (A) (A)
                 (A) (A) (A) (A) (A) (A) (A) (A) (A) (A) (A) (A)
                 (A) (A) (A) (A) (A) (A) (A) (A) (A) (A) (A) (A)
                 (A) (A) (A) (A) (A) (A) (A) (A) (A) (A) (A) (A)
                 (A) (A) (A) (A) (A) (A) (A) (A) (A) (A) (A) (A)
                 (A) (A) (A) (A) (A) (A) (A) (A) (A) (A) (A)
       Virtual   (A) (A) (A) (A) (A) (A) (A) (A) (A) (A) (A) (A)
                 (A) (A) (A) (A) (A) (A) (A) (A) (A) (A) (A) (A)
                 (A) (A) (A) (A) (A) (A) (A) (A) (A) (A) (A) (A)
                 (A) (A) (A) (A) (A) (A) (A) (A) (A) (A) (A) (A)
                 (A) (A) (A) (A) (A) (A) (A) (A) (A) (A) (A) (A)
                 (A) (A) (A) (A) (A) (A) (A) (A) (A) (A) (A) (A)
                 (A) (A) (A) (A) (A) (A) (A) (A) (A) (A) (A) (A)
                 (A) (A) (A) (A) (A) (A) (A) (A) (A) (A) (A) (A)
                 (A) (A) (A) (A) (A) (A) (A) (A) (A) (A) (A) (A)
                 (A) (A) (A) (A) (A) (A) (A) (A) (A) (A) (A) (A)
                 (A) (A) (A) (A) (A) (A) (A) (A) (A) (A) (A) (A)
                 (A) (A) (A) (A) (A) (A) (A) (A) (A) (A) (A) (A)
                 (A) (A) (A) (A) (A) (A) (A) (A) (A) (A) (A) (A)
                 (A) (A) (A) (A) (A) (A) (A) (A) (A) (A) (A) (A)
                 (A) (A) (A) (A) (A) (A) (A) (A) (A) (A) (A) (A)
                 (A) (A) (A) (A) (A) (A) (A) (A) (A) (A) (A) (A)
                 (A) (A) (A) (A) (A) (A) (A) (A) (A) (A) (A) (A)
                 (A) (A) (A) (A) (A) (A) (A) (A) (A) (A) (A) (A)
                 (A) (A) (A) (A) (A) (A) (A) (A) (A) (A) (A) (A)
                 (A) (A) (A) (A) (A) (A) (A) (A) (A) (A) (A) (A)
                 (A) (A) (A) (A) (A) (A) (A) (A) (A) (A) (A) (A)
                 (A) (A) (A) (A) (A) (A) (A) (A) (A) (A) (A) (A)
                 (A) (A) (A) (A) (A) (A) (A) (A) (A) (A) (A) (A)
                 (A) (A) (A) (A) (A) (A) (A) (A) (A) (A) (A) (A)
                 (A) (A) (A) (A) (A) (A) (A) (A) (A) (A) (A) (A)
                 (A) (A) (A) (A) (A) (A) (A) (A) (A) (A) (A) (A)
                 (A) (A) (A) (A) (A) (A) (A) (A) (A) (A) (A) (A)
                 (A) (A) (A) (A) (A) (A) (A) (A) (A) (A) (A) (A)
                 (A) (A) (A) (A) (A) (A) (A) (A) (A) (A) (A) (A)
                 (A) (A) (A) (A) (A) (A) (A) (A) (A) (A) (A) (A)
                 (A) (A) (A) (A) (A) (A) (A) (A) (A) (A) (A) (A)
                 (A) (A) (A) (A) (A) (A) (A) (A) (A) (A) (A) (A)
                 (A) (A) (A) (A) (A) (A) (A) (A) (A) (A) (A) (A)
                 (A) (A) (A) (A) (A) (A) (A) (A) (A) (A) (A) (A)
                 (A) (A) (A) (A) (A) (A) (A) (A) (A) (A) (A) (A)
                 (A) (A) (A) (A) (A) (A) (A) (A) (A) (A) (A) (A)
                 (A) (A) (A) (A) (A) (A) (A) (A) (A) (A) (A) (A)
                 (A) (A) (A) (A) (A) (A) (A) (A) (A) (A) (A) (A)
                 (A) (A) (A) (A) (A) (A) (A) (A) (A) (A) (A) (A)
                 (A) (A) (A) (A) (A) (A) (A) (A) (A) (A) (A) (A)
                 (A) (A) (A) (A) (A) (A) (A) (A) (A) (A) (A) (A)
                 (A) (A) (A) (A) (A) (A) (A) (A) (A) (A) (A) (A)
                 (A) (A) (A) (A) (A) (A) (A) (A) (A) (A) (A) (A)
                 (A) (A) (A) (A) (A) (A) (A) (A) (A) (A) (A) (A)
                 (A) (A) (A) (A) (A) (A) (A) (A) (A) (A) (A) (A)
                 (A) (A) (A) (A) (A) (A) (A) (A) (A) (A) (A) (A)
                 (A) (A) (A) (A) (A) (A) (A) (A) (A) (A) (A) (A)
                 (A) (A) (A) (A) (A) (A) (A) (A) (A) (A) (A) (A)
                 (A) (A) (A) (A) (A) (A) (A) (A) (A) (A) (A) (A)
                 (A) (A) (A) (A) (A) (A) (A) (A) (A) (A) (A) (A)
                 (A) (A) (A) (A) (A) (A) (A) (A) (A) (A) (A) (A)
                 (A) (A) (A) (A) (A) (A) (A) (A) (A) (A) (A) (A)
                 (A) (A) (A) (A) (A) (A) (A) (A) (A) (A) (A) (A)
                 (A) (A) (A) (A) (A) (A) (A) (A) (A) (A) (A) (A)
                 (A) (A) (A) (A) (A) (A) (A) (A) (A) (A) (A) (A)
                 (A) (A) (A) (A) (A) (A) (A) (A) (A) (A) (A) (A)
                 (A) (A) (A) (A) (A) (A) (A) (A) (A) (A) (A) (A)
                 (A) (A) (A) (A) (A) (A) (A) (A) (A) (A) (A) (A)
                 (A) (A) (A) (A) (A) (A) (A) (A) (A) (A) (A) (A)
                 (A) (A) (A) (A) (A) (A) (A) (A) (A) (A) (A) (A)
                 (A) (A) (A) (A) (A) (A) (A) (A) (A) (A) (A) (A)
                 (A) (A) (A) (A) (A) (A) (A) (A) (A) (A) (A) (A)
                 (A) (A) (A) (A) (A) (A) (A) (A) (A) (A) (A) (A)
                 (A) (A) (A) (A) (A) (A) (A) (A) (A) (A) (A) (A)
                 (A) (A) (A) (A) (A) (A) (A) (A) (A) (A) (A) (A)
                 (A) (A) (A) (A) (A) (A) (A) (A) (A) (A) (A) (A)
                 (A) (A) (A) (A) (A) (A) (A)
 The electronic state is 1-A.
 Alpha  occ. eigenvalues --  -89.86530 -19.66688 -19.63127 -19.61488 -19.61157
 Alpha  occ. eigenvalues --  -19.56470 -14.88470 -14.77787 -10.66740 -10.66409
 Alpha  occ. eigenvalues --  -10.64478 -10.64202 -10.61261 -10.61143 -10.61005
 Alpha  occ. eigenvalues --  -10.60390 -10.60249 -10.60089 -10.58438 -10.55273
 Alpha  occ. eigenvalues --  -10.53426 -10.52167 -10.51788 -10.48699  -8.22424
 Alpha  occ. eigenvalues --   -6.14393  -6.14173  -6.13895  -1.22662  -1.18754
 Alpha  occ. eigenvalues --   -1.17008  -1.15927  -1.13659  -1.09754  -1.03286
 Alpha  occ. eigenvalues --   -0.98137  -0.93620  -0.90804  -0.87952  -0.87339
 Alpha  occ. eigenvalues --   -0.85096  -0.81628  -0.81043  -0.78739  -0.77118
 Alpha  occ. eigenvalues --   -0.73251  -0.71426  -0.70013  -0.69136  -0.67232
 Alpha  occ. eigenvalues --   -0.65882  -0.64049  -0.62949  -0.62633  -0.61414
 Alpha  occ. eigenvalues --   -0.60047  -0.58297  -0.58055  -0.57509  -0.56157
 Alpha  occ. eigenvalues --   -0.56070  -0.54357  -0.53474  -0.52499  -0.51894
 Alpha  occ. eigenvalues --   -0.51547  -0.50890  -0.50068  -0.49838  -0.49038
 Alpha  occ. eigenvalues --   -0.48734  -0.48022  -0.47858  -0.47118  -0.45858
 Alpha  occ. eigenvalues --   -0.45660  -0.45531  -0.44652  -0.43315  -0.43168
 Alpha  occ. eigenvalues --   -0.42315  -0.40198  -0.39609  -0.38662  -0.38084
 Alpha  occ. eigenvalues --   -0.37816  -0.37280  -0.36832  -0.36595  -0.36188
 Alpha  occ. eigenvalues --   -0.34952  -0.34300  -0.29077  -0.27541  -0.21471
 Alpha virt. eigenvalues --   -0.06895  -0.04289   0.03882   0.04673   0.04969
 Alpha virt. eigenvalues --    0.06371   0.07110   0.07313   0.08129   0.08643
 Alpha virt. eigenvalues --    0.09377   0.09765   0.10358   0.11093   0.11367
 Alpha virt. eigenvalues --    0.11443   0.11822   0.12498   0.13092   0.13102
 Alpha virt. eigenvalues --    0.13508   0.13993   0.14176   0.14452   0.15134
 Alpha virt. eigenvalues --    0.15393   0.15636   0.16005   0.16573   0.16715
 Alpha virt. eigenvalues --    0.17243   0.17713   0.18596   0.18885   0.19265
 Alpha virt. eigenvalues --    0.20104   0.20806   0.21347   0.21529   0.22083
 Alpha virt. eigenvalues --    0.22442   0.22832   0.23387   0.23924   0.24318
 Alpha virt. eigenvalues --    0.24570   0.24924   0.25486   0.25640   0.26087
 Alpha virt. eigenvalues --    0.26496   0.26904   0.27802   0.28119   0.28377
 Alpha virt. eigenvalues --    0.29304   0.29535   0.29853   0.30329   0.31156
 Alpha virt. eigenvalues --    0.31783   0.31949   0.32595   0.33067   0.33914
 Alpha virt. eigenvalues --    0.34068   0.34435   0.34802   0.35976   0.36034
 Alpha virt. eigenvalues --    0.36187   0.36802   0.37450   0.37776   0.38222
 Alpha virt. eigenvalues --    0.38330   0.38928   0.39276   0.39595   0.40062
 Alpha virt. eigenvalues --    0.40272   0.40830   0.41200   0.41647   0.42009
 Alpha virt. eigenvalues --    0.42354   0.42935   0.43100   0.43661   0.44065
 Alpha virt. eigenvalues --    0.44225   0.44445   0.44960   0.45273   0.45664
 Alpha virt. eigenvalues --    0.45991   0.46287   0.46738   0.47237   0.47350
 Alpha virt. eigenvalues --    0.47646   0.48236   0.48379   0.48609   0.48919
 Alpha virt. eigenvalues --    0.49571   0.49751   0.50013   0.50221   0.51019
 Alpha virt. eigenvalues --    0.51156   0.51828   0.52087   0.52594   0.53041
 Alpha virt. eigenvalues --    0.53653   0.53813   0.54242   0.54363   0.55164
 Alpha virt. eigenvalues --    0.55664   0.55834   0.56224   0.56356   0.57132
 Alpha virt. eigenvalues --    0.57376   0.58549   0.58645   0.59054   0.59271
 Alpha virt. eigenvalues --    0.60525   0.60874   0.61527   0.61925   0.62590
 Alpha virt. eigenvalues --    0.62839   0.63270   0.63780   0.64371   0.65070
 Alpha virt. eigenvalues --    0.65455   0.66149   0.66803   0.67175   0.67408
 Alpha virt. eigenvalues --    0.67706   0.68127   0.68758   0.69630   0.70612
 Alpha virt. eigenvalues --    0.70802   0.71537   0.72164   0.72636   0.73405
 Alpha virt. eigenvalues --    0.73771   0.74653   0.74960   0.75918   0.76919
 Alpha virt. eigenvalues --    0.77501   0.77984   0.78822   0.79612   0.80050
 Alpha virt. eigenvalues --    0.80619   0.81157   0.82517   0.83263   0.83717
 Alpha virt. eigenvalues --    0.84747   0.85229   0.86347   0.86640   0.87169
 Alpha virt. eigenvalues --    0.88111   0.88661   0.89452   0.89505   0.90210
 Alpha virt. eigenvalues --    0.90434   0.90866   0.91684   0.92396   0.92900
 Alpha virt. eigenvalues --    0.93746   0.94076   0.94649   0.95593   0.96254
 Alpha virt. eigenvalues --    0.96714   0.97325   0.97583   0.98234   0.99177
 Alpha virt. eigenvalues --    0.99928   1.00405   1.01433   1.01648   1.02578
 Alpha virt. eigenvalues --    1.03652   1.04059   1.05166   1.05545   1.06587
 Alpha virt. eigenvalues --    1.07338   1.07882   1.08470   1.09015   1.09606
 Alpha virt. eigenvalues --    1.10457   1.11442   1.11858   1.12659   1.13072
 Alpha virt. eigenvalues --    1.14153   1.14544   1.15319   1.16089   1.16761
 Alpha virt. eigenvalues --    1.17963   1.18313   1.18847   1.19150   1.20105
 Alpha virt. eigenvalues --    1.21346   1.21497   1.22667   1.23305   1.24922
 Alpha virt. eigenvalues --    1.25136   1.25541   1.25908   1.26824   1.27957
 Alpha virt. eigenvalues --    1.28280   1.28894   1.29070   1.29372   1.31073
 Alpha virt. eigenvalues --    1.31518   1.31906   1.33387   1.34089   1.34420
 Alpha virt. eigenvalues --    1.34991   1.36361   1.36901   1.38985   1.39309
 Alpha virt. eigenvalues --    1.40335   1.41036   1.42293   1.42414   1.44068
 Alpha virt. eigenvalues --    1.44947   1.45427   1.46159   1.47874   1.48928
 Alpha virt. eigenvalues --    1.50060   1.51020   1.52190   1.52712   1.53248
 Alpha virt. eigenvalues --    1.53795   1.54362   1.54774   1.55644   1.56051
 Alpha virt. eigenvalues --    1.56487   1.56854   1.57571   1.57790   1.58882
 Alpha virt. eigenvalues --    1.59360   1.59812   1.60147   1.60429   1.60727
 Alpha virt. eigenvalues --    1.61076   1.61463   1.62190   1.63093   1.63284
 Alpha virt. eigenvalues --    1.63508   1.63809   1.64314   1.64464   1.65398
 Alpha virt. eigenvalues --    1.66037   1.66703   1.66938   1.68056   1.68373
 Alpha virt. eigenvalues --    1.69069   1.70153   1.70866   1.71358   1.71703
 Alpha virt. eigenvalues --    1.72552   1.73134   1.73428   1.74070   1.74632
 Alpha virt. eigenvalues --    1.75332   1.76266   1.76800   1.77380   1.77575
 Alpha virt. eigenvalues --    1.78379   1.78876   1.78993   1.80110   1.80831
 Alpha virt. eigenvalues --    1.81462   1.82474   1.83779   1.84652   1.85725
 Alpha virt. eigenvalues --    1.86235   1.86394   1.87215   1.88448   1.88676
 Alpha virt. eigenvalues --    1.89746   1.89917   1.90376   1.91426   1.91542
 Alpha virt. eigenvalues --    1.92140   1.92573   1.93323   1.93850   1.94815
 Alpha virt. eigenvalues --    1.95448   1.95881   1.96953   1.97253   1.97928
 Alpha virt. eigenvalues --    1.98851   1.99319   2.00213   2.01704   2.01908
 Alpha virt. eigenvalues --    2.02711   2.03307   2.04075   2.04888   2.05508
 Alpha virt. eigenvalues --    2.06056   2.06387   2.06951   2.07617   2.08633
 Alpha virt. eigenvalues --    2.09342   2.10435   2.11544   2.12742   2.13765
 Alpha virt. eigenvalues --    2.14614   2.14992   2.15715   2.16084   2.16856
 Alpha virt. eigenvalues --    2.17417   2.18090   2.18400   2.18993   2.19840
 Alpha virt. eigenvalues --    2.20545   2.20776   2.22040   2.22211   2.22549
 Alpha virt. eigenvalues --    2.22999   2.23737   2.24624   2.25333   2.26124
 Alpha virt. eigenvalues --    2.26509   2.27647   2.28451   2.28723   2.30076
 Alpha virt. eigenvalues --    2.30641   2.32128   2.33004   2.33103   2.33657
 Alpha virt. eigenvalues --    2.33992   2.34812   2.35333   2.35580   2.36398
 Alpha virt. eigenvalues --    2.37454   2.38108   2.38300   2.38652   2.39694
 Alpha virt. eigenvalues --    2.40489   2.41127   2.42349   2.42878   2.43888
 Alpha virt. eigenvalues --    2.44438   2.44630   2.45654   2.46271   2.46991
 Alpha virt. eigenvalues --    2.47974   2.48781   2.49869   2.50973   2.52370
 Alpha virt. eigenvalues --    2.52556   2.53713   2.54347   2.55079   2.56174
 Alpha virt. eigenvalues --    2.57007   2.57542   2.58157   2.58756   2.59155
 Alpha virt. eigenvalues --    2.59837   2.60216   2.60629   2.60893   2.61946
 Alpha virt. eigenvalues --    2.62165   2.62713   2.62802   2.64389   2.64861
 Alpha virt. eigenvalues --    2.65825   2.66375   2.67043   2.67251   2.67837
 Alpha virt. eigenvalues --    2.68299   2.69083   2.69451   2.70007   2.70553
 Alpha virt. eigenvalues --    2.71158   2.71817   2.72465   2.73051   2.73786
 Alpha virt. eigenvalues --    2.74276   2.75261   2.75884   2.76408   2.77253
 Alpha virt. eigenvalues --    2.78954   2.79417   2.79974   2.80682   2.80968
 Alpha virt. eigenvalues --    2.81957   2.82212   2.82801   2.83167   2.84048
 Alpha virt. eigenvalues --    2.85118   2.85422   2.85525   2.86333   2.87027
 Alpha virt. eigenvalues --    2.88470   2.88909   2.89966   2.90560   2.92257
 Alpha virt. eigenvalues --    2.92523   2.93403   2.94085   2.94559   2.95362
 Alpha virt. eigenvalues --    2.96535   2.97517   2.97596   2.98545   2.98871
 Alpha virt. eigenvalues --    3.00106   3.01105   3.01319   3.01941   3.02894
 Alpha virt. eigenvalues --    3.03720   3.04070   3.05007   3.05871   3.06480
 Alpha virt. eigenvalues --    3.07400   3.08177   3.08730   3.09555   3.09784
 Alpha virt. eigenvalues --    3.10868   3.11157   3.11397   3.11785   3.12508
 Alpha virt. eigenvalues --    3.13094   3.13685   3.13874   3.13993   3.14725
 Alpha virt. eigenvalues --    3.15563   3.16975   3.17018   3.17342   3.17866
 Alpha virt. eigenvalues --    3.18085   3.19244   3.19695   3.20669   3.20911
 Alpha virt. eigenvalues --    3.22182   3.22872   3.23168   3.23490   3.24189
 Alpha virt. eigenvalues --    3.24933   3.25913   3.26291   3.27267   3.27543
 Alpha virt. eigenvalues --    3.28644   3.28875   3.29806   3.30329   3.31474
 Alpha virt. eigenvalues --    3.31770   3.32182   3.32431   3.32760   3.33045
 Alpha virt. eigenvalues --    3.34101   3.34967   3.35443   3.36394   3.36552
 Alpha virt. eigenvalues --    3.37432   3.38202   3.39023   3.39560   3.40644
 Alpha virt. eigenvalues --    3.41028   3.41573   3.41937   3.42461   3.42706
 Alpha virt. eigenvalues --    3.43150   3.44041   3.45346   3.45568   3.45989
 Alpha virt. eigenvalues --    3.46822   3.47590   3.48243   3.48898   3.49884
 Alpha virt. eigenvalues --    3.50626   3.51026   3.51355   3.52612   3.53234
 Alpha virt. eigenvalues --    3.54367   3.54708   3.55899   3.56128   3.56620
 Alpha virt. eigenvalues --    3.57018   3.57868   3.58405   3.59260   3.60181
 Alpha virt. eigenvalues --    3.60723   3.61730   3.63011   3.63415   3.64400
 Alpha virt. eigenvalues --    3.65857   3.67273   3.68234   3.69212   3.69717
 Alpha virt. eigenvalues --    3.70723   3.71528   3.72800   3.73377   3.74648
 Alpha virt. eigenvalues --    3.75805   3.77204   3.78159   3.78370   3.79798
 Alpha virt. eigenvalues --    3.80054   3.80284   3.81634   3.83859   3.85075
 Alpha virt. eigenvalues --    3.85743   3.86341   3.87053   3.88521   3.88672
 Alpha virt. eigenvalues --    3.90233   3.91362   3.91933   3.92098   3.93447
 Alpha virt. eigenvalues --    3.95672   3.96862   3.97556   3.97914   3.98557
 Alpha virt. eigenvalues --    4.00235   4.01319   4.02369   4.05735   4.07343
 Alpha virt. eigenvalues --    4.07890   4.10473   4.10881   4.12330   4.13448
 Alpha virt. eigenvalues --    4.14304   4.15853   4.16798   4.16928   4.17475
 Alpha virt. eigenvalues --    4.18738   4.20141   4.20615   4.22945   4.24317
 Alpha virt. eigenvalues --    4.26599   4.27136   4.28832   4.29386   4.30766
 Alpha virt. eigenvalues --    4.31605   4.32954   4.35188   4.36345   4.36795
 Alpha virt. eigenvalues --    4.38493   4.39700   4.40836   4.41921   4.43788
 Alpha virt. eigenvalues --    4.43932   4.44698   4.45449   4.47270   4.48746
 Alpha virt. eigenvalues --    4.49945   4.50679   4.53578   4.56796   4.57980
 Alpha virt. eigenvalues --    4.58945   4.60808   4.61382   4.62988   4.66666
 Alpha virt. eigenvalues --    4.67950   4.71941   4.73128   4.75359   4.76053
 Alpha virt. eigenvalues --    4.77026   4.79733   4.81083   4.81452   4.83922
 Alpha virt. eigenvalues --    4.85554   4.86697   4.87406   4.88819   4.89776
 Alpha virt. eigenvalues --    4.90857   4.92518   4.94090   4.95321   4.98441
 Alpha virt. eigenvalues --    4.99655   5.00729   5.02695   5.03825   5.05212
 Alpha virt. eigenvalues --    5.07627   5.12254   5.13706   5.17552   5.19539
 Alpha virt. eigenvalues --    5.20790   5.24573   5.27053   5.27275   5.29491
 Alpha virt. eigenvalues --    5.29883   5.31217   5.32774   5.33310   5.37774
 Alpha virt. eigenvalues --    5.39680   5.41861   5.44014   5.44862   5.46454
 Alpha virt. eigenvalues --    5.48521   5.49271   5.49740   5.52848   5.59423
 Alpha virt. eigenvalues --    5.65301   5.67502   5.71772   5.74217   5.77608
 Alpha virt. eigenvalues --    5.80374   5.81550   5.83487   5.85363   5.86586
 Alpha virt. eigenvalues --    5.87926   5.90675   5.91782   5.94713   5.95071
 Alpha virt. eigenvalues --    5.97715   6.02659   6.04946   6.14735   6.18346
 Alpha virt. eigenvalues --    6.20282   6.21972   6.26515   6.27503   6.37684
 Alpha virt. eigenvalues --    6.42098   6.44475   6.48085   6.51228   6.56691
 Alpha virt. eigenvalues --    6.57408   6.70652   6.74064   6.75970   6.76448
 Alpha virt. eigenvalues --    6.76675   6.80775   6.83905   6.85055   6.88060
 Alpha virt. eigenvalues --    6.90688   6.95018   7.00277   7.07962   7.08645
 Alpha virt. eigenvalues --    7.10217   7.11133   7.17107   7.18920   7.25706
 Alpha virt. eigenvalues --    7.31998   7.42931   9.08351   9.40922   9.60161
 Alpha virt. eigenvalues --   19.79427  22.35498  22.46108  22.50408  22.55093
 Alpha virt. eigenvalues --   22.64450  22.66572  22.73829  22.75526  22.80988
 Alpha virt. eigenvalues --   22.87181  22.93968  22.96646  23.06932  23.20175
 Alpha virt. eigenvalues --   23.27907  23.50970  32.18774  33.15562  44.13249
 Alpha virt. eigenvalues --   44.24342  44.26392  44.39989  44.50707
          Condensed to atoms (all electrons):
               1          2          3          4          5          6
     1  C    5.166773   0.431728   0.410441   0.003011  -0.007375  -0.000229
     2  H    0.431728   0.494694  -0.012089  -0.002624   0.000492  -0.000005
     3  H    0.410441  -0.012089   0.499455  -0.000353   0.000241  -0.000009
     4  C    0.003011  -0.002624  -0.000353   5.552463   0.535194   0.234624
     5  H   -0.007375   0.000492   0.000241   0.535194   0.528495  -0.034456
     6  O   -0.000229  -0.000005  -0.000009   0.234624  -0.034456   8.212164
     7  H    0.000005  -0.000003  -0.000003  -0.058184  -0.006953   0.296814
     8  C   -0.003445   0.011412  -0.001402  -0.033312  -0.104198  -0.060664
     9  H    0.007806  -0.000330  -0.001918  -0.077089   0.002243   0.001486
    10  O    0.005184  -0.000192  -0.000010   0.048044   0.005597  -0.023980
[...]
 (Enter /storage/apps/GAUSSIAN/G16_RevA03/g16/l716.exe)
 Dipole        = 7.97802960D-01-2.75230435D+00 8.59737730D-01
 ***** Axes restored to original set *****
 -------------------------------------------------------------------
 Center     Atomic                   Forces (Hartrees/Bohr)
 Number     Number              X              Y              Z
 -------------------------------------------------------------------
      1        6          -0.000029939   -0.000007844    0.000052800
      2        1           0.000003513   -0.000002861   -0.000000057
      3        1          -0.000007775   -0.000017922    0.000010347
      4        6          -0.000061314    0.000045895   -0.000068199
      5        1          -0.000064405    0.000011040   -0.000003734
      6        8          -0.000156609    0.000065976   -0.000109848
      7        1          -0.000012566    0.000006832    0.000003642
      8        6          -0.000123243   -0.000030826    0.000049697
      9        1          -0.000040721   -0.000009789    0.000017852
     10        8          -0.000126548   -0.000157246    0.000253476
     11        1          -0.000049763    0.000020644    0.000003679
     12        6           0.000056530    0.000059616   -0.000010506
     13        1           0.000012922    0.000008317   -0.000039401
     14        6           0.000040657   -0.000020787    0.000112064
     15        1          -0.000016187    0.000004410    0.000004198
     16        8           0.000141109    0.000054377    0.000029394
     17        7           0.000214450   -0.000025760   -0.000208646
     18        6           0.000128083    0.000099392   -0.000129505
     19        1          -0.000013942   -0.000012338    0.000003848
     20        6           0.000202880    0.000056128   -0.000140125
     21        1           0.000007080    0.000005552    0.000001253
     22        6           0.000016119    0.000154489   -0.000099477
     23        1           0.000076976   -0.000007070    0.000030014
     24        1          -0.000047021    0.000010580   -0.000093524
     25        6           0.000131350   -0.000022994   -0.000079443
     26        6           0.000147241    0.000149615    0.000027211
     27        1          -0.000016846   -0.000020590   -0.000132319
     28        6           0.000004756    0.000048515    0.000052289
     29        8          -0.000017883    0.000068649   -0.000055401
     30        7          -0.000134863   -0.000030922    0.000243152
     31        1           0.000005011   -0.000006284    0.000019730
     32        1          -0.000023150    0.000002407    0.000064504
     33        1          -0.000037175    0.000028451    0.000006218
     34        6          -0.000215510   -0.000317011    0.000304154
     35        6          -0.000065813   -0.000025925   -0.000066314
     36        6          -0.000085421    0.000051606    0.000076586
     37        6          -0.000198319   -0.000188264    0.000640192
     38        6          -0.000064994    0.000052958    0.000094278
     39        8          -0.000078178   -0.000113833   -0.000162525
     40       16           0.000824453   -0.000158216   -0.000959686
     41        1          -0.000026213   -0.000012721   -0.000013643
     42        1          -0.000399399    0.000132136    0.000148313
     43        1           0.000019983   -0.000007088    0.000146943
     44        1          -0.000038094   -0.000006358    0.000060657
     45        1           0.000005614    0.000005258    0.000020763
     46        1           0.000021679   -0.000032360   -0.000000025
     47        1           0.000046513   -0.000048940    0.000042188
     48        1           0.000044972    0.000141106   -0.000147064
 -------------------------------------------------------------------
 Cartesian Forces:  Max     0.000959686 RMS     0.000153372
 Leave Link  716 at Sat Aug 13 21:11:04 2022, MaxMem=  2684354560 cpu:               0.4 elap:               0.0
 (Enter /storage/apps/GAUSSIAN/G16_RevA03/g16/l103.exe)

 GradGradGradGradGradGradGradGradGradGradGradGradGradGradGradGradGradGrad
 Berny optimization.
 Search for a local minimum.
 Step number   1 out of a maximum of    2
 All quantities printed in internal units (Hartrees-Bohrs-Radians)
 Second derivative matrix not updated -- first step.
 ITU=  0
     Eigenvalues ---    0.00048   0.00083   0.00112   0.00145   0.00212
     Eigenvalues ---    0.00216   0.00306   0.00354   0.00461   0.00521
     Eigenvalues ---    0.00608   0.00646   0.00797   0.00920   0.00953
     Eigenvalues ---    0.01110   0.01163   0.01267   0.01494   0.01629
     Eigenvalues ---    0.01821   0.02132   0.02377   0.02469   0.02805
     Eigenvalues ---    0.02915   0.03325   0.03657   0.04118   0.04387
     Eigenvalues ---    0.04579   0.04695   0.04986   0.05051   0.05235
     Eigenvalues ---    0.05394   0.05487   0.05712   0.05948   0.06050
     Eigenvalues ---    0.06147   0.06299   0.06619   0.06746   0.07064
     Eigenvalues ---    0.07124   0.07479   0.08107   0.08265   0.08494
     Eigenvalues ---    0.08643   0.09165   0.09326   0.09792   0.10778
     Eigenvalues ---    0.10827   0.11109   0.11319   0.12005   0.12611
     Eigenvalues ---    0.13003   0.13135   0.13288   0.13659   0.13722
     Eigenvalues ---    0.13948   0.14334   0.15902   0.16380   0.16799
     Eigenvalues ---    0.17978   0.18111   0.18604   0.19810   0.20284
     Eigenvalues ---    0.20525   0.20859   0.21822   0.22590   0.25163
     Eigenvalues ---    0.25712   0.27247   0.28068   0.30540   0.33197
     Eigenvalues ---    0.33675   0.34379   0.34513   0.37765   0.37815
     Eigenvalues ---    0.37815   0.37815   0.37815   0.37815   0.40043
     Eigenvalues ---    0.43898   0.47908   0.49322   0.57039   0.58335
     Eigenvalues ---    0.60055   0.61750   0.69497   0.71873   0.73910
     Eigenvalues ---    0.78942   0.81759   0.82421   0.87317   0.90512
     Eigenvalues ---    0.90894   0.91578   0.92332   0.93169   0.95221
     Eigenvalues ---    0.96978   0.99619   0.99841   1.01895   1.03808
     Eigenvalues ---    1.05833   1.08518   1.11097   1.11709   1.12516
     Eigenvalues ---    1.19634   1.20683   1.27325   1.27889   1.29401
     Eigenvalues ---    1.33595   1.37534   1.42965   1.56702   1.72359
     Eigenvalues ---    1.84145   1.85436   2.36274
 Quadratic step=5.244D-01 exceeds max=3.000D-01 adjusted using Lamda=-5.378D-04.
 Angle between NR and scaled steps=  13.71 degrees.
 Angle between quadratic step and forces=  67.48 degrees.
 Linear search not attempted -- first point.
 Variable       Old X    -DE/DX   Delta X   Delta X   Delta X     New X
                                 (Linear)    (Quad)   (Total)
    X1        6.75291  -0.00003   0.00000  -0.01659  -0.01659   6.73632
    Y1       -6.85428  -0.00001   0.00000  -0.02403  -0.02403  -6.87831
    Z1       -0.72861   0.00005   0.00000   0.02247   0.02247  -0.70615
    X2        7.11825   0.00000   0.00000  -0.00752  -0.00752   7.11073
    Y2       -7.02422  -0.00000   0.00000  -0.03077  -0.03077  -7.05499
    Z2       -2.74766  -0.00000   0.00000   0.02404   0.02404  -2.72362
    X3        8.06745  -0.00001   0.00000  -0.02522  -0.02522   8.04223
    Y3       -8.07869  -0.00002   0.00000  -0.02858  -0.02858  -8.10727
    Z3        0.27986   0.00001   0.00000   0.02846   0.02846   0.30832
    X4        3.42994  -0.00006   0.00000  -0.00755  -0.00755   3.42240
    Y4       -2.70189   0.00005   0.00000   0.02777   0.02777  -2.67412
    Z4        2.32724  -0.00007   0.00000  -0.01196  -0.01196   2.31528
    X5        2.18748  -0.00006   0.00000  -0.02295  -0.02295   2.16452
    Y5       -4.32291   0.00001   0.00000   0.03998   0.03998  -4.28294
    Z5        1.94650  -0.00000   0.00000  -0.01248  -0.01248   1.93402
    X6        2.61360  -0.00016   0.00000  -0.00697  -0.00697   2.60663
    Y6       -1.27653   0.00007   0.00000   0.05108   0.05108  -1.22545
    Z6        4.34521  -0.00011   0.00000  -0.02791  -0.02791   4.31730
    X7        0.83757  -0.00001   0.00000   0.00755   0.00755   0.84512
    Y7       -0.67409   0.00001   0.00000   0.07554   0.07554  -0.59854
    Z7        3.93733   0.00000   0.00000  -0.05301  -0.05301   3.88432
    X8        6.14663  -0.00012   0.00000  -0.02092  -0.02092   6.12571
    Y8       -3.59537  -0.00003   0.00000  -0.00367  -0.00367  -3.59904
    Z8        2.76725   0.00005   0.00000   0.00982   0.00982   2.77708
    X9        6.21565  -0.00004   0.00000  -0.04640  -0.04640   6.16925
    Y9       -5.27407  -0.00001   0.00000  -0.00187  -0.00187  -5.27594
    Z9        3.97301   0.00002   0.00000   0.01318   0.01318   3.98618
   X10        7.56392  -0.00013   0.00000  -0.00569  -0.00569   7.55823
   Y10       -1.60057  -0.00016   0.00000  -0.01802  -0.01802  -1.61859
   Z10        3.79850   0.00025   0.00000   0.01655   0.01655   3.81504
   X11        6.46973  -0.00005   0.00000  -0.00578  -0.00578   6.46395
   Y11       -0.75662   0.00002   0.00000   0.00562   0.00562  -0.75100
   Z11        4.99780   0.00000   0.00000  -0.00108  -0.00108   4.99672
   X12        3.80282   0.00006   0.00000   0.02152   0.02152   3.82434
   Y12       -1.21448   0.00006   0.00000   0.00751   0.00751  -1.20697
   Z12       -0.15122  -0.00001   0.00000  -0.01940  -0.01940  -0.17062
   X13        4.31770   0.00001   0.00000   0.03908   0.03908   4.35678
   Y13        0.74240   0.00001   0.00000   0.00610   0.00610   0.74850
   Z13        0.25843  -0.00004   0.00000  -0.03539  -0.03539   0.22305
   X14        7.09484   0.00004   0.00000  -0.00680  -0.00680   7.08803
   Y14       -4.13898  -0.00002   0.00000  -0.02273  -0.02273  -4.16171
   Z14        0.10770   0.00011   0.00000   0.01724   0.01724   0.12494
   X15        9.06608  -0.00002   0.00000  -0.00155  -0.00155   9.06453
   Y15       -3.56204   0.00000   0.00000  -0.03750  -0.03750  -3.59953
   Z15       -0.04989   0.00000   0.00000   0.02305   0.02305  -0.02685
   X16        5.64470   0.00014   0.00000   0.01569   0.01569   5.66038
   Y16       -2.49014   0.00005   0.00000  -0.02026  -0.02026  -2.51041
   Z16       -1.52368   0.00003   0.00000  -0.00034  -0.00034  -1.52403
   X17        1.51076   0.00021   0.00000   0.02666   0.02666   1.53741
   Y17       -1.09193  -0.00003   0.00000   0.01145   0.01145  -1.08049
   Z17       -1.76810  -0.00021   0.00000  -0.02583  -0.02583  -1.79392
   X18        0.68695   0.00013   0.00000   0.03338   0.03338   0.72032
   Y18       -3.23673   0.00010   0.00000   0.01297   0.01297  -3.22377
   Z18       -2.86705  -0.00013   0.00000  -0.03357  -0.03357  -2.90062
   X19        1.83316  -0.00001   0.00000   0.04231   0.04231   1.87546
   Y19       -4.89315  -0.00001   0.00000   0.01638   0.01638  -4.87678
   Z19       -2.55045   0.00000   0.00000  -0.04618  -0.04618  -2.59663
   X20       -1.44107   0.00020   0.00000   0.02944   0.02944  -1.41163
   Y20       -3.21570   0.00006   0.00000   0.01020   0.01020  -3.20550
   Z20       -4.34024  -0.00014   0.00000  -0.02730  -0.02730  -4.36754
   X21       -2.06727   0.00001   0.00000   0.03730   0.03730  -2.02997
   Y21       -4.94618   0.00001   0.00000   0.01158   0.01158  -4.93460
   Z21       -5.22170   0.00000   0.00000  -0.03615  -0.03615  -5.25785
   X22       -2.72620   0.00002   0.00000   0.01391   0.01391  -2.71229
   Y22       -0.95175   0.00015   0.00000   0.00472   0.00472  -0.94703
   Z22       -4.70580  -0.00010   0.00000  -0.00668  -0.00668  -4.71248
   X23       -4.36110   0.00008   0.00000   0.00852   0.00852  -4.35259
   Y23       -0.87923  -0.00001   0.00000   0.00093   0.00093  -0.87830
   Z23       -5.93239   0.00003   0.00000   0.00068   0.00068  -5.93172
   X24       -5.98774  -0.00005   0.00000  -0.01573  -0.01573  -6.00347
   Y24       -1.44030   0.00001   0.00000   0.01782   0.01782  -1.42248
   Z24       -1.67425  -0.00009   0.00000  -0.02521  -0.02521  -1.69946
   X25       -1.84610   0.00013   0.00000   0.00510   0.00510  -1.84100
   Y25        1.23635  -0.00002   0.00000   0.00308   0.00308   1.23943
   Z25       -3.56081  -0.00008   0.00000   0.00359   0.00359  -3.55721
   X26        0.30806   0.00015   0.00000   0.01778   0.01778   0.32583
   Y26        1.09648   0.00015   0.00000   0.00850   0.00850   1.10498
   Z26       -2.08099   0.00003   0.00000  -0.01398  -0.01398  -2.09497
   X27        1.05170  -0.00002   0.00000   0.01846   0.01846   1.07016
   Y27        2.75643  -0.00002   0.00000   0.00871   0.00871   2.76515
   Z27       -1.14272  -0.00013   0.00000  -0.01596  -0.01596  -1.15867
   X28       -2.94437   0.00000   0.00000  -0.02438  -0.02438  -2.96876
   Y28        3.80930   0.00005   0.00000  -0.00346  -0.00346   3.80584
   Z28       -4.02086   0.00005   0.00000   0.03565   0.03565  -3.98521
   X29       -1.61748  -0.00002   0.00000  -0.04591  -0.04591  -1.66339
   Y29        5.66271   0.00007   0.00000   0.01128   0.01128   5.67400
   Z29       -3.94018  -0.00006   0.00000   0.05001   0.05001  -3.89017
   X30       -5.43195  -0.00013   0.00000  -0.02767  -0.02767  -5.45962
   Y30        3.83255  -0.00003   0.00000  -0.02447  -0.02447   3.80807
   Z30       -4.72275   0.00024   0.00000   0.04702   0.04702  -4.67573
   X31       -6.18817   0.00001   0.00000  -0.04605  -0.04605  -6.23422
   Y31        5.58140  -0.00001   0.00000  -0.03196  -0.03196   5.54944
   Z31       -4.81795   0.00002   0.00000   0.06013   0.06013  -4.75782
   X32       -6.55488  -0.00002   0.00000  -0.01007  -0.01007  -6.56495
   Y32        2.51743   0.00000   0.00000  -0.04410  -0.04410   2.47333
   Z32       -3.91309   0.00006   0.00000   0.03901   0.03901  -3.87408
   X33        4.83775  -0.00004   0.00000  -0.02098  -0.02098   4.81677
   Y33       -7.52223   0.00003   0.00000  -0.01545  -0.01545  -7.53768
   Z33       -0.34158   0.00001   0.00000   0.01378   0.01378  -0.32780
   X34        0.18996  -0.00022   0.00000  -0.01707  -0.01707   0.17289
   Y34        4.10755  -0.00032   0.00000  -0.00143  -0.00143   4.10612
   Z34        5.48510   0.00030   0.00000   0.00506   0.00506   5.49016
   X35       -3.14973  -0.00007   0.00000   0.00226   0.00226  -3.14747
   Y35        1.65684  -0.00003   0.00000  -0.00624  -0.00624   1.65060
   Z35        2.21157  -0.00007   0.00000  -0.00921  -0.00921   2.20235
   X36       -5.44967  -0.00009   0.00000   0.00801   0.00801  -5.44166
   Y36        1.57485   0.00005   0.00000   0.00501   0.00501   1.57986
   Z36        1.05530   0.00008   0.00000  -0.01914  -0.01914   1.03616
   X37       -9.53458  -0.00020   0.00000   0.00258   0.00258  -9.53201
   Y37       -0.63889  -0.00019   0.00000  -0.00134  -0.00134  -0.64023
   Z37        0.09841   0.00064   0.00000   0.02538   0.02538   0.12379
   X38       -6.65865  -0.00006   0.00000   0.00351   0.00351  -6.65514
   Y38       -0.83422   0.00005   0.00000   0.00653   0.00653  -0.82769
   Z38        0.20706   0.00009   0.00000  -0.01381  -0.01381   0.19325
   X39       -1.66206  -0.00008   0.00000  -0.02324  -0.02324  -1.68531
   Y39       -0.20504  -0.00011   0.00000  -0.02038  -0.02038  -0.22542
   Z39        2.57965  -0.00016   0.00000   0.02101   0.02101   2.60066
   X40       -2.09875   0.00082   0.00000   0.03688   0.03688  -2.06187
   Y40        4.80906  -0.00016   0.00000  -0.00821  -0.00821   4.80086
   Z40        3.05982  -0.00096   0.00000  -0.04760  -0.04760   3.01222
   X41        0.57970  -0.00003   0.00000  -0.01022  -0.01022   0.56948
   Y41        5.88518  -0.00001   0.00000   0.00751   0.00751   5.89269
   Z41        6.44377  -0.00001   0.00000  -0.01449  -0.01449   6.42929
   X42        1.93921  -0.00040   0.00000  -0.01301  -0.01301   1.92620
   Y42        3.36293   0.00013   0.00000  -0.03147  -0.03147   3.33146
   Z42        4.70510   0.00015   0.00000   0.04447   0.04447   4.74957
   X43      -10.30433   0.00002   0.00000   0.02657   0.02657 -10.27776
   Y43       -0.19588  -0.00001   0.00000  -0.01762  -0.01762  -0.21350
   Z43        1.95752   0.00015   0.00000   0.03885   0.03885   1.99637
   X44      -10.12924  -0.00004   0.00000  -0.01505  -0.01505 -10.14429
   Y44        0.87249  -0.00001   0.00000   0.00709   0.00709   0.87958
   Z44       -1.18079   0.00006   0.00000   0.04334   0.04334  -1.13746
   X45      -10.39527   0.00001   0.00000   0.00185   0.00185 -10.39342
   Y45       -2.39265   0.00001   0.00000   0.00126   0.00126  -2.39139
   Z45       -0.55933   0.00002   0.00000   0.02008   0.02008  -0.53926
   X46       -6.08356   0.00002   0.00000   0.02564   0.02564  -6.05792
   Y46       -2.36738  -0.00003   0.00000   0.00259   0.00259  -2.36479
   Z46        1.46708  -0.00000   0.00000  -0.02886  -0.02886   1.43823
   X47       -6.54750   0.00005   0.00000   0.02133   0.02133  -6.52618
   Y47        3.30230  -0.00005   0.00000   0.01219   0.01219   3.31448
   Z47        0.96812   0.00004   0.00000  -0.03501  -0.03501   0.93311
   X48       -0.58256   0.00004   0.00000  -0.05404  -0.05404  -0.63661
   Y48        2.76363   0.00014   0.00000   0.02564   0.02564   2.78927
   Z48        6.83777  -0.00015   0.00000   0.00916   0.00916   6.84693
         Item               Value     Threshold  Converged?
 Maximum Force            0.000960     0.000450     NO 
 RMS     Force            0.000153     0.000300     YES
 Maximum Displacement     0.075542     0.001800     NO 
 RMS     Displacement     0.025078     0.001200     NO 
 Predicted change in Energy=-1.304392D-04
 GradGradGradGradGradGradGradGradGradGradGradGradGradGradGradGradGradGrad

 Leave Link  103 at Sat Aug 13 21:11:04 2022, MaxMem=  2684354560 cpu:               0.9 elap:               0.1
 (Enter /storage/apps/GAUSSIAN/G16_RevA03/g16/l9999.exe)

 Test job not archived.
 1\1\GINC-T082\Force\RM062X\def2TZVP\C16H24N2O5S1\LV87696\13-Aug-2022\0
 \\#P M062X/Def2TZVP scf=(direct,conver=8) EmpiricalDispersion=GD3 Forc
 e Charge Prop=(Field,Read)\\Gaussian run\\0,1\C,3.573484,-3.627128,-0.
 385566\H,3.766815,-3.717058,-1.453998\H,4.269112,-4.275057,0.148098\C,
 1.815048,-1.429779,1.23152\H,1.157562,-2.287588,1.030045\O,1.383058,-0
 .67551,2.299385\H,0.443224,-0.356711,2.083544\C,3.252654,-1.902586,1.4
 64367\H,3.28918,-2.790917,2.102424\O,4.002655,-0.846984,2.010077\H,3.4
 23635,-0.400385,2.644722\C,2.012367,-0.642674,-0.080022\H,2.284831,0.3
 92861,0.136757\C,3.754425,-2.190252,0.056994\H,4.797565,-1.884948,-0.0
 26402\O,2.987045,-1.317727,-0.806298\N,0.799458,-0.577827,-0.935636\C,
 0.363517,-1.712806,-1.51718\H,0.970065,-2.589344,-1.349639\C,-0.76258,
 -1.701673,-2.296756\H,-1.093954,-2.617404,-2.763204\C,-1.442642,-0.503
 644,-2.490203\H,-2.307797,-0.465269,-3.139288\H,-3.168573,-0.762174,-0
 .885977\C,-0.976912,0.65425,-1.884297\C,0.163016,0.580232,-1.101211\H,
 0.556535,1.458641,-0.604699\C,-1.558095,2.015793,-2.127747\O,-0.855932
 ,2.996579,-2.085053\N,-2.874466,2.028097,-2.499173\H,-3.274637,2.95354
 9,-2.549551\H,-3.468692,1.332166,-2.070717\H,2.560027,-3.980594,-0.180
 756\C,0.100522,2.173624,2.902589\C,-1.666765,0.876763,1.170311\C,-2.88
 3843,0.833374,0.558441\C,-5.045484,-0.338088,0.052076\C,-3.523607,-0.4
 4145,0.109571\O,-0.879526,-0.1085,1.365093\S,-1.110609,2.544847,1.6191
 89\H,0.306763,3.114302,3.409898\H,1.026187,1.779584,2.489834\H,-5.4528
 19,-0.103653,1.035877\H,-5.360161,0.4617,-0.624849\H,-5.500941,-1.2661
 36,-0.295986\H,-3.219283,-1.252764,0.776347\H,-3.46479,1.747501,0.5123
 09\H,-0.308278,1.462449,3.618392\\Version=ES64L-G16RevA.03\State=1-A\H
 F=-1507.9087003\RMSD=6.680e-09\RMSF=1.534e-04\Dipole=0.0606965,-2.3497
 55,-1.8508876\Quadrupole=0.6167537,0.976242,-1.5929958,-4.6903149,8.02
 22989,6.1093605\PG=C01 [X(C16H24N2O5S1)]\\@


 SILVERMAN'S PARADOX - IF MURPHY'S LAW CAN GO WRONG, IT WILL.
 Job cpu time:       0 days  3 hours 16 minutes 20.3 seconds.
 Elapsed time:       0 days  0 hours 12 minutes 17.4 seconds.
 File lengths (MBytes):  RWF=    435 Int=      0 D2E=      0 Chk=     48 Scr=      1
 Normal termination of Gaussian 16 at Sat Aug 13 21:11:04 2022.
