 Entering Gaussian System, Link 0=g16
 Initial command:
 /storage/apps/GAUSSIAN/G16_RevA03/g16/l1.exe "/scratch/tmp/1019421/Gau-109018.inp" -scrdir="/scratch/tmp/1019421/"
 Entering Link 1 = /storage/apps/GAUSSIAN/G16_RevA03/g16/l1.exe PID=    109019.
  
 Copyright (c) 1988,1990,1992,1993,1995,1998,2003,2009,2016,
            Gaussian, Inc.  All Rights Reserved.
  
 This is part of the Gaussian(R) 16 program.  It is based on
 the Gaussian(R) 09 system (copyright 2009, Gaussian, Inc.),
 the Gaussian(R) 03 system (copyright 2003, Gaussian, Inc.),
 the Gaussian(R) 98 system (copyright 1998, Gaussian, Inc.),
 the Gaussian(R) 94 system (copyright 1995, Gaussian, Inc.),
 the Gaussian 92(TM) system (copyright 1992, Gaussian, Inc.),
 the Gaussian 90(TM) system (copyright 1990, Gaussian, Inc.),
 the Gaussian 88(TM) system (copyright 1988, Gaussian, Inc.),
 the Gaussian 86(TM) system (copyright 1986, Carnegie Mellon
 University), and the Gaussian 82(TM) system (copyright 1983,
 Carnegie Mellon University). Gaussian is a federally registered
 trademark of Gaussian, Inc.
  
 This software contains proprietary and confidential information,
 including trade secrets, belonging to Gaussian, Inc.
  
 This software is provided under written license and may be
 used, copied, transmitted, or stored only in accord with that
 written license.
  
 The following legend is applicable only to US Government
 contracts under FAR:
  
                    RESTRICTED RIGHTS LEGEND
  
 Use, reproduction and disclosure by the US Government is
 subject to restrictions as set forth in subparagraphs (a)
 and (c) of the Commercial Computer Software - Restricted
 Rights clause in FAR 52.227-19.
  
 Gaussian, Inc.
 340 Quinnipiac St., Bldg. 40, Wallingford CT 06492
  
  
 ---------------------------------------------------------------
 Warning -- This program may not be used in any manner that
 competes with the business of Gaussian, Inc. or will provide
 assistance to any competitor of Gaussian, Inc.  The licensee
 of this program is prohibited from giving any competitor of
 Gaussian, Inc. access to this program.  By using this program,
 the user acknowledges that Gaussian, Inc. is engaged in the
 business of creating and licensing software in the field of
 computational chemistry and represents and warrants to the
 licensee that it is not a competitor of Gaussian, Inc. and that
 it will not use this program in any manner prohibited above.
 ---------------------------------------------------------------
  

 Cite this work as:
 Gaussian 16, Revision A.03,
 M. J. Frisch, G. W. Trucks, H. B. Schlegel, G. E. Scuseria, 
 M. A. Robb, J. R. Cheeseman, G. Scalmani, V. Barone, 
 G. A. Petersson, H. Nakatsuji, X. Li, M. Caricato, A. V. Marenich, 
 J. Bloino, B. G. Janesko, R. Gomperts, B. Mennucci, H. P. Hratchian, 
 J. V. Ortiz, A. F. Izmaylov, J. L. Sonnenberg, D. Williams-Young, 
 F. Ding, F. Lipparini, F. Egidi, J. Goings, B. Peng, A. Petrone, 
 T. Henderson, D. Ranasinghe, V. G. Zakrzewski, J. Gao, N. Rega, 
 G. Zheng, W. Liang, M. Hada, M. Ehara, K. Toyota, R. Fukuda, 
 J. Hasegawa, M. Ishida, T. Nakajima, Y. Honda, O. Kitao, H. Nakai, 
 T. Vreven, K. Throssell, J. A. Montgomery, Jr., J. E. Peralta, 
 F. Ogliaro, M. J. Bearpark, J. J. Heyd, E. N. Brothers, K. N. Kudin, 
 V. N. Staroverov, T. A. Keith, R. Kobayashi, J. Normand, 
 K. Raghavachari, A. P. Rendell, J. C. Burant, S. S. Iyengar, 
 J. Tomasi, M. Cossi, J. M. Millam, M. Klene, C. Adamo, R. Cammi, 
 J. W. Ochterski, R. L. Martin, K. Morokuma, O. Farkas, 
 J. B. Foresman, and D. J. Fox, Gaussian, Inc., Wallingford CT, 2016.
 
 ******************************************
 Gaussian 16:  ES64L-G16RevA.03 25-Dec-2016
                13-Aug-2022 
 ******************************************
 %NProcShared=16
 Will use up to   16 processors via shared memory.
 %mem=20GB
 ----------------------------------------------------------------------
 #P M062X/Def2TZVP scf=(direct,conver=8) EmpiricalDispersion=GD3 Force 
 Charge Prop=(Field,Read)
 ----------------------------------------------------------------------
 1/10=7,18=10,28=-2,30=1,38=1,125=101/1,3;
 2/12=2,17=6,18=5,29=2,40=1/2;
 3/5=44,7=101,11=2,25=1,30=1,71=1,74=-55,124=31/1,2,3;
 4//1;
 5/5=2,6=8,38=5/2;
 6/7=2,8=2,9=2,10=2,14=2,15=1,28=1/1,2;
 7/7=1,16=-2,29=1/1,2,3,16;
 1/10=7,18=10,28=-2,30=1/3;
 99/12=1/99;
 Leave Link    1 at Sat Aug 13 20:58:47 2022, MaxMem=  2684354560 cpu:               0.6 elap:               0.0
 (Enter /storage/apps/GAUSSIAN/G16_RevA03/g16/l101.exe)
 ------------
 Gaussian run
 ------------
 Symbolic Z-matrix:
 Charge =  0 Multiplicity = 1
 C                     3.57252  -3.62772  -0.38335 
 H                     3.76939  -3.71728  -1.45116 
 H                     4.26521  -4.27718   0.15228 
 C                     1.81257  -1.42791   1.22967 
 H                     1.1537   -2.28414   1.02575 
 O                     1.37882  -0.67304   2.29617 
 H                     0.43804  -0.35572   2.07803 
 C                     3.24825  -1.90426   1.46683 
 H                     3.28031  -2.79358   2.10379 
 O                     3.99868  -0.85129   2.01689 
 H                     3.41795  -0.40388   2.64943 
 C                     2.01527  -0.64089  -0.0813 
 H                     2.2879    0.39446   0.13612 
 C                     3.75433  -2.19148   0.06091 
 H                     4.79823  -1.88779  -0.01873 
 O                     2.99133  -1.31701  -0.8045 
 N                     0.80414  -0.57516  -0.93985 
 C                     0.36944  -1.70938  -1.52314 
 H                     0.97719  -2.58547  -1.35736 
 C                    -0.75747  -1.6985   -2.30177 
 H                    -1.0878   -2.61391  -2.76972 
 C                    -1.43931  -0.50101  -2.49222 
 H                    -2.30503  -0.46296  -3.14028 
 H                    -3.18791  -0.74873  -0.89366 
 C                    -0.97403   0.6559   -1.88634 
 C                     0.16634   0.58255  -1.10348 
 H                     0.55891   1.46033  -0.60546 
 C                    -1.55848   2.01696  -2.12684 
 O                    -0.85757   2.99868  -2.08711 
 N                    -2.87659   2.02728  -2.49218 
 H                    -3.27822   2.95216  -2.54113 
 H                    -3.4679    1.33066  -2.06034 
 H                     2.55779  -3.97964  -0.18217 
 C                     0.08519   2.17263   2.91303 
 C                    -1.66689   0.87515   1.16644 
 C                    -2.88655   0.83385   0.56133 
 C                    -5.05119  -0.34366   0.07947 
 C                    -3.52808  -0.43987   0.11106 
 O                    -0.88101  -0.11225   1.35896 
 S                    -1.10066   2.54251   1.60524 
 H                     0.28893   3.11545   3.41738 
 H                     1.01496   1.76904   2.51961 
 H                    -5.44334  -0.12127   1.07201 
 H                    -5.38047   0.46122  -0.58419 
 H                    -5.50767  -1.2705   -0.27029 
 H                    -3.20835  -1.25543   0.76507 
 H                    -3.4662    1.74858   0.51745 
 H                    -0.34184   1.46969   3.62627 
 
 ITRead=  0  0  0  0  0  0  0  0  0  0  0  0  0  0  0  0  0  0  0  0
 ITRead=  0  0  0  0  0  0  0  0  0  0  0  0  0  0  0  0  0  0  0  0
 ITRead=  0  0  0  0  0  0  0  0
 MicOpt= -1 -1 -1 -1 -1 -1 -1 -1 -1 -1 -1 -1 -1 -1 -1 -1 -1 -1 -1 -1
 MicOpt= -1 -1 -1 -1 -1 -1 -1 -1 -1 -1 -1 -1 -1 -1 -1 -1 -1 -1 -1 -1
 MicOpt= -1 -1 -1 -1 -1 -1 -1 -1
 NAtoms=     48 NQM=       48 NQMF=       0 NMMI=      0 NMMIF=      0
                NMic=       0 NMicF=      0.
                    Isotopes and Nuclear Properties:
 (Nuclear quadrupole moments (NQMom) in fm**2, nuclear magnetic moments (NMagM)
  in nuclear magnetons)

  Atom         1           2           3           4           5           6           7           8           9          10
 IAtWgt=          12           1           1          12           1          16           1          12           1          16
 AtmWgt=  12.0000000   1.0078250   1.0078250  12.0000000   1.0078250  15.9949146   1.0078250  12.0000000   1.0078250  15.9949146
 NucSpn=           0           1           1           0           1           0           1           0           1           0
 AtZEff=  -0.0000000  -0.0000000  -0.0000000  -0.0000000  -0.0000000  -0.0000000  -0.0000000  -0.0000000  -0.0000000  -0.0000000
 NQMom=    0.0000000   0.0000000   0.0000000   0.0000000   0.0000000   0.0000000   0.0000000   0.0000000   0.0000000   0.0000000
 NMagM=    0.0000000   2.7928460   2.7928460   0.0000000   2.7928460   0.0000000   2.7928460   0.0000000   2.7928460   0.0000000
 AtZNuc=   6.0000000   1.0000000   1.0000000   6.0000000   1.0000000   8.0000000   1.0000000   6.0000000   1.0000000   8.0000000

  Atom        11          12          13          14          15          16          17          18          19          20
 IAtWgt=           1          12           1          12           1          16          14          12           1          12
 AtmWgt=   1.0078250  12.0000000   1.0078250  12.0000000   1.0078250  15.9949146  14.0030740  12.0000000   1.0078250  12.0000000
 NucSpn=           1           0           1           0           1           0           2           0           1           0
 AtZEff=  -0.0000000  -0.0000000  -0.0000000  -0.0000000  -0.0000000  -0.0000000  -0.0000000  -0.0000000  -0.0000000  -0.0000000
 NQMom=    0.0000000   0.0000000   0.0000000   0.0000000   0.0000000   0.0000000   2.0440000   0.0000000   0.0000000   0.0000000
 NMagM=    2.7928460   0.0000000   2.7928460   0.0000000   2.7928460   0.0000000   0.4037610   0.0000000   2.7928460   0.0000000
 AtZNuc=   1.0000000   6.0000000   1.0000000   6.0000000   1.0000000   8.0000000   7.0000000   6.0000000   1.0000000   6.0000000

  Atom        21          22          23          24          25          26          27          28          29          30
 IAtWgt=           1          12           1           1          12          12           1          12          16          14
 AtmWgt=   1.0078250  12.0000000   1.0078250   1.0078250  12.0000000  12.0000000   1.0078250  12.0000000  15.9949146  14.0030740
 NucSpn=           1           0           1           1           0           0           1           0           0           2
 AtZEff=  -0.0000000  -0.0000000  -0.0000000  -0.0000000  -0.0000000  -0.0000000  -0.0000000  -0.0000000  -0.0000000  -0.0000000
 NQMom=    0.0000000   0.0000000   0.0000000   0.0000000   0.0000000   0.0000000   0.0000000   0.0000000   0.0000000   2.0440000
 NMagM=    2.7928460   0.0000000   2.7928460   2.7928460   0.0000000   0.0000000   2.7928460   0.0000000   0.0000000   0.4037610
 AtZNuc=   1.0000000   6.0000000   1.0000000   1.0000000   6.0000000   6.0000000   1.0000000   6.0000000   8.0000000   7.0000000

  Atom        31          32          33          34          35          36          37          38          39          40
 IAtWgt=           1           1           1          12          12          12          12          12          16          32
 AtmWgt=   1.0078250   1.0078250   1.0078250  12.0000000  12.0000000  12.0000000  12.0000000  12.0000000  15.9949146  31.9720718
 NucSpn=           1           1           1           0           0           0           0           0           0           0
 AtZEff=  -0.0000000  -0.0000000  -0.0000000  -0.0000000  -0.0000000  -0.0000000  -0.0000000  -0.0000000  -0.0000000  -0.0000000
 NQMom=    0.0000000   0.0000000   0.0000000   0.0000000   0.0000000   0.0000000   0.0000000   0.0000000   0.0000000   0.0000000
 NMagM=    2.7928460   2.7928460   2.7928460   0.0000000   0.0000000   0.0000000   0.0000000   0.0000000   0.0000000   0.0000000
 AtZNuc=   1.0000000   1.0000000   1.0000000   6.0000000   6.0000000   6.0000000   6.0000000   6.0000000   8.0000000  16.0000000

  Atom        41          42          43          44          45          46          47          48
 IAtWgt=           1           1           1           1           1           1           1           1
 AtmWgt=   1.0078250   1.0078250   1.0078250   1.0078250   1.0078250   1.0078250   1.0078250   1.0078250
 NucSpn=           1           1           1           1           1           1           1           1
 AtZEff=  -0.0000000  -0.0000000  -0.0000000  -0.0000000  -0.0000000  -0.0000000  -0.0000000  -0.0000000
 NQMom=    0.0000000   0.0000000   0.0000000   0.0000000   0.0000000   0.0000000   0.0000000   0.0000000
 NMagM=    2.7928460   2.7928460   2.7928460   2.7928460   2.7928460   2.7928460   2.7928460   2.7928460
 AtZNuc=   1.0000000   1.0000000   1.0000000   1.0000000   1.0000000   1.0000000   1.0000000   1.0000000
 Background charge distribution read from input stream:
 Leave Link  101 at Sat Aug 13 20:58:47 2022, MaxMem=  2684354560 cpu:               1.5 elap:               0.1
 (Enter /storage/apps/GAUSSIAN/G16_RevA03/g16/l103.exe)

 GradGradGradGradGradGradGradGradGradGradGradGradGradGradGradGradGradGrad
 Berny optimization.
 Initialization pass.
 Trust Radius=3.00D-01 FncErr=1.00D-07 GrdErr=1.00D-07 EigMax=2.50D+02 EigMin=1.00D-04
 Number of steps in this run=      2 maximum allowed number of steps=      2.
 GradGradGradGradGradGradGradGradGradGradGradGradGradGradGradGradGradGrad

 Leave Link  103 at Sat Aug 13 20:58:47 2022, MaxMem=  2684354560 cpu:               0.3 elap:               0.0
 (Enter /storage/apps/GAUSSIAN/G16_RevA03/g16/l202.exe)
 ---------------------------------------------------------------------------------------------------
                            Z-MATRIX (ANGSTROMS AND DEGREES)
   CD    Cent   Atom    N1       Length/X        N2       Alpha/Y        N3        Beta/Z          J
 ---------------------------------------------------------------------------------------------------
      1      1  C        0   3.572523         -3.627717         -0.383345
      2      2  H        0   3.769385         -3.717275         -1.451164
      3      3  H        0   4.265208         -4.277181          0.152282
      4      4  C        0   1.812572         -1.427911          1.229673
      5      5  H        0   1.153702         -2.284136          1.025751
      6      6  O        0   1.378815         -0.673038          2.296168
      7      7  H        0   0.438044         -0.355720          2.078028
      8      8  C        0   3.248251         -1.904262          1.466832
      9      9  H        0   3.280311         -2.793581          2.103786
     10     10  O        0   3.998681         -0.851290          2.016892
     11     11  H        0   3.417947         -0.403876          2.649426
     12     12  C        0   2.015270         -0.640893         -0.081304
     13     13  H        0   2.287895          0.394462          0.136121
     14     14  C        0   3.754325         -2.191475          0.060911
     15     15  H        0   4.798228         -1.887794         -0.018726
     16     16  O        0   2.991330         -1.317008         -0.804504
     17     17  N        0   0.804136         -0.575164         -0.939847
     18     18  C        0   0.369438         -1.709383         -1.523136
     19     19  H        0   0.977189         -2.585468         -1.357357
     20     20  C        0  -0.757470         -1.698502         -2.301765
     21     21  H        0  -1.087798         -2.613908         -2.769719
     22     22  C        0  -1.439308         -0.501007         -2.492220
     23     23  H        0  -2.305030         -0.462955         -3.140281
     24     24  H        0  -3.187914         -0.748725         -0.893661
     25     25  C        0  -0.974027          0.655901         -1.886342
     26     26  C        0   0.166335          0.582548         -1.103476
     27     27  H        0   0.558912          1.460328         -0.605463
     28     28  C        0  -1.558482          2.016963         -2.126843
     29     29  O        0  -0.857572          2.998681         -2.087111
     30     30  N        0  -2.876588          2.027278         -2.492183
     31     31  H        0  -3.278220          2.952158         -2.541125
     32     32  H        0  -3.467901          1.330664         -2.060341
     33     33  H        0   2.557789         -3.979638         -0.182173
     34     34  C        0   0.085187          2.172633          2.913029
     35     35  C        0  -1.666888          0.875153          1.166435
     36     36  C        0  -2.886548          0.833852          0.561325
     37     37  C        0  -5.051195         -0.343664          0.079474
     38     38  C        0  -3.528077         -0.439871          0.111058
     39     39  O        0  -0.881007         -0.112251          1.358962
     40     40  S        0  -1.100662          2.542509          1.605236
     41     41  H        0   0.288931          3.115448          3.417376
     42     42  H        0   1.014962          1.769040          2.519607
     43     43  H        0  -5.443339         -0.121272          1.072010
     44     44  H        0  -5.380467          0.461221         -0.584187
     45     45  H        0  -5.507671         -1.270504         -0.270291
     46     46  H        0  -3.208345         -1.255426          0.765065
     47     47  H        0  -3.466203          1.748579          0.517452
     48     48  H        0  -0.341843          1.469690          3.626272
 ---------------------------------------------------------------------------------------------------
                         Z-Matrix orientation:                         
 ---------------------------------------------------------------------
 Center     Atomic      Atomic             Coordinates (Angstroms)
 Number     Number       Type             X           Y           Z
 ---------------------------------------------------------------------
      1          6           0        3.572523   -3.627717   -0.383345
      2          1           0        3.769385   -3.717275   -1.451164
      3          1           0        4.265208   -4.277181    0.152282
      4          6           0        1.812572   -1.427911    1.229673
      5          1           0        1.153702   -2.284136    1.025751
      6          8           0        1.378815   -0.673038    2.296168
      7          1           0        0.438044   -0.355720    2.078028
      8          6           0        3.248251   -1.904262    1.466832
      9          1           0        3.280311   -2.793581    2.103786
     10          8           0        3.998681   -0.851290    2.016892
     11          1           0        3.417947   -0.403876    2.649426
     12          6           0        2.015270   -0.640893   -0.081304
     13          1           0        2.287895    0.394462    0.136121
     14          6           0        3.754325   -2.191475    0.060911
     15          1           0        4.798228   -1.887794   -0.018726
     16          8           0        2.991330   -1.317008   -0.804504
     17          7           0        0.804136   -0.575164   -0.939847
     18          6           0        0.369438   -1.709383   -1.523136
     19          1           0        0.977189   -2.585468   -1.357357
     20          6           0       -0.757470   -1.698502   -2.301765
     21          1           0       -1.087798   -2.613908   -2.769719
     22          6           0       -1.439308   -0.501007   -2.492220
     23          1           0       -2.305030   -0.462955   -3.140281
     24          1           0       -3.187914   -0.748725   -0.893661
     25          6           0       -0.974027    0.655901   -1.886342
     26          6           0        0.166335    0.582548   -1.103476
     27          1           0        0.558912    1.460328   -0.605463
     28          6           0       -1.558482    2.016963   -2.126843
     29          8           0       -0.857572    2.998681   -2.087111
     30          7           0       -2.876588    2.027278   -2.492183
     31          1           0       -3.278220    2.952158   -2.541125
     32          1           0       -3.467901    1.330664   -2.060341
     33          1           0        2.557789   -3.979638   -0.182173
     34          6           0        0.085187    2.172633    2.913029
     35          6           0       -1.666888    0.875153    1.166435
     36          6           0       -2.886548    0.833852    0.561325
     37          6           0       -5.051195   -0.343664    0.079474
     38          6           0       -3.528077   -0.439871    0.111058
     39          8           0       -0.881007   -0.112251    1.358962
     40         16           0       -1.100662    2.542509    1.605236
     41          1           0        0.288931    3.115448    3.417376
     42          1           0        1.014962    1.769040    2.519607
     43          1           0       -5.443339   -0.121272    1.072010
     44          1           0       -5.380467    0.461221   -0.584187
     45          1           0       -5.507671   -1.270504   -0.270291
     46          1           0       -3.208345   -1.255426    0.765065
     47          1           0       -3.466203    1.748579    0.517452
     48          1           0       -0.341843    1.469690    3.626272
 ---------------------------------------------------------------------
                    Distance matrix (angstroms):
                    1          2          3          4          5
     1  C    0.000000
     2  H    1.089501   0.000000
     3  H    1.090189   1.769286   0.000000
     4  C    3.246290   4.032021   3.910823   0.000000
     5  H    3.105069   3.876957   3.796926   1.099461   0.000000
     6  O    4.552172   5.387458   5.090909   1.376732   2.064043
     7  H    5.156479   5.903650   5.808058   1.938718   2.310463
     8  C    2.549236   3.474665   2.897065   1.531120   2.173935
     9  H    2.639506   3.705411   2.641867   2.187095   2.438065
    10  O    3.694766   4.504871   3.909544   2.394009   3.336063
    11  H    4.428854   5.283650   4.685731   2.375200   3.361325
    12  C    3.381920   3.797046   4.282450   1.542448   2.160583
    13  H    4.254179   4.649803   5.072896   2.177804   3.041829
    14  C    1.514334   2.148177   2.149307   2.391535   2.775381
    15  H    2.159313   2.541141   2.454083   3.268659   3.811901
    16  O    2.419615   2.604769   3.361671   2.353645   2.768040
    17  N    4.158334   4.350518   5.184274   2.539870   2.627995
    18  C    3.903701   3.949234   4.957584   3.120868   2.728046
    19  H    2.961544   3.014323   3.993992   2.954747   2.408560
    20  C    5.113809   5.029054   6.156235   4.376002   3.881740
    21  H    5.333027   5.152498   6.321332   5.080735   4.420256
    22  C    6.272330   6.209562   7.334465   5.028555   4.720103
    23  H    7.222330   7.095226   8.279935   6.081306   5.712736
    24  H    7.365631   7.584663   8.312221   5.474916   4.989114
    25  C    6.424912   6.466375   7.479363   4.670862   4.653099
    26  C    5.463244   5.620617   6.480328   3.492224   3.704913
    27  H    5.917718   6.150603   6.872395   3.644353   4.127426
    28  C    7.824922   7.856475   8.872769   5.873445   5.982829
    29  O    8.150933   8.180295   9.175834   6.142104   6.453161
    30  N    8.832735   8.846048   9.886589   6.912219   6.870763
    31  H    9.740814   9.764122  10.789861   7.701953   7.731967
    32  H    8.772994   8.844834   9.805335   6.805683   6.629476
    33  H    1.092705   1.774017   1.765127   3.009978   2.511029
    34  C    7.528058   8.204298   8.166664   4.333759   4.956444
    35  C    7.080190   7.582564   7.922425   4.173098   4.237526
    36  C    7.906807   8.310494   8.799863   5.257755   5.124564
    37  C    9.239465   9.566961  10.113022   7.043426   6.569750
    38  C    7.799059   8.150759   8.686883   5.545273   5.114395
    39  O    5.935323   6.520671   6.729506   3.000507   2.994688
    40  S    7.991546   8.499637   8.798398   4.938848   5.358588
    41  H    8.408194   9.083080   9.006807   5.267792   5.968518
    42  H    6.640274   7.311191   7.261206   3.538447   4.321931
    43  H    9.782586  10.206465  10.600630   7.374307   6.942699
    44  H    9.844581  10.096102  10.771903   7.654980   7.268029
    45  H    9.381853   9.666691  10.233662   7.473997   6.861564
    46  H    7.275079   7.724059   8.084584   5.045317   4.489282
    47  H    8.902789   9.279264   9.809070   6.201839   6.153428
    48  H    7.575147   8.341892   8.143712   4.333738   4.805265
                    6          7          8          9         10
     6  O    0.000000
     7  H    1.016526   0.000000
     8  C    2.387153   3.266314   0.000000
     9  H    2.854715   3.744638   1.094361   0.000000
    10  O    2.640732   3.595478   1.405155   2.072704   0.000000
    11  H    2.086935   3.034574   1.917937   2.455068   0.968262
    12  C    2.461398   2.689178   2.347992   3.317983   2.894929
    13  H    2.575225   2.784910   2.824395   3.875592   2.831252
    14  C    3.597926   4.293772   1.521583   2.181871   2.383625
    15  H    4.304271   5.074922   2.146994   2.762169   2.420198
    16  O    3.553740   3.968921   2.360051   3.274436   3.031819
    17  N    3.288104   3.047909   3.678628   4.507385   4.361613
    18  C    4.084108   3.847791   4.155172   4.775273   5.141938
    19  H    4.143300   4.130899   3.687521   4.162594   4.849984
    20  C    5.172647   4.734438   5.503677   6.075504   6.479934
    21  H    5.959393   5.561318   6.103547   6.547038   7.203522
    22  C    5.558783   4.942947   6.294158   6.975240   7.072942
    23  H    6.570375   5.896330   7.358110   8.008002   8.153773
    24  H    5.570974   4.704568   6.952080   7.416472   7.754288
    25  C    4.979491   4.328227   5.968739   6.776388   6.498822
    26  C    3.821542   3.328084   4.721114   5.601930   5.145820
    27  H    3.693637   3.242493   4.779897   5.730775   4.904318
    28  C    5.952045   5.224623   7.169044   8.028292   7.501965
    29  O    6.139714   5.502637   7.316225   8.260508   7.432921
    30  N    6.951868   6.127993   8.285195   9.070337   8.711328
    31  H    7.630821   6.788906   9.068812   9.879425   9.391221
    32  H    6.817965   5.935183   8.246963   8.937993   8.782631
    33  H    4.297180   4.768082   2.739186   2.674767   4.086394
    34  C    3.186194   2.685946   5.358874   5.960451   5.026192
    35  C    3.598541   2.603227   5.654554   6.230009   5.983524
    36  C    4.844968   3.842965   6.778862   7.318989   7.236350
    37  C    6.809350   5.841756   8.558097   8.917058   9.268847
    38  C    5.376492   4.427885   7.064077   7.474293   7.775188
    39  O    2.509907   1.521916   4.502634   5.006082   4.978996
    40  S    4.118851   3.315250   6.221412   6.922090   6.139270
    41  H    4.098485   3.723586   6.144891   6.752074   5.608798
    42  H    2.479125   2.245536   4.425953   5.110990   4.002678
    43  H    6.953042   5.971407   8.881367   9.181932   9.517220
    44  H    7.434439   6.450570   9.179159   9.634729   9.821238
    45  H    7.373423   6.457783   8.949046   9.229552   9.786607
    46  H    4.870882   3.978630   6.526952   6.801526   7.326092
    47  H    5.701075   4.701767   7.702497   8.286322   8.045628
    48  H    3.053052   2.517420   5.379174   5.797710   5.178533
                   11         12         13         14         15
    11  H    0.000000
    12  C    3.079053   0.000000
    13  H    2.868983   1.092501   0.000000
    14  C    3.163711   2.334275   2.973742   0.000000
    15  H    3.350556   3.050169   3.396239   1.090091   0.000000
    16  O    3.597978   1.390267   2.075747   1.447687   2.051371
    17  N    4.443448   1.486022   2.073505   3.509643   4.303979
    18  C    5.329918   2.435018   3.295417   3.768166   4.680733
    19  H    5.174065   2.547017   3.581677   3.143119   4.108409
    20  C    6.604881   3.706355   4.426967   5.116791   6.009482
    21  H    7.386008   4.555150   5.374895   5.624684   6.537622
    22  C    7.073817   4.214996   4.647804   6.029095   6.851876
    23  H    8.141048   5.296602   5.706569   7.067616   7.888634
    24  H    7.503985   5.267321   5.687865   7.154538   8.114275
    25  C    6.402012   3.725015   3.846926   5.852919   6.578549
    26  C    5.062636   2.441353   2.464345   4.682379   5.360383
    27  H    4.716316   2.609761   2.162267   4.897998   5.433781
    28  C    7.310134   4.901034   4.748487   7.122018   7.752357
    29  O    7.231337   5.052027   4.649589   7.267827   7.755252
    30  N    8.483385   6.071388   6.020461   8.263484   8.963737
    31  H    9.112817   6.854325   6.685140   9.093088   9.747648
    32  H    8.520882   6.153762   6.231381   8.310579   9.102503
    33  H    4.641541   3.384039   4.393962   2.165252   3.069543
    34  C    4.220803   4.539513   3.965480   6.375154   6.877137
    35  C    5.448920   4.172953   4.114963   6.325815   7.129951
    36  C    6.755649   5.159037   5.210444   7.314657   8.173102
    37  C    8.850686   7.074540   7.376332   8.997329   9.970211
    38  C    7.395394   5.550325   5.875566   7.490261   8.452259
    39  O    4.497927   3.277537   3.434245   5.243511   6.107724
    40  S    5.494483   4.763139   4.272555   6.954599   7.553922
    41  H    4.771387   5.415820   4.708105   7.172046   7.561282
    42  H    3.242338   3.684173   3.031638   5.406938   5.841975
    43  H    9.005026   7.565116   7.804732   9.481829  10.449880
    44  H    9.413646   7.494296   7.702407   9.534011  10.461522
    45  H    9.430930   7.551607   7.981737   9.313563  10.327434
    46  H    6.941448   5.327302   5.772898   7.060509   8.069661
    47  H    7.521296   6.009545   5.923571   8.238233   9.044972
    48  H    4.312830   4.874081   4.500310   6.549391   7.139961
                   16         17         18         19         20
    16  O    0.000000
    17  N    2.313540   0.000000
    18  C    2.746763   1.347457   0.000000
    19  H    2.443645   2.060482   1.079059   0.000000
    20  C    4.054729   2.356973   1.369782   2.165100   0.000000
    21  H    4.709916   3.329313   2.120300   2.501949   1.079845
    22  C    4.810904   2.729176   2.381356   3.387086   1.391104
    23  H    5.851213   3.810697   3.364747   4.296143   2.150495
    24  H    6.205961   3.996088   3.738162   4.575666   2.965112
    25  C    4.559254   2.360771   2.744337   3.820149   2.400560
    26  C    3.417352   1.331864   2.338870   3.279979   2.737243
    27  H    3.697279   2.077300   3.305313   4.136274   3.819491
    28  C    5.793508   3.702708   4.238749   5.310754   3.804852
    29  O    5.923200   4.104858   4.897906   5.922973   4.703151
    30  N    6.961679   4.767618   5.043647   6.116932   4.290496
    31  H    7.781317   5.627764   6.005970   7.083439   5.295292
    32  H    7.092881   4.810196   4.925002   5.965660   4.071924
    33  H    2.768547   3.903820   3.426532   2.413103   4.548318
    34  C    5.868843   4.786641   5.901729   6.455338   6.549033
    35  C    5.512637   3.556094   4.249734   5.033544   4.413519
    36  C    6.406336   4.226108   4.627577   5.504685   4.375280
    37  C    8.149296   5.947900   5.815222   6.590264   5.093325
    38  C    6.641558   4.459908   4.412808   5.201658   3.883572
    39  O    4.596414   2.887649   3.524334   4.116805   3.991538
    40  S    6.119405   4.452593   5.479643   6.276191   5.776557
    41  H    6.691330   5.733362   6.906094   7.468080   7.548354
    42  H    4.947670   4.184204   5.372141   5.830439   6.197660
    43  H    8.723229   6.579098   6.560888   7.293646   5.985598
    44  H    8.561403   6.280916   6.217279   7.092242   5.383919
    45  H    8.515901   6.385195   6.025168   6.705539   5.184060
    46  H    6.395570   4.412424   4.271121   4.877744   3.950766
    47  H    7.269465   5.075362   5.552805   6.484027   5.212253
    48  H    6.205441   5.132654   6.093343   6.559017   6.734375
                   21         22         23         24         25
    21  H    0.000000
    22  C    2.159842   0.000000
    23  H    2.499114   1.082084   0.000000
    24  H    3.377719   2.382095   2.430730   0.000000
    25  C    3.388945   1.386366   2.143775   2.803513   0.000000
    26  C    3.816615   2.383441   3.368872   3.614872   1.385166
    27  H    4.898475   3.376325   4.280944   4.359091   2.153522
    28  C    4.698915   2.547131   2.781076   3.438723   1.500639
    29  O    5.658632   3.570763   3.897079   4.571419   2.354249
    30  N    4.981707   2.908264   2.635900   3.218445   2.422283
    31  H    5.985925   3.912587   3.601261   4.052015   3.318259
    32  H    4.661304   2.767079   2.394913   2.400707   2.589399
    33  H    4.674496   5.780482   6.690626   6.630092   6.071749
    34  C    7.522001   6.220060   7.021540   5.808478   5.143576
    35  C    5.291711   3.915529   4.554730   3.032243   3.138085
    36  C    5.120391   3.633248   3.965067   2.170796   3.111346
    37  C    5.383347   4.436676   4.233494   2.140767   4.635392
    38  C    4.356636   3.338226   3.473843   1.104790   3.422498
    39  O    4.831879   3.910810   4.732232   3.286522   3.336272
    40  S    6.762325   5.115351   5.744845   4.629614   3.970698
    41  H    8.544065   7.140650   7.908000   6.753171   5.981125
    42  H    7.183927   6.024530   6.930980   5.971072   4.960599
    43  H    6.320036   5.374030   5.263946   3.056878   5.415773
    44  H    5.714891   4.483214   4.104392   2.523298   4.598937
    45  H    5.252347   4.699008   4.375601   2.458072   5.184263
    46  H    4.340149   3.782664   4.086039   1.734513   3.959205
    47  H    5.957650   4.269317   4.429246   2.881876   3.630856
    48  H    7.625019   6.521044   7.305851   5.783708   5.608103
                   26         27         28         29         30
    26  C    0.000000
    27  H    1.082881   0.000000
    28  C    2.465729   2.666045   0.000000
    29  O    2.802431   2.562857   1.206907   0.000000
    30  N    3.643505   3.960278   1.367839   2.276869   0.000000
    31  H    4.421181   4.549278   2.000929   2.463297   1.009508
    32  H    3.831832   4.283539   2.030101   3.097873   1.010648
    33  H    5.232723   5.811017   7.528921   7.999401   8.423280
    34  C    4.320563   3.620992   5.303413   5.154857   6.165189
    35  C    2.932374   2.904520   3.487286   3.968618   4.021971
    36  C    3.486375   3.691214   3.223315   3.977115   3.278456
    37  C    5.429536   5.932691   4.758092   5.783756   4.118701
    38  C    4.021084   4.563731   3.863100   4.877211   3.645288
    39  O    2.764647   2.899196   4.140454   4.642614   4.836450
    40  S    3.575451   2.968584   3.796605   3.728352   4.495355
    41  H    5.183504   4.358388   5.946257   5.623832   6.791724
    42  H    3.905722   3.173223   5.317290   5.122524   6.350503
    43  H    6.057767   6.429805   5.467799   6.383057   4.889576
    44  H    5.572378   6.022864   4.405416   5.399450   3.516020
    45  H    6.026802   6.661322   5.463544   6.568881   4.768099
    46  H    4.272945   4.842096   4.668373   5.635465   4.636364
    47  H    4.145162   4.188744   3.271655   3.892488   3.079484
    48  H    4.838986   4.326549   5.905764   5.936879   6.646151
                   31         32         33         34         35
    31  H    0.000000
    32  H    1.701874   0.000000
    33  H    9.363410   8.248379   0.000000
    34  C    6.455073   6.169907   7.317409   0.000000
    35  C    4.544925   3.723335   6.575381   2.793530   0.000000
    36  C    3.777012   2.730920   7.305017   4.019211   1.362143
    37  C    4.568744   3.144678   8.437144   6.383040   3.757730
    38  C    4.313046   2.802390   7.046538   5.266108   2.511401
    39  O    5.508894   4.523898   5.399731   2.927345   1.276574
    40  S    4.701264   4.528669   7.688790   1.803710   1.814727
    41  H    6.946579   6.877836   8.273132   1.088475   3.729730
    42  H    6.741082   6.423718   6.536607   1.087267   3.134075
    43  H    5.214255   3.977700   8.970954   6.262264   3.906835
    44  H    3.801817   2.567659   9.104875   6.710650   4.126341
    45  H    5.287534   3.759124   8.508749   7.298546   4.628136
    46  H    5.351592   3.839030   6.447239   5.216578   2.660179
    47  H    3.292238   2.611450   8.342088   4.304763   2.102757
    48  H    6.989764   6.490696   7.253089   1.088668   2.856574
                   36         37         38         39         40
    36  C    0.000000
    37  C    2.510861   0.000000
    38  C    1.495550   1.526480   0.000000
    39  O    2.356593   4.368193   2.944754   0.000000
    40  S    2.683030   5.124905   4.125470   2.675192   0.000000
    41  H    4.842146   7.184984   6.175887   4.002982   2.354374
    42  H    4.464440   6.871392   5.596392   2.912224   2.431089
    43  H    2.776732   1.090121   2.166371   4.571356   5.122392
    44  H    2.769600   1.093941   2.174093   4.934556   5.238517
    45  H    3.462685   1.090751   2.180406   5.040043   6.121960
    46  H    2.123710   2.167358   1.093199   2.660087   4.424085
    47  H    1.083813   2.661110   2.226724   3.294551   2.722018
    48  H    4.034069   6.168146   5.114219   2.816723   2.410671
                   41         42         43         44         45
    41  H    0.000000
    42  H    1.773675   0.000000
    43  H    6.988277   6.883202   0.000000
    44  H    7.429637   7.228101   1.756770   0.000000
    45  H    8.150832   7.717973   1.768232   1.764535   0.000000
    46  H    6.194371   5.482895   2.525019   3.079849   2.521724
    47  H    4.937502   4.908145   2.777219   2.556424   3.728672
    48  H    1.774833   1.776299   5.922894   6.643245   7.026923
                   46         47         48
    46  H    0.000000
    47  H    3.025202   0.000000
    48  H    4.881557   4.416352   0.000000
 Stoichiometry    C16H24N2O5S
 Framework group  C1[X(C16H24N2O5S)]
 Deg. of freedom   138
 Full point group                 C1      NOp   1
 Largest Abelian subgroup         C1      NOp   1
 Largest concise Abelian subgroup C1      NOp   1
                         Standard orientation:                         
 ---------------------------------------------------------------------
 Center     Atomic      Atomic             Coordinates (Angstroms)
 Number     Number       Type             X           Y           Z
 ---------------------------------------------------------------------
      1          6           0        4.704914   -1.812741    0.737114
      2          1           0        4.725365   -2.770830    0.218791
      3          1           0        5.702149   -1.608724    1.127514
      4          6           0        2.453065    0.525222    0.698257
      5          1           0        2.236909   -0.118947    1.562628
      6          8           0        1.920546    1.787207    0.836845
      7          1           0        0.917269    1.679177    0.959685
      8          6           0        3.963295    0.610566    0.461087
      9          1           0        4.514416    0.735513    1.398253
     10          8           0        4.230869    1.658727   -0.435698
     11          1           0        3.633834    2.382209   -0.195587
     12          6           0        2.031992   -0.218235   -0.585922
     13          1           0        1.832312    0.495048   -1.388987
     14          6           0        4.282755   -0.714170   -0.215845
     15          1           0        5.036783   -0.555760   -0.986978
     16          8           0        3.061676   -1.101400   -0.890246
     17          7           0        0.794100   -1.026843   -0.437468
     18          6           0        0.832500   -2.119152    0.350584
     19          1           0        1.793548   -2.353777    0.781521
     20          6           0       -0.292565   -2.878360    0.535344
     21          1           0       -0.243232   -3.755922    1.162654
     22          6           0       -1.470212   -2.514752   -0.109719
     23          1           0       -2.357133   -3.127013   -0.012702
     24          1           0       -2.589855   -1.377656    1.658837
     25          6           0       -1.488380   -1.389402   -0.919205
     26          6           0       -0.322139   -0.655824   -1.062141
     27          1           0       -0.294635    0.234411   -1.678061
     28          6           0       -2.665504   -0.982414   -1.756259
     29          8           0       -2.499976   -0.416997   -2.809600
     30          7           0       -3.882316   -1.396755   -1.288632
     31          1           0       -4.665522   -1.020862   -1.802830
     32          1           0       -3.998803   -1.404654   -0.284751
     33          1           0        4.020272   -1.886533    1.585539
     34          6           0       -0.401628    3.607486   -0.365622
     35          6           0       -1.643053    1.321807    0.653372
     36          6           0       -2.793615    0.681195    1.001593
     37          6           0       -4.221682   -0.476741    2.711631
     38          6           0       -2.847075   -0.378968    2.055095
     39          8           0       -0.471106    1.070071    1.092475
     40         16           0       -1.838070    2.557451   -0.661309
     41          1           0       -0.567112    4.520325   -0.934934
     42          1           0        0.521817    3.140295   -0.698984
     43          1           0       -4.486561    0.465338    3.191931
     44          1           0       -4.997291   -0.688798    1.969898
     45          1           0       -4.255566   -1.266648    3.463054
     46          1           0       -2.076594   -0.181233    2.804991
     47          1           0       -3.726077    1.042891    0.584051
     48          1           0       -0.321745    3.854136    0.691725
 ---------------------------------------------------------------------
 Rotational constants (GHZ):           0.3329272           0.1630051           0.1406944
 Leave Link  202 at Sat Aug 13 20:58:47 2022, MaxMem=  2684354560 cpu:               0.2 elap:               0.0
 (Enter /storage/apps/GAUSSIAN/G16_RevA03/g16/l301.exe)
 Standard basis: def2TZVP (5D, 7F)
 Ernie: Thresh=  0.10000D-02 Tol=  0.10000D-05 Strict=F.
 There are  1014 symmetry adapted cartesian basis functions of A   symmetry.
 There are   894 symmetry adapted basis functions of A   symmetry.
   894 basis functions,  1434 primitive gaussians,  1014 cartesian basis functions
    95 alpha electrons       95 beta electrons
       nuclear repulsion energy      2495.5440093935 Hartrees.
 IExCor= 4336 DFT=T Ex+Corr=M062X ExCW=0 ScaHFX=  0.540000
 ScaDFX=  1.000000  1.000000  1.000000  1.000000 ScalE2=  1.000000  1.000000
 IRadAn=      5 IRanWt=     -1 IRanGd=            0 ICorTp=0 IEmpDi=131
 NAtoms=   48 NActive=   48 NUniq=   48 SFac= 1.00D+00 NAtFMM=   60 NAOKFM=F Big=F
 Integral buffers will be    131072 words long.
 Raffenetti 2 integral format.
 Two-electron integral symmetry is turned on.
 R6Disp:  Grimme-D3 Dispersion energy=       -0.0042530014 Hartrees.
 Nuclear repulsion after empirical dispersion term =     2495.5397563921 Hartrees.
 Leave Link  301 at Sat Aug 13 20:58:47 2022, MaxMem=  2684354560 cpu:               0.8 elap:               0.1
 (Enter /storage/apps/GAUSSIAN/G16_RevA03/g16/l302.exe)
 NPDir=0 NMtPBC=     1 NCelOv=     1 NCel=       1 NClECP=     1 NCelD=      1
         NCelK=      1 NCelE2=     1 NClLst=     1 CellRange=     0.0.
 One-electron integrals computed using PRISM.
 One-electron integral symmetry used in STVInt
   1 Symmetry operations used in ECPInt.
 ECPInt:  NShTT=   65703 NPrTT=  200010 LenC2=   56863 LenP2D=  121037.
 LDataN:  DoStor=T MaxTD1= 6 Len=  172
 NBasis=   894 RedAO= T EigKep=  2.02D-05  NBF=   894
 NBsUse=   894 1.00D-06 EigRej= -1.00D+00 NBFU=   894
 Precomputing XC quadrature grid using
 IXCGrd= 4 IRadAn=           5 IRanWt=          -1 IRanGd=           0 AccXCQ= 0.00D+00.
 Generated NRdTot=       0 NPtTot=           0 NUsed=           0 NTot=          32
 NSgBfM=   999   999   999   999   999 MxSgAt=    48 MxSgA2=    48.
 Leave Link  302 at Sat Aug 13 20:58:48 2022, MaxMem=  2684354560 cpu:              18.6 elap:               1.2
 (Enter /storage/apps/GAUSSIAN/G16_RevA03/g16/l303.exe)
 DipDrv:  MaxL=1.
 Leave Link  303 at Sat Aug 13 20:58:48 2022, MaxMem=  2684354560 cpu:               2.0 elap:               0.2
 (Enter /storage/apps/GAUSSIAN/G16_RevA03/g16/l401.exe)
 ExpMin= 9.52D-02 ExpMax= 6.07D+04 ExpMxC= 2.07D+03 IAcc=3 IRadAn=         5 AccDes= 0.00D+00
 Harris functional with IExCor= 1009 and IRadAn=       5 diagonalized for initial guess.
 HarFok:  IExCor= 1009 AccDes= 0.00D+00 IRadAn=         5 IDoV= 1 UseB2=F ITyADJ=14
 ICtDFT=  3500011 ScaDFX=  1.000000  1.000000  1.000000  1.000000
 FoFCou: FMM=F IPFlag=           0 FMFlag=      100000 FMFlg1=           0
         NFxFlg=           0 DoJE=T BraDBF=F KetDBF=T FulRan=T
         wScrn=  0.000000 ICntrl=       500 IOpCl=  0 I1Cent=   200000004 NGrid=           0
         NMat0=    1 NMatS0=      1 NMatT0=    0 NMatD0=    1 NMtDS0=    0 NMtDT0=    0
 Petite list used in FoFCou.
 Harris En= -1507.24618130701    
 JPrj=0 DoOrth=F DoCkMO=F.
 Leave Link  401 at Sat Aug 13 20:58:52 2022, MaxMem=  2684354560 cpu:              59.6 elap:               3.8
 (Enter /storage/apps/GAUSSIAN/G16_RevA03/g16/l502.exe)
 Integral symmetry usage will be decided dynamically.
 Closed shell SCF:
 Using DIIS extrapolation, IDIIS=  1040.
 NGot=  2684354560 LenX=  2682272944 LenY=  2681243734
 Requested convergence on RMS density matrix=1.00D-08 within 128 cycles.
 Requested convergence on MAX density matrix=1.00D-06.
 Requested convergence on             energy=1.00D-06.
 No special actions if energy rises.
 Fock matrices will be formed incrementally for  20 cycles.
 Integral accuracy reduced to 1.0D-05 until final iterations.

 Cycle   1  Pass 0  IDiag  1:
 FoFJK:  IHMeth= 1 ICntrl=       0 DoSepK=F KAlg= 0 I1Cent=           0 FoldK=F
 IRaf= 790000000 NMat=       1 IRICut=       1 DoRegI=T DoRafI=F ISym2E= 0 IDoP0=0 IntGTp=1.
 FoFCou: FMM=F IPFlag=           0 FMFlag=      100000 FMFlg1=           0
         NFxFlg=           0 DoJE=F BraDBF=F KetDBF=F FulRan=T
         wScrn=  0.000000 ICntrl=         0 IOpCl=  0 I1Cent=           0 NGrid=           0
         NMat0=    1 NMatS0=      1 NMatT0=    0 NMatD0=    1 NMtDS0=    0 NMtDT0=    0
 Symmetry not used in FoFCou.
 E= -1507.17265216681    
 DIIS: error= 1.58D-02 at cycle   1 NSaved=   1.
 NSaved= 1 IEnMin= 1 EnMin= -1507.17265216681     IErMin= 1 ErrMin= 1.58D-02
 ErrMax= 1.58D-02  0.00D+00 EMaxC= 1.00D-01 BMatC= 9.90D-01 BMatP= 9.90D-01
 IDIUse=3 WtCom= 8.42D-01 WtEn= 1.58D-01
 Coeff-Com:  0.100D+01
 Coeff-En:   0.100D+01
 Coeff:      0.100D+01
 Gap=     0.178 Goal=   None    Shift=    0.000
 GapD=    0.178 DampG=1.000 DampE=0.500 DampFc=0.5000 IDamp=-1.
 Damping current iteration by 5.00D-01
 RMSDP=4.03D-03 MaxDP=7.40D-01              OVMax= 4.84D-01

 Cycle   2  Pass 0  IDiag  1:
 RMSU=  2.01D-03    CP:  1.01D+00
 E= -1507.49074222771     Delta-E=       -0.318090060900 Rises=F Damp=T
 DIIS: error= 3.58D-03 at cycle   2 NSaved=   2.
 NSaved= 2 IEnMin= 2 EnMin= -1507.49074222771     IErMin= 2 ErrMin= 3.58D-03
 ErrMax= 3.58D-03  0.00D+00 EMaxC= 1.00D-01 BMatC= 9.05D-02 BMatP= 9.90D-01
 IDIUse=3 WtCom= 9.64D-01 WtEn= 3.58D-02
 Coeff-Com: -0.227D-02 0.100D+01
 Coeff-En:   0.850D-01 0.915D+00
 Coeff:      0.857D-03 0.999D+00
 Gap=     0.173 Goal=   None    Shift=    0.000
 RMSDP=1.37D-03 MaxDP=1.88D-01 DE=-3.18D-01 OVMax= 3.30D-01

 Cycle   3  Pass 0  IDiag  1:
 RMSU=  1.16D-03    CP:  1.00D+00  6.48D-01
 E= -1507.85783835737     Delta-E=       -0.367096129658 Rises=F Damp=F
 DIIS: error= 4.26D-03 at cycle   3 NSaved=   3.
 NSaved= 3 IEnMin= 3 EnMin= -1507.85783835737     IErMin= 2 ErrMin= 3.58D-03
 ErrMax= 4.26D-03  0.00D+00 EMaxC= 1.00D-01 BMatC= 5.39D-02 BMatP= 9.05D-02
 IDIUse=3 WtCom= 9.57D-01 WtEn= 4.26D-02
 Coeff-Com: -0.809D-01 0.454D+00 0.627D+00
 Coeff-En:   0.000D+00 0.000D+00 0.100D+01
 Coeff:     -0.775D-01 0.435D+00 0.643D+00
 Gap=     0.137 Goal=   None    Shift=    0.000
 RMSDP=5.10D-04 MaxDP=3.58D-02 DE=-3.67D-01 OVMax= 9.12D-02

 Cycle   4  Pass 0  IDiag  1:
 RMSU=  3.85D-04    CP:  1.00D+00  8.01D-01  8.89D-01
 E= -1507.90302588265     Delta-E=       -0.045187525277 Rises=F Damp=F
 DIIS: error= 1.22D-03 at cycle   4 NSaved=   4.
 NSaved= 4 IEnMin= 4 EnMin= -1507.90302588265     IErMin= 4 ErrMin= 1.22D-03
 ErrMax= 1.22D-03  0.00D+00 EMaxC= 1.00D-01 BMatC= 6.23D-03 BMatP= 5.39D-02
 IDIUse=3 WtCom= 9.88D-01 WtEn= 1.22D-02
 Coeff-Com: -0.383D-01 0.101D+00 0.293D+00 0.644D+00
 Coeff-En:   0.000D+00 0.000D+00 0.000D+00 0.100D+01
 Coeff:     -0.378D-01 0.100D+00 0.289D+00 0.648D+00
 Gap=     0.145 Goal=   None    Shift=    0.000
 RMSDP=1.65D-04 MaxDP=2.52D-02 DE=-4.52D-02 OVMax= 3.05D-02

 Cycle   5  Pass 0  IDiag  1:
 RMSU=  1.52D-04    CP:  1.00D+00  7.94D-01  9.38D-01  9.30D-01
 E= -1507.90840498036     Delta-E=       -0.005379097709 Rises=F Damp=F
 DIIS: error= 4.47D-04 at cycle   5 NSaved=   5.
 NSaved= 5 IEnMin= 5 EnMin= -1507.90840498036     IErMin= 5 ErrMin= 4.47D-04
 ErrMax= 4.47D-04  0.00D+00 EMaxC= 1.00D-01 BMatC= 4.34D-04 BMatP= 6.23D-03
 IDIUse=3 WtCom= 9.96D-01 WtEn= 4.47D-03
 Coeff-Com: -0.114D-01 0.207D-01 0.835D-01 0.285D+00 0.622D+00
 Coeff-En:   0.000D+00 0.000D+00 0.000D+00 0.000D+00 0.100D+01
 Coeff:     -0.114D-01 0.206D-01 0.831D-01 0.284D+00 0.624D+00
 Gap=     0.146 Goal=   None    Shift=    0.000
 RMSDP=5.10D-05 MaxDP=5.32D-03 DE=-5.38D-03 OVMax= 6.56D-03

 Cycle   6  Pass 0  IDiag  1:
 RMSU=  4.89D-05    CP:  1.00D+00  7.92D-01  9.38D-01  9.56D-01  9.34D-01
 E= -1507.90882152207     Delta-E=       -0.000416541715 Rises=F Damp=F
 DIIS: error= 1.49D-04 at cycle   6 NSaved=   6.
 NSaved= 6 IEnMin= 6 EnMin= -1507.90882152207     IErMin= 6 ErrMin= 1.49D-04
 ErrMax= 1.49D-04  0.00D+00 EMaxC= 1.00D-01 BMatC= 5.44D-05 BMatP= 4.34D-04
 IDIUse=3 WtCom= 9.99D-01 WtEn= 1.49D-03
 Coeff-Com:  0.280D-04-0.380D-02-0.517D-02 0.395D-01 0.283D+00 0.686D+00
 Coeff-En:   0.000D+00 0.000D+00 0.000D+00 0.000D+00 0.000D+00 0.100D+01
 Coeff:      0.280D-04-0.379D-02-0.517D-02 0.394D-01 0.283D+00 0.687D+00
 Gap=     0.146 Goal=   None    Shift=    0.000
 RMSDP=3.94D-05 MaxDP=6.72D-03 DE=-4.17D-04 OVMax= 5.65D-03

 Cycle   7  Pass 0  IDiag  1:
 RMSU=  1.99D-05    CP:  1.00D+00  7.95D-01  9.44D-01  9.93D-01  1.13D+00
                    CP:  1.02D+00
 E= -1507.90889523336     Delta-E=       -0.000073711288 Rises=F Damp=F
 DIIS: error= 4.76D-05 at cycle   7 NSaved=   7.
 NSaved= 7 IEnMin= 7 EnMin= -1507.90889523336     IErMin= 7 ErrMin= 4.76D-05
 ErrMax= 4.76D-05  0.00D+00 EMaxC= 1.00D-01 BMatC= 4.46D-06 BMatP= 5.44D-05
 IDIUse=1 WtCom= 1.00D+00 WtEn= 0.00D+00
 Coeff-Com:  0.157D-02-0.399D-02-0.145D-01-0.251D-01 0.170D-01 0.211D+00
 Coeff-Com:  0.814D+00
 Coeff:      0.157D-02-0.399D-02-0.145D-01-0.251D-01 0.170D-01 0.211D+00
 Coeff:      0.814D+00
 Gap=     0.146 Goal=   None    Shift=    0.000
 RMSDP=1.72D-05 MaxDP=2.04D-03 DE=-7.37D-05 OVMax= 3.63D-03

 Cycle   8  Pass 0  IDiag  1:
 RMSU=  1.04D-05    CP:  1.00D+00  7.95D-01  9.44D-01  1.00D+00  1.19D+00
                    CP:  1.16D+00  1.25D+00
 E= -1507.90889998455     Delta-E=       -0.000004751187 Rises=F Damp=F
 DIIS: error= 3.08D-05 at cycle   8 NSaved=   8.
 NSaved= 8 IEnMin= 8 EnMin= -1507.90889998455     IErMin= 8 ErrMin= 3.08D-05
 ErrMax= 3.08D-05  0.00D+00 EMaxC= 1.00D-01 BMatC= 1.20D-06 BMatP= 4.46D-06
 IDIUse=1 WtCom= 1.00D+00 WtEn= 0.00D+00
 Coeff-Com:  0.701D-03-0.124D-02-0.658D-02-0.173D-01-0.320D-01-0.106D-01
 Coeff-Com:  0.364D+00 0.703D+00
 Coeff:      0.701D-03-0.124D-02-0.658D-02-0.173D-01-0.320D-01-0.106D-01
 Coeff:      0.364D+00 0.703D+00
 Gap=     0.146 Goal=   None    Shift=    0.000
 RMSDP=1.40D-05 MaxDP=9.81D-04 DE=-4.75D-06 OVMax= 2.03D-03

 Cycle   9  Pass 0  IDiag  1:
 RMSU=  9.96D-06    CP:  1.00D+00  7.93D-01  9.43D-01  1.01D+00  1.21D+00
                    CP:  1.24D+00  1.46D+00  1.70D+00
 E= -1507.90889492093     Delta-E=        0.000005063611 Rises=F Damp=F
 DIIS: error= 1.44D-05 at cycle   9 NSaved=   9.
 NSaved= 9 IEnMin= 8 EnMin= -1507.90889998455     IErMin= 9 ErrMin= 1.44D-05
 ErrMax= 1.44D-05  0.00D+00 EMaxC= 1.00D-01 BMatC= 2.96D-07 BMatP= 1.20D-06
 IDIUse=1 WtCom= 1.00D+00 WtEn= 0.00D+00
 Coeff-Com:  0.173D-03-0.215D-03-0.196D-02-0.568D-02-0.178D-01-0.313D-01
 Coeff-Com:  0.730D-01 0.324D+00 0.660D+00
 Coeff:      0.173D-03-0.215D-03-0.196D-02-0.568D-02-0.178D-01-0.313D-01
 Coeff:      0.730D-01 0.324D+00 0.660D+00
 Gap=     0.146 Goal=   None    Shift=    0.000
 RMSDP=1.97D-05 MaxDP=2.06D-03 DE= 5.06D-06 OVMax= 8.29D-04

 Cycle  10  Pass 0  IDiag  1:
 RMSU=  7.61D-06    CP:  1.00D+00  7.92D-01  9.43D-01  1.01D+00  1.20D+00
                    CP:  1.30D+00  1.57D+00  2.66D+00  2.43D+00
 E= -1507.90889205689     Delta-E=        0.000002864045 Rises=F Damp=F
 DIIS: error= 2.41D-05 at cycle  10 NSaved=  10.
 NSaved=10 IEnMin= 8 EnMin= -1507.90889998455     IErMin= 9 ErrMin= 1.44D-05
 ErrMax= 2.41D-05  0.00D+00 EMaxC= 1.00D-01 BMatC= 4.02D-07 BMatP= 2.96D-07
 IDIUse=1 WtCom= 1.00D+00 WtEn= 0.00D+00
 Coeff-Com:  0.179D-03-0.207D-03-0.203D-02-0.611D-02-0.202D-01-0.374D-01
 Coeff-Com:  0.735D-01 0.363D+00 0.800D+00-0.170D+00
 Coeff:      0.179D-03-0.207D-03-0.203D-02-0.611D-02-0.202D-01-0.374D-01
 Coeff:      0.735D-01 0.363D+00 0.800D+00-0.170D+00
 Gap=     0.146 Goal=   None    Shift=    0.000
 RMSDP=6.88D-06 MaxDP=6.78D-04 DE= 2.86D-06 OVMax= 5.58D-05

 Initial convergence to 1.0D-05 achieved.  Increase integral accuracy.
 Cycle  11  Pass 1  IDiag  1:
 E= -1507.90879749109     Delta-E=        0.000094565800 Rises=F Damp=F
 DIIS: error= 3.25D-04 at cycle   1 NSaved=   1.
 NSaved= 1 IEnMin= 1 EnMin= -1507.90879749109     IErMin= 1 ErrMin= 3.25D-04
 ErrMax= 3.25D-04  0.00D+00 EMaxC= 1.00D-01 BMatC= 9.50D-05 BMatP= 9.50D-05
 IDIUse=3 WtCom= 9.97D-01 WtEn= 3.25D-03
 Coeff-Com:  0.100D+01
 Coeff-En:   0.100D+01
 Coeff:      0.100D+01
 Gap=     0.146 Goal=   None    Shift=    0.000
 RMSDP=6.88D-06 MaxDP=6.78D-04 DE= 9.46D-05 OVMax= 9.75D-04

 Cycle  12  Pass 1  IDiag  1:
 RMSU=  5.68D-04    CP:  9.90D-01
 E= -1507.90885908780     Delta-E=       -0.000061596713 Rises=F Damp=F
 DIIS: error= 1.01D-05 at cycle   2 NSaved=   2.
 NSaved= 2 IEnMin= 2 EnMin= -1507.90885908780     IErMin= 2 ErrMin= 1.01D-05
 ErrMax= 1.01D-05  0.00D+00 EMaxC= 1.00D-01 BMatC= 1.22D-07 BMatP= 9.50D-05
 IDIUse=1 WtCom= 1.00D+00 WtEn= 0.00D+00
 Coeff-Com: -0.161D-01 0.102D+01
 Coeff:     -0.161D-01 0.102D+01
 Gap=     0.146 Goal=   None    Shift=    0.000
 RMSDP=2.13D-05 MaxDP=1.73D-03 DE=-6.16D-05 OVMax= 3.00D-04

 Cycle  13  Pass 1  IDiag  1:
 RMSU=  8.12D-06    CP:  9.90D-01  1.03D+00
 E= -1507.90885916449     Delta-E=       -0.000000076686 Rises=F Damp=F
 DIIS: error= 7.73D-06 at cycle   3 NSaved=   3.
 NSaved= 3 IEnMin= 3 EnMin= -1507.90885916449     IErMin= 3 ErrMin= 7.73D-06
 ErrMax= 7.73D-06  0.00D+00 EMaxC= 1.00D-01 BMatC= 1.26D-07 BMatP= 1.22D-07
 IDIUse=1 WtCom= 1.00D+00 WtEn= 0.00D+00
 Coeff-Com: -0.949D-02 0.544D+00 0.466D+00
 Coeff:     -0.949D-02 0.544D+00 0.466D+00
 Gap=     0.146 Goal=   None    Shift=    0.000
 RMSDP=7.01D-07 MaxDP=8.55D-05 DE=-7.67D-08 OVMax= 7.56D-05

 Cycle  14  Pass 1  IDiag  1:
 RMSU=  5.91D-07    CP:  9.90D-01  1.04D+00  1.03D+00
 E= -1507.90885927312     Delta-E=       -0.000000108634 Rises=F Damp=F
 DIIS: error= 1.78D-06 at cycle   4 NSaved=   4.
 NSaved= 4 IEnMin= 4 EnMin= -1507.90885927312     IErMin= 4 ErrMin= 1.78D-06
 ErrMax= 1.78D-06  0.00D+00 EMaxC= 1.00D-01 BMatC= 4.13D-09 BMatP= 1.22D-07
 IDIUse=1 WtCom= 1.00D+00 WtEn= 0.00D+00
 Coeff-Com: -0.700D-03 0.284D-01 0.135D+00 0.837D+00
 Coeff:     -0.700D-03 0.284D-01 0.135D+00 0.837D+00
 Gap=     0.146 Goal=   None    Shift=    0.000
 RMSDP=5.01D-07 MaxDP=3.78D-05 DE=-1.09D-07 OVMax= 9.68D-05

 Cycle  15  Pass 1  IDiag  1:
 RMSU=  2.76D-07    CP:  9.90D-01  1.04D+00  1.06D+00  1.12D+00
 E= -1507.90885928167     Delta-E=       -0.000000008546 Rises=F Damp=F
 DIIS: error= 8.69D-07 at cycle   5 NSaved=   5.
 NSaved= 5 IEnMin= 5 EnMin= -1507.90885928167     IErMin= 5 ErrMin= 8.69D-07
 ErrMax= 8.69D-07  0.00D+00 EMaxC= 1.00D-01 BMatC= 1.19D-09 BMatP= 4.13D-09
 IDIUse=1 WtCom= 1.00D+00 WtEn= 0.00D+00
 Coeff-Com:  0.823D-03-0.532D-01 0.795D-02 0.405D+00 0.639D+00
 Coeff:      0.823D-03-0.532D-01 0.795D-02 0.405D+00 0.639D+00
 Gap=     0.146 Goal=   None    Shift=    0.000
 RMSDP=1.75D-07 MaxDP=1.85D-05 DE=-8.55D-09 OVMax= 5.18D-05

 Cycle  16  Pass 1  IDiag  1:
 RMSU=  1.07D-07    CP:  9.90D-01  1.04D+00  1.07D+00  1.20D+00  1.30D+00
 E= -1507.90885928428     Delta-E=       -0.000000002607 Rises=F Damp=F
 DIIS: error= 3.50D-07 at cycle   6 NSaved=   6.
 NSaved= 6 IEnMin= 6 EnMin= -1507.90885928428     IErMin= 6 ErrMin= 3.50D-07
 ErrMax= 3.50D-07  0.00D+00 EMaxC= 1.00D-01 BMatC= 1.53D-10 BMatP= 1.19D-09
 IDIUse=1 WtCom= 1.00D+00 WtEn= 0.00D+00
 Coeff-Com:  0.375D-03-0.215D-01-0.217D-01-0.203D-01 0.205D+00 0.859D+00
 Coeff:      0.375D-03-0.215D-01-0.217D-01-0.203D-01 0.205D+00 0.859D+00
 Gap=     0.146 Goal=   None    Shift=    0.000
 RMSDP=1.09D-07 MaxDP=1.44D-05 DE=-2.61D-09 OVMax= 3.82D-05

 Cycle  17  Pass 1  IDiag  1:
 RMSU=  5.07D-08    CP:  9.90D-01  1.04D+00  1.07D+00  1.27D+00  1.57D+00
                    CP:  1.38D+00
 E= -1507.90885928499     Delta-E=       -0.000000000717 Rises=F Damp=F
 DIIS: error= 2.44D-07 at cycle   7 NSaved=   7.
 NSaved= 7 IEnMin= 7 EnMin= -1507.90885928499     IErMin= 7 ErrMin= 2.44D-07
 ErrMax= 2.44D-07  0.00D+00 EMaxC= 1.00D-01 BMatC= 7.04D-11 BMatP= 1.53D-10
 IDIUse=1 WtCom= 1.00D+00 WtEn= 0.00D+00
 Coeff-Com: -0.551D-04 0.517D-02-0.157D-01-0.148D+00-0.831D-01 0.530D+00
 Coeff-Com:  0.712D+00
 Coeff:     -0.551D-04 0.517D-02-0.157D-01-0.148D+00-0.831D-01 0.530D+00
 Coeff:      0.712D+00
 Gap=     0.146 Goal=   None    Shift=    0.000
 RMSDP=6.93D-08 MaxDP=9.44D-06 DE=-7.17D-10 OVMax= 2.36D-05

 Cycle  18  Pass 1  IDiag  1:
 RMSU=  2.23D-08    CP:  9.90D-01  1.04D+00  1.07D+00  1.31D+00  1.71D+00
                    CP:  1.74D+00  1.34D+00
 E= -1507.90885928518     Delta-E=       -0.000000000192 Rises=F Damp=F
 DIIS: error= 4.66D-08 at cycle   8 NSaved=   8.
 NSaved= 8 IEnMin= 8 EnMin= -1507.90885928518     IErMin= 8 ErrMin= 4.66D-08
 ErrMax= 4.66D-08  0.00D+00 EMaxC= 1.00D-01 BMatC= 5.73D-12 BMatP= 7.04D-11
 IDIUse=1 WtCom= 1.00D+00 WtEn= 0.00D+00
 Coeff-Com: -0.691D-04 0.489D-02-0.461D-02-0.639D-01-0.614D-01 0.144D+00
 Coeff-Com:  0.316D+00 0.665D+00
 Coeff:     -0.691D-04 0.489D-02-0.461D-02-0.639D-01-0.614D-01 0.144D+00
 Coeff:      0.316D+00 0.665D+00
 Gap=     0.146 Goal=   None    Shift=    0.000
 RMSDP=1.61D-08 MaxDP=2.42D-06 DE=-1.92D-10 OVMax= 5.30D-06

 Cycle  19  Pass 1  IDiag  1:
 RMSU=  5.44D-09    CP:  9.90D-01  1.04D+00  1.07D+00  1.32D+00  1.73D+00
                    CP:  1.83D+00  1.48D+00  1.12D+00
 E= -1507.90885928515     Delta-E=        0.000000000036 Rises=F Damp=F
 DIIS: error= 1.89D-08 at cycle   9 NSaved=   9.
 NSaved= 9 IEnMin= 8 EnMin= -1507.90885928518     IErMin= 9 ErrMin= 1.89D-08
 ErrMax= 1.89D-08  0.00D+00 EMaxC= 1.00D-01 BMatC= 7.06D-13 BMatP= 5.73D-12
 IDIUse=1 WtCom= 1.00D+00 WtEn= 0.00D+00
 Coeff-Com: -0.191D-04 0.115D-02 0.499D-03-0.328D-02-0.119D-01-0.260D-01
 Coeff-Com:  0.758D-02 0.254D+00 0.778D+00
 Coeff:     -0.191D-04 0.115D-02 0.499D-03-0.328D-02-0.119D-01-0.260D-01
 Coeff:      0.758D-02 0.254D+00 0.778D+00
 Gap=     0.146 Goal=   None    Shift=    0.000
 RMSDP=7.02D-09 MaxDP=1.05D-06 DE= 3.64D-11 OVMax= 2.07D-06

 Cycle  20  Pass 1  IDiag  1:
 RMSU=  2.52D-09    CP:  9.90D-01  1.04D+00  1.07D+00  1.32D+00  1.74D+00
                    CP:  1.86D+00  1.54D+00  1.23D+00  1.05D+00
 E= -1507.90885928521     Delta-E=       -0.000000000058 Rises=F Damp=F
 DIIS: error= 6.39D-09 at cycle  10 NSaved=  10.
 NSaved=10 IEnMin=10 EnMin= -1507.90885928521     IErMin=10 ErrMin= 6.39D-09
 ErrMax= 6.39D-09  0.00D+00 EMaxC= 1.00D-01 BMatC= 1.62D-13 BMatP= 7.06D-13
 IDIUse=1 WtCom= 1.00D+00 WtEn= 0.00D+00
 Coeff-Com:  0.165D-05-0.219D-03 0.978D-03 0.855D-02 0.485D-02-0.340D-01
 Coeff-Com: -0.458D-01 0.202D-01 0.390D+00 0.655D+00
 Coeff:      0.165D-05-0.219D-03 0.978D-03 0.855D-02 0.485D-02-0.340D-01
 Coeff:     -0.458D-01 0.202D-01 0.390D+00 0.655D+00
 Gap=     0.146 Goal=   None    Shift=    0.000
 RMSDP=1.66D-09 MaxDP=3.17D-07 DE=-5.78D-11 OVMax= 4.29D-07

 SCF Done:  E(RM062X) =  -1507.90885929     A.U. after   20 cycles
            NFock= 20  Conv=0.17D-08     -V/T= 2.0037
 KE= 1.502290936491D+03 PE=-8.528574949291D+03 EE= 3.022835397123D+03
 Leave Link  502 at Sat Aug 13 21:08:24 2022, MaxMem=  2684354560 cpu:            9137.0 elap:             571.7
 (Enter /storage/apps/GAUSSIAN/G16_RevA03/g16/l601.exe)
 Copying SCF densities to generalized density rwf, IOpCl= 0 IROHF=0.

 **********************************************************************

            Population analysis using the SCF density.

 **********************************************************************

 Orbital symmetries:
       Occupied  (A) (A) (A) (A) (A) (A) (A) (A) (A) (A) (A) (A)
                 (A) (A) (A) (A) (A) (A) (A) (A) (A) (A) (A) (A)
                 (A) (A) (A) (A) (A) (A) (A) (A) (A) (A) (A) (A)
                 (A) (A) (A) (A) (A) (A) (A) (A) (A) (A) (A) (A)
                 (A) (A) (A) (A) (A) (A) (A) (A) (A) (A) (A) (A)
                 (A) (A) (A) (A) (A) (A) (A) (A) (A) (A) (A) (A)
                 (A) (A) (A) (A) (A) (A) (A) (A) (A) (A) (A) (A)
                 (A) (A) (A) (A) (A) (A) (A) (A) (A) (A) (A)
       Virtual   (A) (A) (A) (A) (A) (A) (A) (A) (A) (A) (A) (A)
                 (A) (A) (A) (A) (A) (A) (A) (A) (A) (A) (A) (A)
                 (A) (A) (A) (A) (A) (A) (A) (A) (A) (A) (A) (A)
                 (A) (A) (A) (A) (A) (A) (A) (A) (A) (A) (A) (A)
                 (A) (A) (A) (A) (A) (A) (A) (A) (A) (A) (A) (A)
                 (A) (A) (A) (A) (A) (A) (A) (A) (A) (A) (A) (A)
                 (A) (A) (A) (A) (A) (A) (A) (A) (A) (A) (A) (A)
                 (A) (A) (A) (A) (A) (A) (A) (A) (A) (A) (A) (A)
                 (A) (A) (A) (A) (A) (A) (A) (A) (A) (A) (A) (A)
                 (A) (A) (A) (A) (A) (A) (A) (A) (A) (A) (A) (A)
                 (A) (A) (A) (A) (A) (A) (A) (A) (A) (A) (A) (A)
                 (A) (A) (A) (A) (A) (A) (A) (A) (A) (A) (A) (A)
                 (A) (A) (A) (A) (A) (A) (A) (A) (A) (A) (A) (A)
                 (A) (A) (A) (A) (A) (A) (A) (A) (A) (A) (A) (A)
                 (A) (A) (A) (A) (A) (A) (A) (A) (A) (A) (A) (A)
                 (A) (A) (A) (A) (A) (A) (A) (A) (A) (A) (A) (A)
                 (A) (A) (A) (A) (A) (A) (A) (A) (A) (A) (A) (A)
                 (A) (A) (A) (A) (A) (A) (A) (A) (A) (A) (A) (A)
                 (A) (A) (A) (A) (A) (A) (A) (A) (A) (A) (A) (A)
                 (A) (A) (A) (A) (A) (A) (A) (A) (A) (A) (A) (A)
                 (A) (A) (A) (A) (A) (A) (A) (A) (A) (A) (A) (A)
                 (A) (A) (A) (A) (A) (A) (A) (A) (A) (A) (A) (A)
                 (A) (A) (A) (A) (A) (A) (A) (A) (A) (A) (A) (A)
                 (A) (A) (A) (A) (A) (A) (A) (A) (A) (A) (A) (A)
                 (A) (A) (A) (A) (A) (A) (A) (A) (A) (A) (A) (A)
                 (A) (A) (A) (A) (A) (A) (A) (A) (A) (A) (A) (A)
                 (A) (A) (A) (A) (A) (A) (A) (A) (A) (A) (A) (A)
                 (A) (A) (A) (A) (A) (A) (A) (A) (A) (A) (A) (A)
                 (A) (A) (A) (A) (A) (A) (A) (A) (A) (A) (A) (A)
                 (A) (A) (A) (A) (A) (A) (A) (A) (A) (A) (A) (A)
                 (A) (A) (A) (A) (A) (A) (A) (A) (A) (A) (A) (A)
                 (A) (A) (A) (A) (A) (A) (A) (A) (A) (A) (A) (A)
                 (A) (A) (A) (A) (A) (A) (A) (A) (A) (A) (A) (A)
                 (A) (A) (A) (A) (A) (A) (A) (A) (A) (A) (A) (A)
                 (A) (A) (A) (A) (A) (A) (A) (A) (A) (A) (A) (A)
                 (A) (A) (A) (A) (A) (A) (A) (A) (A) (A) (A) (A)
                 (A) (A) (A) (A) (A) (A) (A) (A) (A) (A) (A) (A)
                 (A) (A) (A) (A) (A) (A) (A) (A) (A) (A) (A) (A)
                 (A) (A) (A) (A) (A) (A) (A) (A) (A) (A) (A) (A)
                 (A) (A) (A) (A) (A) (A) (A) (A) (A) (A) (A) (A)
                 (A) (A) (A) (A) (A) (A) (A) (A) (A) (A) (A) (A)
                 (A) (A) (A) (A) (A) (A) (A) (A) (A) (A) (A) (A)
                 (A) (A) (A) (A) (A) (A) (A) (A) (A) (A) (A) (A)
                 (A) (A) (A) (A) (A) (A) (A) (A) (A) (A) (A) (A)
                 (A) (A) (A) (A) (A) (A) (A) (A) (A) (A) (A) (A)
                 (A) (A) (A) (A) (A) (A) (A) (A) (A) (A) (A) (A)
                 (A) (A) (A) (A) (A) (A) (A) (A) (A) (A) (A) (A)
                 (A) (A) (A) (A) (A) (A) (A) (A) (A) (A) (A) (A)
                 (A) (A) (A) (A) (A) (A) (A) (A) (A) (A) (A) (A)
                 (A) (A) (A) (A) (A) (A) (A) (A) (A) (A) (A) (A)
                 (A) (A) (A) (A) (A) (A) (A) (A) (A) (A) (A) (A)
                 (A) (A) (A) (A) (A) (A) (A) (A) (A) (A) (A) (A)
                 (A) (A) (A) (A) (A) (A) (A) (A) (A) (A) (A) (A)
                 (A) (A) (A) (A) (A) (A) (A) (A) (A) (A) (A) (A)
                 (A) (A) (A) (A) (A) (A) (A) (A) (A) (A) (A) (A)
                 (A) (A) (A) (A) (A) (A) (A) (A) (A) (A) (A) (A)
                 (A) (A) (A) (A) (A) (A) (A) (A) (A) (A) (A) (A)
                 (A) (A) (A) (A) (A) (A) (A) (A) (A) (A) (A) (A)
                 (A) (A) (A) (A) (A) (A) (A) (A) (A) (A) (A) (A)
                 (A) (A) (A) (A) (A) (A) (A) (A) (A) (A) (A) (A)
                 (A) (A) (A) (A) (A) (A) (A) (A) (A) (A) (A) (A)
                 (A) (A) (A) (A) (A) (A) (A) (A) (A) (A) (A) (A)
                 (A) (A) (A) (A) (A) (A) (A) (A) (A) (A) (A) (A)
                 (A) (A) (A) (A) (A) (A) (A) (A) (A) (A) (A) (A)
                 (A) (A) (A) (A) (A) (A) (A) (A) (A) (A) (A) (A)
                 (A) (A) (A) (A) (A) (A) (A) (A) (A) (A) (A) (A)
                 (A) (A) (A) (A) (A) (A) (A)
 The electronic state is 1-A.
 Alpha  occ. eigenvalues --  -89.86519 -19.66690 -19.63112 -19.61503 -19.61116
 Alpha  occ. eigenvalues --  -19.56433 -14.88484 -14.77791 -10.66753 -10.66405
 Alpha  occ. eigenvalues --  -10.64485 -10.64228 -10.61258 -10.61154 -10.60988
 Alpha  occ. eigenvalues --  -10.60376 -10.60268 -10.60101 -10.58407 -10.55273
 Alpha  occ. eigenvalues --  -10.53400 -10.52173 -10.51758 -10.48700  -8.22412
 Alpha  occ. eigenvalues --   -6.14381  -6.14162  -6.13884  -1.22660  -1.18768
 Alpha  occ. eigenvalues --   -1.16997  -1.15933  -1.13633  -1.09714  -1.03291
 Alpha  occ. eigenvalues --   -0.98159  -0.93633  -0.90802  -0.87941  -0.87335
 Alpha  occ. eigenvalues --   -0.85079  -0.81628  -0.81056  -0.78732  -0.77128
 Alpha  occ. eigenvalues --   -0.73243  -0.71416  -0.70008  -0.69132  -0.67236
 Alpha  occ. eigenvalues --   -0.65881  -0.64049  -0.62955  -0.62634  -0.61420
 Alpha  occ. eigenvalues --   -0.60037  -0.58297  -0.58054  -0.57515  -0.56158
 Alpha  occ. eigenvalues --   -0.56069  -0.54356  -0.53486  -0.52492  -0.51886
 Alpha  occ. eigenvalues --   -0.51553  -0.50886  -0.50055  -0.49812  -0.49045
 Alpha  occ. eigenvalues --   -0.48732  -0.48016  -0.47864  -0.47096  -0.45844
 Alpha  occ. eigenvalues --   -0.45649  -0.45520  -0.44655  -0.43316  -0.43145
 Alpha  occ. eigenvalues --   -0.42302  -0.40186  -0.39606  -0.38692  -0.38066
 Alpha  occ. eigenvalues --   -0.37813  -0.37275  -0.36833  -0.36581  -0.36182
 Alpha  occ. eigenvalues --   -0.34957  -0.34274  -0.29068  -0.27490  -0.21521
 Alpha virt. eigenvalues --   -0.06901  -0.04302   0.03884   0.04673   0.04962
 Alpha virt. eigenvalues --    0.06379   0.07109   0.07319   0.08113   0.08637
 Alpha virt. eigenvalues --    0.09381   0.09757   0.10357   0.11105   0.11376
 Alpha virt. eigenvalues --    0.11458   0.11817   0.12502   0.13085   0.13105
 Alpha virt. eigenvalues --    0.13495   0.13990   0.14183   0.14462   0.15143
 Alpha virt. eigenvalues --    0.15389   0.15648   0.16002   0.16572   0.16739
 Alpha virt. eigenvalues --    0.17238   0.17719   0.18593   0.18890   0.19257
 Alpha virt. eigenvalues --    0.20106   0.20823   0.21340   0.21530   0.22022
 Alpha virt. eigenvalues --    0.22446   0.22820   0.23389   0.23939   0.24294
 Alpha virt. eigenvalues --    0.24578   0.24898   0.25461   0.25608   0.26103
 Alpha virt. eigenvalues --    0.26469   0.26858   0.27775   0.28131   0.28400
 Alpha virt. eigenvalues --    0.29285   0.29530   0.29853   0.30307   0.31166
 Alpha virt. eigenvalues --    0.31780   0.31965   0.32611   0.33070   0.33917
 Alpha virt. eigenvalues --    0.34018   0.34437   0.34814   0.35975   0.36050
 Alpha virt. eigenvalues --    0.36116   0.36774   0.37448   0.37796   0.38202
 Alpha virt. eigenvalues --    0.38310   0.38937   0.39301   0.39620   0.40083
 Alpha virt. eigenvalues --    0.40275   0.40854   0.41233   0.41614   0.42006
 Alpha virt. eigenvalues --    0.42295   0.42927   0.43103   0.43654   0.44049
 Alpha virt. eigenvalues --    0.44225   0.44419   0.44963   0.45261   0.45650
 Alpha virt. eigenvalues --    0.45979   0.46318   0.46775   0.47276   0.47361
 Alpha virt. eigenvalues --    0.47611   0.48251   0.48375   0.48608   0.48921
 Alpha virt. eigenvalues --    0.49559   0.49760   0.50001   0.50261   0.51058
 Alpha virt. eigenvalues --    0.51142   0.51803   0.52072   0.52553   0.53042
 Alpha virt. eigenvalues --    0.53666   0.53832   0.54278   0.54394   0.55110
 Alpha virt. eigenvalues --    0.55670   0.55860   0.56233   0.56367   0.57069
 Alpha virt. eigenvalues --    0.57398   0.58566   0.58620   0.58928   0.59245
 Alpha virt. eigenvalues --    0.60524   0.60846   0.61522   0.61959   0.62644
 Alpha virt. eigenvalues --    0.62817   0.63202   0.63818   0.64312   0.64991
 Alpha virt. eigenvalues --    0.65549   0.66131   0.66800   0.67235   0.67437
 Alpha virt. eigenvalues --    0.67786   0.68149   0.68812   0.69623   0.70630
 Alpha virt. eigenvalues --    0.70789   0.71489   0.72203   0.72631   0.73460
 Alpha virt. eigenvalues --    0.73769   0.74626   0.74936   0.76039   0.76990
 Alpha virt. eigenvalues --    0.77521   0.77949   0.78759   0.79578   0.80063
 Alpha virt. eigenvalues --    0.80571   0.81121   0.82500   0.83262   0.83740
 Alpha virt. eigenvalues --    0.84747   0.85174   0.86207   0.86573   0.87164
 Alpha virt. eigenvalues --    0.88152   0.88651   0.89383   0.89485   0.90206
 Alpha virt. eigenvalues --    0.90387   0.90896   0.91679   0.92439   0.92886
 Alpha virt. eigenvalues --    0.93731   0.94070   0.94652   0.95602   0.96224
 Alpha virt. eigenvalues --    0.96641   0.97344   0.97614   0.98140   0.99097
 Alpha virt. eigenvalues --    0.99935   1.00331   1.01452   1.01606   1.02538
 Alpha virt. eigenvalues --    1.03728   1.04109   1.05287   1.05583   1.06550
 Alpha virt. eigenvalues --    1.07399   1.07887   1.08542   1.09009   1.09533
 Alpha virt. eigenvalues --    1.10470   1.11451   1.11814   1.12669   1.13012
 Alpha virt. eigenvalues --    1.14148   1.14509   1.15361   1.16010   1.16741
 Alpha virt. eigenvalues --    1.17955   1.18283   1.18807   1.19235   1.20063
 Alpha virt. eigenvalues --    1.21344   1.21532   1.22686   1.23279   1.24942
 Alpha virt. eigenvalues --    1.25157   1.25575   1.25908   1.26815   1.27976
 Alpha virt. eigenvalues --    1.28301   1.28907   1.29002   1.29371   1.31089
 Alpha virt. eigenvalues --    1.31515   1.31899   1.33375   1.34147   1.34423
 Alpha virt. eigenvalues --    1.35066   1.36385   1.36911   1.38912   1.39278
 Alpha virt. eigenvalues --    1.40365   1.41014   1.42274   1.42413   1.44122
 Alpha virt. eigenvalues --    1.44919   1.45441   1.46186   1.47949   1.48873
 Alpha virt. eigenvalues --    1.50087   1.51041   1.52143   1.52713   1.53207
 Alpha virt. eigenvalues --    1.53829   1.54329   1.54748   1.55725   1.56028
 Alpha virt. eigenvalues --    1.56513   1.56831   1.57477   1.57817   1.58906
 Alpha virt. eigenvalues --    1.59385   1.59848   1.60170   1.60453   1.60737
 Alpha virt. eigenvalues --    1.61109   1.61507   1.62187   1.63082   1.63316
 Alpha virt. eigenvalues --    1.63529   1.63838   1.64354   1.64557   1.65439
 Alpha virt. eigenvalues --    1.66064   1.66713   1.66896   1.68045   1.68348
 Alpha virt. eigenvalues --    1.69124   1.70171   1.70843   1.71366   1.71670
 Alpha virt. eigenvalues --    1.72576   1.73157   1.73427   1.74099   1.74644
 Alpha virt. eigenvalues --    1.75274   1.76255   1.76849   1.77372   1.77516
 Alpha virt. eigenvalues --    1.78458   1.78807   1.78975   1.80136   1.80722
 Alpha virt. eigenvalues --    1.81443   1.82424   1.83814   1.84673   1.85726
 Alpha virt. eigenvalues --    1.86206   1.86371   1.87309   1.88482   1.88668
 Alpha virt. eigenvalues --    1.89811   1.89987   1.90435   1.91339   1.91578
 Alpha virt. eigenvalues --    1.92196   1.92473   1.93330   1.93893   1.94916
 Alpha virt. eigenvalues --    1.95475   1.95893   1.96973   1.97268   1.97969
 Alpha virt. eigenvalues --    1.98822   1.99319   2.00236   2.01699   2.01843
 Alpha virt. eigenvalues --    2.02673   2.03203   2.04107   2.04934   2.05510
 Alpha virt. eigenvalues --    2.06119   2.06422   2.06918   2.07659   2.08619
 Alpha virt. eigenvalues --    2.09336   2.10476   2.11638   2.12608   2.13732
 Alpha virt. eigenvalues --    2.14625   2.14959   2.15608   2.16098   2.16735
 Alpha virt. eigenvalues --    2.17421   2.18041   2.18522   2.18979   2.19854
 Alpha virt. eigenvalues --    2.20492   2.20740   2.22011   2.22260   2.22524
 Alpha virt. eigenvalues --    2.22957   2.23758   2.24624   2.25393   2.26058
 Alpha virt. eigenvalues --    2.26607   2.27621   2.28361   2.28767   2.30093
 Alpha virt. eigenvalues --    2.30656   2.32128   2.32958   2.33125   2.33631
 Alpha virt. eigenvalues --    2.33887   2.34812   2.35290   2.35611   2.36388
 Alpha virt. eigenvalues --    2.37457   2.38117   2.38384   2.38624   2.39650
 Alpha virt. eigenvalues --    2.40460   2.41021   2.42514   2.42861   2.43946
 Alpha virt. eigenvalues --    2.44473   2.44599   2.45596   2.46198   2.47000
 Alpha virt. eigenvalues --    2.48033   2.48797   2.49859   2.50955   2.52363
 Alpha virt. eigenvalues --    2.52509   2.53694   2.54374   2.55087   2.56189
 Alpha virt. eigenvalues --    2.57024   2.57513   2.58127   2.58777   2.59183
 Alpha virt. eigenvalues --    2.59824   2.60257   2.60675   2.60954   2.61945
 Alpha virt. eigenvalues --    2.62110   2.62825   2.62866   2.64353   2.64930
 Alpha virt. eigenvalues --    2.65815   2.66389   2.67034   2.67215   2.67813
 Alpha virt. eigenvalues --    2.68434   2.69057   2.69488   2.70057   2.70629
 Alpha virt. eigenvalues --    2.71120   2.71824   2.72433   2.73020   2.73787
 Alpha virt. eigenvalues --    2.74324   2.75197   2.75921   2.76387   2.77224
 Alpha virt. eigenvalues --    2.78917   2.79381   2.79842   2.80643   2.80982
 Alpha virt. eigenvalues --    2.81897   2.82154   2.82814   2.83164   2.84056
 Alpha virt. eigenvalues --    2.84995   2.85375   2.85456   2.86329   2.87031
 Alpha virt. eigenvalues --    2.88375   2.88882   2.90008   2.90605   2.92259
 Alpha virt. eigenvalues --    2.92496   2.93368   2.94120   2.94581   2.95437
 Alpha virt. eigenvalues --    2.96543   2.97563   2.97660   2.98549   2.98815
 Alpha virt. eigenvalues --    3.00121   3.01092   3.01351   3.01910   3.02933
 Alpha virt. eigenvalues --    3.03616   3.04088   3.05066   3.05860   3.06503
 Alpha virt. eigenvalues --    3.07421   3.08208   3.08755   3.09536   3.09825
 Alpha virt. eigenvalues --    3.10854   3.11187   3.11379   3.11768   3.12540
 Alpha virt. eigenvalues --    3.13064   3.13703   3.13910   3.13921   3.14750
 Alpha virt. eigenvalues --    3.15548   3.16973   3.17079   3.17294   3.17801
 Alpha virt. eigenvalues --    3.18086   3.19243   3.19691   3.20650   3.20891
 Alpha virt. eigenvalues --    3.22156   3.22880   3.23211   3.23522   3.24179
 Alpha virt. eigenvalues --    3.24946   3.25951   3.26276   3.27270   3.27549
 Alpha virt. eigenvalues --    3.28661   3.28826   3.29772   3.30331   3.31456
 Alpha virt. eigenvalues --    3.31735   3.32217   3.32453   3.32798   3.33014
 Alpha virt. eigenvalues --    3.34045   3.34931   3.35441   3.36464   3.36592
 Alpha virt. eigenvalues --    3.37455   3.38168   3.39037   3.39589   3.40627
 Alpha virt. eigenvalues --    3.41084   3.41597   3.41923   3.42501   3.42747
 Alpha virt. eigenvalues --    3.43223   3.44021   3.45318   3.45569   3.45992
 Alpha virt. eigenvalues --    3.46841   3.47608   3.48282   3.48981   3.49859
 Alpha virt. eigenvalues --    3.50634   3.50997   3.51367   3.52598   3.53245
 Alpha virt. eigenvalues --    3.54366   3.54721   3.55839   3.56106   3.56628
 Alpha virt. eigenvalues --    3.56977   3.57912   3.58439   3.59258   3.60160
 Alpha virt. eigenvalues --    3.60754   3.61743   3.63032   3.63389   3.64377
 Alpha virt. eigenvalues --    3.65860   3.67283   3.68290   3.69168   3.69695
 Alpha virt. eigenvalues --    3.70688   3.71503   3.72790   3.73378   3.74568
 Alpha virt. eigenvalues --    3.75791   3.77214   3.78176   3.78353   3.79769
 Alpha virt. eigenvalues --    3.80082   3.80277   3.81612   3.83875   3.85051
 Alpha virt. eigenvalues --    3.85735   3.86349   3.87027   3.88547   3.88873
 Alpha virt. eigenvalues --    3.90210   3.91286   3.91913   3.92102   3.93443
 Alpha virt. eigenvalues --    3.95682   3.96888   3.97579   3.97965   3.98566
 Alpha virt. eigenvalues --    4.00256   4.01361   4.02357   4.05751   4.07419
 Alpha virt. eigenvalues --    4.07906   4.10445   4.10888   4.12274   4.13476
 Alpha virt. eigenvalues --    4.14343   4.15853   4.16794   4.16921   4.17461
 Alpha virt. eigenvalues --    4.18814   4.20133   4.20629   4.22990   4.24377
 Alpha virt. eigenvalues --    4.26598   4.27165   4.28789   4.29408   4.30749
 Alpha virt. eigenvalues --    4.31578   4.32930   4.35188   4.36338   4.36726
 Alpha virt. eigenvalues --    4.38507   4.39655   4.40892   4.41937   4.43801
 Alpha virt. eigenvalues --    4.44005   4.44708   4.45475   4.47248   4.48810
 Alpha virt. eigenvalues --    4.49940   4.50626   4.53481   4.56782   4.57995
 Alpha virt. eigenvalues --    4.58946   4.60851   4.61350   4.63004   4.66710
 Alpha virt. eigenvalues --    4.67950   4.71976   4.73195   4.75345   4.76043
 Alpha virt. eigenvalues --    4.76962   4.79765   4.81047   4.81478   4.83930
 Alpha virt. eigenvalues --    4.85539   4.86624   4.87228   4.88797   4.89771
 Alpha virt. eigenvalues --    4.90850   4.92397   4.94074   4.95313   4.98412
 Alpha virt. eigenvalues --    4.99604   5.00590   5.02704   5.03811   5.05217
 Alpha virt. eigenvalues --    5.07607   5.12225   5.13672   5.17522   5.19489
 Alpha virt. eigenvalues --    5.20783   5.24565   5.27062   5.27289   5.29481
 Alpha virt. eigenvalues --    5.29858   5.31244   5.32823   5.33269   5.37774
 Alpha virt. eigenvalues --    5.39690   5.41829   5.44099   5.44868   5.46427
 Alpha virt. eigenvalues --    5.48486   5.49263   5.49710   5.52841   5.59497
 Alpha virt. eigenvalues --    5.65351   5.67502   5.71767   5.74220   5.77618
 Alpha virt. eigenvalues --    5.80389   5.81544   5.83486   5.85388   5.86578
 Alpha virt. eigenvalues --    5.87918   5.90680   5.91795   5.94755   5.95090
 Alpha virt. eigenvalues --    5.97756   6.02653   6.04886   6.14703   6.18357
 Alpha virt. eigenvalues --    6.20281   6.21920   6.26518   6.27659   6.37678
 Alpha virt. eigenvalues --    6.42094   6.44501   6.48087   6.51247   6.56746
 Alpha virt. eigenvalues --    6.57440   6.70808   6.74067   6.76003   6.76429
 Alpha virt. eigenvalues --    6.76695   6.80788   6.83904   6.85061   6.88117
 Alpha virt. eigenvalues --    6.90735   6.95016   7.00298   7.07923   7.08681
 Alpha virt. eigenvalues --    7.10228   7.11165   7.17118   7.18896   7.25858
 Alpha virt. eigenvalues --    7.31971   7.43009   9.08548   9.40758   9.60279
 Alpha virt. eigenvalues --   19.79193  22.35351  22.46095  22.50440  22.54985
 Alpha virt. eigenvalues --   22.64394  22.66439  22.73823  22.75548  22.80943
 Alpha virt. eigenvalues --   22.87252  22.93970  22.96635  23.06956  23.20342
 Alpha virt. eigenvalues --   23.27974  23.50937  32.18742  33.15511  44.13277
 Alpha virt. eigenvalues --   44.24403  44.26387  44.40161  44.50673
          Condensed to atoms (all electrons):
[...]
 Dipole        = 7.94431814D-01-2.75125413D+00 8.68932205D-01
 ***** Axes restored to original set *****
 -------------------------------------------------------------------
 Center     Atomic                   Forces (Hartrees/Bohr)
 Number     Number              X              Y              Z
 -------------------------------------------------------------------
      1        6          -0.000033393   -0.000009177    0.000053261
      2        1           0.000003210   -0.000002967   -0.000002717
      3        1          -0.000006537   -0.000015741    0.000007313
      4        6          -0.000055769    0.000048267   -0.000066730
      5        1          -0.000057955    0.000012874   -0.000000072
      6        8          -0.000135007    0.000085443   -0.000108666
      7        1          -0.000023617    0.000011572    0.000005651
      8        6          -0.000114261   -0.000027353    0.000043527
      9        1          -0.000034926   -0.000006602    0.000010709
     10        8          -0.000116160   -0.000144147    0.000234325
     11        1          -0.000045340    0.000020517   -0.000005495
     12        6           0.000041639    0.000056387    0.000006816
     13        1           0.000012737    0.000010154   -0.000039874
     14        6           0.000037084   -0.000023212    0.000101329
     15        1          -0.000019142    0.000007208   -0.000001402
     16        8           0.000120471    0.000051459    0.000018157
     17        7           0.000223443    0.000073896   -0.000157409
     18        6           0.000012432   -0.000010048   -0.000199125
     19        1          -0.000023919   -0.000007876    0.000005905
     20        6           0.000249954   -0.000048489   -0.000062358
     21        1           0.000003212    0.000046089    0.000030932
     22        6          -0.000028069   -0.000390649   -0.000421853
     23        1          -0.000052056    0.000024604   -0.000013919
     24        1          -0.000056285   -0.000019135   -0.000064674
     25        6           0.000241193    0.000646716    0.000352631
     26        6           0.000144832   -0.000011985   -0.000109613
     27        1          -0.000009946    0.000087974   -0.000104734
     28        6          -0.000013124   -0.000038730   -0.000008834
     29        8           0.000036903    0.000084915   -0.000040835
     30        7          -0.000150939   -0.000164428    0.000274723
     31        1           0.000000173    0.000011130    0.000030731
     32        1           0.000055162    0.000111615   -0.000004872
     33        1          -0.000033004    0.000028043    0.000004965
     34        6          -0.000247044   -0.000281494    0.000326829
     35        6           0.000256737    0.000004663    0.000032441
     36        6          -0.000333131   -0.000094760   -0.000045451
     37        6          -0.000137501   -0.000171299    0.000565194
     38        6          -0.000013368    0.000121057   -0.000002161
     39        8          -0.000056640   -0.000132056   -0.000108367
     40       16           0.000726625   -0.000173743   -0.000845928
     41        1          -0.000022041   -0.000015918   -0.000018201
     42        1          -0.000350825    0.000111337    0.000120956
     43        1           0.000003042    0.000022577    0.000248920
     44        1          -0.000026737   -0.000001101    0.000043808
     45        1          -0.000006831   -0.000036782   -0.000008901
     46        1           0.000029819   -0.000044085    0.000007697
     47        1          -0.000040006    0.000072146    0.000039831
     48        1           0.000044906    0.000121136   -0.000124463
 -------------------------------------------------------------------
 Cartesian Forces:  Max     0.000845928 RMS     0.000165227
 Leave Link  716 at Sat Aug 13 21:11:36 2022, MaxMem=  2684354560 cpu:               0.4 elap:               0.0
 (Enter /storage/apps/GAUSSIAN/G16_RevA03/g16/l103.exe)

 GradGradGradGradGradGradGradGradGradGradGradGradGradGradGradGradGradGrad
 Berny optimization.
 Search for a local minimum.
 Step number   1 out of a maximum of    2
 All quantities printed in internal units (Hartrees-Bohrs-Radians)
 Second derivative matrix not updated -- first step.
 ITU=  0
     Eigenvalues ---    0.00048   0.00082   0.00112   0.00145   0.00212
     Eigenvalues ---    0.00218   0.00305   0.00353   0.00462   0.00521
     Eigenvalues ---    0.00608   0.00646   0.00795   0.00922   0.00952
     Eigenvalues ---    0.01111   0.01165   0.01277   0.01496   0.01632
     Eigenvalues ---    0.01820   0.02131   0.02367   0.02472   0.02803
     Eigenvalues ---    0.02903   0.03327   0.03656   0.04118   0.04387
     Eigenvalues ---    0.04581   0.04697   0.04988   0.05051   0.05233
     Eigenvalues ---    0.05398   0.05491   0.05707   0.05948   0.06049
     Eigenvalues ---    0.06148   0.06299   0.06616   0.06748   0.07064
     Eigenvalues ---    0.07126   0.07478   0.08108   0.08267   0.08491
     Eigenvalues ---    0.08631   0.09173   0.09343   0.09798   0.10786
     Eigenvalues ---    0.10823   0.11113   0.11328   0.12001   0.12611
     Eigenvalues ---    0.13003   0.13139   0.13293   0.13661   0.13726
     Eigenvalues ---    0.13946   0.14342   0.15882   0.16404   0.16801
     Eigenvalues ---    0.17980   0.18116   0.18604   0.19808   0.20277
     Eigenvalues ---    0.20519   0.20861   0.21820   0.22594   0.25167
     Eigenvalues ---    0.25747   0.27237   0.28072   0.30537   0.33196
     Eigenvalues ---    0.33678   0.34389   0.34498   0.37771   0.37816
     Eigenvalues ---    0.37816   0.37816   0.37816   0.37816   0.40079
     Eigenvalues ---    0.43895   0.47904   0.49336   0.57041   0.58320
     Eigenvalues ---    0.60057   0.61742   0.69491   0.71859   0.73918
     Eigenvalues ---    0.78925   0.81724   0.82407   0.87293   0.90386
     Eigenvalues ---    0.90916   0.91563   0.92368   0.93162   0.95207
     Eigenvalues ---    0.97023   0.99614   0.99870   1.01881   1.03778
     Eigenvalues ---    1.05842   1.08516   1.11080   1.11711   1.12517
     Eigenvalues ---    1.19590   1.20687   1.27320   1.27908   1.29483
     Eigenvalues ---    1.33650   1.37551   1.42935   1.56852   1.72364
     Eigenvalues ---    1.84157   1.85303   2.36323
 Quadratic step=4.637D-01 exceeds max=3.000D-01 adjusted using Lamda=-4.013D-04.
 Angle between NR and scaled steps=  11.16 degrees.
 Angle between quadratic step and forces=  71.44 degrees.
 Linear search not attempted -- first point.
 Variable       Old X    -DE/DX   Delta X   Delta X   Delta X     New X
                                 (Linear)    (Quad)   (Total)
    X1        6.75109  -0.00003   0.00000  -0.01536  -0.01536   6.73573
    Y1       -6.85539  -0.00001   0.00000  -0.02348  -0.02348  -6.87887
    Z1       -0.72442   0.00005   0.00000   0.02204   0.02204  -0.70238
    X2        7.12311   0.00000   0.00000  -0.00550  -0.00550   7.11760
    Y2       -7.02463  -0.00000   0.00000  -0.03001  -0.03001  -7.05464
    Z2       -2.74230  -0.00000   0.00000   0.02378   0.02378  -2.71852
    X3        8.06007  -0.00001   0.00000  -0.02387  -0.02387   8.03620
    Y3       -8.08270  -0.00002   0.00000  -0.02741  -0.02741  -8.11011
    Z3        0.28777   0.00001   0.00000   0.02852   0.02852   0.31629
    X4        3.42526  -0.00006   0.00000  -0.00765  -0.00765   3.41762
    Y4       -2.69836   0.00005   0.00000   0.02803   0.02803  -2.67034
    Z4        2.32375  -0.00007   0.00000  -0.01181  -0.01181   2.31193
    X5        2.18018  -0.00006   0.00000  -0.02328  -0.02328   2.15690
    Y5       -4.31639   0.00001   0.00000   0.04021   0.04021  -4.27618
    Z5        1.93839  -0.00000   0.00000  -0.01139  -0.01139   1.92700
    X6        2.60558  -0.00014   0.00000  -0.00610  -0.00610   2.59948
    Y6       -1.27186   0.00009   0.00000   0.05214   0.05214  -1.21972
    Z6        4.33913  -0.00011   0.00000  -0.02795  -0.02795   4.31117
    X7        0.82778  -0.00002   0.00000   0.00789   0.00789   0.83567
    Y7       -0.67221   0.00001   0.00000   0.07590   0.07590  -0.59631
    Z7        3.92690   0.00001   0.00000  -0.05201  -0.05201   3.87489
    X8        6.13830  -0.00011   0.00000  -0.02107  -0.02107   6.11724
    Y8       -3.59853  -0.00003   0.00000  -0.00338  -0.00338  -3.60191
    Z8        2.77191   0.00004   0.00000   0.00938   0.00938   2.78129
    X9        6.19889  -0.00003   0.00000  -0.04651  -0.04651   6.15238
    Y9       -5.27910  -0.00001   0.00000  -0.00169  -0.00169  -5.28079
    Z9        3.97558   0.00001   0.00000   0.01245   0.01245   3.98803
   X10        7.55641  -0.00012   0.00000  -0.00602  -0.00602   7.55039
   Y10       -1.60870  -0.00014   0.00000  -0.01780  -0.01780  -1.62651
   Z10        3.81137   0.00023   0.00000   0.01636   0.01636   3.82773
   X11        6.45898  -0.00005   0.00000  -0.00603  -0.00603   6.45296
   Y11       -0.76322   0.00002   0.00000   0.00479   0.00479  -0.75842
   Z11        5.00669  -0.00001   0.00000  -0.00048  -0.00048   5.00621
   X12        3.80831   0.00004   0.00000   0.02067   0.02067   3.82897
   Y12       -1.21111   0.00006   0.00000   0.00710   0.00710  -1.20402
   Z12       -0.15364   0.00001   0.00000  -0.01958  -0.01958  -0.17323
   X13        4.32349   0.00001   0.00000   0.03785   0.03785   4.36135
   Y13        0.74543   0.00001   0.00000   0.00583   0.00583   0.75125
   Z13        0.25723  -0.00004   0.00000  -0.03563  -0.03563   0.22160
   X14        7.09465   0.00004   0.00000  -0.00696  -0.00696   7.08769
   Y14       -4.14129  -0.00002   0.00000  -0.02204  -0.02204  -4.16333
   Z14        0.11511   0.00010   0.00000   0.01680   0.01680   0.13190
   X15        9.06734  -0.00002   0.00000  -0.00203  -0.00203   9.06530
   Y15       -3.56741   0.00001   0.00000  -0.03586  -0.03586  -3.60327
   Z15       -0.03539  -0.00000   0.00000   0.02292   0.02292  -0.01247
   X16        5.65279   0.00012   0.00000   0.01483   0.01483   5.66762
   Y16       -2.48878   0.00005   0.00000  -0.02034  -0.02034  -2.50912
   Z16       -1.52029   0.00002   0.00000  -0.00075  -0.00075  -1.52104
   X17        1.51960   0.00022   0.00000   0.02568   0.02568   1.54528
   Y17       -1.08690   0.00007   0.00000   0.01063   0.01063  -1.07628
   Z17       -1.77605  -0.00016   0.00000  -0.02581  -0.02581  -1.80186
   X18        0.69814   0.00001   0.00000   0.03196   0.03196   0.73010
   Y18       -3.23027  -0.00001   0.00000   0.01182   0.01182  -3.21845
   Z18       -2.87831  -0.00020   0.00000  -0.03311  -0.03311  -2.91142
   X19        1.84662  -0.00002   0.00000   0.04063   0.04063   1.88725
   Y19       -4.88583  -0.00001   0.00000   0.01523   0.01523  -4.87060
   Z19       -2.56503   0.00001   0.00000  -0.04517  -0.04517  -2.61020
   X20       -1.43141   0.00025   0.00000   0.02844   0.02844  -1.40297
   Y20       -3.20970  -0.00005   0.00000   0.00891   0.00891  -3.20080
   Z20       -4.34971  -0.00006   0.00000  -0.02725  -0.02725  -4.37695
   X21       -2.05564   0.00000   0.00000   0.03622   0.03622  -2.01942
   Y21       -4.93957   0.00005   0.00000   0.01038   0.01038  -4.92919
   Z21       -5.23401   0.00003   0.00000  -0.03583  -0.03583  -5.26984
   X22       -2.71990  -0.00003   0.00000   0.01351   0.01351  -2.70638
   Y22       -0.94677  -0.00039   0.00000   0.00362   0.00362  -0.94315
   Z22       -4.70961  -0.00042   0.00000  -0.00787  -0.00787  -4.71748
   X23       -4.35588  -0.00005   0.00000   0.00793   0.00793  -4.34795
   Y23       -0.87486   0.00002   0.00000   0.00035   0.00035  -0.87451
   Z23       -5.93427  -0.00001   0.00000  -0.00078  -0.00078  -5.93505
   X24       -6.02428  -0.00006   0.00000  -0.01682  -0.01682  -6.04111
   Y24       -1.41489  -0.00002   0.00000   0.01729   0.01729  -1.39760
   Z24       -1.68877  -0.00006   0.00000  -0.02666  -0.02666  -1.71544
   X25       -1.84064   0.00024   0.00000   0.00473   0.00473  -1.83592
   Y25        1.23947   0.00065   0.00000   0.00292   0.00292   1.24239
   Z25       -3.56467   0.00035   0.00000   0.00358   0.00358  -3.56109
   X26        0.31433   0.00014   0.00000   0.01735   0.01735   0.33168
   Y26        1.10086  -0.00001   0.00000   0.00782   0.00782   1.10868
   Z26       -2.08527  -0.00011   0.00000  -0.01431  -0.01431  -2.09958
   X27        1.05619  -0.00001   0.00000   0.01797   0.01797   1.07416
   Y27        2.75962   0.00009   0.00000   0.00840   0.00840   2.76802
   Z27       -1.14416  -0.00010   0.00000  -0.01619  -0.01619  -1.16035
   X28       -2.94510  -0.00001   0.00000  -0.02327  -0.02327  -2.96838
   Y28        3.81151  -0.00004   0.00000  -0.00359  -0.00359   3.80792
   Z28       -4.01915  -0.00001   0.00000   0.03508   0.03508  -3.98407
   X29       -1.62058   0.00004   0.00000  -0.04373  -0.04373  -1.66431
   Y29        5.66669   0.00008   0.00000   0.01043   0.01043   5.67712
   Z29       -3.94407  -0.00004   0.00000   0.04981   0.04981  -3.89426
   X30       -5.43596  -0.00015   0.00000  -0.02653  -0.02653  -5.46250
   Y30        3.83100  -0.00016   0.00000  -0.02353  -0.02353   3.80747
   Z30       -4.70954   0.00027   0.00000   0.04702   0.04702  -4.66252
   X31       -6.19494   0.00000   0.00000  -0.04424  -0.04424  -6.23918
   Y31        5.57877   0.00001   0.00000  -0.03063  -0.03063   5.54814
   Z31       -4.80203   0.00003   0.00000   0.06204   0.06204  -4.73999
   X32       -6.55338   0.00006   0.00000  -0.00899  -0.00899  -6.56237
   Y32        2.51459   0.00011   0.00000  -0.04276  -0.04276   2.47183
   Z32       -3.89348  -0.00000   0.00000   0.03880   0.03880  -3.85468
   X33        4.83352  -0.00003   0.00000  -0.01956  -0.01956   4.81396
   Y33       -7.52043   0.00003   0.00000  -0.01568  -0.01568  -7.53610
   Z33       -0.34426   0.00000   0.00000   0.01267   0.01267  -0.33158
   X34        0.16098  -0.00025   0.00000  -0.01810  -0.01810   0.14288
   Y34        4.10568  -0.00028   0.00000  -0.00175  -0.00175   4.10393
   Z34        5.50483   0.00033   0.00000   0.00546   0.00546   5.51029
   X35       -3.14996   0.00026   0.00000   0.00280   0.00280  -3.14717
   Y35        1.65380   0.00000   0.00000  -0.00563  -0.00563   1.64817
   Z35        2.20424   0.00003   0.00000  -0.00963  -0.00963   2.19462
   X36       -5.45479  -0.00033   0.00000   0.00848   0.00848  -5.44630
   Y36        1.57575  -0.00009   0.00000   0.00533   0.00533   1.58108
   Z36        1.06075  -0.00005   0.00000  -0.02105  -0.02105   1.03970
   X37       -9.54538  -0.00014   0.00000   0.00371   0.00371  -9.54166
   Y37       -0.64943  -0.00017   0.00000  -0.00139  -0.00139  -0.65082
   Z37        0.15018   0.00057   0.00000   0.02613   0.02613   0.17632
   X38       -6.66710  -0.00001   0.00000   0.00405   0.00405  -6.66304
   Y38       -0.83124   0.00012   0.00000   0.00682   0.00682  -0.82442
   Z38        0.20987  -0.00000   0.00000  -0.01558  -0.01558   0.19429
   X39       -1.66486  -0.00006   0.00000  -0.02229  -0.02229  -1.68715
   Y39       -0.21212  -0.00013   0.00000  -0.01927  -0.01927  -0.23140
   Z39        2.56807  -0.00011   0.00000   0.02183   0.02183   2.58990
   X40       -2.07995   0.00073   0.00000   0.03464   0.03464  -2.04531
   Y40        4.80465  -0.00017   0.00000  -0.00823  -0.00823   4.79641
   Z40        3.03346  -0.00085   0.00000  -0.04395  -0.04395   2.98950
   X41        0.54600  -0.00002   0.00000  -0.00575  -0.00575   0.54025
   Y41        5.88734  -0.00002   0.00000   0.00765   0.00765   5.89500
   Z41        6.45790  -0.00002   0.00000  -0.01736  -0.01736   6.44055
   X42        1.91800  -0.00035   0.00000  -0.01762  -0.01762   1.90038
   Y42        3.34300   0.00011   0.00000  -0.03673  -0.03673   3.30627
   Z42        4.76137   0.00012   0.00000   0.04382   0.04382   4.80518
   X43      -10.28642   0.00000   0.00000   0.02990   0.02990 -10.25652
   Y43       -0.22917   0.00002   0.00000  -0.01669  -0.01669  -0.24587
   Z43        2.02581   0.00025   0.00000   0.03994   0.03994   2.06574
   X44      -10.16761  -0.00003   0.00000  -0.01486  -0.01486 -10.18247
   Y44        0.87158  -0.00000   0.00000   0.00619   0.00619   0.87777
   Z44       -1.10395   0.00004   0.00000   0.04433   0.04433  -1.05963
   X45      -10.40799  -0.00001   0.00000   0.00206   0.00206 -10.40593
   Y45       -2.40090  -0.00004   0.00000   0.00083   0.00083  -2.40007
   Z45       -0.51078  -0.00001   0.00000   0.02252   0.02252  -0.48825
   X46       -6.06289   0.00003   0.00000   0.02643   0.02643  -6.03646
   Y46       -2.37241  -0.00004   0.00000   0.00324   0.00324  -2.36917
   Z46        1.44576   0.00001   0.00000  -0.03102  -0.03102   1.41474
   X47       -6.55017  -0.00004   0.00000   0.02106   0.02106  -6.52912
   Y47        3.30434   0.00007   0.00000   0.01255   0.01255   3.31688
   Z47        0.97784   0.00004   0.00000  -0.03693  -0.03693   0.94091
   X48       -0.64599   0.00004   0.00000  -0.05617  -0.05617  -0.70216
   Y48        2.77731   0.00012   0.00000   0.02942   0.02942   2.80674
   Z48        6.85266  -0.00012   0.00000   0.01185   0.01185   6.86451
         Item               Value     Threshold  Converged?
 Maximum Force            0.000846     0.000450     NO 
 RMS     Force            0.000165     0.000300     YES
 Maximum Displacement     0.075900     0.001800     NO 
 RMS     Displacement     0.025006     0.001200     NO 
 Predicted change in Energy=-1.127348D-04
 GradGradGradGradGradGradGradGradGradGradGradGradGradGradGradGradGradGrad

 Leave Link  103 at Sat Aug 13 21:11:37 2022, MaxMem=  2684354560 cpu:               0.9 elap:               0.1
 (Enter /storage/apps/GAUSSIAN/G16_RevA03/g16/l9999.exe)

 Test job not archived.
 1\1\GINC-T073\Force\RM062X\def2TZVP\C16H24N2O5S1\LV87696\13-Aug-2022\0
 \\#P M062X/Def2TZVP scf=(direct,conver=8) EmpiricalDispersion=GD3 Forc
 e Charge Prop=(Field,Read)\\Gaussian run\\0,1\C,3.572523,-3.627717,-0.
 383345\H,3.769385,-3.717275,-1.451164\H,4.265208,-4.277181,0.152282\C,
 1.812572,-1.427911,1.229673\H,1.153702,-2.284136,1.025751\O,1.378815,-
 0.673038,2.296168\H,0.438044,-0.35572,2.078028\C,3.248251,-1.904262,1.
 466832\H,3.280311,-2.793581,2.103786\O,3.998681,-0.85129,2.016892\H,3.
 417947,-0.403876,2.649426\C,2.01527,-0.640893,-0.081304\H,2.287895,0.3
 94462,0.136121\C,3.754325,-2.191475,0.060911\H,4.798228,-1.887794,-0.0
 18726\O,2.99133,-1.317008,-0.804504\N,0.804136,-0.575164,-0.939847\C,0
 .369438,-1.709383,-1.523136\H,0.977189,-2.585468,-1.357357\C,-0.75747,
 -1.698502,-2.301765\H,-1.087798,-2.613908,-2.769719\C,-1.439308,-0.501
 007,-2.49222\H,-2.30503,-0.462955,-3.140281\H,-3.187914,-0.748725,-0.8
 93661\C,-0.974027,0.655901,-1.886342\C,0.166335,0.582548,-1.103476\H,0
 .558912,1.460328,-0.605463\C,-1.558482,2.016963,-2.126843\O,-0.857572,
 2.998681,-2.087111\N,-2.876588,2.027278,-2.492183\H,-3.27822,2.952158,
 -2.541125\H,-3.467901,1.330664,-2.060341\H,2.557789,-3.979638,-0.18217
 3\C,0.085187,2.172633,2.913029\C,-1.666888,0.875153,1.166435\C,-2.8865
 48,0.833852,0.561325\C,-5.051195,-0.343664,0.079474\C,-3.528077,-0.439
 871,0.111058\O,-0.881007,-0.112251,1.358962\S,-1.100662,2.542509,1.605
 236\H,0.288931,3.115448,3.417376\H,1.014962,1.76904,2.519607\H,-5.4433
 39,-0.121272,1.07201\H,-5.380467,0.461221,-0.584187\H,-5.507671,-1.270
 504,-0.270291\H,-3.208345,-1.255426,0.765065\H,-3.466203,1.748579,0.51
 7452\H,-0.341843,1.46969,3.626272\\Version=ES64L-G16RevA.03\State=1-A\
 HF=-1507.9088593\RMSD=1.663e-09\RMSF=1.652e-04\Dipole=0.0559688,-2.347
 8486,-1.8547341\Quadrupole=0.5717122,0.9491251,-1.5208372,-4.7248811,7
 .9307042,6.1773537\PG=C01 [X(C16H24N2O5S1)]\\@


 ... THE UNIVERSE IS NOT ONLY QUEERER THAN WE SUPPOSE,
 BUT QUEERER THAN WE CAN SUPPOSE ... 

                                   -- J. B. S. HALDANE
 Job cpu time:       0 days  3 hours 24 minutes 57.8 seconds.
 Elapsed time:       0 days  0 hours 12 minutes 49.8 seconds.
 File lengths (MBytes):  RWF=    435 Int=      0 D2E=      0 Chk=     48 Scr=      1
 Normal termination of Gaussian 16 at Sat Aug 13 21:11:37 2022.
