 Entering Gaussian System, Link 0=g16
 Initial command:
 /storage/apps/GAUSSIAN/G16_RevA03/g16/l1.exe "/scratch/tmp/1019427/Gau-56023.inp" -scrdir="/scratch/tmp/1019427/"
 Entering Link 1 = /storage/apps/GAUSSIAN/G16_RevA03/g16/l1.exe PID=     56025.
  
 Copyright (c) 1988,1990,1992,1993,1995,1998,2003,2009,2016,
            Gaussian, Inc.  All Rights Reserved.
  
 This is part of the Gaussian(R) 16 program.  It is based on
 the Gaussian(R) 09 system (copyright 2009, Gaussian, Inc.),
 the Gaussian(R) 03 system (copyright 2003, Gaussian, Inc.),
 the Gaussian(R) 98 system (copyright 1998, Gaussian, Inc.),
 the Gaussian(R) 94 system (copyright 1995, Gaussian, Inc.),
 the Gaussian 92(TM) system (copyright 1992, Gaussian, Inc.),
 the Gaussian 90(TM) system (copyright 1990, Gaussian, Inc.),
 the Gaussian 88(TM) system (copyright 1988, Gaussian, Inc.),
 the Gaussian 86(TM) system (copyright 1986, Carnegie Mellon
 University), and the Gaussian 82(TM) system (copyright 1983,
 Carnegie Mellon University). Gaussian is a federally registered
 trademark of Gaussian, Inc.
  
 This software contains proprietary and confidential information,
 including trade secrets, belonging to Gaussian, Inc.
  
 This software is provided under written license and may be
 used, copied, transmitted, or stored only in accord with that
 written license.
  
 The following legend is applicable only to US Government
 contracts under FAR:
  
                    RESTRICTED RIGHTS LEGEND
  
 Use, reproduction and disclosure by the US Government is
 subject to restrictions as set forth in subparagraphs (a)
 and (c) of the Commercial Computer Software - Restricted
 Rights clause in FAR 52.227-19.
  
 Gaussian, Inc.
 340 Quinnipiac St., Bldg. 40, Wallingford CT 06492
  
  
 ---------------------------------------------------------------
 Warning -- This program may not be used in any manner that
 competes with the business of Gaussian, Inc. or will provide
 assistance to any competitor of Gaussian, Inc.  The licensee
 of this program is prohibited from giving any competitor of
 Gaussian, Inc. access to this program.  By using this program,
 the user acknowledges that Gaussian, Inc. is engaged in the
 business of creating and licensing software in the field of
 computational chemistry and represents and warrants to the
 licensee that it is not a competitor of Gaussian, Inc. and that
 it will not use this program in any manner prohibited above.
 ---------------------------------------------------------------
  

 Cite this work as:
 Gaussian 16, Revision A.03,
 M. J. Frisch, G. W. Trucks, H. B. Schlegel, G. E. Scuseria, 
 M. A. Robb, J. R. Cheeseman, G. Scalmani, V. Barone, 
 G. A. Petersson, H. Nakatsuji, X. Li, M. Caricato, A. V. Marenich, 
 J. Bloino, B. G. Janesko, R. Gomperts, B. Mennucci, H. P. Hratchian, 
 J. V. Ortiz, A. F. Izmaylov, J. L. Sonnenberg, D. Williams-Young, 
 F. Ding, F. Lipparini, F. Egidi, J. Goings, B. Peng, A. Petrone, 
 T. Henderson, D. Ranasinghe, V. G. Zakrzewski, J. Gao, N. Rega, 
 G. Zheng, W. Liang, M. Hada, M. Ehara, K. Toyota, R. Fukuda, 
 J. Hasegawa, M. Ishida, T. Nakajima, Y. Honda, O. Kitao, H. Nakai, 
 T. Vreven, K. Throssell, J. A. Montgomery, Jr., J. E. Peralta, 
 F. Ogliaro, M. J. Bearpark, J. J. Heyd, E. N. Brothers, K. N. Kudin, 
 V. N. Staroverov, T. A. Keith, R. Kobayashi, J. Normand, 
 K. Raghavachari, A. P. Rendell, J. C. Burant, S. S. Iyengar, 
 J. Tomasi, M. Cossi, J. M. Millam, M. Klene, C. Adamo, R. Cammi, 
 J. W. Ochterski, R. L. Martin, K. Morokuma, O. Farkas, 
 J. B. Foresman, and D. J. Fox, Gaussian, Inc., Wallingford CT, 2016.
 
 ******************************************
 Gaussian 16:  ES64L-G16RevA.03 25-Dec-2016
                13-Aug-2022 
 ******************************************
 %NProcShared=16
 Will use up to   16 processors via shared memory.
 %mem=20GB
 ----------------------------------------------------------------------
 #P M062X/Def2TZVP scf=(direct,conver=8) EmpiricalDispersion=GD3 Force 
 Charge Prop=(Field,Read)
 ----------------------------------------------------------------------
 1/10=7,18=10,28=-2,30=1,38=1,125=101/1,3;
 2/12=2,17=6,18=5,29=2,40=1/2;
 3/5=44,7=101,11=2,25=1,30=1,71=1,74=-55,124=31/1,2,3;
 4//1;
 5/5=2,6=8,38=5/2;
 6/7=2,8=2,9=2,10=2,14=2,15=1,28=1/1,2;
 7/7=1,16=-2,29=1/1,2,3,16;
 1/10=7,18=10,28=-2,30=1/3;
 99/12=1/99;
 Leave Link    1 at Sat Aug 13 20:59:18 2022, MaxMem=  2684354560 cpu:               0.8 elap:               0.1
 (Enter /storage/apps/GAUSSIAN/G16_RevA03/g16/l101.exe)
 ------------
 Gaussian run
 ------------
 Symbolic Z-matrix:
 Charge =  0 Multiplicity = 1
 C                     3.57145  -3.62834  -0.38115 
 H                     3.77151  -3.7176   -1.44841 
 H                     4.26145  -4.2792    0.15624 
 C                     1.81023  -1.42576   1.22788 
 H                     1.14993  -2.28044   1.02195 
 O                     1.37493  -0.66988   2.29284 
 H                     0.43298  -0.35466   2.07271 
 C                     3.24399  -1.90571   1.46912 
 H                     3.27174  -2.79594   2.10501 
 O                     3.99501  -0.85538   2.02329 
 H                     3.41274  -0.4069    2.65365 
 C                     2.01802  -0.63915  -0.08272 
 H                     2.29088   0.39604   0.13516 
 C                     3.75409  -2.19267   0.06458 
 H                     4.7987   -1.89055  -0.01158 
 O                     2.99528  -1.31648  -0.80293 
 N                     0.80863  -0.57265  -0.94411 
 C                     0.37478  -1.7063   -1.52858 
 H                     0.98337  -2.58205  -1.36396 
 C                    -0.75281  -1.69579  -2.30635 
 H                    -1.08253  -2.61097  -2.77499 
 C                    -1.43611  -0.49879  -2.49459 
 H                    -2.30275  -0.46076  -3.14145 
 H                    -3.20784  -0.7351   -0.90228 
 C                    -0.97141   0.65786  -1.88789 
 C                     0.16962   0.58492  -1.10583 
 H                     0.56126   1.46226  -0.60627 
 C                    -1.55863   2.01829  -2.12617 
 O                    -0.85874   3.00084  -2.08915 
 N                    -2.87818   2.0269   -2.48608 
 H                    -3.28096   2.95129  -2.53382 
 H                    -3.46688   1.32954  -2.05219 
 H                     2.55556  -3.97881  -0.18328 
 C                     0.06847   2.17178   2.92446 
 C                    -1.66658   0.87345   1.16243 
 C                    -2.88904   0.83446   0.56328 
 C                    -5.05626  -0.34961   0.10735 
 C                    -3.53207  -0.43796   0.11127 
 O                    -0.88261  -0.11626   1.35339 
 S                    -1.09075   2.53978   1.59196 
 H                     0.27022   3.11694   3.42518 
 H                     1.00154   1.75832   2.55072 
 H                    -5.43148  -0.13913   1.1094 
 H                    -5.40072   0.46006  -0.54266 
 H                    -5.5141   -1.27523  -0.24398 
 H                    -3.19624  -1.25767   0.75181 
 H                    -3.46741   1.75011   0.52168 
 H                    -0.3768    1.47773   3.63487 
 
 ITRead=  0  0  0  0  0  0  0  0  0  0  0  0  0  0  0  0  0  0  0  0
 ITRead=  0  0  0  0  0  0  0  0  0  0  0  0  0  0  0  0  0  0  0  0
 ITRead=  0  0  0  0  0  0  0  0
 MicOpt= -1 -1 -1 -1 -1 -1 -1 -1 -1 -1 -1 -1 -1 -1 -1 -1 -1 -1 -1 -1
 MicOpt= -1 -1 -1 -1 -1 -1 -1 -1 -1 -1 -1 -1 -1 -1 -1 -1 -1 -1 -1 -1
 MicOpt= -1 -1 -1 -1 -1 -1 -1 -1
 NAtoms=     48 NQM=       48 NQMF=       0 NMMI=      0 NMMIF=      0
                NMic=       0 NMicF=      0.
                    Isotopes and Nuclear Properties:
 (Nuclear quadrupole moments (NQMom) in fm**2, nuclear magnetic moments (NMagM)
  in nuclear magnetons)

  Atom         1           2           3           4           5           6           7           8           9          10
 IAtWgt=          12           1           1          12           1          16           1          12           1          16
 AtmWgt=  12.0000000   1.0078250   1.0078250  12.0000000   1.0078250  15.9949146   1.0078250  12.0000000   1.0078250  15.9949146
 NucSpn=           0           1           1           0           1           0           1           0           1           0
 AtZEff=  -0.0000000  -0.0000000  -0.0000000  -0.0000000  -0.0000000  -0.0000000  -0.0000000  -0.0000000  -0.0000000  -0.0000000
 NQMom=    0.0000000   0.0000000   0.0000000   0.0000000   0.0000000   0.0000000   0.0000000   0.0000000   0.0000000   0.0000000
 NMagM=    0.0000000   2.7928460   2.7928460   0.0000000   2.7928460   0.0000000   2.7928460   0.0000000   2.7928460   0.0000000
 AtZNuc=   6.0000000   1.0000000   1.0000000   6.0000000   1.0000000   8.0000000   1.0000000   6.0000000   1.0000000   8.0000000

  Atom        11          12          13          14          15          16          17          18          19          20
 IAtWgt=           1          12           1          12           1          16          14          12           1          12
 AtmWgt=   1.0078250  12.0000000   1.0078250  12.0000000   1.0078250  15.9949146  14.0030740  12.0000000   1.0078250  12.0000000
 NucSpn=           1           0           1           0           1           0           2           0           1           0
 AtZEff=  -0.0000000  -0.0000000  -0.0000000  -0.0000000  -0.0000000  -0.0000000  -0.0000000  -0.0000000  -0.0000000  -0.0000000
 NQMom=    0.0000000   0.0000000   0.0000000   0.0000000   0.0000000   0.0000000   2.0440000   0.0000000   0.0000000   0.0000000
 NMagM=    2.7928460   0.0000000   2.7928460   0.0000000   2.7928460   0.0000000   0.4037610   0.0000000   2.7928460   0.0000000
 AtZNuc=   1.0000000   6.0000000   1.0000000   6.0000000   1.0000000   8.0000000   7.0000000   6.0000000   1.0000000   6.0000000

  Atom        21          22          23          24          25          26          27          28          29          30
 IAtWgt=           1          12           1           1          12          12           1          12          16          14
 AtmWgt=   1.0078250  12.0000000   1.0078250   1.0078250  12.0000000  12.0000000   1.0078250  12.0000000  15.9949146  14.0030740
 NucSpn=           1           0           1           1           0           0           1           0           0           2
 AtZEff=  -0.0000000  -0.0000000  -0.0000000  -0.0000000  -0.0000000  -0.0000000  -0.0000000  -0.0000000  -0.0000000  -0.0000000
 NQMom=    0.0000000   0.0000000   0.0000000   0.0000000   0.0000000   0.0000000   0.0000000   0.0000000   0.0000000   2.0440000
 NMagM=    2.7928460   0.0000000   2.7928460   2.7928460   0.0000000   0.0000000   2.7928460   0.0000000   0.0000000   0.4037610
 AtZNuc=   1.0000000   6.0000000   1.0000000   1.0000000   6.0000000   6.0000000   1.0000000   6.0000000   8.0000000   7.0000000

  Atom        31          32          33          34          35          36          37          38          39          40
 IAtWgt=           1           1           1          12          12          12          12          12          16          32
 AtmWgt=   1.0078250   1.0078250   1.0078250  12.0000000  12.0000000  12.0000000  12.0000000  12.0000000  15.9949146  31.9720718
 NucSpn=           1           1           1           0           0           0           0           0           0           0
 AtZEff=  -0.0000000  -0.0000000  -0.0000000  -0.0000000  -0.0000000  -0.0000000  -0.0000000  -0.0000000  -0.0000000  -0.0000000
 NQMom=    0.0000000   0.0000000   0.0000000   0.0000000   0.0000000   0.0000000   0.0000000   0.0000000   0.0000000   0.0000000
 NMagM=    2.7928460   2.7928460   2.7928460   0.0000000   0.0000000   0.0000000   0.0000000   0.0000000   0.0000000   0.0000000
 AtZNuc=   1.0000000   1.0000000   1.0000000   6.0000000   6.0000000   6.0000000   6.0000000   6.0000000   8.0000000  16.0000000

  Atom        41          42          43          44          45          46          47          48
 IAtWgt=           1           1           1           1           1           1           1           1
 AtmWgt=   1.0078250   1.0078250   1.0078250   1.0078250   1.0078250   1.0078250   1.0078250   1.0078250
 NucSpn=           1           1           1           1           1           1           1           1
 AtZEff=  -0.0000000  -0.0000000  -0.0000000  -0.0000000  -0.0000000  -0.0000000  -0.0000000  -0.0000000
 NQMom=    0.0000000   0.0000000   0.0000000   0.0000000   0.0000000   0.0000000   0.0000000   0.0000000
 NMagM=    2.7928460   2.7928460   2.7928460   2.7928460   2.7928460   2.7928460   2.7928460   2.7928460
 AtZNuc=   1.0000000   1.0000000   1.0000000   1.0000000   1.0000000   1.0000000   1.0000000   1.0000000
 Background charge distribution read from input stream:
 Leave Link  101 at Sat Aug 13 20:59:18 2022, MaxMem=  2684354560 cpu:               2.0 elap:               0.2
 (Enter /storage/apps/GAUSSIAN/G16_RevA03/g16/l103.exe)

 GradGradGradGradGradGradGradGradGradGradGradGradGradGradGradGradGradGrad
 Berny optimization.
 Initialization pass.
 Trust Radius=3.00D-01 FncErr=1.00D-07 GrdErr=1.00D-07 EigMax=2.50D+02 EigMin=1.00D-04
 Number of steps in this run=      2 maximum allowed number of steps=      2.
 GradGradGradGradGradGradGradGradGradGradGradGradGradGradGradGradGradGrad

 Leave Link  103 at Sat Aug 13 20:59:18 2022, MaxMem=  2684354560 cpu:               0.4 elap:               0.1
 (Enter /storage/apps/GAUSSIAN/G16_RevA03/g16/l202.exe)
 ---------------------------------------------------------------------------------------------------
                            Z-MATRIX (ANGSTROMS AND DEGREES)
   CD    Cent   Atom    N1       Length/X        N2       Alpha/Y        N3        Beta/Z          J
 ---------------------------------------------------------------------------------------------------
      1      1  C        0   3.571450         -3.628344         -0.381152
      2      2  H        0   3.771507         -3.717596         -1.448407
      3      3  H        0   4.261450         -4.279200          0.156243
      4      4  C        0   1.810231         -1.425763          1.227881
      5      5  H        0   1.149928         -2.280435          1.021953
      6      6  O        0   1.374934         -0.669884          2.292841
      7      7  H        0   0.432982         -0.354655          2.072711
      8      8  C        0   3.243990         -1.905707          1.469121
      9      9  H        0   3.271741         -2.795942          2.105010
     10     10  O        0   3.995012         -0.855384          2.023287
     11     11  H        0   3.412738         -0.406901          2.653648
     12     12  C        0   2.018021         -0.639153         -0.082720
     13     13  H        0   2.290882          0.396043          0.135157
     14     14  C        0   3.754088         -2.192669          0.064584
     15     15  H        0   4.798699         -1.890550         -0.011580
     16     16  O        0   2.995284         -1.316479         -0.802926
     17     17  N        0   0.808630         -0.572646         -0.944111
     18     18  C        0   0.374778         -1.706296         -1.528580
     19     19  H        0   0.983368         -2.582047         -1.363957
     20     20  C        0  -0.752807         -1.695786         -2.306350
     21     21  H        0  -1.082530         -2.610974         -2.774987
     22     22  C        0  -1.436105         -0.498792         -2.494585
     23     23  H        0  -2.302748         -0.460760         -3.141445
     24     24  H        0  -3.207843         -0.735098         -0.902283
     25     25  C        0  -0.971412          0.657862         -1.887890
     26     26  C        0   0.169621          0.584919         -1.105833
     27     27  H        0   0.561261          1.462258         -0.606273
     28     28  C        0  -1.558630          2.018294         -2.126165
     29     29  O        0  -0.858743          3.000836         -2.089154
     30     30  N        0  -2.878177          2.026903         -2.486078
     31     31  H        0  -3.280959          2.951285         -2.533820
     32     32  H        0  -3.466877          1.329537         -2.052191
     33     33  H        0   2.555556         -3.978806         -0.183282
     34     34  C        0   0.068469          2.171775          2.924464
     35     35  C        0  -1.666578          0.873451          1.162433
     36     36  C        0  -2.889037          0.834457          0.563278
     37     37  C        0  -5.056257         -0.349611          0.107348
     38     38  C        0  -3.532065         -0.437960          0.111267
     39     39  O        0  -0.882612         -0.116255          1.353390
     40     40  S        0  -1.090746          2.539776          1.591962
     41     41  H        0   0.270219          3.116940          3.425178
     42     42  H        0   1.001538          1.758324          2.550720
     43     43  H        0  -5.431478         -0.139128          1.109400
     44     44  H        0  -5.400721          0.460064         -0.542661
     45     45  H        0  -5.514101         -1.275233         -0.243976
     46     46  H        0  -3.196238         -1.257674          0.751813
     47     47  H        0  -3.467410          1.750114          0.521678
     48     48  H        0  -0.376795          1.477733          3.634868
 ---------------------------------------------------------------------------------------------------
                         Z-Matrix orientation:                         
 ---------------------------------------------------------------------
 Center     Atomic      Atomic             Coordinates (Angstroms)
 Number     Number       Type             X           Y           Z
 ---------------------------------------------------------------------
      1          6           0        3.571450   -3.628344   -0.381152
      2          1           0        3.771507   -3.717596   -1.448407
      3          1           0        4.261450   -4.279200    0.156243
      4          6           0        1.810231   -1.425763    1.227881
      5          1           0        1.149928   -2.280435    1.021953
      6          8           0        1.374934   -0.669884    2.292841
      7          1           0        0.432982   -0.354655    2.072711
      8          6           0        3.243990   -1.905707    1.469121
      9          1           0        3.271741   -2.795942    2.105010
     10          8           0        3.995012   -0.855384    2.023287
     11          1           0        3.412738   -0.406901    2.653648
     12          6           0        2.018021   -0.639153   -0.082720
     13          1           0        2.290882    0.396043    0.135157
     14          6           0        3.754088   -2.192669    0.064584
     15          1           0        4.798699   -1.890550   -0.011580
     16          8           0        2.995284   -1.316479   -0.802926
     17          7           0        0.808630   -0.572646   -0.944111
     18          6           0        0.374778   -1.706296   -1.528580
     19          1           0        0.983368   -2.582047   -1.363957
     20          6           0       -0.752807   -1.695786   -2.306350
     21          1           0       -1.082530   -2.610974   -2.774987
     22          6           0       -1.436105   -0.498792   -2.494585
     23          1           0       -2.302748   -0.460760   -3.141445
     24          1           0       -3.207843   -0.735098   -0.902283
     25          6           0       -0.971412    0.657862   -1.887890
     26          6           0        0.169621    0.584919   -1.105833
     27          1           0        0.561261    1.462258   -0.606273
     28          6           0       -1.558630    2.018294   -2.126165
     29          8           0       -0.858743    3.000836   -2.089154
     30          7           0       -2.878177    2.026903   -2.486078
     31          1           0       -3.280959    2.951285   -2.533820
     32          1           0       -3.466877    1.329537   -2.052191
     33          1           0        2.555556   -3.978806   -0.183282
     34          6           0        0.068469    2.171775    2.924464
     35          6           0       -1.666578    0.873451    1.162433
     36          6           0       -2.889037    0.834457    0.563278
     37          6           0       -5.056257   -0.349611    0.107348
     38          6           0       -3.532065   -0.437960    0.111267
     39          8           0       -0.882612   -0.116255    1.353390
     40         16           0       -1.090746    2.539776    1.591962
     41          1           0        0.270219    3.116940    3.425178
     42          1           0        1.001538    1.758324    2.550720
     43          1           0       -5.431478   -0.139128    1.109400
     44          1           0       -5.400721    0.460064   -0.542661
     45          1           0       -5.514101   -1.275233   -0.243976
     46          1           0       -3.196238   -1.257674    0.751813
     47          1           0       -3.467410    1.750114    0.521678
     48          1           0       -0.376795    1.477733    3.634868
 ---------------------------------------------------------------------
                    Distance matrix (angstroms):
                    1          2          3          4          5
     1  C    0.000000
     2  H    1.089505   0.000000
     3  H    1.090187   1.769278   0.000000
     4  C    3.246882   4.032570   3.911392   0.000000
     5  H    3.106337   3.878245   3.798169   1.099487   0.000000
     6  O    4.552736   5.387861   5.091580   1.376581   2.063894
     7  H    5.156400   5.903676   5.807932   1.938511   2.307972
     8  C    2.549160   3.474649   2.896954   1.531081   2.173816
     9  H    2.638886   3.704860   2.641452   2.186952   2.437386
    10  O    3.694596   4.504983   3.908882   2.394007   3.335857
    11  H    4.428645   5.283585   4.685301   2.374641   3.360486
    12  C    3.381932   3.796923   4.282525   1.542597   2.160485
    13  H    4.254659   4.649941   5.073606   2.178084   3.041664
    14  C    1.514332   2.148220   2.149286   2.391649   2.775952
    15  H    2.159317   2.541199   2.454068   3.268521   3.812313
    16  O    2.419624   2.604713   3.361681   2.353820   2.768525
    17  N    4.157810   4.350134   5.183752   2.539402   2.626487
    18  C    3.902508   3.948357   4.956277   3.120465   2.726850
    19  H    2.959529   3.011698   3.992137   2.956065   2.410659
    20  C    5.112765   5.029234   6.154768   4.374113   3.878120
    21  H    5.331512   5.152291   6.319273   5.078951   4.416999
    22  C    6.271866   6.210830   7.333519   5.025408   4.714643
    23  H    7.222119   7.097178   8.279126   6.077733   5.706669
    24  H    7.389267   7.609525   8.334955   5.495060   5.008085
    25  C    6.424906   6.467848   7.479031   4.667661   4.647672
    26  C    5.463441   5.621617   6.480398   3.490081   3.701179
    27  H    5.918289   6.151890   6.872930   3.642075   4.123760
    28  C    7.826066   7.859399   8.873621   5.870296   5.977123
    29  O    8.154134   8.184565   9.179167   6.141736   6.450238
    30  N    8.832339   8.848408   9.885498   6.906197   6.861856
    31  H    9.740688   9.766748  10.789082   7.696048   7.723158
    32  H    8.769892   8.844903   9.801130   6.796942   6.617941
    33  H    1.092711   1.774066   1.765103   3.010800   2.512538
    34  C    7.539188   8.217006   8.176748   4.342166   4.960975
    35  C    7.077129   7.580697   7.918570   4.168797   4.230773
    36  C    7.908630   8.314500   8.800263   5.256749   5.121150
    37  C    9.242621   9.575652  10.112553   7.040054   6.563636
    38  C    7.802625   8.156639   8.688845   5.546414   5.113230
    39  O    5.931448   6.517710   6.724927   2.996993   2.987431
    40  S    7.979659   8.487641   8.786679   4.926837   5.346023
    41  H    8.419331   9.095149   9.017691   5.275974   5.973360
    42  H    6.649550   7.324715   7.267203   3.541511   4.320963
    43  H    9.769805  10.200134  10.583079   7.356073   6.921542
    44  H    9.861086  10.119436  10.784556   7.660874   7.271132
    45  H    9.386330   9.676689  10.234520   7.472273   6.857280
    46  H    7.259841   7.709841   8.068546   5.031861   4.473050
    47  H    8.904407   9.283265   9.809253   6.199872   6.149424
    48  H    7.601913   8.368963   8.170461   4.359697   4.825146
                    6          7          8          9         10
     6  O    0.000000
     7  H    1.017399   0.000000
     8  C    2.387288   3.266780   0.000000
     9  H    2.855395   3.744259   1.094369   0.000000
    10  O    2.640431   3.597392   1.405102   2.072574   0.000000
    11  H    2.086142   3.036308   1.917811   2.455280   0.968264
    12  C    2.461259   2.690571   2.348482   3.318089   2.896639
    13  H    2.575026   2.787374   2.825938   3.877006   2.834636
    14  C    3.597830   4.294254   1.521602   2.181728   2.383882
    15  H    4.303783   5.075700   2.147050   2.762479   2.420365
    16  O    3.553504   3.969860   2.360348   3.274344   3.033075
    17  N    3.287554   3.047925   3.678548   4.506340   4.363304
    18  C    4.083836   3.847027   4.154317   4.773123   5.142558
    19  H    4.145101   4.132177   3.687028   4.161266   4.850236
    20  C    5.170330   4.730846   5.502057   6.071855   6.480264
    21  H    5.957335   5.557691   6.101527   6.542802   7.203261
    22  C    5.554337   4.937049   6.292350   6.971154   7.073567
    23  H    6.565100   5.889219   7.356051   8.003330   8.154261
    24  H    5.587031   4.717089   6.972807   7.434776   7.775252
    25  C    4.974612   4.322485   5.967497   6.773209   6.500199
    26  C    3.818153   3.324951   4.720736   5.600257   5.147765
    27  H    3.689574   3.239534   4.779904   5.729749   4.906801
    28  C    5.946403   5.218042   7.168614   8.025721   7.504593
    29  O    6.137213   5.499909   7.319010   8.261631   7.439190
    30  N    6.942599   6.117038   8.281905   9.064183   8.711066
    31  H    7.621474   6.778106   9.065808   9.873563   9.391363
    32  H    6.805889   5.921167   8.240278   8.928094   8.778564
    33  H    4.298141   4.767525   2.738999   2.673643   4.086165
    34  C    3.190740   2.690948   5.369154   5.967468   5.039201
    35  C    3.593118   2.597114   5.650792   6.224138   5.981935
    36  C    4.841062   3.837732   6.778132   7.315184   7.237218
    37  C    6.799939   5.830474   8.553944   8.906781   9.265641
    38  C    5.375099   4.424455   7.064911   7.471738   7.777336
    39  O    2.507107   1.518237   4.499375   5.000430   4.978583
    40  S    4.107642   3.306145   6.210261   6.911179   6.130097
    41  H    4.103976   3.729294   6.156010   6.761224   5.623054
    42  H    2.470247   2.239739   4.429850   5.108211   4.008808
    43  H    6.928887   5.946958   8.860810   9.154011   9.497733
    44  H    7.431444   6.444845   9.185596   9.634487   9.828239
    45  H    7.366186   6.448434   8.946304   9.220700   9.784681
    46  H    4.859617   3.966290   6.512374   6.784701   7.313861
    47  H    5.695762   4.695616   7.701011   8.281891   8.045570
    48  H    3.079261   2.540417   5.408161   5.823794   5.210885
                   11         12         13         14         15
    11  H    0.000000
    12  C    3.080079   0.000000
    13  H    2.871598   1.092499   0.000000
    14  C    3.163659   2.334318   2.974455   0.000000
    15  H    3.350454   3.050119   3.396938   1.090087   0.000000
    16  O    3.598542   1.390148   2.075792   1.447780   2.051363
    17  N    4.444403   1.486285   2.073704   3.509653   4.304316
    18  C    5.329977   2.435067   3.295346   3.767554   4.680418
    19  H    5.174384   2.546942   3.581334   3.141534   4.106561
    20  C    6.604133   3.706547   4.427273   5.116671   6.010251
    21  H    7.384812   4.555194   5.375035   5.624146   6.537911
    22  C    7.072766   4.215185   4.648301   6.029649   6.853837
    23  H    8.139581   5.296854   5.707159   7.068479   7.891192
    24  H    7.522264   5.290609   5.708917   7.178289   8.138374
    25  C    6.401567   3.725265   3.847575   5.853890   6.580967
    26  C    5.063123   2.441658   2.464849   4.683297   5.362248
    27  H    4.717177   2.610016   2.162897   4.899253   5.436070
    28  C    7.310450   4.902053   4.750160   7.124364   7.756685
    29  O    7.235495   5.054806   4.653240   7.272502   7.761998
    30  N    8.480318   6.070975   6.020776   8.264236   8.966828
    31  H    9.110039   6.854074   6.685665   9.094166   9.751202
    32  H    8.514061   6.151314   6.229582   8.308370   9.102351
    33  H    4.641275   3.384130   4.394401   2.165226   3.069525
    34  C    4.231672   4.554693   3.984040   6.388354   6.891873
    35  C    5.446327   4.173086   4.116395   6.323763   7.128661
    36  C    6.754479   5.164113   5.216038   7.317329   8.176638
    37  C    8.843687   7.082752   7.384932   9.001159   9.975409
    38  C    7.395604   5.557118   5.882418   7.494612   8.457348
    39  O    4.497241   3.278644   3.437674   5.241326   6.106436
    40  S    5.485567   4.751272   4.260667   6.942718   7.542194
    41  H    4.784155   5.428480   4.723410   7.184907   7.575843
    42  H    3.242326   3.703531   3.058294   5.419202   5.856457
    43  H    8.982013   7.560834   7.801949   9.470126  10.439377
    44  H    9.415152   7.513824   7.721677   9.550721  10.480248
    45  H    9.425427   7.560652   7.990911   9.318596  10.333754
    46  H    6.929600   5.316720   5.763986   7.046526   8.056198
    47  H    7.518939   6.013638   5.927970   8.240419   9.048058
    48  H    4.344560   4.902735   4.531504   6.578980   7.171308
                   16         17         18         19         20
    16  O    0.000000
    17  N    2.314017   0.000000
    18  C    2.746922   1.347217   0.000000
    19  H    2.442176   2.060218   1.079084   0.000000
    20  C    4.056149   2.356952   1.369848   2.165148   0.000000
    21  H    4.710977   3.329170   2.120311   2.501955   1.079772
    22  C    4.813266   2.729150   2.381287   3.387052   1.391087
    23  H    5.854064   3.810704   3.364794   4.296264   2.150579
    24  H    6.231104   4.019975   3.764392   4.603326   2.986893
    25  C    4.561781   2.360809   2.744189   3.820037   2.400532
    26  C    3.419275   1.332082   2.338904   3.280013   2.737468
    27  H    3.699259   2.077537   3.305323   4.136262   3.819722
    28  C    5.797396   3.703261   4.238838   5.310918   3.804761
    29  O    5.928500   4.106218   4.898256   5.923501   4.702835
    30  N    6.964822   4.767375   5.043341   6.116625   4.290444
    31  H    7.784666   5.627611   6.005662   7.083137   5.295145
    32  H    7.093771   4.808961   4.924303   5.964800   4.072266
    33  H    2.768629   3.902888   3.424897   2.411784   4.545862
    34  C    5.884522   4.800579   5.912940   6.467335   6.556976
    35  C    5.512838   3.557440   4.250151   5.034414   4.412302
    36  C    6.412353   4.233781   4.635060   5.512010   4.381823
    37  C    8.160315   5.962567   5.832066   6.604966   5.114470
    38  C    6.649348   4.469183   4.422804   5.211768   3.892464
    39  O    4.596555   2.889135   3.523494   4.116550   3.988166
    40  S    6.107523   4.441449   5.469431   6.266776   5.766370
    41  H    6.705076   5.744007   6.914785   7.478158   7.553762
    42  H    4.967532   4.205292   5.388609   5.844985   6.212868
    43  H    8.720864   6.583600   6.567158   7.296273   5.998374
    44  H    8.585845   6.307431   6.246722   7.119379   5.418615
    45  H    8.527823   6.400058   6.042758   6.721549   5.205783
    46  H    6.384013   4.402771   4.260705   4.868219   3.938865
    47  H    7.274956   5.082152   5.559922   6.490968   5.219295
    48  H    6.234786   5.155224   6.112618   6.581801   6.746160
                   21         22         23         24         25
    21  H    0.000000
    22  C    2.159850   0.000000
    23  H    2.499329   1.082102   0.000000
    24  H    3.397482   2.393809   2.430700   0.000000
    25  C    3.388890   1.386314   2.143635   2.813073   0.000000
    26  C    3.816764   2.383572   3.368942   3.631961   1.385240
    27  H    4.898631   3.376523   4.281080   4.372887   2.153760
    28  C    4.698698   2.546854   2.780326   3.434961   1.500792
    29  O    5.657991   3.570030   3.895525   4.569916   2.354300
    30  N    4.981739   2.908398   2.636113   3.200896   2.422366
    31  H    5.985815   3.912551   3.601133   4.031957   3.318286
    32  H    4.662099   2.768128   2.397256   2.377416   2.589496
    33  H    4.671570   5.778060   6.688086   6.652471   6.069916
    34  C    7.528826   6.225895   7.024825   5.816195   5.150926
    35  C    5.290142   3.912793   4.550626   3.037430   3.135954
    36  C    5.126254   3.638556   3.968160   2.170947   3.117162
    37  C    5.404824   4.460696   4.260143   2.141165   4.656386
    38  C    4.364937   3.344729   3.477337   1.104850   3.428469
    39  O    4.827741   3.906354   4.726416   3.298140   3.333622
    40  S    6.752817   5.104119   5.733874   4.629056   3.957930
    41  H    8.548741   7.143434   7.908264   6.757369   5.984764
    42  H    7.197031   6.040843   6.945746   5.988261   4.980442
    43  H    6.333390   5.392687   5.287918   3.057221   5.432415
    44  H    5.749898   4.521901   4.147172   2.523183   4.633308
    45  H    5.275324   4.722092   4.401304   2.458443   5.203396
    46  H    4.328683   3.770023   4.073187   1.734720   3.948058
    47  H    5.964456   4.275701   4.434284   2.875990   3.637175
    48  H    7.635563   6.526790   7.306536   5.787676   5.614857
                   26         27         28         29         30
    26  C    0.000000
    27  H    1.082897   0.000000
    28  C    2.466271   2.667056   0.000000
    29  O    2.803767   2.565652   1.206897   0.000000
    30  N    3.643277   3.960079   1.367778   2.276886   0.000000
    31  H    4.421011   4.549208   2.000768   2.463192   1.009453
    32  H    3.830688   4.281844   2.030090   3.097898   1.010517
    33  H    5.231766   5.810448   7.527717   8.000324   8.420028
    34  C    4.332625   3.634881   5.308471   5.165601   6.162603
    35  C    2.932560   2.904872   3.483848   3.968776   4.013733
    36  C    3.493364   3.696828   3.225609   3.981292   3.274235
    37  C    5.445636   5.945472   4.777965   5.802520   4.137355
    38  C    4.028659   4.569574   3.864419   4.879941   3.639962
    39  O    2.765252   2.901164   4.137705   4.644129   4.828760
    40  S    3.562034   2.953373   3.783560   3.717125   4.482004
    41  H    5.191465   4.367525   5.947194   5.629911   6.785538
    42  H    3.929293   3.201266   5.338099   5.151011   6.363463
    43  H    6.066614   6.435906   5.488379   6.403126   4.913095
    44  H    5.600130   6.045963   4.438156   5.429247   3.548955
    45  H    6.042157   6.673465   5.480484   6.584968   4.783223
    46  H    4.263215   4.833345   4.657948   5.627600   4.623153
    47  H    4.151441   4.193486   3.275124   3.896908   3.077402
    48  H    4.854888   4.343670   5.905797   5.942772   6.635095
                   31         32         33         34         35
    31  H    0.000000
    32  H    1.701940   0.000000
    33  H    9.360347   8.242635   0.000000
    34  C    6.451292   6.162397   7.326209   0.000000
    35  C    4.537169   3.712533   6.571283   2.792989   0.000000
    36  C    3.771814   2.723909   7.305371   4.013784   1.361952
    37  C    4.585124   3.163744   8.437726   6.368386   3.754865
    38  C    4.306567   2.794431   7.048651   5.262000   2.510934
    39  O    5.502024   4.512950   5.394595   2.933924   1.276944
    40  S    4.689184   4.515587   7.677169   1.804097   1.814584
    41  H    6.938873   6.867479   8.282111   1.088464   3.728866
    42  H    6.753924   6.429415   6.542507   1.086851   3.135153
    43  H    5.239126   4.001536   8.955829   6.235715   3.899051
    44  H    3.829398   2.602771   9.117843   6.697981   4.125780
    45  H    5.300355   3.774334   8.510720   7.286012   4.625826
    46  H    5.340215   3.824833   6.431337   5.209592   2.655214
    47  H    3.288411   2.608004   8.342279   4.295768   2.102879
    48  H    6.975546   6.474041   7.276728   1.088406   2.853354
                   36         37         38         39         40
    36  C    0.000000
    37  C    2.511321   0.000000
    38  C    1.495608   1.526755   0.000000
    39  O    2.356665   4.361925   2.943801   0.000000
    40  S    2.683310   5.126199   4.125458   2.674834   0.000000
    41  H    4.835401   7.169123   6.170631   4.009348   2.355000
    42  H    4.465426   6.863697   5.597156   2.915076   2.430542
    43  H    2.776711   1.090505   2.166412   4.555462   5.123607
    44  H    2.769806   1.093956   2.173924   4.933605   5.240010
    45  H    3.463151   1.090791   2.180755   5.034431   6.122992
    46  H    2.122953   2.167852   1.093165   2.649075   4.422621
    47  H    1.083824   2.665511   2.227170   3.294884   2.723528
    48  H    4.019929   6.138399   5.103075   2.828744   2.410628
                   41         42         43         44         45
    41  H    0.000000
    42  H    1.773511   0.000000
    43  H    6.962338   6.860133   0.000000
    44  H    7.413656   7.227960   1.757636   0.000000
    45  H    8.137090   7.711442   1.768951   1.764461   0.000000
    46  H    6.188736   5.472991   2.524938   3.079940   2.522775
    47  H    4.926296   4.908011   2.787869   2.556313   3.732009
    48  H    1.774710   1.775925   5.877248   6.612657   7.001155
                   46         47         48
    46  H    0.000000
    47  H    3.028743   0.000000
    48  H    4.872752   4.395230   0.000000
 Stoichiometry    C16H24N2O5S
 Framework group  C1[X(C16H24N2O5S)]
 Deg. of freedom   138
 Full point group                 C1      NOp   1
 Largest Abelian subgroup         C1      NOp   1
 Largest concise Abelian subgroup C1      NOp   1
                         Standard orientation:                         
 ---------------------------------------------------------------------
 Center     Atomic      Atomic             Coordinates (Angstroms)
 Number     Number       Type             X           Y           Z
 ---------------------------------------------------------------------
      1          6           0        4.706325   -1.804352    0.746857
      2          1           0        4.730573   -2.763462    0.230580
      3          1           0        5.701873   -1.597275    1.139936
      4          6           0        2.449189    0.529085    0.695380
      5          1           0        2.231068   -0.113176    1.560709
      6          8           0        1.913362    1.790103    0.828418
      7          1           0        0.909728    1.678748    0.952595
      8          6           0        3.960120    0.616655    0.463803
      9          1           0        4.507329    0.743912    1.402958
     10          8           0        4.229436    1.664073   -0.433246
     11          1           0        3.629428    2.386382   -0.197037
     12          6           0        2.033882   -0.219026   -0.588153
     13          1           0        1.834123    0.491410   -1.393716
     14          6           0        4.284663   -0.708654   -0.209619
     15          1           0        5.040722   -0.550072   -0.978719
     16          8           0        3.066627   -1.100224   -0.887210
     17          7           0        0.797359   -1.030223   -0.439775
     18          6           0        0.836821   -2.120246    0.350975
     19          1           0        1.798333   -2.353140    0.781878
     20          6           0       -0.287845   -2.879305    0.539230
     21          1           0       -0.237564   -3.754924    1.169047
     22          6           0       -1.466287   -2.517629   -0.105431
     23          1           0       -2.353236   -3.129395   -0.005384
     24          1           0       -2.614012   -1.376724    1.658480
     25          6           0       -1.485529   -1.394772   -0.918258
     26          6           0       -0.319688   -0.661086   -1.064584
     27          1           0       -0.293179    0.227942   -1.682316
     28          6           0       -2.664505   -0.990587   -1.754335
     29          8           0       -2.500955   -0.430991   -2.811077
     30          7           0       -3.880561   -1.400532   -1.281081
     31          1           0       -4.664527   -1.026577   -1.795425
     32          1           0       -3.994353   -1.403186   -0.276995
     33          1           0        4.019234   -1.877898    1.593328
     34          6           0       -0.416858    3.613668   -0.365531
     35          6           0       -1.643984    1.318040    0.646910
     36          6           0       -2.796474    0.683738    0.999531
     37          6           0       -4.218541   -0.449917    2.731375
     38          6           0       -2.851460   -0.373552    2.055921
     39          8           0       -0.472818    1.066421    1.089224
     40         16           0       -1.832609    2.540738   -0.680548
     41          1           0       -0.586501    4.522039   -0.940716
     42          1           0        0.518043    3.158774   -0.682194
     43          1           0       -4.462554    0.497531    3.213041
     44          1           0       -5.006708   -0.652394    2.000255
     45          1           0       -4.253929   -1.237930    3.484774
     46          1           0       -2.067881   -0.184831    2.794432
     47          1           0       -3.728060    1.045525    0.580089
     48          1           0       -0.357980    3.864763    0.691878
 ---------------------------------------------------------------------
 Rotational constants (GHZ):           0.3328065           0.1629479           0.1407844
 Leave Link  202 at Sat Aug 13 20:59:18 2022, MaxMem=  2684354560 cpu:               0.4 elap:               0.1
 (Enter /storage/apps/GAUSSIAN/G16_RevA03/g16/l301.exe)
 Standard basis: def2TZVP (5D, 7F)
 Ernie: Thresh=  0.10000D-02 Tol=  0.10000D-05 Strict=F.
 There are  1014 symmetry adapted cartesian basis functions of A   symmetry.
 There are   894 symmetry adapted basis functions of A   symmetry.
   894 basis functions,  1434 primitive gaussians,  1014 cartesian basis functions
    95 alpha electrons       95 beta electrons
       nuclear repulsion energy      2495.5964672041 Hartrees.
 IExCor= 4336 DFT=T Ex+Corr=M062X ExCW=0 ScaHFX=  0.540000
 ScaDFX=  1.000000  1.000000  1.000000  1.000000 ScalE2=  1.000000  1.000000
 IRadAn=      5 IRanWt=     -1 IRanGd=            0 ICorTp=0 IEmpDi=131
 NAtoms=   48 NActive=   48 NUniq=   48 SFac= 1.00D+00 NAtFMM=   60 NAOKFM=F Big=F
 Integral buffers will be    131072 words long.
 Raffenetti 2 integral format.
 Two-electron integral symmetry is turned on.
 R6Disp:  Grimme-D3 Dispersion energy=       -0.0042505786 Hartrees.
 Nuclear repulsion after empirical dispersion term =     2495.5922166255 Hartrees.
 Leave Link  301 at Sat Aug 13 20:59:19 2022, MaxMem=  2684354560 cpu:               1.6 elap:               0.1
 (Enter /storage/apps/GAUSSIAN/G16_RevA03/g16/l302.exe)
 NPDir=0 NMtPBC=     1 NCelOv=     1 NCel=       1 NClECP=     1 NCelD=      1
         NCelK=      1 NCelE2=     1 NClLst=     1 CellRange=     0.0.
 One-electron integrals computed using PRISM.
 One-electron integral symmetry used in STVInt
   1 Symmetry operations used in ECPInt.
 ECPInt:  NShTT=   65703 NPrTT=  200010 LenC2=   56860 LenP2D=  121005.
 LDataN:  DoStor=T MaxTD1= 6 Len=  172
 NBasis=   894 RedAO= T EigKep=  2.03D-05  NBF=   894
 NBsUse=   894 1.00D-06 EigRej= -1.00D+00 NBFU=   894
 Precomputing XC quadrature grid using
 IXCGrd= 4 IRadAn=           5 IRanWt=          -1 IRanGd=           0 AccXCQ= 0.00D+00.
 Generated NRdTot=       0 NPtTot=           0 NUsed=           0 NTot=          32
 NSgBfM=   999   999   999   999   999 MxSgAt=    48 MxSgA2=    48.
 Leave Link  302 at Sat Aug 13 20:59:20 2022, MaxMem=  2684354560 cpu:              18.9 elap:               1.2
 (Enter /storage/apps/GAUSSIAN/G16_RevA03/g16/l303.exe)
 DipDrv:  MaxL=1.
 Leave Link  303 at Sat Aug 13 20:59:20 2022, MaxMem=  2684354560 cpu:               2.1 elap:               0.2
 (Enter /storage/apps/GAUSSIAN/G16_RevA03/g16/l401.exe)
 ExpMin= 9.52D-02 ExpMax= 6.07D+04 ExpMxC= 2.07D+03 IAcc=3 IRadAn=         5 AccDes= 0.00D+00
 Harris functional with IExCor= 1009 and IRadAn=       5 diagonalized for initial guess.
 HarFok:  IExCor= 1009 AccDes= 0.00D+00 IRadAn=         5 IDoV= 1 UseB2=F ITyADJ=14
 ICtDFT=  3500011 ScaDFX=  1.000000  1.000000  1.000000  1.000000
 FoFCou: FMM=F IPFlag=           0 FMFlag=      100000 FMFlg1=           0
         NFxFlg=           0 DoJE=T BraDBF=F KetDBF=T FulRan=T
         wScrn=  0.000000 ICntrl=       500 IOpCl=  0 I1Cent=   200000004 NGrid=           0
         NMat0=    1 NMatS0=      1 NMatT0=    0 NMatD0=    1 NMtDS0=    0 NMtDT0=    0
 Petite list used in FoFCou.
 Harris En= -1507.24626465453    
 JPrj=0 DoOrth=F DoCkMO=F.
 Leave Link  401 at Sat Aug 13 20:59:24 2022, MaxMem=  2684354560 cpu:              60.6 elap:               3.9
 (Enter /storage/apps/GAUSSIAN/G16_RevA03/g16/l502.exe)
 Integral symmetry usage will be decided dynamically.
 Closed shell SCF:
 Using DIIS extrapolation, IDIIS=  1040.
 NGot=  2684354560 LenX=  2682272944 LenY=  2681243734
 Requested convergence on RMS density matrix=1.00D-08 within 128 cycles.
 Requested convergence on MAX density matrix=1.00D-06.
 Requested convergence on             energy=1.00D-06.
 No special actions if energy rises.
 Fock matrices will be formed incrementally for  20 cycles.
 Integral accuracy reduced to 1.0D-05 until final iterations.

 Cycle   1  Pass 0  IDiag  1:
 FoFJK:  IHMeth= 1 ICntrl=       0 DoSepK=F KAlg= 0 I1Cent=           0 FoldK=F
 IRaf= 790000000 NMat=       1 IRICut=       1 DoRegI=T DoRafI=F ISym2E= 0 IDoP0=0 IntGTp=1.
 FoFCou: FMM=F IPFlag=           0 FMFlag=      100000 FMFlg1=           0
         NFxFlg=           0 DoJE=F BraDBF=F KetDBF=F FulRan=T
         wScrn=  0.000000 ICntrl=         0 IOpCl=  0 I1Cent=           0 NGrid=           0
         NMat0=    1 NMatS0=      1 NMatT0=    0 NMatD0=    1 NMtDS0=    0 NMtDT0=    0
 Symmetry not used in FoFCou.
 E= -1507.17316101716    
 DIIS: error= 1.64D-02 at cycle   1 NSaved=   1.
 NSaved= 1 IEnMin= 1 EnMin= -1507.17316101716     IErMin= 1 ErrMin= 1.64D-02
 ErrMax= 1.64D-02  0.00D+00 EMaxC= 1.00D-01 BMatC= 9.90D-01 BMatP= 9.90D-01
 IDIUse=3 WtCom= 8.36D-01 WtEn= 1.64D-01
 Coeff-Com:  0.100D+01
 Coeff-En:   0.100D+01
 Coeff:      0.100D+01
 Gap=     0.179 Goal=   None    Shift=    0.000
 GapD=    0.179 DampG=1.000 DampE=0.500 DampFc=0.5000 IDamp=-1.
 Damping current iteration by 5.00D-01
 RMSDP=4.04D-03 MaxDP=7.36D-01              OVMax= 4.78D-01

 Cycle   2  Pass 0  IDiag  1:
 RMSU=  2.02D-03    CP:  1.01D+00
 E= -1507.49222106042     Delta-E=       -0.319060043261 Rises=F Damp=T
 DIIS: error= 3.43D-03 at cycle   2 NSaved=   2.
 NSaved= 2 IEnMin= 2 EnMin= -1507.49222106042     IErMin= 2 ErrMin= 3.43D-03
 ErrMax= 3.43D-03  0.00D+00 EMaxC= 1.00D-01 BMatC= 9.00D-02 BMatP= 9.90D-01
 IDIUse=3 WtCom= 9.66D-01 WtEn= 3.43D-02
 Coeff-Com: -0.322D-02 0.100D+01
 Coeff-En:   0.820D-01 0.918D+00
 Coeff:     -0.298D-03 0.100D+01
 Gap=     0.174 Goal=   None    Shift=    0.000
 RMSDP=1.37D-03 MaxDP=1.89D-01 DE=-3.19D-01 OVMax= 3.22D-01

 Cycle   3  Pass 0  IDiag  1:
 RMSU=  1.17D-03    CP:  1.00D+00  6.48D-01
 E= -1507.85933904353     Delta-E=       -0.367117983109 Rises=F Damp=F
 DIIS: error= 4.17D-03 at cycle   3 NSaved=   3.
 NSaved= 3 IEnMin= 3 EnMin= -1507.85933904353     IErMin= 2 ErrMin= 3.43D-03
 ErrMax= 4.17D-03  0.00D+00 EMaxC= 1.00D-01 BMatC= 5.27D-02 BMatP= 9.00D-02
 IDIUse=3 WtCom= 9.58D-01 WtEn= 4.17D-02
 Coeff-Com: -0.813D-01 0.452D+00 0.630D+00
 Coeff-En:   0.000D+00 0.000D+00 0.100D+01
 Coeff:     -0.779D-01 0.433D+00 0.645D+00
 Gap=     0.138 Goal=   None    Shift=    0.000
 RMSDP=5.03D-04 MaxDP=3.62D-02 DE=-3.67D-01 OVMax= 8.79D-02

 Cycle   4  Pass 0  IDiag  1:
 RMSU=  3.80D-04    CP:  1.00D+00  7.99D-01  8.92D-01
 E= -1507.90328734392     Delta-E=       -0.043948300392 Rises=F Damp=F
 DIIS: error= 1.18D-03 at cycle   4 NSaved=   4.
 NSaved= 4 IEnMin= 4 EnMin= -1507.90328734392     IErMin= 4 ErrMin= 1.18D-03
 ErrMax= 1.18D-03  0.00D+00 EMaxC= 1.00D-01 BMatC= 6.15D-03 BMatP= 5.27D-02
 IDIUse=3 WtCom= 9.88D-01 WtEn= 1.18D-02
 EnCoef did     1 forward-backward iterations
 Coeff-Com: -0.382D-01 0.101D+00 0.294D+00 0.643D+00
 Coeff-En:   0.000D+00 0.000D+00 0.174D-03 0.100D+01
 Coeff:     -0.377D-01 0.995D-01 0.291D+00 0.647D+00
 Gap=     0.145 Goal=   None    Shift=    0.000
 RMSDP=1.62D-04 MaxDP=2.39D-02 DE=-4.39D-02 OVMax= 2.94D-02

 Cycle   5  Pass 0  IDiag  1:
 RMSU=  1.49D-04    CP:  1.00D+00  7.92D-01  9.40D-01  9.26D-01
 E= -1507.90857365355     Delta-E=       -0.005286309621 Rises=F Damp=F
 DIIS: error= 4.24D-04 at cycle   5 NSaved=   5.
 NSaved= 5 IEnMin= 5 EnMin= -1507.90857365355     IErMin= 5 ErrMin= 4.24D-04
 ErrMax= 4.24D-04  0.00D+00 EMaxC= 1.00D-01 BMatC= 4.19D-04 BMatP= 6.15D-03
 IDIUse=3 WtCom= 9.96D-01 WtEn= 4.24D-03
 Coeff-Com: -0.114D-01 0.207D-01 0.843D-01 0.284D+00 0.623D+00
 Coeff-En:   0.000D+00 0.000D+00 0.000D+00 0.000D+00 0.100D+01
 Coeff:     -0.113D-01 0.206D-01 0.840D-01 0.283D+00 0.624D+00
 Gap=     0.147 Goal=   None    Shift=    0.000
 RMSDP=5.01D-05 MaxDP=4.97D-03 DE=-5.29D-03 OVMax= 6.77D-03

 Cycle   6  Pass 0  IDiag  1:
 RMSU=  4.81D-05    CP:  1.00D+00  7.90D-01  9.41D-01  9.50D-01  9.36D-01
 E= -1507.90897350536     Delta-E=       -0.000399851810 Rises=F Damp=F
 DIIS: error= 1.43D-04 at cycle   6 NSaved=   6.
 NSaved= 6 IEnMin= 6 EnMin= -1507.90897350536     IErMin= 6 ErrMin= 1.43D-04
 ErrMax= 1.43D-04  0.00D+00 EMaxC= 1.00D-01 BMatC= 5.30D-05 BMatP= 4.19D-04
 IDIUse=3 WtCom= 9.99D-01 WtEn= 1.43D-03
 Coeff-Com:  0.494D-05-0.371D-02-0.456D-02 0.398D-01 0.284D+00 0.684D+00
 Coeff-En:   0.000D+00 0.000D+00 0.000D+00 0.000D+00 0.000D+00 0.100D+01
 Coeff:      0.493D-05-0.371D-02-0.455D-02 0.398D-01 0.284D+00 0.685D+00
 Gap=     0.147 Goal=   None    Shift=    0.000
 RMSDP=3.85D-05 MaxDP=6.24D-03 DE=-4.00D-04 OVMax= 5.53D-03

 Cycle   7  Pass 0  IDiag  1:
 RMSU=  1.93D-05    CP:  1.00D+00  7.93D-01  9.47D-01  9.87D-01  1.13D+00
                    CP:  1.02D+00
 E= -1507.90904463091     Delta-E=       -0.000071125554 Rises=F Damp=F
 DIIS: error= 4.68D-05 at cycle   7 NSaved=   7.
 NSaved= 7 IEnMin= 7 EnMin= -1507.90904463091     IErMin= 7 ErrMin= 4.68D-05
 ErrMax= 4.68D-05  0.00D+00 EMaxC= 1.00D-01 BMatC= 4.27D-06 BMatP= 5.30D-05
 IDIUse=1 WtCom= 1.00D+00 WtEn= 0.00D+00
 Coeff-Com:  0.155D-02-0.395D-02-0.144D-01-0.249D-01 0.171D-01 0.208D+00
 Coeff-Com:  0.817D+00
 Coeff:      0.155D-02-0.395D-02-0.144D-01-0.249D-01 0.171D-01 0.208D+00
 Coeff:      0.817D+00
 Gap=     0.147 Goal=   None    Shift=    0.000
 RMSDP=1.60D-05 MaxDP=1.48D-03 DE=-7.11D-05 OVMax= 3.59D-03

 Cycle   8  Pass 0  IDiag  1:
 RMSU=  1.10D-05    CP:  1.00D+00  7.92D-01  9.46D-01  9.99D-01  1.17D+00
                    CP:  1.16D+00  1.23D+00
 E= -1507.90904894843     Delta-E=       -0.000004317517 Rises=F Damp=F
 DIIS: error= 3.03D-05 at cycle   8 NSaved=   8.
 NSaved= 8 IEnMin= 8 EnMin= -1507.90904894843     IErMin= 8 ErrMin= 3.03D-05
 ErrMax= 3.03D-05  0.00D+00 EMaxC= 1.00D-01 BMatC= 1.19D-06 BMatP= 4.27D-06
 IDIUse=1 WtCom= 1.00D+00 WtEn= 0.00D+00
 Coeff-Com:  0.703D-03-0.125D-02-0.661D-02-0.174D-01-0.316D-01-0.110D-01
 Coeff-Com:  0.369D+00 0.698D+00
 Coeff:      0.703D-03-0.125D-02-0.661D-02-0.174D-01-0.316D-01-0.110D-01
 Coeff:      0.369D+00 0.698D+00
 Gap=     0.147 Goal=   None    Shift=    0.000
 RMSDP=1.38D-05 MaxDP=1.02D-03 DE=-4.32D-06 OVMax= 1.98D-03

 Cycle   9  Pass 0  IDiag  1:
 RMSU=  9.82D-06    CP:  1.00D+00  7.91D-01  9.46D-01  1.00D+00  1.20D+00
                    CP:  1.23D+00  1.45D+00  1.64D+00
 E= -1507.90904675068     Delta-E=        0.000002197748 Rises=F Damp=F
 DIIS: error= 1.38D-05 at cycle   9 NSaved=   9.
 NSaved= 9 IEnMin= 8 EnMin= -1507.90904894843     IErMin= 9 ErrMin= 1.38D-05
 ErrMax= 1.38D-05  0.00D+00 EMaxC= 1.00D-01 BMatC= 2.95D-07 BMatP= 1.19D-06
 IDIUse=1 WtCom= 1.00D+00 WtEn= 0.00D+00
 Coeff-Com:  0.182D-03-0.234D-03-0.204D-02-0.591D-02-0.180D-01-0.317D-01
 Coeff-Com:  0.803D-01 0.329D+00 0.649D+00
 Coeff:      0.182D-03-0.234D-03-0.204D-02-0.591D-02-0.180D-01-0.317D-01
 Coeff:      0.803D-01 0.329D+00 0.649D+00
 Gap=     0.147 Goal=   None    Shift=    0.000
 RMSDP=1.83D-05 MaxDP=1.70D-03 DE= 2.20D-06 OVMax= 8.07D-04

 Cycle  10  Pass 0  IDiag  1:
 RMSU=  7.52D-06    CP:  1.00D+00  7.90D-01  9.46D-01  1.00D+00  1.21D+00
                    CP:  1.29D+00  1.60D+00  2.43D+00  2.37D+00
 E= -1507.90904321543     Delta-E=        0.000003535249 Rises=F Damp=F
 DIIS: error= 2.39D-05 at cycle  10 NSaved=  10.
 NSaved=10 IEnMin= 8 EnMin= -1507.90904894843     IErMin= 9 ErrMin= 1.38D-05
 ErrMax= 2.39D-05  0.00D+00 EMaxC= 1.00D-01 BMatC= 3.91D-07 BMatP= 2.95D-07
 IDIUse=1 WtCom= 1.00D+00 WtEn= 0.00D+00
 Coeff-Com:  0.192D-03-0.235D-03-0.215D-02-0.641D-02-0.202D-01-0.371D-01
 Coeff-Com:  0.834D-01 0.366D+00 0.767D+00-0.151D+00
 Coeff:      0.192D-03-0.235D-03-0.215D-02-0.641D-02-0.202D-01-0.371D-01
 Coeff:      0.834D-01 0.366D+00 0.767D+00-0.151D+00
 Gap=     0.147 Goal=   None    Shift=    0.000
 RMSDP=6.17D-06 MaxDP=6.62D-04 DE= 3.54D-06 OVMax= 5.39D-05

 Initial convergence to 1.0D-05 achieved.  Increase integral accuracy.
 Cycle  11  Pass 1  IDiag  1:
 E= -1507.90894522879     Delta-E=        0.000097986642 Rises=F Damp=F
 DIIS: error= 3.25D-04 at cycle   1 NSaved=   1.
 NSaved= 1 IEnMin= 1 EnMin= -1507.90894522879     IErMin= 1 ErrMin= 3.25D-04
 ErrMax= 3.25D-04  0.00D+00 EMaxC= 1.00D-01 BMatC= 9.49D-05 BMatP= 9.49D-05
 IDIUse=3 WtCom= 9.97D-01 WtEn= 3.25D-03
 Coeff-Com:  0.100D+01
 Coeff-En:   0.100D+01
 Coeff:      0.100D+01
 Gap=     0.147 Goal=   None    Shift=    0.000
 RMSDP=6.17D-06 MaxDP=6.62D-04 DE= 9.80D-05 OVMax= 9.47D-04

 Cycle  12  Pass 1  IDiag  1:
 RMSU=  5.65D-04    CP:  9.90D-01
 E= -1507.90900652549     Delta-E=       -0.000061296706 Rises=F Damp=F
 DIIS: error= 1.01D-05 at cycle   2 NSaved=   2.
 NSaved= 2 IEnMin= 2 EnMin= -1507.90900652549     IErMin= 2 ErrMin= 1.01D-05
 ErrMax= 1.01D-05  0.00D+00 EMaxC= 1.00D-01 BMatC= 1.31D-07 BMatP= 9.49D-05
 IDIUse=1 WtCom= 1.00D+00 WtEn= 0.00D+00
 Coeff-Com: -0.159D-01 0.102D+01
 Coeff:     -0.159D-01 0.102D+01
 Gap=     0.147 Goal=   None    Shift=    0.000
 RMSDP=2.12D-05 MaxDP=1.74D-03 DE=-6.13D-05 OVMax= 3.20D-04

 Cycle  13  Pass 1  IDiag  1:
 RMSU=  8.21D-06    CP:  9.90D-01  1.03D+00
 E= -1507.90900657027     Delta-E=       -0.000000044780 Rises=F Damp=F
 DIIS: error= 1.12D-05 at cycle   3 NSaved=   3.
 NSaved= 3 IEnMin= 3 EnMin= -1507.90900657027     IErMin= 2 ErrMin= 1.01D-05
 ErrMax= 1.12D-05  0.00D+00 EMaxC= 1.00D-01 BMatC= 1.63D-07 BMatP= 1.31D-07
 IDIUse=1 WtCom= 1.00D+00 WtEn= 0.00D+00
 Coeff-Com: -0.983D-02 0.567D+00 0.443D+00
 Coeff:     -0.983D-02 0.567D+00 0.443D+00
 Gap=     0.147 Goal=   None    Shift=    0.000
 RMSDP=7.73D-07 MaxDP=8.30D-05 DE=-4.48D-08 OVMax= 9.60D-05

 Cycle  14  Pass 1  IDiag  1:
 RMSU=  6.89D-07    CP:  9.90D-01  1.04D+00  1.02D+00
 E= -1507.90900672102     Delta-E=       -0.000000150741 Rises=F Damp=F
 DIIS: error= 2.14D-06 at cycle   4 NSaved=   4.
 NSaved= 4 IEnMin= 4 EnMin= -1507.90900672102     IErMin= 4 ErrMin= 2.14D-06
 ErrMax= 2.14D-06  0.00D+00 EMaxC= 1.00D-01 BMatC= 5.06D-09 BMatP= 1.31D-07
 IDIUse=1 WtCom= 1.00D+00 WtEn= 0.00D+00
 Coeff-Com: -0.129D-02 0.625D-01 0.143D+00 0.796D+00
 Coeff:     -0.129D-02 0.625D-01 0.143D+00 0.796D+00
 Gap=     0.147 Goal=   None    Shift=    0.000
 RMSDP=4.97D-07 MaxDP=4.18D-05 DE=-1.51D-07 OVMax= 9.30D-05

 Cycle  15  Pass 1  IDiag  1:
 RMSU=  2.81D-07    CP:  9.90D-01  1.04D+00  1.05D+00  1.05D+00
 E= -1507.90900672995     Delta-E=       -0.000000008932 Rises=F Damp=F
 DIIS: error= 8.81D-07 at cycle   5 NSaved=   5.
 NSaved= 5 IEnMin= 5 EnMin= -1507.90900672995     IErMin= 5 ErrMin= 8.81D-07
 ErrMax= 8.81D-07  0.00D+00 EMaxC= 1.00D-01 BMatC= 1.78D-09 BMatP= 5.06D-09
 IDIUse=1 WtCom= 1.00D+00 WtEn= 0.00D+00
 Coeff-Com:  0.764D-03-0.506D-01 0.995D-02 0.425D+00 0.615D+00
 Coeff:      0.764D-03-0.506D-01 0.995D-02 0.425D+00 0.615D+00
 Gap=     0.147 Goal=   None    Shift=    0.000
 RMSDP=1.95D-07 MaxDP=1.82D-05 DE=-8.93D-09 OVMax= 5.40D-05

 Cycle  16  Pass 1  IDiag  1:
 RMSU=  1.26D-07    CP:  9.90D-01  1.04D+00  1.07D+00  1.14D+00  1.25D+00
 E= -1507.90900673311     Delta-E=       -0.000000003167 Rises=F Damp=F
 DIIS: error= 3.95D-07 at cycle   6 NSaved=   6.
 NSaved= 6 IEnMin= 6 EnMin= -1507.90900673311     IErMin= 6 ErrMin= 3.95D-07
 ErrMax= 3.95D-07  0.00D+00 EMaxC= 1.00D-01 BMatC= 1.99D-10 BMatP= 1.78D-09
 IDIUse=1 WtCom= 1.00D+00 WtEn= 0.00D+00
 Coeff-Com:  0.486D-03-0.289D-01-0.196D-01 0.372D-01 0.233D+00 0.778D+00
 Coeff:      0.486D-03-0.289D-01-0.196D-01 0.372D-01 0.233D+00 0.778D+00
 Gap=     0.147 Goal=   None    Shift=    0.000
 RMSDP=1.05D-07 MaxDP=1.40D-05 DE=-3.17D-09 OVMax= 3.63D-05

 Cycle  17  Pass 1  IDiag  1:
 RMSU=  5.15D-08    CP:  9.90D-01  1.04D+00  1.07D+00  1.19D+00  1.50D+00
                    CP:  1.30D+00
 E= -1507.90900673391     Delta-E=       -0.000000000800 Rises=F Damp=F
 DIIS: error= 2.19D-07 at cycle   7 NSaved=   7.
 NSaved= 7 IEnMin= 7 EnMin= -1507.90900673391     IErMin= 7 ErrMin= 2.19D-07
 ErrMax= 2.19D-07  0.00D+00 EMaxC= 1.00D-01 BMatC= 6.00D-11 BMatP= 1.99D-10
 IDIUse=1 WtCom= 1.00D+00 WtEn= 0.00D+00
 Coeff-Com: -0.482D-04 0.479D-02-0.138D-01-0.140D+00-0.104D+00 0.395D+00
 Coeff-Com:  0.858D+00
 Coeff:     -0.482D-04 0.479D-02-0.138D-01-0.140D+00-0.104D+00 0.395D+00
 Coeff:      0.858D+00
 Gap=     0.147 Goal=   None    Shift=    0.000
 RMSDP=8.28D-08 MaxDP=1.14D-05 DE=-8.00D-10 OVMax= 2.87D-05

 Cycle  18  Pass 1  IDiag  1:
 RMSU=  2.33D-08    CP:  9.90D-01  1.04D+00  1.07D+00  1.23D+00  1.68D+00
                    CP:  1.64D+00  1.55D+00
 E= -1507.90900673419     Delta-E=       -0.000000000279 Rises=F Damp=F
 DIIS: error= 5.55D-08 at cycle   8 NSaved=   8.
 NSaved= 8 IEnMin= 8 EnMin= -1507.90900673419     IErMin= 8 ErrMin= 5.55D-08
 ErrMax= 5.55D-08  0.00D+00 EMaxC= 1.00D-01 BMatC= 5.47D-12 BMatP= 6.00D-11
 IDIUse=1 WtCom= 1.00D+00 WtEn= 0.00D+00
 Coeff-Com: -0.692D-04 0.492D-02-0.381D-02-0.601D-01-0.654D-01 0.889D-01
 Coeff-Com:  0.358D+00 0.678D+00
 Coeff:     -0.692D-04 0.492D-02-0.381D-02-0.601D-01-0.654D-01 0.889D-01
 Coeff:      0.358D+00 0.678D+00
 Gap=     0.147 Goal=   None    Shift=    0.000
 RMSDP=1.66D-08 MaxDP=2.54D-06 DE=-2.79D-10 OVMax= 5.41D-06

 Cycle  19  Pass 1  IDiag  1:
 RMSU=  5.99D-09    CP:  9.90D-01  1.04D+00  1.07D+00  1.23D+00  1.70D+00
                    CP:  1.71D+00  1.71D+00  1.13D+00
 E= -1507.90900673423     Delta-E=       -0.000000000035 Rises=F Damp=F
 DIIS: error= 1.52D-08 at cycle   9 NSaved=   9.
 NSaved= 9 IEnMin= 9 EnMin= -1507.90900673423     IErMin= 9 ErrMin= 1.52D-08
 ErrMax= 1.52D-08  0.00D+00 EMaxC= 1.00D-01 BMatC= 6.41D-13 BMatP= 5.47D-12
 IDIUse=1 WtCom= 1.00D+00 WtEn= 0.00D+00
 Coeff-Com: -0.191D-04 0.116D-02 0.424D-03-0.333D-02-0.104D-01-0.249D-01
 Coeff-Com:  0.386D-02 0.239D+00 0.795D+00
 Coeff:     -0.191D-04 0.116D-02 0.424D-03-0.333D-02-0.104D-01-0.249D-01
 Coeff:      0.386D-02 0.239D+00 0.795D+00
 Gap=     0.147 Goal=   None    Shift=    0.000
 RMSDP=7.16D-09 MaxDP=1.10D-06 DE=-3.46D-11 OVMax= 2.13D-06

 Cycle  20  Pass 1  IDiag  1:
 RMSU=  2.49D-09    CP:  9.90D-01  1.04D+00  1.07D+00  1.24D+00  1.71D+00
                    CP:  1.74D+00  1.79D+00  1.23D+00  1.06D+00
 E= -1507.90900673422     Delta-E=        0.000000000007 Rises=F Damp=F
 DIIS: error= 6.95D-09 at cycle  10 NSaved=  10.
 NSaved=10 IEnMin= 9 EnMin= -1507.90900673423     IErMin=10 ErrMin= 6.95D-09
 ErrMax= 6.95D-09  0.00D+00 EMaxC= 1.00D-01 BMatC= 1.65D-13 BMatP= 6.41D-13
 IDIUse=1 WtCom= 1.00D+00 WtEn= 0.00D+00
 Coeff-Com:  0.175D-05-0.227D-03 0.838D-03 0.816D-02 0.624D-02-0.250D-01
 Coeff-Com: -0.556D-01 0.103D-01 0.401D+00 0.654D+00
 Coeff:      0.175D-05-0.227D-03 0.838D-03 0.816D-02 0.624D-02-0.250D-01
 Coeff:     -0.556D-01 0.103D-01 0.401D+00 0.654D+00
 Gap=     0.147 Goal=   None    Shift=    0.000
 RMSDP=1.70D-09 MaxDP=3.32D-07 DE= 7.28D-12 OVMax= 4.40D-07

 SCF Done:  E(RM062X) =  -1507.90900673     A.U. after   20 cycles
            NFock= 20  Conv=0.17D-08     -V/T= 2.0037
 KE= 1.502290907187D+03 PE=-8.528688299160D+03 EE= 3.022896168613D+03
 Leave Link  502 at Sat Aug 13 21:09:02 2022, MaxMem=  2684354560 cpu:            9229.7 elap:             577.8
 (Enter /storage/apps/GAUSSIAN/G16_RevA03/g16/l601.exe)
 Copying SCF densities to generalized density rwf, IOpCl= 0 IROHF=0.

 **********************************************************************

            Population analysis using the SCF density.

 **********************************************************************

 Orbital symmetries:
       Occupied  (A) (A) (A) (A) (A) (A) (A) (A) (A) (A) (A) (A)
                 (A) (A) (A) (A) (A) (A) (A) (A) (A) (A) (A) (A)
                 (A) (A) (A) (A) (A) (A) (A) (A) (A) (A) (A) (A)
                 (A) (A) (A) (A) (A) (A) (A) (A) (A) (A) (A) (A)
                 (A) (A) (A) (A) (A) (A) (A) (A) (A) (A) (A) (A)
                 (A) (A) (A) (A) (A) (A) (A) (A) (A) (A) (A) (A)
                 (A) (A) (A) (A) (A) (A) (A) (A) (A) (A) (A) (A)
                 (A) (A) (A) (A) (A) (A) (A) (A) (A) (A) (A)
       Virtual   (A) (A) (A) (A) (A) (A) (A) (A) (A) (A) (A) (A)
                 (A) (A) (A) (A) (A) (A) (A) (A) (A) (A) (A) (A)
                 (A) (A) (A) (A) (A) (A) (A) (A) (A) (A) (A) (A)
                 (A) (A) (A) (A) (A) (A) (A) (A) (A) (A) (A) (A)
                 (A) (A) (A) (A) (A) (A) (A) (A) (A) (A) (A) (A)
                 (A) (A) (A) (A) (A) (A) (A) (A) (A) (A) (A) (A)
                 (A) (A) (A) (A) (A) (A) (A) (A) (A) (A) (A) (A)
                 (A) (A) (A) (A) (A) (A) (A) (A) (A) (A) (A) (A)
                 (A) (A) (A) (A) (A) (A) (A) (A) (A) (A) (A) (A)
                 (A) (A) (A) (A) (A) (A) (A) (A) (A) (A) (A) (A)
                 (A) (A) (A) (A) (A) (A) (A) (A) (A) (A) (A) (A)
                 (A) (A) (A) (A) (A) (A) (A) (A) (A) (A) (A) (A)
                 (A) (A) (A) (A) (A) (A) (A) (A) (A) (A) (A) (A)
                 (A) (A) (A) (A) (A) (A) (A) (A) (A) (A) (A) (A)
                 (A) (A) (A) (A) (A) (A) (A) (A) (A) (A) (A) (A)
                 (A) (A) (A) (A) (A) (A) (A) (A) (A) (A) (A) (A)
                 (A) (A) (A) (A) (A) (A) (A) (A) (A) (A) (A) (A)
                 (A) (A) (A) (A) (A) (A) (A) (A) (A) (A) (A) (A)
                 (A) (A) (A) (A) (A) (A) (A) (A) (A) (A) (A) (A)
                 (A) (A) (A) (A) (A) (A) (A) (A) (A) (A) (A) (A)
                 (A) (A) (A) (A) (A) (A) (A) (A) (A) (A) (A) (A)
                 (A) (A) (A) (A) (A) (A) (A) (A) (A) (A) (A) (A)
                 (A) (A) (A) (A) (A) (A) (A) (A) (A) (A) (A) (A)
                 (A) (A) (A) (A) (A) (A) (A) (A) (A) (A) (A) (A)
                 (A) (A) (A) (A) (A) (A) (A) (A) (A) (A) (A) (A)
                 (A) (A) (A) (A) (A) (A) (A) (A) (A) (A) (A) (A)
                 (A) (A) (A) (A) (A) (A) (A) (A) (A) (A) (A) (A)
                 (A) (A) (A) (A) (A) (A) (A) (A) (A) (A) (A) (A)
                 (A) (A) (A) (A) (A) (A) (A) (A) (A) (A) (A) (A)
                 (A) (A) (A) (A) (A) (A) (A) (A) (A) (A) (A) (A)
                 (A) (A) (A) (A) (A) (A) (A) (A) (A) (A) (A) (A)
                 (A) (A) (A) (A) (A) (A) (A) (A) (A) (A) (A) (A)
                 (A) (A) (A) (A) (A) (A) (A) (A) (A) (A) (A) (A)
                 (A) (A) (A) (A) (A) (A) (A) (A) (A) (A) (A) (A)
                 (A) (A) (A) (A) (A) (A) (A) (A) (A) (A) (A) (A)
                 (A) (A) (A) (A) (A) (A) (A) (A) (A) (A) (A) (A)
                 (A) (A) (A) (A) (A) (A) (A) (A) (A) (A) (A) (A)
                 (A) (A) (A) (A) (A) (A) (A) (A) (A) (A) (A) (A)
                 (A) (A) (A) (A) (A) (A) (A) (A) (A) (A) (A) (A)
                 (A) (A) (A) (A) (A) (A) (A) (A) (A) (A) (A) (A)
                 (A) (A) (A) (A) (A) (A) (A) (A) (A) (A) (A) (A)
                 (A) (A) (A) (A) (A) (A) (A) (A) (A) (A) (A) (A)
                 (A) (A) (A) (A) (A) (A) (A) (A) (A) (A) (A) (A)
                 (A) (A) (A) (A) (A) (A) (A) (A) (A) (A) (A) (A)
                 (A) (A) (A) (A) (A) (A) (A) (A) (A) (A) (A) (A)
                 (A) (A) (A) (A) (A) (A) (A) (A) (A) (A) (A) (A)
                 (A) (A) (A) (A) (A) (A) (A) (A) (A) (A) (A) (A)
                 (A) (A) (A) (A) (A) (A) (A) (A) (A) (A) (A) (A)
                 (A) (A) (A) (A) (A) (A) (A) (A) (A) (A) (A) (A)
                 (A) (A) (A) (A) (A) (A) (A) (A) (A) (A) (A) (A)
                 (A) (A) (A) (A) (A) (A) (A) (A) (A) (A) (A) (A)
                 (A) (A) (A) (A) (A) (A) (A) (A) (A) (A) (A) (A)
                 (A) (A) (A) (A) (A) (A) (A) (A) (A) (A) (A) (A)
                 (A) (A) (A) (A) (A) (A) (A) (A) (A) (A) (A) (A)
                 (A) (A) (A) (A) (A) (A) (A) (A) (A) (A) (A) (A)
                 (A) (A) (A) (A) (A) (A) (A) (A) (A) (A) (A) (A)
                 (A) (A) (A) (A) (A) (A) (A) (A) (A) (A) (A) (A)
                 (A) (A) (A) (A) (A) (A) (A) (A) (A) (A) (A) (A)
                 (A) (A) (A) (A) (A) (A) (A) (A) (A) (A) (A) (A)
                 (A) (A) (A) (A) (A) (A) (A) (A) (A) (A) (A) (A)
                 (A) (A) (A) (A) (A) (A) (A) (A) (A) (A) (A) (A)
                 (A) (A) (A) (A) (A) (A) (A) (A) (A) (A) (A) (A)
                 (A) (A) (A) (A) (A) (A) (A) (A) (A) (A) (A) (A)
                 (A) (A) (A) (A) (A) (A) (A) (A) (A) (A) (A) (A)
                 (A) (A) (A) (A) (A) (A) (A) (A) (A) (A) (A) (A)
                 (A) (A) (A) (A) (A) (A) (A) (A) (A) (A) (A) (A)
                 (A) (A) (A) (A) (A) (A) (A)
 The electronic state is 1-A.
 Alpha  occ. eigenvalues --  -89.86512 -19.66688 -19.63096 -19.61514 -19.61076
 Alpha  occ. eigenvalues --  -19.56406 -14.88494 -14.77793 -10.66763 -10.66397
 Alpha  occ. eigenvalues --  -10.64487 -10.64251 -10.61252 -10.61174 -10.60970
 Alpha  occ. eigenvalues --  -10.60362 -10.60283 -10.60117 -10.58389 -10.55270
 Alpha  occ. eigenvalues --  -10.53372 -10.52181 -10.51738 -10.48713  -8.22405
 Alpha  occ. eigenvalues --   -6.14374  -6.14155  -6.13877  -1.22654  -1.18778
 Alpha  occ. eigenvalues --   -1.16984  -1.15933  -1.13608  -1.09685  -1.03299
 Alpha  occ. eigenvalues --   -0.98168  -0.93643  -0.90798  -0.87926  -0.87327
 Alpha  occ. eigenvalues --   -0.85068  -0.81625  -0.81064  -0.78716  -0.77133
 Alpha  occ. eigenvalues --   -0.73234  -0.71408  -0.70003  -0.69128  -0.67239
 Alpha  occ. eigenvalues --   -0.65879  -0.64051  -0.62964  -0.62632  -0.61420
 Alpha  occ. eigenvalues --   -0.60027  -0.58296  -0.58048  -0.57521  -0.56160
 Alpha  occ. eigenvalues --   -0.56066  -0.54351  -0.53494  -0.52486  -0.51877
 Alpha  occ. eigenvalues --   -0.51559  -0.50886  -0.50042  -0.49785  -0.49048
 Alpha  occ. eigenvalues --   -0.48733  -0.48011  -0.47866  -0.47074  -0.45829
 Alpha  occ. eigenvalues --   -0.45637  -0.45509  -0.44660  -0.43319  -0.43125
 Alpha  occ. eigenvalues --   -0.42284  -0.40172  -0.39604  -0.38719  -0.38050
 Alpha  occ. eigenvalues --   -0.37811  -0.37269  -0.36831  -0.36568  -0.36177
 Alpha  occ. eigenvalues --   -0.34960  -0.34246  -0.29063  -0.27441  -0.21570
 Alpha virt. eigenvalues --   -0.06911  -0.04311   0.03886   0.04674   0.04956
 Alpha virt. eigenvalues --    0.06387   0.07108   0.07326   0.08094   0.08632
 Alpha virt. eigenvalues --    0.09383   0.09753   0.10355   0.11115   0.11385
 Alpha virt. eigenvalues --    0.11472   0.11811   0.12508   0.13078   0.13106
 Alpha virt. eigenvalues --    0.13484   0.13985   0.14190   0.14474   0.15150
 Alpha virt. eigenvalues --    0.15383   0.15657   0.16001   0.16575   0.16759
 Alpha virt. eigenvalues --    0.17237   0.17727   0.18588   0.18896   0.19250
 Alpha virt. eigenvalues --    0.20112   0.20840   0.21333   0.21533   0.21963
 Alpha virt. eigenvalues --    0.22450   0.22801   0.23389   0.23950   0.24267
 Alpha virt. eigenvalues --    0.24589   0.24871   0.25435   0.25581   0.26118
 Alpha virt. eigenvalues --    0.26444   0.26812   0.27742   0.28136   0.28432
 Alpha virt. eigenvalues --    0.29269   0.29517   0.29846   0.30287   0.31175
 Alpha virt. eigenvalues --    0.31766   0.31981   0.32633   0.33075   0.33913
 Alpha virt. eigenvalues --    0.33970   0.34445   0.34823   0.35951   0.36030
 Alpha virt. eigenvalues --    0.36105   0.36744   0.37442   0.37821   0.38187
 Alpha virt. eigenvalues --    0.38290   0.38946   0.39324   0.39649   0.40100
 Alpha virt. eigenvalues --    0.40280   0.40880   0.41262   0.41577   0.42005
 Alpha virt. eigenvalues --    0.42238   0.42916   0.43106   0.43649   0.44015
 Alpha virt. eigenvalues --    0.44226   0.44411   0.44961   0.45248   0.45636
 Alpha virt. eigenvalues --    0.45969   0.46344   0.46808   0.47306   0.47375
 Alpha virt. eigenvalues --    0.47578   0.48250   0.48380   0.48606   0.48927
 Alpha virt. eigenvalues --    0.49549   0.49762   0.49988   0.50303   0.51082
 Alpha virt. eigenvalues --    0.51134   0.51771   0.52050   0.52512   0.53034
 Alpha virt. eigenvalues --    0.53678   0.53865   0.54309   0.54431   0.55049
 Alpha virt. eigenvalues --    0.55671   0.55874   0.56241   0.56387   0.57010
 Alpha virt. eigenvalues --    0.57417   0.58535   0.58612   0.58831   0.59224
 Alpha virt. eigenvalues --    0.60527   0.60812   0.61516   0.61996   0.62636
 Alpha virt. eigenvalues --    0.62842   0.63132   0.63855   0.64270   0.64895
 Alpha virt. eigenvalues --    0.65652   0.66115   0.66802   0.67298   0.67462
 Alpha virt. eigenvalues --    0.67854   0.68177   0.68867   0.69613   0.70625
 Alpha virt. eigenvalues --    0.70776   0.71433   0.72232   0.72626   0.73485
 Alpha virt. eigenvalues --    0.73786   0.74592   0.74913   0.76171   0.77055
 Alpha virt. eigenvalues --    0.77527   0.77918   0.78695   0.79533   0.80088
 Alpha virt. eigenvalues --    0.80527   0.81076   0.82469   0.83263   0.83751
 Alpha virt. eigenvalues --    0.84706   0.85151   0.86050   0.86496   0.87165
 Alpha virt. eigenvalues --    0.88194   0.88644   0.89298   0.89489   0.90194
 Alpha virt. eigenvalues --    0.90344   0.90942   0.91680   0.92498   0.92875
 Alpha virt. eigenvalues --    0.93720   0.94063   0.94662   0.95599   0.96183
 Alpha virt. eigenvalues --    0.96561   0.97366   0.97625   0.98049   0.99029
 Alpha virt. eigenvalues --    0.99925   1.00262   1.01474   1.01568   1.02501
 Alpha virt. eigenvalues --    1.03807   1.04151   1.05366   1.05700   1.06507
 Alpha virt. eigenvalues --    1.07460   1.07900   1.08610   1.08983   1.09473
 Alpha virt. eigenvalues --    1.10489   1.11443   1.11783   1.12671   1.12959
 Alpha virt. eigenvalues --    1.14147   1.14479   1.15402   1.15921   1.16735
 Alpha virt. eigenvalues --    1.17932   1.18251   1.18779   1.19321   1.20020
 Alpha virt. eigenvalues --    1.21328   1.21565   1.22709   1.23245   1.24933
 Alpha virt. eigenvalues --    1.25205   1.25613   1.25906   1.26815   1.27997
 Alpha virt. eigenvalues --    1.28305   1.28873   1.28982   1.29372   1.31092
 Alpha virt. eigenvalues --    1.31520   1.31890   1.33356   1.34207   1.34423
 Alpha virt. eigenvalues --    1.35132   1.36390   1.36918   1.38819   1.39261
 Alpha virt. eigenvalues --    1.40386   1.40994   1.42242   1.42418   1.44164
 Alpha virt. eigenvalues --    1.44897   1.45448   1.46212   1.48018   1.48822
 Alpha virt. eigenvalues --    1.50113   1.51060   1.52092   1.52693   1.53177
 Alpha virt. eigenvalues --    1.53871   1.54299   1.54732   1.55786   1.55999
 Alpha virt. eigenvalues --    1.56539   1.56818   1.57384   1.57818   1.58920
 Alpha virt. eigenvalues --    1.59409   1.59880   1.60182   1.60467   1.60735
 Alpha virt. eigenvalues --    1.61148   1.61560   1.62197   1.63076   1.63331
 Alpha virt. eigenvalues --    1.63552   1.63877   1.64378   1.64682   1.65483
 Alpha virt. eigenvalues --    1.66086   1.66723   1.66844   1.68031   1.68326
 Alpha virt. eigenvalues --    1.69190   1.70178   1.70830   1.71372   1.71652
 Alpha virt. eigenvalues --    1.72593   1.73171   1.73423   1.74139   1.74651
 Alpha virt. eigenvalues --    1.75209   1.76223   1.76907   1.77350   1.77479
 Alpha virt. eigenvalues --    1.78508   1.78704   1.78996   1.80158   1.80600
 Alpha virt. eigenvalues --    1.81416   1.82365   1.83848   1.84687   1.85720
 Alpha virt. eigenvalues --    1.86165   1.86362   1.87372   1.88502   1.88659
 Alpha virt. eigenvalues --    1.89830   1.90113   1.90480   1.91251   1.91603
 Alpha virt. eigenvalues --    1.92257   1.92405   1.93332   1.93935   1.95015
 Alpha virt. eigenvalues --    1.95499   1.95894   1.96986   1.97282   1.98009
 Alpha virt. eigenvalues --    1.98795   1.99308   2.00257   2.01689   2.01779
 Alpha virt. eigenvalues --    2.02620   2.03108   2.04136   2.04974   2.05479
 Alpha virt. eigenvalues --    2.06184   2.06464   2.06896   2.07702   2.08608
 Alpha virt. eigenvalues --    2.09323   2.10501   2.11722   2.12467   2.13690
 Alpha virt. eigenvalues --    2.14616   2.14861   2.15571   2.16105   2.16610
 Alpha virt. eigenvalues --    2.17440   2.17982   2.18615   2.18977   2.19877
 Alpha virt. eigenvalues --    2.20449   2.20700   2.21990   2.22298   2.22508
 Alpha virt. eigenvalues --    2.22923   2.23771   2.24629   2.25461   2.25985
 Alpha virt. eigenvalues --    2.26715   2.27582   2.28276   2.28815   2.30116
 Alpha virt. eigenvalues --    2.30664   2.32122   2.32901   2.33143   2.33612
 Alpha virt. eigenvalues --    2.33802   2.34803   2.35261   2.35642   2.36373
 Alpha virt. eigenvalues --    2.37448   2.38109   2.38463   2.38587   2.39588
 Alpha virt. eigenvalues --    2.40407   2.40930   2.42663   2.42854   2.44003
 Alpha virt. eigenvalues --    2.44480   2.44588   2.45555   2.46122   2.47026
 Alpha virt. eigenvalues --    2.48100   2.48817   2.49837   2.50925   2.52324
 Alpha virt. eigenvalues --    2.52485   2.53674   2.54398   2.55077   2.56196
 Alpha virt. eigenvalues --    2.57021   2.57460   2.58095   2.58791   2.59203
 Alpha virt. eigenvalues --    2.59805   2.60308   2.60715   2.61016   2.61911
 Alpha virt. eigenvalues --    2.62084   2.62832   2.63011   2.64320   2.64976
 Alpha virt. eigenvalues --    2.65795   2.66400   2.67002   2.67147   2.67785
 Alpha virt. eigenvalues --    2.68587   2.69030   2.69512   2.70116   2.70659
 Alpha virt. eigenvalues --    2.71108   2.71814   2.72394   2.73014   2.73793
 Alpha virt. eigenvalues --    2.74351   2.75153   2.75975   2.76338   2.77181
 Alpha virt. eigenvalues --    2.78879   2.79342   2.79673   2.80612   2.80990
 Alpha virt. eigenvalues --    2.81809   2.82101   2.82830   2.83163   2.84063
 Alpha virt. eigenvalues --    2.84847   2.85316   2.85398   2.86330   2.87036
 Alpha virt. eigenvalues --    2.88284   2.88857   2.90048   2.90658   2.92251
 Alpha virt. eigenvalues --    2.92474   2.93339   2.94127   2.94616   2.95513
 Alpha virt. eigenvalues --    2.96543   2.97541   2.97809   2.98557   2.98758
 Alpha virt. eigenvalues --    3.00138   3.01087   3.01377   3.01878   3.02972
 Alpha virt. eigenvalues --    3.03499   3.04117   3.05117   3.05861   3.06528
 Alpha virt. eigenvalues --    3.07437   3.08226   3.08782   3.09528   3.09876
 Alpha virt. eigenvalues --    3.10838   3.11195   3.11365   3.11746   3.12546
 Alpha virt. eigenvalues --    3.13032   3.13697   3.13861   3.13962   3.14789
 Alpha virt. eigenvalues --    3.15529   3.16967   3.17137   3.17251   3.17740
 Alpha virt. eigenvalues --    3.18095   3.19235   3.19697   3.20625   3.20862
 Alpha virt. eigenvalues --    3.22135   3.22890   3.23242   3.23550   3.24166
 Alpha virt. eigenvalues --    3.24967   3.25980   3.26265   3.27245   3.27565
 Alpha virt. eigenvalues --    3.28664   3.28783   3.29738   3.30324   3.31434
 Alpha virt. eigenvalues --    3.31697   3.32239   3.32475   3.32825   3.33009
 Alpha virt. eigenvalues --    3.33986   3.34896   3.35437   3.36507   3.36647
 Alpha virt. eigenvalues --    3.37476   3.38131   3.39052   3.39630   3.40604
 Alpha virt. eigenvalues --    3.41137   3.41611   3.41912   3.42525   3.42791
 Alpha virt. eigenvalues --    3.43315   3.44006   3.45281   3.45571   3.45982
 Alpha virt. eigenvalues --    3.46836   3.47617   3.48314   3.49044   3.49826
 Alpha virt. eigenvalues --    3.50623   3.50956   3.51372   3.52567   3.53258
 Alpha virt. eigenvalues --    3.54359   3.54729   3.55785   3.56072   3.56639
 Alpha virt. eigenvalues --    3.56928   3.57938   3.58469   3.59257   3.60140
 Alpha virt. eigenvalues --    3.60779   3.61760   3.63051   3.63372   3.64348
 Alpha virt. eigenvalues --    3.65858   3.67272   3.68305   3.69124   3.69666
 Alpha virt. eigenvalues --    3.70654   3.71471   3.72773   3.73384   3.74480
 Alpha virt. eigenvalues --    3.75762   3.77215   3.78179   3.78344   3.79736
 Alpha virt. eigenvalues --    3.80117   3.80270   3.81592   3.83883   3.85016
 Alpha virt. eigenvalues --    3.85718   3.86363   3.87006   3.88567   3.89050
 Alpha virt. eigenvalues --    3.90166   3.91195   3.91847   3.92143   3.93444
 Alpha virt. eigenvalues --    3.95669   3.96917   3.97583   3.98002   3.98574
 Alpha virt. eigenvalues --    4.00271   4.01401   4.02345   4.05760   4.07452
 Alpha virt. eigenvalues --    4.07897   4.10413   4.10878   4.12186   4.13513
 Alpha virt. eigenvalues --    4.14381   4.15821   4.16780   4.16912   4.17418
 Alpha virt. eigenvalues --    4.18870   4.20123   4.20622   4.23031   4.24457
 Alpha virt. eigenvalues --    4.26590   4.27181   4.28740   4.29391   4.30705
 Alpha virt. eigenvalues --    4.31534   4.32909   4.35139   4.36327   4.36666
 Alpha virt. eigenvalues --    4.38494   4.39578   4.40911   4.41934   4.43789
 Alpha virt. eigenvalues --    4.44045   4.44734   4.45493   4.47227   4.48832
 Alpha virt. eigenvalues --    4.49937   4.50570   4.53335   4.56764   4.58003
 Alpha virt. eigenvalues --    4.58918   4.60871   4.61311   4.63011   4.66759
 Alpha virt. eigenvalues --    4.67945   4.71987   4.73267   4.75351   4.76011
 Alpha virt. eigenvalues --    4.76872   4.79792   4.81003   4.81484   4.83931
 Alpha virt. eigenvalues --    4.85514   4.86470   4.87115   4.88776   4.89768
 Alpha virt. eigenvalues --    4.90852   4.92255   4.94049   4.95277   4.98378
 Alpha virt. eigenvalues --    4.99540   5.00466   5.02710   5.03811   5.05192
 Alpha virt. eigenvalues --    5.07579   5.12185   5.13658   5.17479   5.19447
 Alpha virt. eigenvalues --    5.20772   5.24555   5.27064   5.27294   5.29451
 Alpha virt. eigenvalues --    5.29816   5.31270   5.32869   5.33250   5.37765
 Alpha virt. eigenvalues --    5.39692   5.41794   5.44171   5.44857   5.46390
 Alpha virt. eigenvalues --    5.48451   5.49241   5.49680   5.52838   5.59563
 Alpha virt. eigenvalues --    5.65398   5.67502   5.71759   5.74228   5.77627
 Alpha virt. eigenvalues --    5.80404   5.81534   5.83480   5.85421   5.86577
 Alpha virt. eigenvalues --    5.87939   5.90687   5.91814   5.94792   5.95116
 Alpha virt. eigenvalues --    5.97797   6.02651   6.04825   6.14678   6.18358
 Alpha virt. eigenvalues --    6.20280   6.21871   6.26525   6.27803   6.37657
 Alpha virt. eigenvalues --    6.42088   6.44522   6.48087   6.51254   6.56783
 Alpha virt. eigenvalues --    6.57490   6.70964   6.74068   6.76033   6.76408
 Alpha virt. eigenvalues --    6.76718   6.80802   6.83902   6.85071   6.88176
 Alpha virt. eigenvalues --    6.90769   6.95017   7.00315   7.07891   7.08712
 Alpha virt. eigenvalues --    7.10239   7.11201   7.17132   7.18877   7.25999
 Alpha virt. eigenvalues --    7.31951   7.43082   9.08748   9.40601   9.60395
 Alpha virt. eigenvalues --   19.79005  22.35255  22.45946  22.50469  22.54878
 Alpha virt. eigenvalues --   22.64339  22.66313  22.73785  22.75566  22.80820
 Alpha virt. eigenvalues --   22.87326  22.93914  22.96628  23.06913  23.20371
 Alpha virt. eigenvalues --   23.27932  23.50902  32.18721  33.15451  44.13307
 Alpha virt. eigenvalues --   44.24454  44.26383  44.40322  44.50649
[...]
 Dipole        = 7.89555946D-01-2.74846348D+00 8.79283473D-01
 ***** Axes restored to original set *****
 -------------------------------------------------------------------
 Center     Atomic                   Forces (Hartrees/Bohr)
 Number     Number              X              Y              Z
 -------------------------------------------------------------------
      1        6          -0.000033051   -0.000008036    0.000050412
      2        1           0.000002386   -0.000002890   -0.000003167
      3        1          -0.000006621   -0.000016918    0.000007870
      4        6          -0.000050958    0.000053958   -0.000065894
      5        1          -0.000060027    0.000011665   -0.000000368
      6        8          -0.000100577    0.000083366   -0.000097221
      7        1          -0.000021118    0.000031197   -0.000000983
      8        6          -0.000098863   -0.000016262    0.000035562
      9        1          -0.000036707   -0.000009175    0.000009457
     10        8          -0.000091999   -0.000127946    0.000203113
     11        1          -0.000052037    0.000023491   -0.000004213
     12        6           0.000035565    0.000046356   -0.000010007
     13        1           0.000012588    0.000011404   -0.000043558
     14        6           0.000036547   -0.000021618    0.000087097
     15        1          -0.000019379    0.000006725    0.000000579
     16        8           0.000110500    0.000043810    0.000009904
     17        7           0.000167664    0.000196863   -0.000069944
     18        6           0.000000948   -0.000044419   -0.000190151
     19        1          -0.000023437   -0.000007401    0.000004245
     20        6           0.000198589    0.000009402   -0.000025854
     21        1          -0.000008906    0.000010686    0.000000003
     22        6          -0.000019786   -0.000350389   -0.000376599
     23        1          -0.000043310    0.000019515   -0.000009729
     24        1          -0.000043260    0.000002640   -0.000159425
     25        6           0.000230172    0.000586498    0.000326812
     26        6           0.000163179   -0.000118931   -0.000162274
     27        1          -0.000003242    0.000078947   -0.000137127
     28        6          -0.000012111   -0.000049495   -0.000025173
     29        8           0.000045548    0.000070898   -0.000026871
     30        7           0.000002841   -0.000104427    0.000166378
     31        1          -0.000037267    0.000044260    0.000033097
     32        1          -0.000024793    0.000043855    0.000059073
     33        1          -0.000031132    0.000025664    0.000005760
     34        6          -0.000283447   -0.000109194    0.000278315
     35        6           0.000099457    0.000024595    0.000001074
     36        6          -0.000175292   -0.000028625   -0.000047703
     37        6          -0.000073061   -0.000087441    0.000668307
     38        6          -0.000135229    0.000051936    0.000136106
     39        8          -0.000043657   -0.000147897   -0.000098936
     40       16           0.000572218   -0.000180479   -0.000733773
     41        1          -0.000028533   -0.000015830   -0.000007928
     42        1          -0.000135038    0.000025467    0.000061919
     43        1           0.000061130   -0.000034600   -0.000024438
     44        1          -0.000006511   -0.000016710    0.000116748
     45        1           0.000009835   -0.000043483    0.000043700
     46        1           0.000004670   -0.000012820   -0.000005370
     47        1          -0.000004159    0.000029051    0.000031677
     48        1          -0.000050328    0.000022740   -0.000010501
 -------------------------------------------------------------------
 Cartesian Forces:  Max     0.000733773 RMS     0.000143334
 Leave Link  716 at Sat Aug 13 21:12:15 2022, MaxMem=  2684354560 cpu:               0.4 elap:               0.0
 (Enter /storage/apps/GAUSSIAN/G16_RevA03/g16/l103.exe)

 GradGradGradGradGradGradGradGradGradGradGradGradGradGradGradGradGradGrad
 Berny optimization.
 Search for a local minimum.
 Step number   1 out of a maximum of    2
 All quantities printed in internal units (Hartrees-Bohrs-Radians)
 Second derivative matrix not updated -- first step.
 ITU=  0
     Eigenvalues ---    0.00048   0.00081   0.00112   0.00145   0.00212
     Eigenvalues ---    0.00220   0.00304   0.00351   0.00463   0.00521
     Eigenvalues ---    0.00607   0.00645   0.00792   0.00924   0.00951
     Eigenvalues ---    0.01112   0.01165   0.01287   0.01497   0.01634
     Eigenvalues ---    0.01819   0.02129   0.02357   0.02475   0.02800
     Eigenvalues ---    0.02890   0.03331   0.03656   0.04117   0.04387
     Eigenvalues ---    0.04582   0.04698   0.04989   0.05051   0.05229
     Eigenvalues ---    0.05401   0.05495   0.05701   0.05948   0.06047
     Eigenvalues ---    0.06148   0.06299   0.06612   0.06747   0.07064
     Eigenvalues ---    0.07129   0.07478   0.08107   0.08269   0.08487
     Eigenvalues ---    0.08617   0.09179   0.09357   0.09804   0.10792
     Eigenvalues ---    0.10816   0.11115   0.11333   0.11997   0.12613
     Eigenvalues ---    0.13007   0.13147   0.13290   0.13662   0.13723
     Eigenvalues ---    0.13943   0.14345   0.15862   0.16422   0.16801
     Eigenvalues ---    0.17986   0.18116   0.18602   0.19806   0.20265
     Eigenvalues ---    0.20519   0.20860   0.21818   0.22597   0.25168
     Eigenvalues ---    0.25771   0.27204   0.28077   0.30530   0.33194
     Eigenvalues ---    0.33677   0.34380   0.34494   0.37776   0.37813
     Eigenvalues ---    0.37813   0.37813   0.37813   0.37813   0.40106
     Eigenvalues ---    0.43891   0.47890   0.49337   0.57037   0.58283
     Eigenvalues ---    0.60052   0.61730   0.69487   0.71828   0.73921
     Eigenvalues ---    0.78910   0.81678   0.82396   0.87269   0.90258
     Eigenvalues ---    0.90967   0.91565   0.92377   0.93190   0.95196
     Eigenvalues ---    0.97004   0.99602   0.99838   1.01864   1.03748
     Eigenvalues ---    1.05835   1.08514   1.11019   1.11704   1.12514
     Eigenvalues ---    1.19649   1.20692   1.27321   1.27918   1.29486
     Eigenvalues ---    1.33643   1.37568   1.42935   1.56849   1.72354
     Eigenvalues ---    1.84131   1.85115   2.36329
 Quadratic step=4.160D-01 exceeds max=3.000D-01 adjusted using Lamda=-2.868D-04.
 Angle between NR and scaled steps=   8.63 degrees.
 Angle between quadratic step and forces=  71.12 degrees.
 Linear search not attempted -- first point.
 Variable       Old X    -DE/DX   Delta X   Delta X   Delta X     New X
                                 (Linear)    (Quad)   (Total)
    X1        6.74906  -0.00003   0.00000  -0.01396  -0.01396   6.73510
    Y1       -6.85658  -0.00001   0.00000  -0.02293  -0.02293  -6.87951
    Z1       -0.72027   0.00005   0.00000   0.02168   0.02168  -0.69860
    X2        7.12712   0.00000   0.00000  -0.00302  -0.00302   7.12409
    Y2       -7.02524  -0.00000   0.00000  -0.02928  -0.02928  -7.05451
    Z2       -2.73709  -0.00000   0.00000   0.02367   0.02367  -2.71342
    X3        8.05297  -0.00001   0.00000  -0.02266  -0.02266   8.03031
    Y3       -8.08652  -0.00002   0.00000  -0.02634  -0.02634  -8.11286
    Z3        0.29526   0.00001   0.00000   0.02896   0.02896   0.32422
    X4        3.42084  -0.00005   0.00000  -0.00767  -0.00767   3.41317
    Y4       -2.69430   0.00005   0.00000   0.02824   0.02824  -2.66606
    Z4        2.32036  -0.00007   0.00000  -0.01178  -0.01178   2.30858
    X5        2.17305  -0.00006   0.00000  -0.02396  -0.02396   2.14908
    Y5       -4.30940   0.00001   0.00000   0.04070   0.04070  -4.26870
    Z5        1.93121  -0.00000   0.00000  -0.01043  -0.01043   1.92078
    X6        2.59825  -0.00010   0.00000  -0.00459  -0.00459   2.59366
    Y6       -1.26590   0.00008   0.00000   0.05315   0.05315  -1.21275
    Z6        4.33284  -0.00010   0.00000  -0.02792  -0.02792   4.30492
    X7        0.81822  -0.00002   0.00000   0.00925   0.00925   0.82746
    Y7       -0.67020   0.00003   0.00000   0.07736   0.07736  -0.59284
    Z7        3.91686  -0.00000   0.00000  -0.05101  -0.05101   3.86584
    X8        6.13025  -0.00010   0.00000  -0.02131  -0.02131   6.10895
    Y8       -3.60126  -0.00002   0.00000  -0.00342  -0.00342  -3.60469
    Z8        2.77624   0.00004   0.00000   0.00900   0.00900   2.78524
    X9        6.18269  -0.00004   0.00000  -0.04716  -0.04716   6.13553
    Y9       -5.28356  -0.00001   0.00000  -0.00196  -0.00196  -5.28552
    Z9        3.97789   0.00001   0.00000   0.01170   0.01170   3.98959
   X10        7.54948  -0.00009   0.00000  -0.00651  -0.00651   7.54296
   Y10       -1.61644  -0.00013   0.00000  -0.01812  -0.01812  -1.63456
   Z10        3.82346   0.00020   0.00000   0.01668   0.01668   3.84014
   X11        6.44914  -0.00005   0.00000  -0.00671  -0.00671   6.44243
   Y11       -0.76893   0.00002   0.00000   0.00328   0.00328  -0.76565
   Z11        5.01467  -0.00000   0.00000   0.00054   0.00054   5.01520
   X12        3.81351   0.00004   0.00000   0.02005   0.02005   3.83356
   Y12       -1.20782   0.00005   0.00000   0.00667   0.00667  -1.20115
   Z12       -0.15632  -0.00001   0.00000  -0.01989  -0.01989  -0.17621
   X13        4.32914   0.00001   0.00000   0.03668   0.03668   4.36582
   Y13        0.74841   0.00001   0.00000   0.00556   0.00556   0.75397
   Z13        0.25541  -0.00004   0.00000  -0.03592  -0.03592   0.21949
   X14        7.09420   0.00004   0.00000  -0.00687  -0.00687   7.08732
   Y14       -4.14354  -0.00002   0.00000  -0.02143  -0.02143  -4.16497
   Z14        0.12205   0.00009   0.00000   0.01652   0.01652   0.13857
   X15        9.06823  -0.00002   0.00000  -0.00224  -0.00224   9.06599
   Y15       -3.57262   0.00001   0.00000  -0.03434  -0.03434  -3.60696
   Z15       -0.02188   0.00000   0.00000   0.02342   0.02342   0.00154
   X16        5.66027   0.00011   0.00000   0.01442   0.01442   5.67469
   Y16       -2.48778   0.00004   0.00000  -0.02036  -0.02036  -2.50814
   Z16       -1.51731   0.00001   0.00000  -0.00111  -0.00111  -1.51842
   X17        1.52809   0.00017   0.00000   0.02484   0.02484   1.55293
   Y17       -1.08214   0.00020   0.00000   0.00983   0.00983  -1.07232
   Z17       -1.78411  -0.00007   0.00000  -0.02579  -0.02579  -1.80990
   X18        0.70823   0.00000   0.00000   0.03069   0.03069   0.73891
   Y18       -3.22443  -0.00004   0.00000   0.01100   0.01100  -3.21343
   Z18       -2.88860  -0.00019   0.00000  -0.03286  -0.03286  -2.92146
   X19        1.85830  -0.00002   0.00000   0.03912   0.03912   1.89742
   Y19       -4.87936  -0.00001   0.00000   0.01431   0.01431  -4.86505
   Z19       -2.57751   0.00000   0.00000  -0.04482  -0.04482  -2.62233
   X20       -1.42260   0.00020   0.00000   0.02724   0.02724  -1.39536
   Y20       -3.20457   0.00001   0.00000   0.00843   0.00843  -3.19614
   Z20       -4.35837  -0.00003   0.00000  -0.02727  -0.02727  -4.38564
   X21       -2.04569  -0.00001   0.00000   0.03498   0.03498  -2.01071
   Y21       -4.93403   0.00001   0.00000   0.01004   0.01004  -4.92398
   Z21       -5.24397   0.00000   0.00000  -0.03632  -0.03632  -5.28028
   X22       -2.71385  -0.00002   0.00000   0.01281   0.01281  -2.70103
   Y22       -0.94258  -0.00035   0.00000   0.00326   0.00326  -0.93932
   Z22       -4.71408  -0.00038   0.00000  -0.00822  -0.00822  -4.72230
   X23       -4.35156  -0.00004   0.00000   0.00734   0.00734  -4.34423
   Y23       -0.87071   0.00002   0.00000   0.00022   0.00022  -0.87049
   Z23       -5.93647  -0.00001   0.00000  -0.00119  -0.00119  -5.93766
   X24       -6.06194  -0.00004   0.00000  -0.01792  -0.01792  -6.07986
   Y24       -1.38913   0.00000   0.00000   0.01711   0.01711  -1.37202
   Z24       -1.70507  -0.00016   0.00000  -0.02735  -0.02735  -1.73241
   X25       -1.83570   0.00023   0.00000   0.00469   0.00469  -1.83101
   Y25        1.24318   0.00059   0.00000   0.00234   0.00234   1.24552
   Z25       -3.56760   0.00033   0.00000   0.00269   0.00269  -3.56490
   X26        0.32054   0.00016   0.00000   0.01715   0.01715   0.33769
   Y26        1.10534  -0.00012   0.00000   0.00697   0.00697   1.11230
   Z26       -2.08972  -0.00016   0.00000  -0.01524  -0.01524  -2.10496
   X27        1.06063  -0.00000   0.00000   0.01807   0.01807   1.07870
   Y27        2.76327   0.00008   0.00000   0.00763   0.00763   2.77090
   Z27       -1.14569  -0.00014   0.00000  -0.01757  -0.01757  -1.16326
   X28       -2.94538  -0.00001   0.00000  -0.02225  -0.02225  -2.96763
   Y28        3.81402  -0.00005   0.00000  -0.00390  -0.00390   3.81012
   Z28       -4.01787  -0.00003   0.00000   0.03421   0.03421  -3.98366
   X29       -1.62279   0.00005   0.00000  -0.04191  -0.04191  -1.66470
   Y29        5.67076   0.00007   0.00000   0.00954   0.00954   5.68030
   Z29       -3.94793  -0.00003   0.00000   0.04928   0.04928  -3.89865
   X30       -5.43897   0.00000   0.00000  -0.02567  -0.02567  -5.46463
   Y30        3.83029  -0.00010   0.00000  -0.02286  -0.02286   3.80743
   Z30       -4.69801   0.00017   0.00000   0.04708   0.04708  -4.65092
   X31       -6.20011  -0.00004   0.00000  -0.04321  -0.04321  -6.24333
   Y31        5.57712   0.00004   0.00000  -0.02974  -0.02974   5.54739
   Z31       -4.78823   0.00003   0.00000   0.06373   0.06373  -4.72449
   X32       -6.55145  -0.00002   0.00000  -0.00823  -0.00823  -6.55968
   Y32        2.51246   0.00004   0.00000  -0.04200  -0.04200   2.47046
   Z32       -3.87808   0.00006   0.00000   0.03947   0.03947  -3.83861
   X33        4.82930  -0.00003   0.00000  -0.01810  -0.01810   4.81120
   Y33       -7.51885   0.00003   0.00000  -0.01572  -0.01572  -7.53458
   Z33       -0.34635   0.00001   0.00000   0.01140   0.01140  -0.33496
   X34        0.12939  -0.00028   0.00000  -0.01859  -0.01859   0.11079
   Y34        4.10406  -0.00011   0.00000  -0.00202  -0.00202   4.10204
   Z34        5.52644   0.00028   0.00000   0.00547   0.00547   5.53190
   X35       -3.14938   0.00010   0.00000   0.00243   0.00243  -3.14695
   Y35        1.65058   0.00002   0.00000  -0.00498  -0.00498   1.64561
   Z35        2.19668   0.00000   0.00000  -0.00962  -0.00962   2.18706
   X36       -5.45949  -0.00018   0.00000   0.00926   0.00926  -5.45023
   Y36        1.57690  -0.00003   0.00000   0.00578   0.00578   1.58267
   Z36        1.06444  -0.00005   0.00000  -0.02290  -0.02290   1.04154
   X37       -9.55494  -0.00007   0.00000   0.00510   0.00510  -9.54984
   Y37       -0.66067  -0.00009   0.00000  -0.00142  -0.00142  -0.66208
   Z37        0.20286   0.00067   0.00000   0.02663   0.02663   0.22949
   X38       -6.67464  -0.00014   0.00000   0.00431   0.00431  -6.67033
   Y38       -0.82762   0.00005   0.00000   0.00697   0.00697  -0.82065
   Z38        0.21026   0.00014   0.00000  -0.01623  -0.01623   0.19404
   X39       -1.66789  -0.00004   0.00000  -0.02213  -0.02213  -1.69003
   Y39       -0.21969  -0.00015   0.00000  -0.01814  -0.01814  -0.23783
   Z39        2.55754  -0.00010   0.00000   0.02228   0.02228   2.57982
   X40       -2.06121   0.00057   0.00000   0.03179   0.03179  -2.02942
   Y40        4.79948  -0.00018   0.00000  -0.00814  -0.00814   4.79134
   Z40        3.00837  -0.00073   0.00000  -0.03997  -0.03997   2.96840
   X41        0.51064  -0.00003   0.00000  -0.00138  -0.00138   0.50926
   Y41        5.89016  -0.00002   0.00000   0.00756   0.00756   5.89772
   Z41        6.47265  -0.00001   0.00000  -0.01984  -0.01984   6.45281
   X42        1.89263  -0.00014   0.00000  -0.02096  -0.02096   1.87167
   Y42        3.32275   0.00003   0.00000  -0.04143  -0.04143   3.28133
   Z42        4.82016   0.00006   0.00000   0.04268   0.04268   4.86285
   X43      -10.26401   0.00006   0.00000   0.03239   0.03239 -10.23161
   Y43       -0.26291  -0.00003   0.00000  -0.01609  -0.01609  -0.27900
   Z43        2.09646  -0.00002   0.00000   0.03914   0.03914   2.13560
   X44      -10.20588  -0.00001   0.00000  -0.01415  -0.01415 -10.22003
   Y44        0.86939  -0.00002   0.00000   0.00535   0.00535   0.87474
   Z44       -1.02548   0.00012   0.00000   0.04537   0.04537  -0.98011
   X45      -10.42014   0.00001   0.00000   0.00296   0.00296 -10.41718
   Y45       -2.40984  -0.00004   0.00000   0.00027   0.00027  -2.40957
   Z45       -0.46105   0.00004   0.00000   0.02517   0.02517  -0.43588
   X46       -6.04001   0.00000   0.00000   0.02629   0.02629  -6.01372
   Y46       -2.37666  -0.00001   0.00000   0.00390   0.00390  -2.37276
   Z46        1.42072  -0.00001   0.00000  -0.03187  -0.03187   1.38885
   X47       -6.55246  -0.00000   0.00000   0.02184   0.02184  -6.53062
   Y47        3.30724   0.00003   0.00000   0.01280   0.01280   3.32004
   Z47        0.98583   0.00003   0.00000  -0.03971  -0.03971   0.94612
   X48       -0.71204  -0.00005   0.00000  -0.05801  -0.05801  -0.77005
   Y48        2.79251   0.00002   0.00000   0.03274   0.03274   2.82525
   Z48        6.86891  -0.00001   0.00000   0.01397   0.01397   6.88288
         Item               Value     Threshold  Converged?
 Maximum Force            0.000734     0.000450     NO 
 RMS     Force            0.000143     0.000300     YES
 Maximum Displacement     0.077358     0.001800     NO 
 RMS     Displacement     0.025031     0.001200     NO 
 Predicted change in Energy=-9.650989D-05
 GradGradGradGradGradGradGradGradGradGradGradGradGradGradGradGradGradGrad

 Leave Link  103 at Sat Aug 13 21:12:15 2022, MaxMem=  2684354560 cpu:               0.9 elap:               0.1
 (Enter /storage/apps/GAUSSIAN/G16_RevA03/g16/l9999.exe)

 Test job not archived.
 1\1\GINC-T068\Force\RM062X\def2TZVP\C16H24N2O5S1\LV87696\13-Aug-2022\0
 \\#P M062X/Def2TZVP scf=(direct,conver=8) EmpiricalDispersion=GD3 Forc
 e Charge Prop=(Field,Read)\\Gaussian run\\0,1\C,3.57145,-3.628344,-0.3
 81152\H,3.771507,-3.717596,-1.448407\H,4.26145,-4.2792,0.156243\C,1.81
 0231,-1.425763,1.227881\H,1.149928,-2.280435,1.021953\O,1.374934,-0.66
 9884,2.292841\H,0.432982,-0.354655,2.072711\C,3.24399,-1.905707,1.4691
 21\H,3.271741,-2.795942,2.10501\O,3.995012,-0.855384,2.023287\H,3.4127
 38,-0.406901,2.653648\C,2.018021,-0.639153,-0.08272\H,2.290882,0.39604
 3,0.135157\C,3.754088,-2.192669,0.064584\H,4.798699,-1.89055,-0.01158\
 O,2.995284,-1.316479,-0.802926\N,0.80863,-0.572646,-0.944111\C,0.37477
 8,-1.706296,-1.52858\H,0.983368,-2.582047,-1.363957\C,-0.752807,-1.695
 786,-2.30635\H,-1.08253,-2.610974,-2.774987\C,-1.436105,-0.498792,-2.4
 94585\H,-2.302748,-0.46076,-3.141445\H,-3.207843,-0.735098,-0.902283\C
 ,-0.971412,0.657862,-1.88789\C,0.169621,0.584919,-1.105833\H,0.561261,
 1.462258,-0.606273\C,-1.55863,2.018294,-2.126165\O,-0.858743,3.000836,
 -2.089154\N,-2.878177,2.026903,-2.486078\H,-3.280959,2.951285,-2.53382
 \H,-3.466877,1.329537,-2.052191\H,2.555556,-3.978806,-0.183282\C,0.068
 469,2.171775,2.924464\C,-1.666578,0.873451,1.162433\C,-2.889037,0.8344
 57,0.563278\C,-5.056257,-0.349611,0.107348\C,-3.532065,-0.43796,0.1112
 67\O,-0.882612,-0.116255,1.35339\S,-1.090746,2.539776,1.591962\H,0.270
 219,3.11694,3.425178\H,1.001538,1.758324,2.55072\H,-5.431478,-0.139128
 ,1.1094\H,-5.400721,0.460064,-0.542661\H,-5.514101,-1.275233,-0.243976
 \H,-3.196238,-1.257674,0.751813\H,-3.46741,1.750114,0.521678\H,-0.3767
 95,1.477733,3.634868\\Version=ES64L-G16RevA.03\State=1-A\HF=-1507.9090
 067\RMSD=1.704e-09\RMSF=1.433e-04\Dipole=0.0496543,-2.3450307,-1.85713
 63\Quadrupole=0.5210628,0.9268867,-1.4479495,-4.7610188,7.8494829,6.24
 54478\PG=C01 [X(C16H24N2O5S1)]\\@


 THE ... SCIENTISTS WERE WRONG ... THE MOST PERSISTENT PRINCIPLES 
 OF THE UNIVERSE WERE ACCIDENT AND ERROR.

                          -- FRANK HERBERT IN DUNE
 Job cpu time:       0 days  3 hours 26 minutes 42.4 seconds.
 Elapsed time:       0 days  0 hours 12 minutes 56.9 seconds.
 File lengths (MBytes):  RWF=    435 Int=      0 D2E=      0 Chk=     48 Scr=      1
 Normal termination of Gaussian 16 at Sat Aug 13 21:12:15 2022.
