 Entering Gaussian System, Link 0=g16
 Initial command:
 /storage/apps/GAUSSIAN/G16_RevA03/g16/l1.exe "/scratch/tmp/1019242/Gau-130736.inp" -scrdir="/scratch/tmp/1019242/"
 Entering Link 1 = /storage/apps/GAUSSIAN/G16_RevA03/g16/l1.exe PID=    130738.
  
 Copyright (c) 1988,1990,1992,1993,1995,1998,2003,2009,2016,
            Gaussian, Inc.  All Rights Reserved.
  
 This is part of the Gaussian(R) 16 program.  It is based on
 the Gaussian(R) 09 system (copyright 2009, Gaussian, Inc.),
 the Gaussian(R) 03 system (copyright 2003, Gaussian, Inc.),
 the Gaussian(R) 98 system (copyright 1998, Gaussian, Inc.),
 the Gaussian(R) 94 system (copyright 1995, Gaussian, Inc.),
 the Gaussian 92(TM) system (copyright 1992, Gaussian, Inc.),
 the Gaussian 90(TM) system (copyright 1990, Gaussian, Inc.),
 the Gaussian 88(TM) system (copyright 1988, Gaussian, Inc.),
 the Gaussian 86(TM) system (copyright 1986, Carnegie Mellon
 University), and the Gaussian 82(TM) system (copyright 1983,
 Carnegie Mellon University). Gaussian is a federally registered
 trademark of Gaussian, Inc.
  
 This software contains proprietary and confidential information,
 including trade secrets, belonging to Gaussian, Inc.
  
 This software is provided under written license and may be
 used, copied, transmitted, or stored only in accord with that
 written license.
  
 The following legend is applicable only to US Government
 contracts under FAR:
  
                    RESTRICTED RIGHTS LEGEND
  
 Use, reproduction and disclosure by the US Government is
 subject to restrictions as set forth in subparagraphs (a)
 and (c) of the Commercial Computer Software - Restricted
 Rights clause in FAR 52.227-19.
  
 Gaussian, Inc.
 340 Quinnipiac St., Bldg. 40, Wallingford CT 06492
  
  
 ---------------------------------------------------------------
 Warning -- This program may not be used in any manner that
 competes with the business of Gaussian, Inc. or will provide
 assistance to any competitor of Gaussian, Inc.  The licensee
 of this program is prohibited from giving any competitor of
 Gaussian, Inc. access to this program.  By using this program,
 the user acknowledges that Gaussian, Inc. is engaged in the
 business of creating and licensing software in the field of
 computational chemistry and represents and warrants to the
 licensee that it is not a competitor of Gaussian, Inc. and that
 it will not use this program in any manner prohibited above.
 ---------------------------------------------------------------
  

 Cite this work as:
 Gaussian 16, Revision A.03,
 M. J. Frisch, G. W. Trucks, H. B. Schlegel, G. E. Scuseria, 
 M. A. Robb, J. R. Cheeseman, G. Scalmani, V. Barone, 
 G. A. Petersson, H. Nakatsuji, X. Li, M. Caricato, A. V. Marenich, 
 J. Bloino, B. G. Janesko, R. Gomperts, B. Mennucci, H. P. Hratchian, 
 J. V. Ortiz, A. F. Izmaylov, J. L. Sonnenberg, D. Williams-Young, 
 F. Ding, F. Lipparini, F. Egidi, J. Goings, B. Peng, A. Petrone, 
 T. Henderson, D. Ranasinghe, V. G. Zakrzewski, J. Gao, N. Rega, 
 G. Zheng, W. Liang, M. Hada, M. Ehara, K. Toyota, R. Fukuda, 
 J. Hasegawa, M. Ishida, T. Nakajima, Y. Honda, O. Kitao, H. Nakai, 
 T. Vreven, K. Throssell, J. A. Montgomery, Jr., J. E. Peralta, 
 F. Ogliaro, M. J. Bearpark, J. J. Heyd, E. N. Brothers, K. N. Kudin, 
 V. N. Staroverov, T. A. Keith, R. Kobayashi, J. Normand, 
 K. Raghavachari, A. P. Rendell, J. C. Burant, S. S. Iyengar, 
 J. Tomasi, M. Cossi, J. M. Millam, M. Klene, C. Adamo, R. Cammi, 
 J. W. Ochterski, R. L. Martin, K. Morokuma, O. Farkas, 
 J. B. Foresman, and D. J. Fox, Gaussian, Inc., Wallingford CT, 2016.
 
 ******************************************
 Gaussian 16:  ES64L-G16RevA.03 25-Dec-2016
                13-Aug-2022 
 ******************************************
 %NProcShared=16
 Will use up to   16 processors via shared memory.
 %mem=20GB
 ----------------------------------------------------------------------
 #P M062X/Def2TZVP scf=(direct,conver=8) EmpiricalDispersion=GD3 Force 
 Charge Prop=(Field,Read)
 ----------------------------------------------------------------------
 1/10=7,18=10,28=-2,30=1,38=1,125=101/1,3;
 2/12=2,17=6,18=5,29=2,40=1/2;
 3/5=44,7=101,11=2,25=1,30=1,71=1,74=-55,124=31/1,2,3;
 4//1;
 5/5=2,6=8,38=5/2;
 6/7=2,8=2,9=2,10=2,14=2,15=1,28=1/1,2;
 7/7=1,16=-2,29=1/1,2,3,16;
 1/10=7,18=10,28=-2,30=1/3;
 99/12=1/99;
 Leave Link    1 at Sat Aug 13 20:21:47 2022, MaxMem=  2684354560 cpu:               0.8 elap:               0.1
 (Enter /storage/apps/GAUSSIAN/G16_RevA03/g16/l101.exe)
 ------------
 Gaussian run
 ------------
 Symbolic Z-matrix:
 Charge =  0 Multiplicity = 1
 C                     3.64398  -3.62482  -0.44442 
 H                     3.80358  -3.72537  -1.51714 
 H                     4.36823  -4.25056   0.07845 
 C                     1.90965  -1.46378   1.21107 
 H                     1.27034  -2.34317   1.07377 
 O                     1.49647  -0.70089   2.30627 
 H                     0.55936  -0.45801   2.18959 
 C                     3.36016  -1.8923    1.39807 
 H                     3.4545   -2.77636   2.03641 
 O                     4.11327  -0.81757   1.90997 
 H                     3.56984  -0.39063   2.58499 
 C                     1.99317  -0.68009  -0.10908 
 H                     2.29265   0.3501    0.10908 
 C                     3.80147  -2.17358  -0.03453 
 H                     4.83544  -1.84716  -0.15845 
 O                     2.97379  -1.34964  -0.86916 
 N                     0.76755  -0.61444  -0.8628 
 C                     0.18381  -1.79144  -1.32966 
 H                     0.72761  -2.69449  -1.0922 
 C                    -0.93166  -1.80815  -2.05119 
 H                    -1.31063  -2.76331  -2.38852 
 C                    -1.67525  -0.5599   -2.43494 
 H                    -1.79186  -0.52235  -3.52746 
 H                    -2.69545  -0.58991  -2.02879 
 C                    -0.94294   0.66082  -1.93378 
 C                     0.19081   0.56964  -1.21689 
 H                     0.68042   1.47458  -0.87598 
 C                    -1.46722   2.01938  -2.17777 
 O                    -0.88266   3.04353  -1.87539 
 N                    -2.72337   2.06745  -2.7345 
 H                    -3.03119   2.97594  -3.04115 
 H                    -3.11386   1.26463  -3.19619 
 H                     2.64193  -3.99177  -0.21055 
 C                     0.22514   2.21411   2.74987 
 C                    -1.71226   0.92222   1.33281 
 C                    -2.97496   0.87895   0.56922 
 C                    -4.88462  -0.41607  -0.38533 
 C                    -3.58452  -0.27804   0.33098 
 O                    -1.08576  -0.06772   1.66023 
 S                    -1.23567   2.5551    1.76073 
 H                     0.51977   3.15911   3.20016 
 H                     1.0331    1.8349    2.12882 
 H                    -5.6576   -0.76954   0.30157 
 H                    -5.20638   0.53303  -0.81285 
 H                    -4.81396  -1.16012  -1.18159 
 H                    -3.10515  -1.18385   0.69291 
 H                    -3.38557   1.82461   0.23082 
 H                    -0.01009   1.49062   3.52751 
 
 ITRead=  0  0  0  0  0  0  0  0  0  0  0  0  0  0  0  0  0  0  0  0
 ITRead=  0  0  0  0  0  0  0  0  0  0  0  0  0  0  0  0  0  0  0  0
 ITRead=  0  0  0  0  0  0  0  0
 MicOpt= -1 -1 -1 -1 -1 -1 -1 -1 -1 -1 -1 -1 -1 -1 -1 -1 -1 -1 -1 -1
 MicOpt= -1 -1 -1 -1 -1 -1 -1 -1 -1 -1 -1 -1 -1 -1 -1 -1 -1 -1 -1 -1
 MicOpt= -1 -1 -1 -1 -1 -1 -1 -1
 NAtoms=     48 NQM=       48 NQMF=       0 NMMI=      0 NMMIF=      0
                NMic=       0 NMicF=      0.
                    Isotopes and Nuclear Properties:
 (Nuclear quadrupole moments (NQMom) in fm**2, nuclear magnetic moments (NMagM)
  in nuclear magnetons)

  Atom         1           2           3           4           5           6           7           8           9          10
 IAtWgt=          12           1           1          12           1          16           1          12           1          16
 AtmWgt=  12.0000000   1.0078250   1.0078250  12.0000000   1.0078250  15.9949146   1.0078250  12.0000000   1.0078250  15.9949146
 NucSpn=           0           1           1           0           1           0           1           0           1           0
 AtZEff=  -0.0000000  -0.0000000  -0.0000000  -0.0000000  -0.0000000  -0.0000000  -0.0000000  -0.0000000  -0.0000000  -0.0000000
 NQMom=    0.0000000   0.0000000   0.0000000   0.0000000   0.0000000   0.0000000   0.0000000   0.0000000   0.0000000   0.0000000
 NMagM=    0.0000000   2.7928460   2.7928460   0.0000000   2.7928460   0.0000000   2.7928460   0.0000000   2.7928460   0.0000000
 AtZNuc=   6.0000000   1.0000000   1.0000000   6.0000000   1.0000000   8.0000000   1.0000000   6.0000000   1.0000000   8.0000000

  Atom        11          12          13          14          15          16          17          18          19          20
 IAtWgt=           1          12           1          12           1          16          14          12           1          12
 AtmWgt=   1.0078250  12.0000000   1.0078250  12.0000000   1.0078250  15.9949146  14.0030740  12.0000000   1.0078250  12.0000000
 NucSpn=           1           0           1           0           1           0           2           0           1           0
 AtZEff=  -0.0000000  -0.0000000  -0.0000000  -0.0000000  -0.0000000  -0.0000000  -0.0000000  -0.0000000  -0.0000000  -0.0000000
 NQMom=    0.0000000   0.0000000   0.0000000   0.0000000   0.0000000   0.0000000   2.0440000   0.0000000   0.0000000   0.0000000
 NMagM=    2.7928460   0.0000000   2.7928460   0.0000000   2.7928460   0.0000000   0.4037610   0.0000000   2.7928460   0.0000000
 AtZNuc=   1.0000000   6.0000000   1.0000000   6.0000000   1.0000000   8.0000000   7.0000000   6.0000000   1.0000000   6.0000000

  Atom        21          22          23          24          25          26          27          28          29          30
 IAtWgt=           1          12           1           1          12          12           1          12          16          14
 AtmWgt=   1.0078250  12.0000000   1.0078250   1.0078250  12.0000000  12.0000000   1.0078250  12.0000000  15.9949146  14.0030740
 NucSpn=           1           0           1           1           0           0           1           0           0           2
 AtZEff=  -0.0000000  -0.0000000  -0.0000000  -0.0000000  -0.0000000  -0.0000000  -0.0000000  -0.0000000  -0.0000000  -0.0000000
 NQMom=    0.0000000   0.0000000   0.0000000   0.0000000   0.0000000   0.0000000   0.0000000   0.0000000   0.0000000   2.0440000
 NMagM=    2.7928460   0.0000000   2.7928460   2.7928460   0.0000000   0.0000000   2.7928460   0.0000000   0.0000000   0.4037610
 AtZNuc=   1.0000000   6.0000000   1.0000000   1.0000000   6.0000000   6.0000000   1.0000000   6.0000000   8.0000000   7.0000000

  Atom        31          32          33          34          35          36          37          38          39          40
 IAtWgt=           1           1           1          12          12          12          12          12          16          32
 AtmWgt=   1.0078250   1.0078250   1.0078250  12.0000000  12.0000000  12.0000000  12.0000000  12.0000000  15.9949146  31.9720718
 NucSpn=           1           1           1           0           0           0           0           0           0           0
 AtZEff=  -0.0000000  -0.0000000  -0.0000000  -0.0000000  -0.0000000  -0.0000000  -0.0000000  -0.0000000  -0.0000000  -0.0000000
 NQMom=    0.0000000   0.0000000   0.0000000   0.0000000   0.0000000   0.0000000   0.0000000   0.0000000   0.0000000   0.0000000
 NMagM=    2.7928460   2.7928460   2.7928460   0.0000000   0.0000000   0.0000000   0.0000000   0.0000000   0.0000000   0.0000000
 AtZNuc=   1.0000000   1.0000000   1.0000000   6.0000000   6.0000000   6.0000000   6.0000000   6.0000000   8.0000000  16.0000000

  Atom        41          42          43          44          45          46          47          48
 IAtWgt=           1           1           1           1           1           1           1           1
 AtmWgt=   1.0078250   1.0078250   1.0078250   1.0078250   1.0078250   1.0078250   1.0078250   1.0078250
 NucSpn=           1           1           1           1           1           1           1           1
 AtZEff=  -0.0000000  -0.0000000  -0.0000000  -0.0000000  -0.0000000  -0.0000000  -0.0000000  -0.0000000
 NQMom=    0.0000000   0.0000000   0.0000000   0.0000000   0.0000000   0.0000000   0.0000000   0.0000000
 NMagM=    2.7928460   2.7928460   2.7928460   2.7928460   2.7928460   2.7928460   2.7928460   2.7928460
 AtZNuc=   1.0000000   1.0000000   1.0000000   1.0000000   1.0000000   1.0000000   1.0000000   1.0000000
 Background charge distribution read from input stream:
 Leave Link  101 at Sat Aug 13 20:21:47 2022, MaxMem=  2684354560 cpu:               2.0 elap:               0.2
 (Enter /storage/apps/GAUSSIAN/G16_RevA03/g16/l103.exe)

 GradGradGradGradGradGradGradGradGradGradGradGradGradGradGradGradGradGrad
 Berny optimization.
 Initialization pass.
 Trust Radius=3.00D-01 FncErr=1.00D-07 GrdErr=1.00D-07 EigMax=2.50D+02 EigMin=1.00D-04
 Number of steps in this run=      2 maximum allowed number of steps=      2.
 GradGradGradGradGradGradGradGradGradGradGradGradGradGradGradGradGradGrad

 Leave Link  103 at Sat Aug 13 20:21:47 2022, MaxMem=  2684354560 cpu:               0.4 elap:               0.1
 (Enter /storage/apps/GAUSSIAN/G16_RevA03/g16/l202.exe)
 ---------------------------------------------------------------------------------------------------
                            Z-MATRIX (ANGSTROMS AND DEGREES)
   CD    Cent   Atom    N1       Length/X        N2       Alpha/Y        N3        Beta/Z          J
 ---------------------------------------------------------------------------------------------------
      1      1  C        0   3.643981         -3.624824         -0.444416
      2      2  H        0   3.803577         -3.725369         -1.517135
      3      3  H        0   4.368227         -4.250565          0.078446
      4      4  C        0   1.909649         -1.463784          1.211066
      5      5  H        0   1.270336         -2.343169          1.073775
      6      6  O        0   1.496471         -0.700886          2.306272
      7      7  H        0   0.559357         -0.458005          2.189587
      8      8  C        0   3.360157         -1.892300          1.398074
      9      9  H        0   3.454495         -2.776363          2.036408
     10     10  O        0   4.113267         -0.817570          1.909965
     11     11  H        0   3.569840         -0.390629          2.584989
     12     12  C        0   1.993172         -0.680092         -0.109084
     13     13  H        0   2.292647          0.350102          0.109078
     14     14  C        0   3.801467         -2.173582         -0.034526
     15     15  H        0   4.835442         -1.847161         -0.158451
     16     16  O        0   2.973790         -1.349642         -0.869164
     17     17  N        0   0.767545         -0.614443         -0.862799
     18     18  C        0   0.183814         -1.791440         -1.329661
     19     19  H        0   0.727609         -2.694487         -1.092199
     20     20  C        0  -0.931660         -1.808148         -2.051189
     21     21  H        0  -1.310634         -2.763311         -2.388516
     22     22  C        0  -1.675254         -0.559904         -2.434942
     23     23  H        0  -1.791855         -0.522350         -3.527459
     24     24  H        0  -2.695454         -0.589906         -2.028793
     25     25  C        0  -0.942936          0.660823         -1.933782
     26     26  C        0   0.190810          0.569644         -1.216893
     27     27  H        0   0.680416          1.474577         -0.875979
     28     28  C        0  -1.467215          2.019376         -2.177770
     29     29  O        0  -0.882656          3.043535         -1.875389
     30     30  N        0  -2.723367          2.067445         -2.734498
     31     31  H        0  -3.031193          2.975942         -3.041152
     32     32  H        0  -3.113863          1.264634         -3.196188
     33     33  H        0   2.641931         -3.991767         -0.210547
     34     34  C        0   0.225144          2.214107          2.749871
     35     35  C        0  -1.712260          0.922215          1.332812
     36     36  C        0  -2.974955          0.878947          0.569219
     37     37  C        0  -4.884617         -0.416074         -0.385333
     38     38  C        0  -3.584516         -0.278043          0.330984
     39     39  O        0  -1.085763         -0.067717          1.660232
     40     40  S        0  -1.235672          2.555101          1.760733
     41     41  H        0   0.519772          3.159106          3.200158
     42     42  H        0   1.033104          1.834899          2.128818
     43     43  H        0  -5.657595         -0.769537          0.301574
     44     44  H        0  -5.206375          0.533031         -0.812850
     45     45  H        0  -4.813964         -1.160124         -1.181588
     46     46  H        0  -3.105150         -1.183845          0.692913
     47     47  H        0  -3.385567          1.824605          0.230822
     48     48  H        0  -0.010091          1.490620          3.527505
 ---------------------------------------------------------------------------------------------------
                         Z-Matrix orientation:                         
 ---------------------------------------------------------------------
 Center     Atomic      Atomic             Coordinates (Angstroms)
 Number     Number       Type             X           Y           Z
 ---------------------------------------------------------------------
      1          6           0        3.643981   -3.624824   -0.444416
      2          1           0        3.803577   -3.725369   -1.517135
      3          1           0        4.368227   -4.250565    0.078446
      4          6           0        1.909649   -1.463784    1.211066
      5          1           0        1.270336   -2.343169    1.073775
      6          8           0        1.496471   -0.700886    2.306272
      7          1           0        0.559357   -0.458005    2.189587
      8          6           0        3.360157   -1.892300    1.398074
      9          1           0        3.454495   -2.776363    2.036408
     10          8           0        4.113267   -0.817570    1.909965
     11          1           0        3.569840   -0.390629    2.584989
     12          6           0        1.993172   -0.680092   -0.109084
     13          1           0        2.292647    0.350102    0.109078
     14          6           0        3.801467   -2.173582   -0.034526
     15          1           0        4.835442   -1.847161   -0.158451
     16          8           0        2.973790   -1.349642   -0.869164
     17          7           0        0.767545   -0.614443   -0.862799
     18          6           0        0.183814   -1.791440   -1.329661
     19          1           0        0.727609   -2.694487   -1.092199
     20          6           0       -0.931660   -1.808148   -2.051189
     21          1           0       -1.310634   -2.763311   -2.388516
     22          6           0       -1.675254   -0.559904   -2.434942
     23          1           0       -1.791855   -0.522350   -3.527459
     24          1           0       -2.695454   -0.589906   -2.028793
     25          6           0       -0.942936    0.660823   -1.933782
     26          6           0        0.190810    0.569644   -1.216893
     27          1           0        0.680416    1.474577   -0.875979
     28          6           0       -1.467215    2.019376   -2.177770
     29          8           0       -0.882656    3.043535   -1.875389
     30          7           0       -2.723367    2.067445   -2.734498
     31          1           0       -3.031193    2.975942   -3.041152
     32          1           0       -3.113863    1.264634   -3.196188
     33          1           0        2.641931   -3.991767   -0.210547
     34          6           0        0.225144    2.214107    2.749871
     35          6           0       -1.712260    0.922215    1.332812
     36          6           0       -2.974955    0.878947    0.569219
     37          6           0       -4.884617   -0.416074   -0.385333
     38          6           0       -3.584516   -0.278043    0.330984
     39          8           0       -1.085763   -0.067717    1.660232
     40         16           0       -1.235672    2.555101    1.760733
     41          1           0        0.519772    3.159106    3.200158
     42          1           0        1.033104    1.834899    2.128818
     43          1           0       -5.657595   -0.769537    0.301574
     44          1           0       -5.206375    0.533031   -0.812850
     45          1           0       -4.813964   -1.160124   -1.181588
     46          1           0       -3.105150   -1.183845    0.692913
     47          1           0       -3.385567    1.824605    0.230822
     48          1           0       -0.010091    1.490620    3.527505
 ---------------------------------------------------------------------
                    Distance matrix (angstroms):
                    1          2          3          4          5
     1  C    0.000000
     2  H    1.089177   0.000000
     3  H    1.090628   1.772157   0.000000
     4  C    3.227789   4.018061   3.885046   0.000000
     5  H    3.095438   3.878221   3.771706   1.095850   0.000000
     6  O    4.552746   5.393392   5.080395   1.397214   2.065739
     7  H    5.146029   5.911042   5.774766   1.947404   2.303122
     8  C    2.544988   3.472061   2.884274   1.523998   2.162361
     9  H    2.628741   3.694609   2.615682   2.188744   2.425875
    10  O    3.693780   4.505132   3.899349   2.400413   3.333005
    11  H    4.432021   5.291743   4.671112   2.407397   3.374003
    12  C    3.392501   3.812333   4.292357   1.537513   2.165057
    13  H    4.234678   4.640791   5.047287   2.156675   3.038004
    14  C    1.516217   2.146201   2.155884   2.373666   2.768342
    15  H    2.159037   2.537407   2.459829   3.253125   3.804522
    16  O    2.409568   2.598556   3.355261   2.339398   2.768368
    17  N    4.184653   4.395851   5.203099   2.515293   2.644166
    18  C    4.014687   4.108274   5.053649   3.088877   2.694706
    19  H    3.128958   3.271829   4.128667   2.866510   2.260403
    20  C    5.178660   5.136479   6.212049   4.339808   3.860108
    21  H    5.391655   5.276364   6.367675   5.001598   4.338823
    22  C    6.453696   6.393757   7.514104   5.192485   4.916058
    23  H    6.977020   6.753487   8.052872   6.086136   5.819257
    24  H    7.204819   7.233970   8.230217   5.698010   5.331730
    25  C    6.451728   6.476238   7.508611   4.747764   4.792488
    26  C    5.487684   5.620442   6.508697   3.603363   3.859665
    27  H    5.913785   6.099562   6.876636   3.807983   4.327208
    28  C    7.809343   7.824307   8.857486   5.917755   6.090856
    29  O    8.185667   8.240582   9.197453   6.135071   6.507651
    30  N    8.842484   8.811337   9.905585   7.035758   7.064427
    31  H    9.740180   9.692486  10.803042   7.886979   7.983027
    32  H    8.783365   8.693119   9.855066   7.218298   7.104226
    33  H    1.092450   1.768491   1.769348   2.991307   2.499726
    34  C    7.482315   8.141861   8.129799   4.328090   4.966940
    35  C    7.247304   7.755430   8.081052   4.338898   4.430092
    36  C    8.069803   8.455832   8.970790   5.455246   5.353420
    37  C    9.112439   9.365742  10.026641   7.057495   6.612574
    38  C    8.003334   8.359636   8.893302   5.689145   5.327858
    39  O    6.281165   6.883293   7.052962   3.335153   3.327584
    40  S    8.177112   8.693834   8.975013   5.132895   5.544821
    41  H    8.310554   8.968401   8.913973   5.221049   5.946418
    42  H    6.576229   7.203129   7.236017   3.534390   4.315744
    43  H    9.758508  10.077620  10.615293   7.653257   7.146247
    44  H    9.785311   9.990457  10.740121   7.662983   7.333462
    45  H    8.840532   8.997504   9.769910   7.143107   6.595829
    46  H    7.266544   7.685972   8.101463   5.049263   4.542463
    47  H    8.920021   9.248857   9.851509   6.309809   6.305422
    48  H    7.436139   8.197499   8.001680   4.216609   4.728448
                    6          7          8          9         10
     6  O    0.000000
     7  H    0.975084   0.000000
     8  C    2.391154   3.244715   0.000000
     9  H    2.866058   3.712152   1.094503   0.000000
    10  O    2.649207   3.582981   1.408635   2.070468   0.000000
    11  H    2.114900   3.037086   1.925552   2.450709   0.966048
    12  C    2.465986   2.718278   2.368464   3.336608   2.930915
    13  H    2.562447   2.825924   2.798116   3.852178   2.814482
    14  C    3.600163   4.289657   1.525194   2.184606   2.391032
    15  H    4.305524   5.072272   2.145058   2.754603   2.420731
    16  O    3.561846   3.997557   2.363075   3.272455   3.050421
    17  N    3.252970   3.063474   3.669619   4.505441   4.350096
    18  C    4.016514   3.782088   4.188062   4.795607   5.184998
    19  H    4.014374   3.974957   3.711505   4.150999   4.898825
    20  C    5.109728   4.693634   5.506740   6.073240   6.490245
    21  H    5.845893   5.456219   6.075624   6.502813   7.188988
    22  C    5.706034   5.137133   6.467044   7.156814   7.242347
    23  H    6.699058   6.181986   7.258159   7.972539   8.032633
    24  H    6.031363   5.329721   7.078847   7.689495   7.869201
    25  C    5.077698   4.528889   6.011349   6.849384   6.521137
    26  C    3.966319   3.577149   4.789988   5.694855   5.204543
    27  H    3.940217   3.625910   4.867051   5.852179   4.979949
    28  C    6.024109   5.414630   7.168779   8.061119   7.476605
    29  O    6.096493   5.555557   7.285567   8.245256   7.361813
    30  N    7.133025   6.434344   8.352664   9.186403   8.754080
    31  H    7.912885   7.214199   9.179099  10.046630   9.484071
    32  H    7.442816   6.742893   8.543208   9.319498   9.090642
    33  H    4.298413   4.752392   2.740670   2.680723   4.091079
    34  C    3.210956   2.750600   5.340247   5.986863   5.001401
    35  C    3.725324   2.792725   5.801307   6.392956   6.107104
    36  C    5.050433   4.111495   6.964227   7.540011   7.410713
    37  C    6.931388   6.022360   8.563649   8.998699   9.294703
    38  C    5.467814   4.545159   7.209229   7.661446   7.876556
    39  O    2.736093   1.771711   4.812903   5.300209   5.258760
    40  S    4.285285   3.533391   6.405665   7.106207   6.325214
    41  H    4.080749   3.755837   6.068937   6.722849   5.512872
    42  H    2.583874   2.342123   4.454343   5.209166   4.070736
    43  H    7.429952   6.504778   9.153292   9.490373   9.902473
    44  H    7.495306   6.575747   9.173652   9.699538   9.802733
    45  H    7.224795   6.382035   8.602732   9.018600   9.453597
    46  H    4.900111   4.024362   6.542122   6.882589   7.329455
    47  H    5.875363   4.960796   7.789907   8.438927   8.126077
    48  H    2.926404   2.431344   5.228498   5.695074   4.994623
                   11         12         13         14         15
    11  H    0.000000
    12  C    3.134916   0.000000
    13  H    2.882714   1.094797   0.000000
    14  C    3.177173   2.346487   2.943831   0.000000
    15  H    3.354057   3.072944   3.371252   1.091335   0.000000
    16  O    3.634027   1.409833   2.076064   1.435461   2.053871
    17  N    4.448617   1.440332   2.049592   3.510218   4.308536
    18  C    5.362082   2.449220   3.332169   3.861453   4.797133
    19  H    5.187268   2.574092   3.627938   3.292206   4.296992
    20  C    6.615664   3.687672   4.440828   5.157806   6.069880
    21  H    7.361005   4.522250   5.377262   5.658854   6.602028
    22  C    7.262188   4.345274   4.800457   6.193579   7.016310
    23  H    8.131860   5.102607   5.537936   6.797970   7.551583
    24  H    7.783354   5.067211   5.507745   6.978188   7.860869
    25  C    6.472248   3.707871   3.839117   5.843833   6.544573
    26  C    5.176319   2.457151   2.494818   4.686163   5.341709
    27  H    4.879146   2.637054   2.198652   4.874225   5.367777
    28  C    7.339204   4.851893   4.706667   7.066357   7.664936
    29  O    7.177268   5.025497   4.612509   7.249006   7.717735
    30  N    8.599042   6.057021   6.016277   8.237088   8.893579
    31  H    9.303811   6.870797   6.720287   9.068773   9.667276
    32  H    8.990761   6.276462   6.402461   8.345012   9.061047
    33  H    4.652336   3.376148   4.367606   2.163632   3.068149
    34  C    4.242502   4.435756   3.837039   6.308309   6.797579
    35  C    5.584988   4.286803   4.226597   6.469525   7.264001
    36  C    6.964876   5.250998   5.314042   7.456697   8.304425
    37  C    8.961099   6.888396   7.234956   8.869045   9.827463
    38  C    7.501868   5.609448   5.914800   7.634095   8.578891
    39  O    4.757530   3.603515   3.740896   5.584970   6.444742
    40  S    5.696461   4.938433   4.476496   7.138359   7.740905
    41  H    4.720378   5.278393   4.537440   7.047713   7.414039
    42  H    3.405304   3.500731   2.805427   5.330273   5.766016
    43  H    9.513312   7.662302   8.031002   9.568603  10.558254
    44  H    9.456236   7.334878   7.557694   9.437837  10.340776
    45  H    9.223199   6.907807   7.379060   8.750343   9.727788
    46  H    6.983168   5.185543   5.641814   7.014991   8.013602
    47  H    7.669879   5.943053   5.867802   8.228570   9.012125
    48  H    4.152510   4.685065   4.276567   6.375140   6.943072
                   16         17         18         19         20
    16  O    0.000000
    17  N    2.325527   0.000000
    18  C    2.862029   1.394283   0.000000
    19  H    2.627486   2.093037   1.080553   0.000000
    20  C    4.106087   2.392593   1.328595   2.111500   0.000000
    21  H    4.760586   3.356229   2.073423   2.416528   1.081548
    22  C    4.968798   2.905491   2.488867   3.483268   1.502768
    23  H    5.519268   3.695866   3.216236   4.122665   2.138360
    24  H    5.836289   3.654108   3.197288   4.125994   2.143731
    25  C    4.529473   2.387269   2.765524   3.841496   2.471787
    26  C    3.398463   1.363843   2.363786   3.310325   2.758602
    27  H    3.638107   2.090878   3.334563   4.174934   3.841379
    28  C    5.725841   3.695985   4.238809   5.311894   3.866883
    29  O    5.931667   4.138756   4.981181   6.010926   4.855114
    30  N    6.900257   4.783539   5.031527   6.105930   4.324043
    31  H    7.712848   5.662729   5.999450   7.076777   5.317479
    32  H    7.022037   4.903158   4.868078   5.904093   3.938911
    33  H    2.743124   3.917279   3.483704   2.474848   4.574572
    34  C    5.775186   4.620203   5.717403   6.253660   6.369216
    35  C    5.654122   3.651227   4.248268   4.991410   4.417656
    36  C    6.513303   4.276353   4.551322   5.407284   4.273415
    37  C    7.928443   5.675761   5.335952   6.098189   4.509858
    38  C    6.752781   4.525342   4.387303   5.143838   3.879899
    39  O    4.951883   3.177947   3.677296   4.214750   4.102133
    40  S    6.315295   4.576222   5.518867   6.289028   5.801820
    41  H    6.550603   5.550557   6.718633   7.261685   7.372714
    42  H    4.784920   3.875509   5.082588   5.566293   5.882563
    43  H    8.729717   6.531634   6.150388   6.813139   5.380397
    44  H    8.394208   6.083331   5.892741   6.760701   5.028697
    45  H    7.796322   5.617173   5.039670   5.750764   4.030934
    46  H    6.278621   4.212152   3.908614   4.489845   3.555827
    47  H    7.192165   4.938958   5.315202   6.252263   4.942280
    48  H    6.025059   4.930596   5.865286   6.277021   6.546219
                   21         22         23         24         25
    21  H    0.000000
    22  C    2.233854   0.000000
    23  H    2.559428   1.099363   0.000000
    24  H    2.602079   1.098483   1.751301   0.000000
    25  C    3.473712   1.509180   2.158789   2.155150   0.000000
    26  C    3.838701   2.498343   3.234521   3.214694   1.344479
    27  H    4.920543   3.481187   4.138863   4.121598   2.101527
    28  C    4.789888   2.600404   2.896105   2.887753   1.476504
    29  O    5.845163   3.731767   4.033796   4.063455   2.384190
    30  N    5.044970   2.844510   2.864182   2.749602   2.406173
    31  H    6.027046   3.835136   3.743060   3.721943   3.308604
    32  H    4.486458   2.445001   2.247389   2.230963   2.582863
    33  H    4.677117   5.946739   6.534311   6.585314   6.121062
    34  C    7.316852   6.179720   7.138722   6.263227   5.070869
    35  C    5.252874   4.048953   5.071029   3.814914   3.366129
    36  C    4.978374   3.575542   4.488444   2.997552   3.231361
    37  C    4.721824   3.810721   4.410150   2.742921   4.369697
    38  C    4.329293   3.372695   4.261561   2.540913   3.603967
    39  O    4.869205   4.166557   5.255225   4.058656   3.669892
    40  S    6.745917   5.244061   6.143697   5.136394   4.162142
    41  H    8.346178   7.099544   8.009842   7.192684   5.893918
    42  H    6.858786   5.822215   6.747628   6.088313   4.667752
    43  H    5.487056   4.836477   5.446700   3.773216   5.410245
    44  H    5.340917   4.036645   4.487970   3.007362   4.410185
    45  H    4.037351   3.432588   3.878532   2.351806   4.343559
    46  H    3.900026   3.495337   4.469212   2.815723   3.870077
    47  H    5.675848   3.964511   4.708799   3.378162   3.465017
    48  H    7.401800   6.521364   7.549785   6.512466   5.602180
                   26         27         28         29         30
    26  C    0.000000
    27  H    1.083900   0.000000
    28  C    2.402926   2.569783   0.000000
    29  O    2.775983   2.429741   1.217393   0.000000
    30  N    3.610950   3.923178   1.374836   2.253672   0.000000
    31  H    4.415823   4.551715   2.026444   2.445360   1.007055
    32  H    3.914267   4.452415   2.078042   3.144405   1.005062
    33  H    5.275149   5.845619   7.542472   8.043002   8.477665
    34  C    4.294258   3.728400   5.213794   4.827857   6.228445
    35  C    3.201090   3.302841   3.686190   3.934564   4.344755
    36  C    3.648004   3.975564   3.334637   3.878049   3.519996
    37  C    5.236706   5.897871   4.563210   5.495894   4.044434
    38  C    4.167443   4.766349   4.006862   4.816743   3.954753
    39  O    3.211497   3.454045   4.385399   4.713996   5.153088
    40  S    3.852680   3.433828   3.981510   3.685725   4.760057
    41  H    5.130679   4.413427   5.845444   5.267005   6.850534
    42  H    3.674794   3.046806   4.983204   4.600501   6.149552
    43  H    6.188941   6.825911   5.611102   6.486812   5.086835
    44  H    5.412411   5.961946   4.248946   5.111376   3.494637
    45  H    5.295385   6.101087   4.722534   5.797180   4.147207
    46  H    4.193499   4.884582   4.602638   5.422766   4.739598
    47  H    4.057250   4.228445   3.085340   3.490914   3.048049
    48  H    4.837135   4.457323   5.912103   5.688952   6.848889
                   31         32         33         34         35
    31  H    0.000000
    32  H    1.720304   0.000000
    33  H    9.420490   8.347033   0.000000
    34  C    6.687307   6.885208   7.288196   0.000000
    35  C    5.008886   4.753271   6.744491   2.725908   0.000000
    36  C    4.175563   3.787656   7.475379   4.096160   1.476260
    37  C    4.689811   3.723071   8.334570   6.546527   3.847972
    38  C    4.718674   3.878442   7.270051   5.155127   2.439185
    39  O    5.928876   5.428919   5.726577   2.848247   1.216416
    40  S    5.143841   5.455637   7.860231   1.796846   1.754015
    41  H    7.183095   7.596418   8.201918   1.087468   3.670508
    42  H    6.674510   6.773347   6.481589   1.087338   3.000607
    43  H    5.665723   4.779410   8.917801   7.035830   4.414878
    44  H    3.957848   3.254866   9.079233   6.709724   4.118758
    45  H    4.872709   3.581677   8.034394   7.227338   4.503211
    46  H    5.590397   4.595675   6.459846   5.183436   2.604823
    47  H    3.486685   3.483072   8.387832   4.419791   2.197418
    48  H    7.381090   7.408948   7.145825   1.087880   2.834985
                   36         37         38         39         40
    36  C    0.000000
    37  C    2.497010   0.000000
    38  C    1.329265   1.490780   0.000000
    39  O    2.378136   4.328623   2.838116   0.000000
    40  S    2.693381   5.171874   3.948158   2.629020   0.000000
    41  H    4.932959   7.405746   6.073824   3.919375   2.349117
    42  H    4.405761   6.812287   5.386942   2.886021   2.408635
    43  H    3.160014   1.092828   2.130748   4.820804   5.721518
    44  H    2.647453   1.089541   2.143974   4.843189   5.145734
    45  H    3.256546   1.092073   2.139505   4.813396   5.938377
    46  H    2.070595   2.217789   1.086859   2.501874   4.314499
    47  H    1.085073   2.765401   2.114413   3.303512   2.737937
    48  H    4.232732   6.535043   5.111011   2.659359   2.399302
                   41         42         43         44         45
    41  H    0.000000
    42  H    1.778989   0.000000
    43  H    7.873747   7.408600   0.000000
    44  H    7.469221   7.019927   1.772632   0.000000
    45  H    8.142738   7.356436   1.750440   1.776718   0.000000
    46  H    6.187694   5.319754   2.615296   3.103245   2.536604
    47  H    5.084243   4.809069   3.449158   2.464296   3.597753
    48  H    1.780943   1.778513   6.885437   6.837911   7.230435
                   46         47         48
    46  H    0.000000
    47  H    3.056621   0.000000
    48  H    4.976652   4.730064   0.000000
 Stoichiometry    C16H24N2O5S
 Framework group  C1[X(C16H24N2O5S)]
 Deg. of freedom   138
 Full point group                 C1      NOp   1
 Largest Abelian subgroup         C1      NOp   1
 Largest concise Abelian subgroup C1      NOp   1
                         Standard orientation:                         
 ---------------------------------------------------------------------
 Center     Atomic      Atomic             Coordinates (Angstroms)
 Number     Number       Type             X           Y           Z
 ---------------------------------------------------------------------
      1          6           0        4.731666   -1.912677    0.609740
      2          1           0        4.711551   -2.868611    0.088117
      3          1           0        5.746741   -1.726515    0.962495
      4          6           0        2.552615    0.467428    0.683644
      5          1           0        2.373563   -0.152096    1.569657
      6          8           0        2.053733    1.760787    0.858413
      7          1           0        1.106488    1.708780    1.083825
      8          6           0        4.044081    0.526500    0.376057
      9          1           0        4.652340    0.627857    1.280316
     10          8           0        4.304071    1.575658   -0.527229
     11          1           0        3.765602    2.327111   -0.246839
     12          6           0        2.014625   -0.253938   -0.563009
     13          1           0        1.844972    0.484183   -1.353562
     14          6           0        4.282639   -0.806730   -0.325231
     15          1           0        5.007598   -0.661340   -1.127919
     16          8           0        3.027551   -1.166593   -0.921720
     17          7           0        0.776337   -0.965031   -0.374467
     18          6           0        0.718833   -2.014176    0.542054
     19          1           0        1.649609   -2.228727    1.047246
     20          6           0       -0.379966   -2.730886    0.752128
     21          1           0       -0.336427   -3.539030    1.469592
     22          6           0       -1.670125   -2.481148    0.023134
     23          1           0       -1.997072   -3.405898   -0.473396
     24          1           0       -2.464888   -2.232364    0.739460
     25          6           0       -1.497042   -1.368169   -0.981328
     26          6           0       -0.333896   -0.709134   -1.124112
     27          1           0       -0.257687    0.085407   -1.857418
     28          6           0       -2.620533   -0.924552   -1.830467
     29          8           0       -2.523769   -0.094221   -2.715470
     30          7           0       -3.839693   -1.478644   -1.519330
     31          1           0       -4.581238   -1.301229   -2.177201
     32          1           0       -3.899604   -2.316149   -0.966929
     33          1           0        4.073956   -1.982157    1.479243
     34          6           0       -0.299473    3.527879   -0.426125
     35          6           0       -1.661357    1.496765    0.778210
     36          6           0       -2.883887    0.718473    1.059329
     37          6           0       -4.131979   -0.916387    2.475152
     38          6           0       -2.929345   -0.126994    2.084055
     39          8           0       -0.601835    1.321452    1.349477
     40         16           0       -1.912928    2.737110   -0.436214
     41          1           0       -0.390055    4.420557   -1.040543
     42          1           0        0.457191    2.868597   -0.844588
     43          1           0       -4.510457   -0.572786    3.441053
     44          1           0       -4.927270   -0.822709    1.736345
     45          1           0       -3.882137   -1.972356    2.598167
     46          1           0       -2.029509   -0.241754    2.682709
     47          1           0       -3.737758    0.879363    0.409405
     48          1           0       -0.024323    3.803645    0.589616
 ---------------------------------------------------------------------
 Rotational constants (GHZ):           0.3251637           0.1607762           0.1377983
 Leave Link  202 at Sat Aug 13 20:21:47 2022, MaxMem=  2684354560 cpu:               0.4 elap:               0.1
 (Enter /storage/apps/GAUSSIAN/G16_RevA03/g16/l301.exe)
 Standard basis: def2TZVP (5D, 7F)
 Ernie: Thresh=  0.10000D-02 Tol=  0.10000D-05 Strict=F.
 There are  1014 symmetry adapted cartesian basis functions of A   symmetry.
 There are   894 symmetry adapted basis functions of A   symmetry.
   894 basis functions,  1434 primitive gaussians,  1014 cartesian basis functions
    95 alpha electrons       95 beta electrons
       nuclear repulsion energy      2473.2964509097 Hartrees.
 IExCor= 4336 DFT=T Ex+Corr=M062X ExCW=0 ScaHFX=  0.540000
 ScaDFX=  1.000000  1.000000  1.000000  1.000000 ScalE2=  1.000000  1.000000
 IRadAn=      5 IRanWt=     -1 IRanGd=            0 ICorTp=0 IEmpDi=131
 NAtoms=   48 NActive=   48 NUniq=   48 SFac= 1.00D+00 NAtFMM=   60 NAOKFM=F Big=F
 Integral buffers will be    131072 words long.
 Raffenetti 2 integral format.
 Two-electron integral symmetry is turned on.
 R6Disp:  Grimme-D3 Dispersion energy=       -0.0043393752 Hartrees.
 Nuclear repulsion after empirical dispersion term =     2473.2921115345 Hartrees.
 Leave Link  301 at Sat Aug 13 20:21:47 2022, MaxMem=  2684354560 cpu:               1.4 elap:               0.1
 (Enter /storage/apps/GAUSSIAN/G16_RevA03/g16/l302.exe)
 NPDir=0 NMtPBC=     1 NCelOv=     1 NCel=       1 NClECP=     1 NCelD=      1
         NCelK=      1 NCelE2=     1 NClLst=     1 CellRange=     0.0.
 One-electron integrals computed using PRISM.
 One-electron integral symmetry used in STVInt
   1 Symmetry operations used in ECPInt.
 ECPInt:  NShTT=   65703 NPrTT=  200010 LenC2=   56746 LenP2D=  120543.
 LDataN:  DoStor=T MaxTD1= 6 Len=  172
 NBasis=   894 RedAO= T EigKep=  3.14D-05  NBF=   894
 NBsUse=   894 1.00D-06 EigRej= -1.00D+00 NBFU=   894
 Precomputing XC quadrature grid using
 IXCGrd= 4 IRadAn=           5 IRanWt=          -1 IRanGd=           0 AccXCQ= 0.00D+00.
 Generated NRdTot=       0 NPtTot=           0 NUsed=           0 NTot=          32
 NSgBfM=   996   996   996   996   996 MxSgAt=    48 MxSgA2=    48.
 Leave Link  302 at Sat Aug 13 20:21:49 2022, MaxMem=  2684354560 cpu:              18.5 elap:               1.2
 (Enter /storage/apps/GAUSSIAN/G16_RevA03/g16/l303.exe)
 DipDrv:  MaxL=1.
 Leave Link  303 at Sat Aug 13 20:21:49 2022, MaxMem=  2684354560 cpu:               2.1 elap:               0.2
 (Enter /storage/apps/GAUSSIAN/G16_RevA03/g16/l401.exe)
 ExpMin= 9.52D-02 ExpMax= 6.07D+04 ExpMxC= 2.07D+03 IAcc=3 IRadAn=         5 AccDes= 0.00D+00
 Harris functional with IExCor= 1009 and IRadAn=       5 diagonalized for initial guess.
 HarFok:  IExCor= 1009 AccDes= 0.00D+00 IRadAn=         5 IDoV= 1 UseB2=F ITyADJ=14
 ICtDFT=  3500011 ScaDFX=  1.000000  1.000000  1.000000  1.000000
 FoFCou: FMM=F IPFlag=           0 FMFlag=      100000 FMFlg1=           0
         NFxFlg=           0 DoJE=T BraDBF=F KetDBF=T FulRan=T
         wScrn=  0.000000 ICntrl=       500 IOpCl=  0 I1Cent=   200000004 NGrid=           0
         NMat0=    1 NMatS0=      1 NMatT0=    0 NMatD0=    1 NMtDS0=    0 NMtDT0=    0
 Petite list used in FoFCou.
 Harris En= -1507.25721246745    
 JPrj=0 DoOrth=F DoCkMO=F.
 Leave Link  401 at Sat Aug 13 20:21:53 2022, MaxMem=  2684354560 cpu:              60.4 elap:               3.8
 (Enter /storage/apps/GAUSSIAN/G16_RevA03/g16/l502.exe)
 Integral symmetry usage will be decided dynamically.
 Closed shell SCF:
 Using DIIS extrapolation, IDIIS=  1040.
 NGot=  2684354560 LenX=  2682272944 LenY=  2681243734
 Requested convergence on RMS density matrix=1.00D-08 within 128 cycles.
 Requested convergence on MAX density matrix=1.00D-06.
 Requested convergence on             energy=1.00D-06.
 No special actions if energy rises.
 Fock matrices will be formed incrementally for  20 cycles.
 Integral accuracy reduced to 1.0D-05 until final iterations.

 Cycle   1  Pass 0  IDiag  1:
 FoFJK:  IHMeth= 1 ICntrl=       0 DoSepK=F KAlg= 0 I1Cent=           0 FoldK=F
 IRaf= 790000000 NMat=       1 IRICut=       1 DoRegI=T DoRafI=F ISym2E= 0 IDoP0=0 IntGTp=1.
 FoFCou: FMM=F IPFlag=           0 FMFlag=      100000 FMFlg1=           0
         NFxFlg=           0 DoJE=F BraDBF=F KetDBF=F FulRan=T
         wScrn=  0.000000 ICntrl=         0 IOpCl=  0 I1Cent=           0 NGrid=           0
         NMat0=    1 NMatS0=      1 NMatT0=    0 NMatD0=    1 NMtDS0=    0 NMtDT0=    0
 Symmetry not used in FoFCou.
 E= -1507.18853671096    
 DIIS: error= 1.46D-02 at cycle   1 NSaved=   1.
 NSaved= 1 IEnMin= 1 EnMin= -1507.18853671096     IErMin= 1 ErrMin= 1.46D-02
 ErrMax= 1.46D-02  0.00D+00 EMaxC= 1.00D-01 BMatC= 1.00D+00 BMatP= 1.00D+00
 IDIUse=3 WtCom= 8.54D-01 WtEn= 1.46D-01
 Coeff-Com:  0.100D+01
 Coeff-En:   0.100D+01
 Coeff:      0.100D+01
 Gap=     0.306 Goal=   None    Shift=    0.000
 GapD=    0.306 DampG=1.000 DampE=0.500 DampFc=0.5000 IDamp=-1.
 Damping current iteration by 5.00D-01
 RMSDP=4.35D-03 MaxDP=1.68D+00              OVMax= 2.73D-01

 Cycle   2  Pass 0  IDiag  1:
 RMSU=  2.17D-03    CP:  1.02D+00
 E= -1507.53356719595     Delta-E=       -0.345030484991 Rises=F Damp=T
 DIIS: error= 3.47D-03 at cycle   2 NSaved=   2.
 NSaved= 2 IEnMin= 2 EnMin= -1507.53356719595     IErMin= 2 ErrMin= 3.47D-03
 ErrMax= 3.47D-03  0.00D+00 EMaxC= 1.00D-01 BMatC= 8.62D-02 BMatP= 1.00D+00
 IDIUse=3 WtCom= 9.65D-01 WtEn= 3.47D-02
 Coeff-Com: -0.170D-01 0.102D+01
 Coeff-En:   0.145D-01 0.985D+00
 Coeff:     -0.159D-01 0.102D+01
 Gap=     0.311 Goal=   None    Shift=    0.000
 RMSDP=1.28D-03 MaxDP=4.69D-01 DE=-3.45D-01 OVMax= 1.71D-01

 Cycle   3  Pass 0  IDiag  1:
 RMSU=  1.03D-03    CP:  1.00D+00  6.54D-01
 E= -1507.89241978776     Delta-E=       -0.358852591817 Rises=F Damp=F
 DIIS: error= 4.69D-03 at cycle   3 NSaved=   3.
 NSaved= 3 IEnMin= 3 EnMin= -1507.89241978776     IErMin= 2 ErrMin= 3.47D-03
 ErrMax= 4.69D-03  0.00D+00 EMaxC= 1.00D-01 BMatC= 5.09D-02 BMatP= 8.62D-02
 IDIUse=3 WtCom= 9.53D-01 WtEn= 4.69D-02
 Coeff-Com: -0.835D-01 0.457D+00 0.627D+00
 Coeff-En:   0.000D+00 0.000D+00 0.100D+01
 Coeff:     -0.796D-01 0.435D+00 0.644D+00
 Gap=     0.212 Goal=   None    Shift=    0.000
 RMSDP=3.62D-04 MaxDP=6.38D-02 DE=-3.59D-01 OVMax= 6.80D-02

 Cycle   4  Pass 0  IDiag  1:
 RMSU=  3.04D-04    CP:  1.01D+00  7.34D-01  9.14D-01
 E= -1507.92492522196     Delta-E=       -0.032505434197 Rises=F Damp=F
 DIIS: error= 1.96D-03 at cycle   4 NSaved=   4.
 NSaved= 4 IEnMin= 4 EnMin= -1507.92492522196     IErMin= 4 ErrMin= 1.96D-03
 ErrMax= 1.96D-03  0.00D+00 EMaxC= 1.00D-01 BMatC= 1.05D-02 BMatP= 5.09D-02
 IDIUse=3 WtCom= 9.80D-01 WtEn= 1.96D-02
 Coeff-Com: -0.364D-01 0.980D-01 0.350D+00 0.589D+00
 Coeff-En:   0.000D+00 0.000D+00 0.143D+00 0.857D+00
 Coeff:     -0.357D-01 0.961D-01 0.346D+00 0.594D+00
 Gap=     0.212 Goal=   None    Shift=    0.000
 RMSDP=1.25D-04 MaxDP=1.52D-02 DE=-3.25D-02 OVMax= 1.72D-02

 Cycle   5  Pass 0  IDiag  1:
 RMSU=  8.03D-05    CP:  1.01D+00  7.19D-01  9.42D-01  7.19D-01
 E= -1507.93267536525     Delta-E=       -0.007750143293 Rises=F Damp=F
 DIIS: error= 3.59D-04 at cycle   5 NSaved=   5.
 NSaved= 5 IEnMin= 5 EnMin= -1507.93267536525     IErMin= 5 ErrMin= 3.59D-04
 ErrMax= 3.59D-04  0.00D+00 EMaxC= 1.00D-01 BMatC= 3.94D-04 BMatP= 1.05D-02
 IDIUse=3 WtCom= 9.96D-01 WtEn= 3.59D-03
 Coeff-Com: -0.102D-01 0.174D-01 0.120D+00 0.262D+00 0.611D+00
 Coeff-En:   0.000D+00 0.000D+00 0.000D+00 0.000D+00 0.100D+01
 Coeff:     -0.101D-01 0.174D-01 0.120D+00 0.261D+00 0.612D+00
 Gap=     0.211 Goal=   None    Shift=    0.000
 RMSDP=4.76D-05 MaxDP=1.61D-02 DE=-7.75D-03 OVMax= 4.05D-03

 Cycle   6  Pass 0  IDiag  1:
 RMSU=  3.12D-05    CP:  1.00D+00  7.04D-01  9.54D-01  7.35D-01  8.89D-01
 E= -1507.93299026690     Delta-E=       -0.000314901641 Rises=F Damp=F
 DIIS: error= 1.80D-04 at cycle   6 NSaved=   6.
 NSaved= 6 IEnMin= 6 EnMin= -1507.93299026690     IErMin= 6 ErrMin= 1.80D-04
 ErrMax= 1.80D-04  0.00D+00 EMaxC= 1.00D-01 BMatC= 5.15D-05 BMatP= 3.94D-04
 IDIUse=3 WtCom= 9.98D-01 WtEn= 1.80D-03
 Coeff-Com:  0.261D-03-0.436D-02 0.125D-01 0.419D-01 0.274D+00 0.676D+00
 Coeff-En:   0.000D+00 0.000D+00 0.000D+00 0.000D+00 0.000D+00 0.100D+01
 Coeff:      0.261D-03-0.435D-02 0.125D-01 0.418D-01 0.273D+00 0.676D+00
 Gap=     0.212 Goal=   None    Shift=    0.000
 RMSDP=1.87D-05 MaxDP=3.12D-03 DE=-3.15D-04 OVMax= 3.23D-03

 Cycle   7  Pass 0  IDiag  1:
 RMSU=  1.58D-05    CP:  1.00D+00  7.01D-01  9.59D-01  7.40D-01  9.59D-01
                    CP:  1.02D+00
 E= -1507.93305123982     Delta-E=       -0.000060972927 Rises=F Damp=F
 DIIS: error= 7.31D-05 at cycle   7 NSaved=   7.
 NSaved= 7 IEnMin= 7 EnMin= -1507.93305123982     IErMin= 7 ErrMin= 7.31D-05
 ErrMax= 7.31D-05  0.00D+00 EMaxC= 1.00D-01 BMatC= 8.81D-06 BMatP= 5.15D-05
 IDIUse=1 WtCom= 1.00D+00 WtEn= 0.00D+00
 Coeff-Com:  0.181D-02-0.490D-02-0.121D-01-0.247D-01 0.123D-01 0.289D+00
 Coeff-Com:  0.739D+00
 Coeff:      0.181D-02-0.490D-02-0.121D-01-0.247D-01 0.123D-01 0.289D+00
 Coeff:      0.739D+00
 Gap=     0.212 Goal=   None    Shift=    0.000
 RMSDP=1.76D-05 MaxDP=6.11D-03 DE=-6.10D-05 OVMax= 2.03D-03

 Cycle   8  Pass 0  IDiag  1:
 RMSU=  1.04D-05    CP:  1.00D+00  6.96D-01  9.60D-01  7.44D-01  1.02D+00
                    CP:  1.21D+00  1.24D+00
 E= -1507.93305944592     Delta-E=       -0.000008206096 Rises=F Damp=F
 DIIS: error= 3.16D-05 at cycle   8 NSaved=   8.
 NSaved= 8 IEnMin= 8 EnMin= -1507.93305944592     IErMin= 8 ErrMin= 3.16D-05
 ErrMax= 3.16D-05  0.00D+00 EMaxC= 1.00D-01 BMatC= 1.96D-06 BMatP= 8.81D-06
 IDIUse=1 WtCom= 1.00D+00 WtEn= 0.00D+00
 Coeff-Com:  0.919D-03-0.167D-02-0.798D-02-0.220D-01-0.471D-01 0.878D-02
 Coeff-Com:  0.358D+00 0.711D+00
 Coeff:      0.919D-03-0.167D-02-0.798D-02-0.220D-01-0.471D-01 0.878D-02
 Coeff:      0.358D+00 0.711D+00
 Gap=     0.212 Goal=   None    Shift=    0.000
 RMSDP=1.50D-05 MaxDP=2.92D-03 DE=-8.21D-06 OVMax= 7.05D-04

 Cycle   9  Pass 0  IDiag  1:
 RMSU=  8.07D-06    CP:  1.00D+00  6.94D-01  9.60D-01  7.43D-01  1.05D+00
                    CP:  1.34D+00  1.62D+00  1.78D+00
 E= -1507.93304961932     Delta-E=        0.000009826595 Rises=F Damp=F
 DIIS: error= 2.25D-05 at cycle   9 NSaved=   9.
 NSaved= 9 IEnMin= 8 EnMin= -1507.93305944592     IErMin= 9 ErrMin= 2.25D-05
 ErrMax= 2.25D-05  0.00D+00 EMaxC= 1.00D-01 BMatC= 3.48D-07 BMatP= 1.96D-06
 IDIUse=1 WtCom= 1.00D+00 WtEn= 0.00D+00
 Coeff-Com:  0.224D-03-0.281D-03-0.191D-02-0.733D-02-0.204D-01-0.247D-01
 Coeff-Com:  0.837D-01 0.312D+00 0.659D+00
 Coeff:      0.224D-03-0.281D-03-0.191D-02-0.733D-02-0.204D-01-0.247D-01
 Coeff:      0.837D-01 0.312D+00 0.659D+00
 Gap=     0.212 Goal=   None    Shift=    0.000
 RMSDP=1.69D-05 MaxDP=2.32D-03 DE= 9.83D-06 OVMax= 2.26D-04

 Cycle  10  Pass 0  IDiag  1:
 RMSU=  5.98D-06    CP:  1.00D+00  6.92D-01  9.60D-01  7.44D-01  1.06D+00
                    CP:  1.46D+00  2.00D+00  2.68D+00  2.22D+00
 E= -1507.93303614167     Delta-E=        0.000013477651 Rises=F Damp=F
 DIIS: error= 3.57D-05 at cycle  10 NSaved=  10.
 NSaved=10 IEnMin= 8 EnMin= -1507.93305944592     IErMin= 9 ErrMin= 2.25D-05
 ErrMax= 3.57D-05  0.00D+00 EMaxC= 1.00D-01 BMatC= 5.14D-07 BMatP= 3.48D-07
 IDIUse=1 WtCom= 1.00D+00 WtEn= 0.00D+00
 Coeff-Com:  0.244D-03-0.275D-03-0.214D-02-0.841D-02-0.242D-01-0.322D-01
 Coeff-Com:  0.915D-01 0.371D+00 0.849D+00-0.245D+00
 Coeff:      0.244D-03-0.275D-03-0.214D-02-0.841D-02-0.242D-01-0.322D-01
 Coeff:      0.915D-01 0.371D+00 0.849D+00-0.245D+00
 Gap=     0.212 Goal=   None    Shift=    0.000
 RMSDP=8.85D-06 MaxDP=8.84D-04 DE= 1.35D-05 OVMax= 2.21D-05

 Initial convergence to 1.0D-05 achieved.  Increase integral accuracy.
 Cycle  11  Pass 1  IDiag  1:
 E= -1507.93300972003     Delta-E=        0.000026421639 Rises=F Damp=F
 DIIS: error= 2.63D-04 at cycle   1 NSaved=   1.
 NSaved= 1 IEnMin= 1 EnMin= -1507.93300972003     IErMin= 1 ErrMin= 2.63D-04
 ErrMax= 2.63D-04  0.00D+00 EMaxC= 1.00D-01 BMatC= 8.54D-05 BMatP= 8.54D-05
 IDIUse=3 WtCom= 9.97D-01 WtEn= 2.63D-03
 Coeff-Com:  0.100D+01
 Coeff-En:   0.100D+01
 Coeff:      0.100D+01
 Gap=     0.212 Goal=   None    Shift=    0.000
 RMSDP=8.85D-06 MaxDP=8.84D-04 DE= 2.64D-05 OVMax= 9.36D-04

 Cycle  12  Pass 1  IDiag  1:
 RMSU=  3.97D-04    CP:  9.96D-01
 E= -1507.93306247148     Delta-E=       -0.000052751446 Rises=F Damp=F
 DIIS: error= 7.40D-06 at cycle   2 NSaved=   2.
 NSaved= 2 IEnMin= 2 EnMin= -1507.93306247148     IErMin= 2 ErrMin= 7.40D-06
 ErrMax= 7.40D-06  0.00D+00 EMaxC= 1.00D-01 BMatC= 1.53D-07 BMatP= 8.54D-05
 IDIUse=1 WtCom= 1.00D+00 WtEn= 0.00D+00
 Coeff-Com: -0.146D-01 0.101D+01
 Coeff:     -0.146D-01 0.101D+01
 Gap=     0.212 Goal=   None    Shift=    0.000
 RMSDP=1.48D-05 MaxDP=1.17D-03 DE=-5.28D-05 OVMax= 1.38D-04

 Cycle  13  Pass 1  IDiag  1:
 RMSU=  5.19D-06    CP:  9.96D-01  1.03D+00
 E= -1507.93306243902     Delta-E=        0.000000032464 Rises=F Damp=F
 DIIS: error= 8.40D-06 at cycle   3 NSaved=   3.
 NSaved= 3 IEnMin= 2 EnMin= -1507.93306247148     IErMin= 2 ErrMin= 7.40D-06
 ErrMax= 8.40D-06  0.00D+00 EMaxC= 1.00D-01 BMatC= 2.38D-07 BMatP= 1.53D-07
 IDIUse=1 WtCom= 1.00D+00 WtEn= 0.00D+00
 Coeff-Com: -0.980D-02 0.585D+00 0.425D+00
 Coeff:     -0.980D-02 0.585D+00 0.425D+00
 Gap=     0.212 Goal=   None    Shift=    0.000
 RMSDP=1.03D-06 MaxDP=3.61D-04 DE= 3.25D-08 OVMax= 9.41D-05

 Cycle  14  Pass 1  IDiag  1:
 RMSU=  9.62D-07    CP:  9.96D-01  1.04D+00  9.55D-01
 E= -1507.93306263018     Delta-E=       -0.000000191162 Rises=F Damp=F
 DIIS: error= 1.41D-06 at cycle   4 NSaved=   4.
 NSaved= 4 IEnMin= 4 EnMin= -1507.93306263018     IErMin= 4 ErrMin= 1.41D-06
 ErrMax= 1.41D-06  0.00D+00 EMaxC= 1.00D-01 BMatC= 3.92D-09 BMatP= 1.53D-07
 IDIUse=1 WtCom= 1.00D+00 WtEn= 0.00D+00
 Coeff-Com: -0.145D-02 0.749D-01 0.126D+00 0.801D+00
 Coeff:     -0.145D-02 0.749D-01 0.126D+00 0.801D+00
 Gap=     0.212 Goal=   None    Shift=    0.000
 RMSDP=3.21D-07 MaxDP=2.29D-05 DE=-1.91D-07 OVMax= 1.73D-05

 Cycle  15  Pass 1  IDiag  1:
 RMSU=  1.56D-07    CP:  9.96D-01  1.04D+00  9.88D-01  1.03D+00
 E= -1507.93306263300     Delta-E=       -0.000000002823 Rises=F Damp=F
 DIIS: error= 6.33D-07 at cycle   5 NSaved=   5.
 NSaved= 5 IEnMin= 5 EnMin= -1507.93306263300     IErMin= 5 ErrMin= 6.33D-07
 ErrMax= 6.33D-07  0.00D+00 EMaxC= 1.00D-01 BMatC= 1.18D-09 BMatP= 3.92D-09
 IDIUse=1 WtCom= 1.00D+00 WtEn= 0.00D+00
 Coeff-Com:  0.487D-03-0.351D-01 0.131D-01 0.420D+00 0.601D+00
 Coeff:      0.487D-03-0.351D-01 0.131D-01 0.420D+00 0.601D+00
 Gap=     0.212 Goal=   None    Shift=    0.000
 RMSDP=9.73D-08 MaxDP=7.88D-06 DE=-2.82D-09 OVMax= 9.97D-06

 Cycle  16  Pass 1  IDiag  1:
 RMSU=  5.59D-08    CP:  9.96D-01  1.04D+00  9.97D-01  1.06D+00  1.07D+00
 E= -1507.93306263412     Delta-E=       -0.000000001122 Rises=F Damp=F
 DIIS: error= 2.09D-07 at cycle   6 NSaved=   6.
 NSaved= 6 IEnMin= 6 EnMin= -1507.93306263412     IErMin= 6 ErrMin= 2.09D-07
 ErrMax= 2.09D-07  0.00D+00 EMaxC= 1.00D-01 BMatC= 5.80D-11 BMatP= 1.18D-09
 IDIUse=1 WtCom= 1.00D+00 WtEn= 0.00D+00
 Coeff-Com:  0.285D-03-0.185D-01-0.322D-02 0.106D+00 0.230D+00 0.686D+00
 Coeff:      0.285D-03-0.185D-01-0.322D-02 0.106D+00 0.230D+00 0.686D+00
 Gap=     0.212 Goal=   None    Shift=    0.000
 RMSDP=2.10D-08 MaxDP=3.20D-06 DE=-1.12D-09 OVMax= 3.38D-06

 Cycle  17  Pass 1  IDiag  1:
 RMSU=  1.50D-08    CP:  9.96D-01  1.04D+00  9.98D-01  1.07D+00  1.15D+00
                    CP:  1.07D+00
 E= -1507.93306263416     Delta-E=       -0.000000000039 Rises=F Damp=F
 DIIS: error= 7.89D-08 at cycle   7 NSaved=   7.
 NSaved= 7 IEnMin= 7 EnMin= -1507.93306263416     IErMin= 7 ErrMin= 7.89D-08
 ErrMax= 7.89D-08  0.00D+00 EMaxC= 1.00D-01 BMatC= 1.38D-11 BMatP= 5.80D-11
 IDIUse=1 WtCom= 1.00D+00 WtEn= 0.00D+00
 Coeff-Com:  0.176D-04-0.300D-03-0.454D-02-0.541D-01-0.393D-01 0.308D+00
 Coeff-Com:  0.790D+00
 Coeff:      0.176D-04-0.300D-03-0.454D-02-0.541D-01-0.393D-01 0.308D+00
 Coeff:      0.790D+00
 Gap=     0.212 Goal=   None    Shift=    0.000
 RMSDP=1.18D-08 MaxDP=2.19D-06 DE=-3.91D-11 OVMax= 2.21D-06

 Cycle  18  Pass 1  IDiag  1:
 RMSU=  7.08D-09    CP:  9.96D-01  1.04D+00  9.97D-01  1.07D+00  1.18D+00
                    CP:  1.16D+00  1.05D+00
 E= -1507.93306263418     Delta-E=       -0.000000000022 Rises=F Damp=F
 DIIS: error= 3.34D-08 at cycle   8 NSaved=   8.
 NSaved= 8 IEnMin= 8 EnMin= -1507.93306263418     IErMin= 8 ErrMin= 3.34D-08
 ErrMax= 3.34D-08  0.00D+00 EMaxC= 1.00D-01 BMatC= 2.43D-12 BMatP= 1.38D-11
 IDIUse=1 WtCom= 1.00D+00 WtEn= 0.00D+00
 Coeff-Com: -0.259D-04 0.212D-02-0.163D-02-0.392D-01-0.464D-01 0.709D-01
 Coeff-Com:  0.395D+00 0.619D+00
 Coeff:     -0.259D-04 0.212D-02-0.163D-02-0.392D-01-0.464D-01 0.709D-01
 Coeff:      0.395D+00 0.619D+00
 Gap=     0.212 Goal=   None    Shift=    0.000
 RMSDP=4.23D-09 MaxDP=1.29D-06 DE=-2.18D-11 OVMax= 7.14D-07

 Cycle  19  Pass 1  IDiag  1:
 RMSU=  2.89D-09    CP:  9.96D-01  1.04D+00  9.97D-01  1.07D+00  1.19D+00
                    CP:  1.18D+00  1.09D+00  1.12D+00
 E= -1507.93306263418     Delta-E=        0.000000000007 Rises=F Damp=F
 DIIS: error= 1.26D-08 at cycle   9 NSaved=   9.
 NSaved= 9 IEnMin= 8 EnMin= -1507.93306263418     IErMin= 9 ErrMin= 1.26D-08
 ErrMax= 1.26D-08  0.00D+00 EMaxC= 1.00D-01 BMatC= 3.22D-13 BMatP= 2.43D-12
 IDIUse=1 WtCom= 1.00D+00 WtEn= 0.00D+00
 Coeff-Com: -0.163D-04 0.112D-02-0.898D-05-0.105D-01-0.165D-01-0.210D-01
 Coeff-Com:  0.556D-01 0.282D+00 0.709D+00
 Coeff:     -0.163D-04 0.112D-02-0.898D-05-0.105D-01-0.165D-01-0.210D-01
 Coeff:      0.556D-01 0.282D+00 0.709D+00
 Gap=     0.212 Goal=   None    Shift=    0.000
 RMSDP=1.58D-09 MaxDP=1.56D-07 DE= 6.82D-12 OVMax= 2.78D-07

 SCF Done:  E(RM062X) =  -1507.93306263     A.U. after   19 cycles
            NFock= 19  Conv=0.16D-08     -V/T= 2.0037
 KE= 1.502336608851D+03 PE=-8.485149494151D+03 EE= 3.001587711131D+03
 Leave Link  502 at Sat Aug 13 20:30:36 2022, MaxMem=  2684354560 cpu:            8360.3 elap:             523.4
 (Enter /storage/apps/GAUSSIAN/G16_RevA03/g16/l601.exe)
 Copying SCF densities to generalized density rwf, IOpCl= 0 IROHF=0.

 **********************************************************************

            Population analysis using the SCF density.

 **********************************************************************

 Orbital symmetries:
       Occupied  (A) (A) (A) (A) (A) (A) (A) (A) (A) (A) (A) (A)
                 (A) (A) (A) (A) (A) (A) (A) (A) (A) (A) (A) (A)
                 (A) (A) (A) (A) (A) (A) (A) (A) (A) (A) (A) (A)
                 (A) (A) (A) (A) (A) (A) (A) (A) (A) (A) (A) (A)
                 (A) (A) (A) (A) (A) (A) (A) (A) (A) (A) (A) (A)
                 (A) (A) (A) (A) (A) (A) (A) (A) (A) (A) (A) (A)
                 (A) (A) (A) (A) (A) (A) (A) (A) (A) (A) (A) (A)
                 (A) (A) (A) (A) (A) (A) (A) (A) (A) (A) (A)
       Virtual   (A) (A) (A) (A) (A) (A) (A) (A) (A) (A) (A) (A)
                 (A) (A) (A) (A) (A) (A) (A) (A) (A) (A) (A) (A)
                 (A) (A) (A) (A) (A) (A) (A) (A) (A) (A) (A) (A)
                 (A) (A) (A) (A) (A) (A) (A) (A) (A) (A) (A) (A)
                 (A) (A) (A) (A) (A) (A) (A) (A) (A) (A) (A) (A)
                 (A) (A) (A) (A) (A) (A) (A) (A) (A) (A) (A) (A)
                 (A) (A) (A) (A) (A) (A) (A) (A) (A) (A) (A) (A)
                 (A) (A) (A) (A) (A) (A) (A) (A) (A) (A) (A) (A)
                 (A) (A) (A) (A) (A) (A) (A) (A) (A) (A) (A) (A)
                 (A) (A) (A) (A) (A) (A) (A) (A) (A) (A) (A) (A)
                 (A) (A) (A) (A) (A) (A) (A) (A) (A) (A) (A) (A)
                 (A) (A) (A) (A) (A) (A) (A) (A) (A) (A) (A) (A)
                 (A) (A) (A) (A) (A) (A) (A) (A) (A) (A) (A) (A)
                 (A) (A) (A) (A) (A) (A) (A) (A) (A) (A) (A) (A)
                 (A) (A) (A) (A) (A) (A) (A) (A) (A) (A) (A) (A)
                 (A) (A) (A) (A) (A) (A) (A) (A) (A) (A) (A) (A)
                 (A) (A) (A) (A) (A) (A) (A) (A) (A) (A) (A) (A)
                 (A) (A) (A) (A) (A) (A) (A) (A) (A) (A) (A) (A)
                 (A) (A) (A) (A) (A) (A) (A) (A) (A) (A) (A) (A)
                 (A) (A) (A) (A) (A) (A) (A) (A) (A) (A) (A) (A)
                 (A) (A) (A) (A) (A) (A) (A) (A) (A) (A) (A) (A)
                 (A) (A) (A) (A) (A) (A) (A) (A) (A) (A) (A) (A)
                 (A) (A) (A) (A) (A) (A) (A) (A) (A) (A) (A) (A)
                 (A) (A) (A) (A) (A) (A) (A) (A) (A) (A) (A) (A)
                 (A) (A) (A) (A) (A) (A) (A) (A) (A) (A) (A) (A)
                 (A) (A) (A) (A) (A) (A) (A) (A) (A) (A) (A) (A)
                 (A) (A) (A) (A) (A) (A) (A) (A) (A) (A) (A) (A)
                 (A) (A) (A) (A) (A) (A) (A) (A) (A) (A) (A) (A)
                 (A) (A) (A) (A) (A) (A) (A) (A) (A) (A) (A) (A)
                 (A) (A) (A) (A) (A) (A) (A) (A) (A) (A) (A) (A)
                 (A) (A) (A) (A) (A) (A) (A) (A) (A) (A) (A) (A)
                 (A) (A) (A) (A) (A) (A) (A) (A) (A) (A) (A) (A)
                 (A) (A) (A) (A) (A) (A) (A) (A) (A) (A) (A) (A)
                 (A) (A) (A) (A) (A) (A) (A) (A) (A) (A) (A) (A)
                 (A) (A) (A) (A) (A) (A) (A) (A) (A) (A) (A) (A)
                 (A) (A) (A) (A) (A) (A) (A) (A) (A) (A) (A) (A)
                 (A) (A) (A) (A) (A) (A) (A) (A) (A) (A) (A) (A)
                 (A) (A) (A) (A) (A) (A) (A) (A) (A) (A) (A) (A)
                 (A) (A) (A) (A) (A) (A) (A) (A) (A) (A) (A) (A)
                 (A) (A) (A) (A) (A) (A) (A) (A) (A) (A) (A) (A)
                 (A) (A) (A) (A) (A) (A) (A) (A) (A) (A) (A) (A)
                 (A) (A) (A) (A) (A) (A) (A) (A) (A) (A) (A) (A)
                 (A) (A) (A) (A) (A) (A) (A) (A) (A) (A) (A) (A)
                 (A) (A) (A) (A) (A) (A) (A) (A) (A) (A) (A) (A)
                 (A) (A) (A) (A) (A) (A) (A) (A) (A) (A) (A) (A)
                 (A) (A) (A) (A) (A) (A) (A) (A) (A) (A) (A) (A)
                 (A) (A) (A) (A) (A) (A) (A) (A) (A) (A) (A) (A)
                 (A) (A) (A) (A) (A) (A) (A) (A) (A) (A) (A) (A)
                 (A) (A) (A) (A) (A) (A) (A) (A) (A) (A) (A) (A)
                 (A) (A) (A) (A) (A) (A) (A) (A) (A) (A) (A) (A)
                 (A) (A) (A) (A) (A) (A) (A) (A) (A) (A) (A) (A)
                 (A) (A) (A) (A) (A) (A) (A) (A) (A) (A) (A) (A)
                 (A) (A) (A) (A) (A) (A) (A) (A) (A) (A) (A) (A)
                 (A) (A) (A) (A) (A) (A) (A) (A) (A) (A) (A) (A)
                 (A) (A) (A) (A) (A) (A) (A) (A) (A) (A) (A) (A)
                 (A) (A) (A) (A) (A) (A) (A) (A) (A) (A) (A) (A)
                 (A) (A) (A) (A) (A) (A) (A) (A) (A) (A) (A) (A)
                 (A) (A) (A) (A) (A) (A) (A) (A) (A) (A) (A) (A)
                 (A) (A) (A) (A) (A) (A) (A) (A) (A) (A) (A) (A)
                 (A) (A) (A) (A) (A) (A) (A) (A) (A) (A) (A) (A)
                 (A) (A) (A) (A) (A) (A) (A) (A) (A) (A) (A) (A)
                 (A) (A) (A) (A) (A) (A) (A) (A) (A) (A) (A) (A)
                 (A) (A) (A) (A) (A) (A) (A) (A) (A) (A) (A) (A)
                 (A) (A) (A) (A) (A) (A) (A) (A) (A) (A) (A) (A)
                 (A) (A) (A) (A) (A) (A) (A) (A) (A) (A) (A) (A)
                 (A) (A) (A) (A) (A) (A) (A) (A) (A) (A) (A) (A)
                 (A) (A) (A) (A) (A) (A) (A)
 The electronic state is 1-A.
 Alpha  occ. eigenvalues --  -89.91963 -19.63476 -19.63287 -19.62718 -19.62251
 Alpha  occ. eigenvalues --  -19.57756 -14.78974 -14.76072 -10.66127 -10.63439
 Alpha  occ. eigenvalues --  -10.62906 -10.59488 -10.59092 -10.59026 -10.58359
 Alpha  occ. eigenvalues --  -10.57589 -10.56876 -10.56869 -10.55353 -10.55242
 Alpha  occ. eigenvalues --  -10.55071 -10.53837 -10.53423 -10.53252  -8.27895
 Alpha  occ. eigenvalues --   -6.19832  -6.19597  -6.19404  -1.19254  -1.18766
 Alpha  occ. eigenvalues --   -1.15908  -1.15029  -1.13761  -1.08335  -1.00675
 Alpha  occ. eigenvalues --   -0.92685  -0.91817  -0.90160  -0.88514  -0.87503
 Alpha  occ. eigenvalues --   -0.85568  -0.82847  -0.78875  -0.76584  -0.75521
 Alpha  occ. eigenvalues --   -0.73447  -0.70758  -0.67653  -0.67360  -0.66337
 Alpha  occ. eigenvalues --   -0.63476  -0.63195  -0.61667  -0.60413  -0.58748
 Alpha  occ. eigenvalues --   -0.58119  -0.57106  -0.56550  -0.56029  -0.54991
 Alpha  occ. eigenvalues --   -0.54003  -0.52982  -0.52358  -0.51735  -0.51199
 Alpha  occ. eigenvalues --   -0.50602  -0.50385  -0.49941  -0.49262  -0.48902
 Alpha  occ. eigenvalues --   -0.48485  -0.48194  -0.47846  -0.47131  -0.46624
 Alpha  occ. eigenvalues --   -0.45927  -0.44727  -0.44249  -0.43816  -0.43701
 Alpha  occ. eigenvalues --   -0.43415  -0.43214  -0.41386  -0.41338  -0.37808
 Alpha  occ. eigenvalues --   -0.36151  -0.35622  -0.34478  -0.34381  -0.33848
 Alpha  occ. eigenvalues --   -0.33453  -0.32913  -0.32447  -0.30924  -0.24384
 Alpha virt. eigenvalues --   -0.03169   0.00312   0.04376   0.04674   0.06069
 Alpha virt. eigenvalues --    0.07173   0.07421   0.08022   0.08591   0.09126
 Alpha virt. eigenvalues --    0.09283   0.09585   0.10394   0.10733   0.11164
 Alpha virt. eigenvalues --    0.11718   0.12184   0.12543   0.12865   0.12958
 Alpha virt. eigenvalues --    0.13634   0.13890   0.13917   0.14175   0.14712
 Alpha virt. eigenvalues --    0.15377   0.15914   0.16308   0.17104   0.17287
 Alpha virt. eigenvalues --    0.17998   0.18360   0.18719   0.18948   0.19547
 Alpha virt. eigenvalues --    0.20359   0.20638   0.21280   0.21809   0.22459
 Alpha virt. eigenvalues --    0.22966   0.23301   0.23518   0.24306   0.24821
 Alpha virt. eigenvalues --    0.24941   0.25571   0.25749   0.26225   0.26992
 Alpha virt. eigenvalues --    0.27406   0.27567   0.28107   0.28751   0.28906
 Alpha virt. eigenvalues --    0.29363   0.30128   0.30165   0.30489   0.31127
 Alpha virt. eigenvalues --    0.31453   0.31868   0.33073   0.33337   0.33884
 Alpha virt. eigenvalues --    0.34270   0.35072   0.35351   0.35619   0.36147
 Alpha virt. eigenvalues --    0.36636   0.37011   0.37392   0.37723   0.38350
 Alpha virt. eigenvalues --    0.38461   0.39070   0.39934   0.40153   0.40207
 Alpha virt. eigenvalues --    0.40835   0.41097   0.41581   0.41993   0.42459
 Alpha virt. eigenvalues --    0.42648   0.42939   0.43637   0.43795   0.44043
 Alpha virt. eigenvalues --    0.44516   0.44925   0.45203   0.45410   0.45890
 Alpha virt. eigenvalues --    0.46503   0.46794   0.47264   0.47541   0.47650
 Alpha virt. eigenvalues --    0.47723   0.48026   0.48840   0.49154   0.49338
 Alpha virt. eigenvalues --    0.50144   0.50446   0.50725   0.50958   0.51344
 Alpha virt. eigenvalues --    0.51864   0.51965   0.52326   0.52531   0.52683
 Alpha virt. eigenvalues --    0.53128   0.53392   0.54336   0.54506   0.54984
 Alpha virt. eigenvalues --    0.55418   0.55459   0.56244   0.56912   0.57694
 Alpha virt. eigenvalues --    0.58065   0.58427   0.58577   0.59279   0.60168
 Alpha virt. eigenvalues --    0.60428   0.61240   0.61847   0.62156   0.62403
 Alpha virt. eigenvalues --    0.62996   0.63901   0.64540   0.65394   0.65667
 Alpha virt. eigenvalues --    0.65964   0.66117   0.66780   0.67624   0.67830
 Alpha virt. eigenvalues --    0.68524   0.68886   0.69186   0.70110   0.71260
 Alpha virt. eigenvalues --    0.71363   0.72415   0.72810   0.73595   0.73992
 Alpha virt. eigenvalues --    0.74360   0.75032   0.75339   0.76380   0.76566
 Alpha virt. eigenvalues --    0.76798   0.77952   0.79221   0.80565   0.80746
 Alpha virt. eigenvalues --    0.81512   0.81893   0.82464   0.83424   0.84072
 Alpha virt. eigenvalues --    0.84516   0.84944   0.86147   0.86643   0.87237
 Alpha virt. eigenvalues --    0.87714   0.88234   0.88678   0.89376   0.90127
 Alpha virt. eigenvalues --    0.91028   0.91200   0.91392   0.92519   0.92987
 Alpha virt. eigenvalues --    0.93527   0.94004   0.95129   0.95354   0.96162
 Alpha virt. eigenvalues --    0.96564   0.97455   0.98431   0.98521   0.99364
 Alpha virt. eigenvalues --    0.99746   1.00352   1.00874   1.02091   1.03115
 Alpha virt. eigenvalues --    1.03724   1.04664   1.05086   1.06108   1.06715
 Alpha virt. eigenvalues --    1.07186   1.07465   1.08724   1.09172   1.09871
 Alpha virt. eigenvalues --    1.10651   1.11514   1.11693   1.11855   1.12534
 Alpha virt. eigenvalues --    1.13367   1.14049   1.15249   1.15783   1.16097
 Alpha virt. eigenvalues --    1.16853   1.18033   1.18492   1.19170   1.20356
 Alpha virt. eigenvalues --    1.21054   1.21992   1.22729   1.22916   1.23315
 Alpha virt. eigenvalues --    1.25062   1.25475   1.26417   1.26906   1.28755
 Alpha virt. eigenvalues --    1.29324   1.30124   1.30603   1.31399   1.31523
 Alpha virt. eigenvalues --    1.32839   1.33951   1.34086   1.35513   1.36098
 Alpha virt. eigenvalues --    1.37502   1.37635   1.38248   1.38901   1.39715
 Alpha virt. eigenvalues --    1.41045   1.41829   1.42409   1.43606   1.44816
 Alpha virt. eigenvalues --    1.45511   1.46745   1.48217   1.48465   1.49696
 Alpha virt. eigenvalues --    1.50171   1.50884   1.51330   1.52105   1.52665
 Alpha virt. eigenvalues --    1.53269   1.53733   1.54531   1.54985   1.55172
 Alpha virt. eigenvalues --    1.55938   1.56460   1.57315   1.57766   1.58339
 Alpha virt. eigenvalues --    1.58754   1.59113   1.59944   1.60051   1.60153
 Alpha virt. eigenvalues --    1.60949   1.61184   1.61650   1.62063   1.62172
 Alpha virt. eigenvalues --    1.62863   1.63344   1.63748   1.64511   1.65600
 Alpha virt. eigenvalues --    1.65992   1.67109   1.67869   1.68418   1.68612
 Alpha virt. eigenvalues --    1.68978   1.69422   1.70160   1.70692   1.70995
 Alpha virt. eigenvalues --    1.71424   1.72728   1.73196   1.73757   1.74028
 Alpha virt. eigenvalues --    1.75230   1.75596   1.76132   1.76524   1.77657
 Alpha virt. eigenvalues --    1.78142   1.78508   1.79415   1.79527   1.80066
 Alpha virt. eigenvalues --    1.82160   1.82496   1.83649   1.84446   1.84698
 Alpha virt. eigenvalues --    1.84774   1.85652   1.86730   1.86905   1.87632
 Alpha virt. eigenvalues --    1.88479   1.88864   1.89991   1.91106   1.91281
 Alpha virt. eigenvalues --    1.92356   1.93446   1.93683   1.93923   1.95013
 Alpha virt. eigenvalues --    1.95726   1.96130   1.96794   1.97151   1.97680
 Alpha virt. eigenvalues --    1.98295   1.99495   2.00005   2.01700   2.01908
 Alpha virt. eigenvalues --    2.02526   2.03125   2.03474   2.04165   2.04732
 Alpha virt. eigenvalues --    2.05383   2.06195   2.06714   2.07777   2.08602
 Alpha virt. eigenvalues --    2.09458   2.09973   2.11151   2.12283   2.12653
 Alpha virt. eigenvalues --    2.13163   2.15079   2.15879   2.16628   2.16992
 Alpha virt. eigenvalues --    2.18136   2.19246   2.19904   2.20124   2.20748
 Alpha virt. eigenvalues --    2.20869   2.21600   2.22142   2.22745   2.23648
 Alpha virt. eigenvalues --    2.23759   2.24794   2.25624   2.26499   2.26902
 Alpha virt. eigenvalues --    2.27838   2.28768   2.29350   2.30201   2.31061
 Alpha virt. eigenvalues --    2.31241   2.31441   2.32411   2.32851   2.33979
 Alpha virt. eigenvalues --    2.34498   2.34761   2.35485   2.36154   2.36691
 Alpha virt. eigenvalues --    2.36958   2.37261   2.38302   2.38903   2.39488
 Alpha virt. eigenvalues --    2.40363   2.40696   2.41017   2.41960   2.43058
 Alpha virt. eigenvalues --    2.43624   2.44710   2.45150   2.45280   2.46571
 Alpha virt. eigenvalues --    2.47542   2.48611   2.49837   2.50373   2.50688
 Alpha virt. eigenvalues --    2.52395   2.52859   2.53516   2.54947   2.55163
 Alpha virt. eigenvalues --    2.55717   2.56975   2.57946   2.58419   2.58986
 Alpha virt. eigenvalues --    2.59215   2.59792   2.60579   2.61702   2.62170
 Alpha virt. eigenvalues --    2.62893   2.63289   2.63861   2.64455   2.64565
 Alpha virt. eigenvalues --    2.65347   2.66378   2.66512   2.67237   2.67738
 Alpha virt. eigenvalues --    2.67885   2.68422   2.69353   2.70512   2.71207
 Alpha virt. eigenvalues --    2.72035   2.72301   2.72550   2.73270   2.74022
 Alpha virt. eigenvalues --    2.75054   2.75787   2.76633   2.77178   2.78508
 Alpha virt. eigenvalues --    2.79942   2.80272   2.81230   2.82202   2.82529
 Alpha virt. eigenvalues --    2.83405   2.83821   2.84144   2.85474   2.86110
 Alpha virt. eigenvalues --    2.86482   2.87672   2.88523   2.88974   2.90213
 Alpha virt. eigenvalues --    2.90543   2.90873   2.91842   2.92343   2.92554
 Alpha virt. eigenvalues --    2.92830   2.94275   2.94890   2.95887   2.97240
 Alpha virt. eigenvalues --    2.98100   2.98259   2.98519   3.00172   3.00605
 Alpha virt. eigenvalues --    3.01514   3.02592   3.02857   3.03422   3.03900
 Alpha virt. eigenvalues --    3.05420   3.05446   3.05999   3.06720   3.07012
 Alpha virt. eigenvalues --    3.08156   3.08422   3.08661   3.09020   3.09739
 Alpha virt. eigenvalues --    3.10002   3.10891   3.11722   3.12339   3.12621
 Alpha virt. eigenvalues --    3.13081   3.13777   3.14270   3.14513   3.15152
 Alpha virt. eigenvalues --    3.15883   3.16005   3.16490   3.17567   3.17897
 Alpha virt. eigenvalues --    3.18437   3.18974   3.19086   3.19959   3.20731
 Alpha virt. eigenvalues --    3.21214   3.21682   3.22772   3.23814   3.24408
 Alpha virt. eigenvalues --    3.24649   3.25225   3.25829   3.26683   3.26946
 Alpha virt. eigenvalues --    3.27914   3.28989   3.29793   3.30240   3.30699
 Alpha virt. eigenvalues --    3.31599   3.32217   3.32599   3.33861   3.34346
 Alpha virt. eigenvalues --    3.34739   3.35161   3.35778   3.35974   3.36544
 Alpha virt. eigenvalues --    3.37383   3.38048   3.38173   3.38731   3.39213
 Alpha virt. eigenvalues --    3.40010   3.40968   3.41470   3.41922   3.42491
 Alpha virt. eigenvalues --    3.42877   3.44098   3.44984   3.45145   3.46100
 Alpha virt. eigenvalues --    3.46642   3.47040   3.47532   3.49479   3.49852
 Alpha virt. eigenvalues --    3.50194   3.50442   3.52318   3.52725   3.53607
 Alpha virt. eigenvalues --    3.54180   3.55328   3.55764   3.56353   3.56703
 Alpha virt. eigenvalues --    3.58245   3.59048   3.59524   3.59911   3.60585
 Alpha virt. eigenvalues --    3.61762   3.62725   3.63180   3.64471   3.65588
 Alpha virt. eigenvalues --    3.66271   3.66509   3.66861   3.68073   3.68209
 Alpha virt. eigenvalues --    3.69512   3.70255   3.71715   3.73149   3.73696
 Alpha virt. eigenvalues --    3.75044   3.75260   3.76820   3.77515   3.78100
 Alpha virt. eigenvalues --    3.79406   3.80388   3.81447   3.81861   3.82345
 Alpha virt. eigenvalues --    3.84419   3.85066   3.86657   3.87186   3.88690
 Alpha virt. eigenvalues --    3.89628   3.90843   3.92227   3.93635   3.94577
 Alpha virt. eigenvalues --    3.95298   3.96348   3.97705   3.98358   4.00282
 Alpha virt. eigenvalues --    4.01521   4.02041   4.03369   4.04845   4.06011
 Alpha virt. eigenvalues --    4.07905   4.09817   4.11252   4.12956   4.13407
 Alpha virt. eigenvalues --    4.14452   4.15931   4.16445   4.18203   4.18472
 Alpha virt. eigenvalues --    4.19171   4.19976   4.21049   4.21920   4.24406
 Alpha virt. eigenvalues --    4.25670   4.26998   4.28830   4.30532   4.33117
 Alpha virt. eigenvalues --    4.33884   4.35926   4.37175   4.38298   4.38553
 Alpha virt. eigenvalues --    4.39869   4.40518   4.41494   4.41970   4.43110
 Alpha virt. eigenvalues --    4.44394   4.47074   4.47283   4.49444   4.50807
 Alpha virt. eigenvalues --    4.52535   4.52822   4.53692   4.56593   4.59201
 Alpha virt. eigenvalues --    4.62475   4.65214   4.65446   4.66767   4.68186
 Alpha virt. eigenvalues --    4.69532   4.70011   4.71923   4.73731   4.74900
 Alpha virt. eigenvalues --    4.75896   4.76488   4.79368   4.82510   4.84477
 Alpha virt. eigenvalues --    4.86318   4.87806   4.89925   4.90285   4.92710
 Alpha virt. eigenvalues --    4.93342   4.94805   4.97414   4.99307   5.00546
 Alpha virt. eigenvalues --    5.03011   5.04374   5.05374   5.06899   5.08400
 Alpha virt. eigenvalues --    5.13269   5.13958   5.14423   5.19964   5.21156
 Alpha virt. eigenvalues --    5.21926   5.24105   5.24551   5.25973   5.28841
 Alpha virt. eigenvalues --    5.29728   5.31058   5.31206   5.34410   5.38851
 Alpha virt. eigenvalues --    5.40287   5.42106   5.44324   5.47279   5.49288
 Alpha virt. eigenvalues --    5.49846   5.50971   5.53600   5.55379   5.56058
 Alpha virt. eigenvalues --    5.64433   5.68732   5.75948   5.77202   5.79564
 Alpha virt. eigenvalues --    5.79813   5.81859   5.82467   5.83777   5.88458
 Alpha virt. eigenvalues --    5.89550   5.91531   5.93928   5.96187   5.97219
 Alpha virt. eigenvalues --    5.99765   6.05635   6.07209   6.16254   6.18503
 Alpha virt. eigenvalues --    6.21674   6.25544   6.28475   6.29632   6.38472
 Alpha virt. eigenvalues --    6.38852   6.43402   6.44333   6.48469   6.53970
 Alpha virt. eigenvalues --    6.57080   6.62152   6.72290   6.76254   6.77279
 Alpha virt. eigenvalues --    6.77559   6.82700   6.84105   6.85512   6.86589
 Alpha virt. eigenvalues --    6.87070   6.98173   7.00457   7.04268   7.09004
 Alpha virt. eigenvalues --    7.11246   7.13574   7.14478   7.18108   7.22807
 Alpha virt. eigenvalues --    7.31034   7.35658   9.02485   9.39731   9.55104
 Alpha virt. eigenvalues --   19.98568  22.33625  22.46242  22.49004  22.51766
 Alpha virt. eigenvalues --   22.58237  22.66410  22.74733  22.77265  22.84793
 Alpha virt. eigenvalues --   22.91549  23.00571  23.01906  23.08511  23.09813
 Alpha virt. eigenvalues --   23.28059  23.49806  32.17628  33.23818  44.16861
 Alpha virt. eigenvalues --   44.19215  44.25688  44.28472  44.54190
          Condensed to atoms (all electrons):
               1          2          3          4          5          6
     1  C    5.151476   0.425413   0.410253   0.013065  -0.007776  -0.000243
     2  H    0.425413   0.499540  -0.016016  -0.002252   0.000467  -0.000006
     3  H    0.410253  -0.016016   0.521621  -0.000978   0.000333  -0.000013
     4  C    0.013065  -0.002252  -0.000978   5.631036   0.541926   0.190923
     5  H   -0.007776   0.000467   0.000333   0.541926   0.524523  -0.037792
     6  O   -0.000243  -0.000006  -0.000013   0.190923  -0.037792   8.140651
     7  H    0.000039  -0.000003  -0.000002  -0.054172  -0.008615   0.321382
     8  C   -0.012423   0.010806  -0.000960  -0.023991  -0.099804  -0.054266
     9  H    0.004904  -0.000342  -0.001741  -0.070003   0.002161   0.001255
    10  O    0.005497  -0.000184  -0.000036   0.057894   0.005763  -0.020173
[...]
 (Enter /storage/apps/GAUSSIAN/G16_RevA03/g16/l716.exe)
 Dipole        =-9.23720619D-01-7.60892419D-01 1.65064711D+00
 ***** Axes restored to original set *****
 -------------------------------------------------------------------
 Center     Atomic                   Forces (Hartrees/Bohr)
 Number     Number              X              Y              Z
 -------------------------------------------------------------------
      1        6           0.000310288   -0.000047817    0.000011889
      2        1           0.000023218   -0.000003308    0.000000778
      3        1           0.000015264   -0.000011591    0.000004273
      4        6           0.000058385   -0.000082965   -0.000129022
      5        1          -0.000007876   -0.000020312    0.000009340
      6        8          -0.000105541   -0.000081943   -0.000255122
      7        1          -0.000007751   -0.000016160   -0.000001881
      8        6           0.000059013   -0.000001906   -0.000027544
      9        1          -0.000005157    0.000003608    0.000015171
     10        8           0.000007819    0.000105027   -0.000062876
     11        1          -0.000013621   -0.000012345    0.000022740
     12        6           0.000126754   -0.000099915   -0.000144223
     13        1           0.000031559   -0.000008007   -0.000028563
     14        6           0.000157089    0.000021106   -0.000003737
     15        1           0.000000979    0.000007745   -0.000005654
     16        8           0.000154681   -0.000185394   -0.000119831
     17        7           0.000163723   -0.000038995   -0.000115486
     18        6           0.000054873   -0.000101855   -0.000108738
     19        1          -0.000024647    0.000027643   -0.000042502
     20        6           0.000019839   -0.000042678   -0.000045852
     21        1           0.000010789    0.000010467    0.000021734
     22        6           0.000172517    0.000099769   -0.000382172
     23        1           0.000044806    0.000006010    0.000281462
     24        1           0.000057870   -0.000080732   -0.000042734
     25        6           0.000076197    0.000001285    0.000030733
     26        6           0.000052788   -0.000031674    0.000076902
     27        1           0.000013909    0.000004575    0.000023886
     28        6           0.000136110   -0.000041271    0.000218638
     29        8          -0.000185607    0.000073466    0.001254535
     30        7           0.000192527   -0.000276611   -0.001083169
     31        1           0.000071285   -0.000036396    0.000006024
     32        1           0.000170091    0.000368284    0.000186480
     33        1          -0.000014228    0.000003350    0.000010991
     34        6           0.000116260    0.000129754   -0.000429723
     35        6          -0.000210633    0.000023572    0.000210260
     36        6          -0.000226972    0.000284183   -0.000041463
     37        6          -0.000327258    0.000148054    0.000169071
     38        6          -0.000355459    0.000017904    0.000447428
     39        8          -0.000572141   -0.000012792    0.000590951
     40       16          -0.000214221    0.000186566   -0.000632362
     41        1           0.000010321   -0.000022068   -0.000072932
     42        1          -0.000034727   -0.000005141   -0.000024763
     43        1          -0.000077801   -0.000011636    0.000020909
     44        1          -0.000018454   -0.000058732    0.000029985
     45        1          -0.000002339    0.000014473    0.000005513
     46        1           0.000013883    0.000010352    0.000096101
     47        1           0.000071985   -0.000231432    0.000102136
     48        1           0.000009613    0.000016484   -0.000047584
 -------------------------------------------------------------------
 Cartesian Forces:  Max     0.001254535 RMS     0.000205881
 Leave Link  716 at Sat Aug 13 20:33:46 2022, MaxMem=  2684354560 cpu:               0.8 elap:               0.1
 (Enter /storage/apps/GAUSSIAN/G16_RevA03/g16/l103.exe)

 GradGradGradGradGradGradGradGradGradGradGradGradGradGradGradGradGradGrad
 Berny optimization.
 Search for a local minimum.
 Step number   1 out of a maximum of    2
 All quantities printed in internal units (Hartrees-Bohrs-Radians)
 Second derivative matrix not updated -- first step.
 ITU=  0
     Eigenvalues ---    0.00038   0.00090   0.00104   0.00125   0.00187
     Eigenvalues ---    0.00235   0.00308   0.00392   0.00419   0.00457
     Eigenvalues ---    0.00528   0.00729   0.00837   0.00911   0.00935
     Eigenvalues ---    0.00994   0.01077   0.01176   0.01379   0.01524
     Eigenvalues ---    0.01691   0.01885   0.02349   0.02499   0.02621
     Eigenvalues ---    0.02953   0.03212   0.03357   0.03761   0.03885
     Eigenvalues ---    0.04374   0.04629   0.04919   0.05078   0.05240
     Eigenvalues ---    0.05325   0.05539   0.05736   0.05836   0.05886
     Eigenvalues ---    0.06073   0.06169   0.06313   0.06394   0.06665
     Eigenvalues ---    0.06940   0.07312   0.07628   0.07822   0.08088
     Eigenvalues ---    0.08457   0.08773   0.09015   0.09634   0.10295
     Eigenvalues ---    0.10519   0.11574   0.12116   0.12207   0.12511
     Eigenvalues ---    0.12961   0.13128   0.13212   0.13573   0.13655
     Eigenvalues ---    0.14016   0.14080   0.15374   0.15983   0.16582
     Eigenvalues ---    0.16940   0.18173   0.18890   0.19630   0.19844
     Eigenvalues ---    0.19921   0.20305   0.21689   0.21842   0.22208
     Eigenvalues ---    0.24092   0.26809   0.27402   0.27664   0.31888
     Eigenvalues ---    0.32993   0.34230   0.34704   0.35339   0.37148
     Eigenvalues ---    0.38067   0.38067   0.38067   0.38067   0.40152
     Eigenvalues ---    0.43183   0.45160   0.48053   0.56581   0.56809
     Eigenvalues ---    0.61638   0.66415   0.69482   0.70093   0.74154
     Eigenvalues ---    0.78992   0.82467   0.87526   0.89122   0.91131
     Eigenvalues ---    0.91313   0.91965   0.93867   0.94454   0.94912
     Eigenvalues ---    0.95549   0.97169   0.99644   1.01433   1.02976
     Eigenvalues ---    1.05477   1.06759   1.09649   1.11409   1.14069
     Eigenvalues ---    1.19512   1.19932   1.24317   1.25949   1.29883
     Eigenvalues ---    1.33811   1.42040   1.51607   1.63685   1.70007
     Eigenvalues ---    1.79408   2.17994   2.27280
 Quadratic step=1.567D+00 exceeds max=3.000D-01 adjusted using Lamda=-2.580D-03.
 Angle between NR and scaled steps=  31.37 degrees.
 Angle between quadratic step and forces=  54.28 degrees.
 Linear search not attempted -- first point.
 Variable       Old X    -DE/DX   Delta X   Delta X   Delta X     New X
                                 (Linear)    (Quad)   (Total)
    X1        6.88613   0.00031   0.00000   0.00572   0.00572   6.89184
    Y1       -6.84992  -0.00005   0.00000  -0.00741  -0.00741  -6.85733
    Z1       -0.83982   0.00001   0.00000   0.01893   0.01893  -0.82089
    X2        7.18772   0.00002   0.00000   0.00612   0.00612   7.19384
    Y2       -7.03993  -0.00000   0.00000  -0.02313  -0.02313  -7.06306
    Z2       -2.86697   0.00000   0.00000   0.02088   0.02088  -2.84609
    X3        8.25475   0.00002   0.00000   0.00066   0.00066   8.25541
    Y3       -8.03240  -0.00001   0.00000  -0.00325  -0.00325  -8.03566
    Z3        0.14824   0.00000   0.00000   0.03078   0.03078   0.17902
    X4        3.60871   0.00006   0.00000   0.00137   0.00137   3.61008
    Y4       -2.76615  -0.00008   0.00000  -0.00114  -0.00114  -2.76729
    Z4        2.28858  -0.00013   0.00000  -0.01535  -0.01535   2.27323
    X5        2.40059  -0.00001   0.00000   0.00603   0.00603   2.40662
    Y5       -4.42795  -0.00002   0.00000  -0.00567  -0.00567  -4.43361
    Z5        2.02914   0.00001   0.00000  -0.01006  -0.01006   2.01908
    X6        2.82792  -0.00011   0.00000  -0.00911  -0.00911   2.81881
    Y6       -1.32448  -0.00008   0.00000   0.00456   0.00456  -1.31993
    Z6        4.35822  -0.00026   0.00000  -0.02360  -0.02360   4.33462
    X7        1.05703  -0.00001   0.00000  -0.01205  -0.01205   1.04498
    Y7       -0.86550  -0.00002   0.00000  -0.00619  -0.00619  -0.87169
    Z7        4.13772  -0.00000   0.00000  -0.02389  -0.02389   4.11383
    X8        6.34978   0.00006   0.00000   0.00285   0.00285   6.35262
    Y8       -3.57593  -0.00000   0.00000   0.01148   0.01148  -3.56445
    Z8        2.64198  -0.00003   0.00000  -0.00452  -0.00452   2.63745
    X9        6.52805  -0.00001   0.00000   0.00392   0.00392   6.53197
    Y9       -5.24657   0.00000   0.00000   0.01973   0.01973  -5.22683
    Z9        3.84825   0.00002   0.00000   0.00737   0.00737   3.85562
   X10        7.77295   0.00001   0.00000  -0.00722  -0.00722   7.76573
   Y10       -1.54498   0.00011   0.00000   0.02321   0.02321  -1.52177
   Z10        3.60931  -0.00006   0.00000  -0.01402  -0.01402   3.59529
   X11        6.74602  -0.00001   0.00000  -0.01168  -0.01168   6.73434
   Y11       -0.73818  -0.00001   0.00000   0.02071   0.02071  -0.71747
   Z11        4.88492   0.00002   0.00000  -0.01550  -0.01550   4.86942
   X12        3.76655   0.00013   0.00000   0.00683   0.00683   3.77338
   Y12       -1.28519  -0.00010   0.00000  -0.00846  -0.00846  -1.29364
   Z12       -0.20614  -0.00014   0.00000  -0.01832  -0.01832  -0.22446
   X13        4.33247   0.00003   0.00000   0.00415   0.00415   4.33663
   Y13        0.66160  -0.00001   0.00000  -0.00789  -0.00789   0.65371
   Z13        0.20613  -0.00003   0.00000  -0.01737  -0.01737   0.18876
   X14        7.18373   0.00016   0.00000   0.00818   0.00818   7.19191
   Y14       -4.10747   0.00002   0.00000  -0.00261  -0.00261  -4.11009
   Z14       -0.06524  -0.00000   0.00000   0.00002   0.00002  -0.06523
   X15        9.13766   0.00000   0.00000   0.00854   0.00854   9.14620
   Y15       -3.49063   0.00001   0.00000  -0.00463  -0.00463  -3.49526
   Z15       -0.29943  -0.00001   0.00000   0.00206   0.00206  -0.29737
   X16        5.61965   0.00015   0.00000   0.01079   0.01079   5.63044
   Y16       -2.55045  -0.00019   0.00000  -0.01118  -0.01118  -2.56163
   Z16       -1.64248  -0.00012   0.00000  -0.01184  -0.01184  -1.65432
   X17        1.45045   0.00016   0.00000   0.00646   0.00646   1.45691
   Y17       -1.16113  -0.00004   0.00000  -0.00753  -0.00753  -1.16866
   Z17       -1.63045  -0.00012   0.00000  -0.01650  -0.01650  -1.64695
   X18        0.34736   0.00005   0.00000   0.00568   0.00568   0.35304
   Y18       -3.38533  -0.00010   0.00000  -0.00470  -0.00470  -3.39003
   Z18       -2.51270  -0.00011   0.00000  -0.02281  -0.02281  -2.53550
   X19        1.37498  -0.00002   0.00000   0.00328   0.00328   1.37826
   Y19       -5.09184   0.00003   0.00000  -0.00671  -0.00671  -5.09856
   Z19       -2.06396  -0.00004   0.00000  -0.02578  -0.02578  -2.08974
   X20       -1.76058   0.00002   0.00000   0.00294   0.00294  -1.75764
   Y20       -3.41690  -0.00004   0.00000   0.00020   0.00020  -3.41671
   Z20       -3.87619  -0.00005   0.00000  -0.01865  -0.01865  -3.89484
   X21       -2.47674   0.00001   0.00000  -0.00199  -0.00199  -2.47873
   Y21       -5.22190   0.00001   0.00000   0.00184   0.00184  -5.22006
   Z21       -4.51364   0.00002   0.00000  -0.01768  -0.01768  -4.53133
   X22       -3.16577   0.00017   0.00000   0.00157   0.00157  -3.16420
   Y22       -1.05807   0.00010   0.00000   0.00298   0.00298  -1.05508
   Z22       -4.60137  -0.00038   0.00000  -0.00759  -0.00759  -4.60897
   X23       -3.38612   0.00004   0.00000  -0.00045  -0.00045  -3.38657
   Y23       -0.98710   0.00001   0.00000   0.01525   0.01525  -0.97185
   Z23       -6.66593   0.00028   0.00000  -0.00570  -0.00570  -6.67164
   X24       -5.09367   0.00006   0.00000   0.00192   0.00192  -5.09175
   Y24       -1.11476  -0.00008   0.00000  -0.00694  -0.00694  -1.12170
   Z24       -3.83386  -0.00004   0.00000  -0.00655  -0.00655  -3.84041
   X25       -1.78189   0.00008   0.00000  -0.00545  -0.00545  -1.78734
   Y25        1.24877   0.00000   0.00000  -0.00062  -0.00062   1.24816
   Z25       -3.65432   0.00003   0.00000   0.01214   0.01214  -3.64218
   X26        0.36058   0.00005   0.00000  -0.00262  -0.00262   0.35796
   Y26        1.07647  -0.00003   0.00000  -0.00564  -0.00564   1.07084
   Z26       -2.29959   0.00008   0.00000   0.00616   0.00616  -2.29343
   X27        1.28580   0.00001   0.00000  -0.00974  -0.00974   1.27606
   Y27        2.78655   0.00000   0.00000  -0.00821  -0.00821   2.77833
   Z27       -1.65536   0.00002   0.00000   0.02316   0.02316  -1.63220
   X28       -2.77263   0.00014   0.00000  -0.01884  -0.01884  -2.79147
   Y28        3.81607  -0.00004   0.00000   0.00070   0.00070   3.81676
   Z28       -4.11539   0.00022   0.00000   0.04939   0.04939  -4.06600
   X29       -1.66798  -0.00019   0.00000  -0.06118  -0.06118  -1.72916
   Y29        5.75145   0.00007   0.00000  -0.00336  -0.00336   5.74809
   Z29       -3.54397   0.00125   0.00000   0.14604   0.14604  -3.39794
   X30       -5.14642   0.00019   0.00000   0.01243   0.01243  -5.13399
   Y30        3.90690  -0.00028   0.00000   0.00238   0.00238   3.90929
   Z30       -5.16745  -0.00108   0.00000  -0.02214  -0.02214  -5.18959
   X31       -5.72812   0.00007   0.00000   0.00889   0.00889  -5.71923
   Y31        5.62372  -0.00004   0.00000   0.01063   0.01063   5.63435
   Z31       -5.74694   0.00001   0.00000   0.00648   0.00648  -5.74047
   X32       -5.88435   0.00017   0.00000   0.04970   0.04970  -5.83465
   Y32        2.38981   0.00037   0.00000   0.01647   0.01647   2.40629
   Z32       -6.03992   0.00019   0.00000  -0.07615  -0.07615  -6.11607
   X33        4.99253  -0.00001   0.00000   0.00326   0.00326   4.99579
   Y33       -7.54335   0.00000   0.00000   0.00040   0.00040  -7.54294
   Z33       -0.39788   0.00001   0.00000   0.02316   0.02316  -0.37471
   X34        0.42546   0.00012   0.00000   0.00468   0.00468   0.43014
   Y34        4.18406   0.00013   0.00000   0.00224   0.00224   4.18629
   Z34        5.19650  -0.00043   0.00000  -0.01491  -0.01491   5.18160
   X35       -3.23570  -0.00021   0.00000  -0.00780  -0.00780  -3.24350
   Y35        1.74273   0.00002   0.00000  -0.00352  -0.00352   1.73922
   Z35        2.51865   0.00021   0.00000   0.01622   0.01622   2.53487
   X36       -5.62185  -0.00023   0.00000   0.00542   0.00542  -5.61643
   Y36        1.66097   0.00028   0.00000  -0.00248  -0.00248   1.65849
   Z36        1.07567  -0.00004   0.00000  -0.00443  -0.00443   1.07124
   X37       -9.23059  -0.00033   0.00000   0.00412   0.00412  -9.22647
   Y37       -0.78627   0.00015   0.00000   0.00165   0.00165  -0.78462
   Z37       -0.72817   0.00017   0.00000  -0.00639  -0.00639  -0.73456
   X38       -6.77375  -0.00036   0.00000  -0.00993  -0.00993  -6.78368
   Y38       -0.52543   0.00002   0.00000   0.00091   0.00091  -0.52451
   Z38        0.62547   0.00045   0.00000   0.01909   0.01909   0.64456
   X39       -2.05179  -0.00057   0.00000  -0.06065  -0.06065  -2.11244
   Y39       -0.12797  -0.00001   0.00000  -0.00840  -0.00840  -0.13636
   Z39        3.13738   0.00059   0.00000   0.10247   0.10247   3.23985
   X40       -2.33508  -0.00021   0.00000   0.05709   0.05709  -2.27799
   Y40        4.82844   0.00019   0.00000   0.00565   0.00565   4.83409
   Z40        3.32730  -0.00063   0.00000  -0.09264  -0.09264   3.23467
   X41        0.98223   0.00001   0.00000  -0.00150  -0.00150   0.98073
   Y41        5.96985  -0.00002   0.00000   0.00501   0.00501   5.97486
   Z41        6.04742  -0.00007   0.00000  -0.01681  -0.01681   6.03061
   X42        1.95228  -0.00003   0.00000   0.02819   0.02819   1.98048
   Y42        3.46746  -0.00001   0.00000  -0.02430  -0.02430   3.44316
   Z42        4.02288  -0.00002   0.00000   0.03274   0.03274   4.05562
   X43      -10.69131  -0.00008   0.00000  -0.01321  -0.01321 -10.70451
   Y43       -1.45421  -0.00001   0.00000   0.01498   0.01498  -1.43923
   Z43        0.56989   0.00002   0.00000  -0.01911  -0.01911   0.55079
   X44       -9.83862  -0.00002   0.00000   0.02086   0.02086  -9.81776
   Y44        1.00728  -0.00006   0.00000  -0.00133  -0.00133   1.00595
   Z44       -1.53606   0.00003   0.00000  -0.02508  -0.02508  -1.56114
   X45       -9.09707  -0.00000   0.00000   0.01710   0.01710  -9.07997
   Y45       -2.19232   0.00001   0.00000  -0.00800  -0.00800  -2.20031
   Z45       -2.23288   0.00001   0.00000   0.00366   0.00366  -2.22922
   X46       -5.86788   0.00001   0.00000  -0.02817  -0.02817  -5.89605
   Y46       -2.23714   0.00001   0.00000   0.00333   0.00333  -2.23381
   Z46        1.30942   0.00010   0.00000   0.04990   0.04990   1.35931
   X47       -6.39779   0.00007   0.00000   0.03057   0.03057  -6.36723
   Y47        3.44800  -0.00023   0.00000  -0.00585  -0.00585   3.44216
   Z47        0.43619   0.00010   0.00000  -0.04157  -0.04157   0.39462
   X48       -0.01907   0.00001   0.00000  -0.04405  -0.04405  -0.06312
   Y48        2.81686   0.00002   0.00000   0.02129   0.02129   2.83816
   Z48        6.66602  -0.00005   0.00000  -0.01111  -0.01111   6.65491
         Item               Value     Threshold  Converged?
 Maximum Force            0.001255     0.000450     NO 
 RMS     Force            0.000206     0.000300     YES
 Maximum Displacement     0.146036     0.001800     NO 
 RMS     Displacement     0.025024     0.001200     NO 
 Predicted change in Energy=-3.328617D-04
 GradGradGradGradGradGradGradGradGradGradGradGradGradGradGradGradGradGrad

 Leave Link  103 at Sat Aug 13 20:33:46 2022, MaxMem=  2684354560 cpu:               1.1 elap:               0.1
 (Enter /storage/apps/GAUSSIAN/G16_RevA03/g16/l9999.exe)

 Test job not archived.
 1\1\GINC-T045\Force\RM062X\def2TZVP\C16H24N2O5S1\LV87696\13-Aug-2022\0
 \\#P M062X/Def2TZVP scf=(direct,conver=8) EmpiricalDispersion=GD3 Forc
 e Charge Prop=(Field,Read)\\Gaussian run\\0,1\C,3.643981,-3.624824,-0.
 444416\H,3.803577,-3.725369,-1.517135\H,4.368227,-4.250565,0.078446\C,
 1.909649,-1.463784,1.211066\H,1.270336,-2.343169,1.073775\O,1.496471,-
 0.700886,2.306272\H,0.559357,-0.458005,2.189587\C,3.360157,-1.8923,1.3
 98074\H,3.454495,-2.776363,2.036408\O,4.113267,-0.81757,1.909965\H,3.5
 6984,-0.390629,2.584989\C,1.993172,-0.680092,-0.109084\H,2.292647,0.35
 0102,0.109078\C,3.801467,-2.173582,-0.034526\H,4.835442,-1.847161,-0.1
 58451\O,2.97379,-1.349642,-0.869164\N,0.767545,-0.614443,-0.862799\C,0
 .183814,-1.79144,-1.329661\H,0.727609,-2.694487,-1.092199\C,-0.93166,-
 1.808148,-2.051189\H,-1.310634,-2.763311,-2.388516\C,-1.675254,-0.5599
 04,-2.434942\H,-1.791855,-0.52235,-3.527459\H,-2.695454,-0.589906,-2.0
 28793\C,-0.942936,0.660823,-1.933782\C,0.19081,0.569644,-1.216893\H,0.
 680416,1.474577,-0.875979\C,-1.467215,2.019376,-2.17777\O,-0.882656,3.
 043535,-1.875389\N,-2.723367,2.067445,-2.734498\H,-3.031193,2.975942,-
 3.041152\H,-3.113863,1.264634,-3.196188\H,2.641931,-3.991767,-0.210547
 \C,0.225144,2.214107,2.749871\C,-1.71226,0.922215,1.332812\C,-2.974955
 ,0.878947,0.569219\C,-4.884617,-0.416074,-0.385333\C,-3.584516,-0.2780
 43,0.330984\O,-1.085763,-0.067717,1.660232\S,-1.235672,2.555101,1.7607
 33\H,0.519772,3.159106,3.200158\H,1.033104,1.834899,2.128818\H,-5.6575
 95,-0.769537,0.301574\H,-5.206375,0.533031,-0.81285\H,-4.813964,-1.160
 124,-1.181588\H,-3.10515,-1.183845,0.692913\H,-3.385567,1.824605,0.230
 822\H,-0.010091,1.49062,3.527505\\Version=ES64L-G16RevA.03\State=1-A\H
 F=-1507.9330626\RMSD=1.575e-09\RMSF=2.059e-04\Dipole=-1.6714685,-1.167
 0564,-0.0320182\Quadrupole=4.108812,-3.025888,-1.082924,-2.1365339,8.0
 797346,5.4343614\PG=C01 [X(C16H24N2O5S1)]\\@


 DO YOU KNOW THAT THE LETTERS IN "EPISCOPAL", WHEN
 REARRANGED, SPELL "PEPSI COLA"?
 Job cpu time:       0 days  3 hours 11 minutes 16.5 seconds.
 Elapsed time:       0 days  0 hours 11 minutes 59.2 seconds.
 File lengths (MBytes):  RWF=    435 Int=      0 D2E=      0 Chk=     48 Scr=      1
 Normal termination of Gaussian 16 at Sat Aug 13 20:33:46 2022.
