 Entering Gaussian System, Link 0=g16
 Initial command:
 /storage/apps/GAUSSIAN/G16_RevA03/g16/l1.exe "/scratch/tmp/1019234/Gau-167658.inp" -scrdir="/scratch/tmp/1019234/"
 Entering Link 1 = /storage/apps/GAUSSIAN/G16_RevA03/g16/l1.exe PID=    167663.
  
 Copyright (c) 1988,1990,1992,1993,1995,1998,2003,2009,2016,
            Gaussian, Inc.  All Rights Reserved.
  
 This is part of the Gaussian(R) 16 program.  It is based on
 the Gaussian(R) 09 system (copyright 2009, Gaussian, Inc.),
 the Gaussian(R) 03 system (copyright 2003, Gaussian, Inc.),
 the Gaussian(R) 98 system (copyright 1998, Gaussian, Inc.),
 the Gaussian(R) 94 system (copyright 1995, Gaussian, Inc.),
 the Gaussian 92(TM) system (copyright 1992, Gaussian, Inc.),
 the Gaussian 90(TM) system (copyright 1990, Gaussian, Inc.),
 the Gaussian 88(TM) system (copyright 1988, Gaussian, Inc.),
 the Gaussian 86(TM) system (copyright 1986, Carnegie Mellon
 University), and the Gaussian 82(TM) system (copyright 1983,
 Carnegie Mellon University). Gaussian is a federally registered
 trademark of Gaussian, Inc.
  
 This software contains proprietary and confidential information,
 including trade secrets, belonging to Gaussian, Inc.
  
 This software is provided under written license and may be
 used, copied, transmitted, or stored only in accord with that
 written license.
  
 The following legend is applicable only to US Government
 contracts under FAR:
  
                    RESTRICTED RIGHTS LEGEND
  
 Use, reproduction and disclosure by the US Government is
 subject to restrictions as set forth in subparagraphs (a)
 and (c) of the Commercial Computer Software - Restricted
 Rights clause in FAR 52.227-19.
  
 Gaussian, Inc.
 340 Quinnipiac St., Bldg. 40, Wallingford CT 06492
  
  
 ---------------------------------------------------------------
 Warning -- This program may not be used in any manner that
 competes with the business of Gaussian, Inc. or will provide
 assistance to any competitor of Gaussian, Inc.  The licensee
 of this program is prohibited from giving any competitor of
 Gaussian, Inc. access to this program.  By using this program,
 the user acknowledges that Gaussian, Inc. is engaged in the
 business of creating and licensing software in the field of
 computational chemistry and represents and warrants to the
 licensee that it is not a competitor of Gaussian, Inc. and that
 it will not use this program in any manner prohibited above.
 ---------------------------------------------------------------
  

 Cite this work as:
 Gaussian 16, Revision A.03,
 M. J. Frisch, G. W. Trucks, H. B. Schlegel, G. E. Scuseria, 
 M. A. Robb, J. R. Cheeseman, G. Scalmani, V. Barone, 
 G. A. Petersson, H. Nakatsuji, X. Li, M. Caricato, A. V. Marenich, 
 J. Bloino, B. G. Janesko, R. Gomperts, B. Mennucci, H. P. Hratchian, 
 J. V. Ortiz, A. F. Izmaylov, J. L. Sonnenberg, D. Williams-Young, 
 F. Ding, F. Lipparini, F. Egidi, J. Goings, B. Peng, A. Petrone, 
 T. Henderson, D. Ranasinghe, V. G. Zakrzewski, J. Gao, N. Rega, 
 G. Zheng, W. Liang, M. Hada, M. Ehara, K. Toyota, R. Fukuda, 
 J. Hasegawa, M. Ishida, T. Nakajima, Y. Honda, O. Kitao, H. Nakai, 
 T. Vreven, K. Throssell, J. A. Montgomery, Jr., J. E. Peralta, 
 F. Ogliaro, M. J. Bearpark, J. J. Heyd, E. N. Brothers, K. N. Kudin, 
 V. N. Staroverov, T. A. Keith, R. Kobayashi, J. Normand, 
 K. Raghavachari, A. P. Rendell, J. C. Burant, S. S. Iyengar, 
 J. Tomasi, M. Cossi, J. M. Millam, M. Klene, C. Adamo, R. Cammi, 
 J. W. Ochterski, R. L. Martin, K. Morokuma, O. Farkas, 
 J. B. Foresman, and D. J. Fox, Gaussian, Inc., Wallingford CT, 2016.
 
 ******************************************
 Gaussian 16:  ES64L-G16RevA.03 25-Dec-2016
                13-Aug-2022 
 ******************************************
 %NProcShared=16
 Will use up to   16 processors via shared memory.
 %mem=20GB
 ----------------------------------------------------------------------
 #P M062X/Def2TZVP scf=(direct,conver=8) EmpiricalDispersion=GD3 Force 
 Charge Prop=(Field,Read)
 ----------------------------------------------------------------------
 1/10=7,18=10,28=-2,30=1,38=1,125=101/1,3;
 2/12=2,17=6,18=5,29=2,40=1/2;
 3/5=44,7=101,11=2,25=1,30=1,71=1,74=-55,124=31/1,2,3;
 4//1;
 5/5=2,6=8,38=5/2;
 6/7=2,8=2,9=2,10=2,14=2,15=1,28=1/1,2;
 7/7=1,16=-2,29=1/1,2,3,16;
 1/10=7,18=10,28=-2,30=1/3;
 99/12=1/99;
 Leave Link    1 at Sat Aug 13 20:21:42 2022, MaxMem=  2684354560 cpu:               0.8 elap:               0.1
 (Enter /storage/apps/GAUSSIAN/G16_RevA03/g16/l101.exe)
 ------------
 Gaussian run
 ------------
 Symbolic Z-matrix:
 Charge =  0 Multiplicity = 1
 C                     3.63241  -3.62303  -0.44496 
 H                     3.78867  -3.72284  -1.51825 
 H                     4.35686  -4.25104   0.07496 
 C                     1.90675  -1.46083   1.21579 
 H                     1.26528  -2.33885   1.07955 
 O                     1.4986   -0.69839   2.31319 
 H                     0.56269  -0.45123   2.19498 
 C                     3.35682  -1.89211   1.39956 
 H                     3.45061  -2.77705   2.03679 
 O                     4.1125   -0.81933   1.91158 
 H                     3.57014  -0.39152   2.58691 
 C                     1.98818  -0.67639  -0.10455 
 H                     2.28685   0.35407   0.11339 
 C                     3.79504  -2.17264  -0.03383 
 H                     4.82987  -1.84942  -0.15916 
 O                     2.96881  -1.3447   -0.86576 
 N                     0.76228  -0.61182  -0.85856 
 C                     0.18132  -1.78955  -1.32639 
 H                     0.72658  -2.69175  -1.08913 
 C                    -0.9331   -1.80817  -2.0497 
 H                    -1.30942  -2.76387  -2.38853 
 C                    -1.67895  -0.56119  -2.43225 
 H                    -1.80018  -0.52401  -3.52386 
 H                    -2.69835  -0.59352  -2.02285 
 C                    -0.94664   0.66088  -1.93508 
 C                     0.18712   0.57152  -1.21774 
 H                     0.67778   1.47722  -0.88035 
 C                    -1.47062   2.01891  -2.18441 
 O                    -0.87481   3.04388  -1.90907 
 N                    -2.73967   2.06574  -2.71182 
 H                    -3.04972   2.9717   -3.02284 
 H                    -3.14194   1.25897  -3.15795 
 H                     2.63038  -3.98807  -0.20825 
 C                     0.22178   2.20944   2.76617 
 C                    -1.70226   0.92125   1.32573 
 C                    -2.96597   0.87884   0.56497 
 C                    -4.87253  -0.41939  -0.39312 
 C                    -3.56882  -0.28131   0.31572 
 O                    -1.06987  -0.06854   1.64241 
 S                    -1.23311   2.55252   1.76897 
 H                     0.50855   3.15209   3.22643 
 H                     1.03628   1.83919   2.1482 
 H                    -5.63908  -0.78363   0.29535 
 H                    -5.20277   0.53211  -0.80882 
 H                    -4.80398  -1.15507  -1.19686 
 H                    -3.08006  -1.18734   0.66375 
 H                    -3.38842   1.82341   0.2444 
 H                    -0.01645   1.47864   3.53597 
 
 ITRead=  0  0  0  0  0  0  0  0  0  0  0  0  0  0  0  0  0  0  0  0
 ITRead=  0  0  0  0  0  0  0  0  0  0  0  0  0  0  0  0  0  0  0  0
 ITRead=  0  0  0  0  0  0  0  0
 MicOpt= -1 -1 -1 -1 -1 -1 -1 -1 -1 -1 -1 -1 -1 -1 -1 -1 -1 -1 -1 -1
 MicOpt= -1 -1 -1 -1 -1 -1 -1 -1 -1 -1 -1 -1 -1 -1 -1 -1 -1 -1 -1 -1
 MicOpt= -1 -1 -1 -1 -1 -1 -1 -1
 NAtoms=     48 NQM=       48 NQMF=       0 NMMI=      0 NMMIF=      0
                NMic=       0 NMicF=      0.
                    Isotopes and Nuclear Properties:
 (Nuclear quadrupole moments (NQMom) in fm**2, nuclear magnetic moments (NMagM)
  in nuclear magnetons)

  Atom         1           2           3           4           5           6           7           8           9          10
 IAtWgt=          12           1           1          12           1          16           1          12           1          16
 AtmWgt=  12.0000000   1.0078250   1.0078250  12.0000000   1.0078250  15.9949146   1.0078250  12.0000000   1.0078250  15.9949146
 NucSpn=           0           1           1           0           1           0           1           0           1           0
 AtZEff=  -0.0000000  -0.0000000  -0.0000000  -0.0000000  -0.0000000  -0.0000000  -0.0000000  -0.0000000  -0.0000000  -0.0000000
 NQMom=    0.0000000   0.0000000   0.0000000   0.0000000   0.0000000   0.0000000   0.0000000   0.0000000   0.0000000   0.0000000
 NMagM=    0.0000000   2.7928460   2.7928460   0.0000000   2.7928460   0.0000000   2.7928460   0.0000000   2.7928460   0.0000000
 AtZNuc=   6.0000000   1.0000000   1.0000000   6.0000000   1.0000000   8.0000000   1.0000000   6.0000000   1.0000000   8.0000000

  Atom        11          12          13          14          15          16          17          18          19          20
 IAtWgt=           1          12           1          12           1          16          14          12           1          12
 AtmWgt=   1.0078250  12.0000000   1.0078250  12.0000000   1.0078250  15.9949146  14.0030740  12.0000000   1.0078250  12.0000000
 NucSpn=           1           0           1           0           1           0           2           0           1           0
 AtZEff=  -0.0000000  -0.0000000  -0.0000000  -0.0000000  -0.0000000  -0.0000000  -0.0000000  -0.0000000  -0.0000000  -0.0000000
 NQMom=    0.0000000   0.0000000   0.0000000   0.0000000   0.0000000   0.0000000   2.0440000   0.0000000   0.0000000   0.0000000
 NMagM=    2.7928460   0.0000000   2.7928460   0.0000000   2.7928460   0.0000000   0.4037610   0.0000000   2.7928460   0.0000000
 AtZNuc=   1.0000000   6.0000000   1.0000000   6.0000000   1.0000000   8.0000000   7.0000000   6.0000000   1.0000000   6.0000000

  Atom        21          22          23          24          25          26          27          28          29          30
 IAtWgt=           1          12           1           1          12          12           1          12          16          14
 AtmWgt=   1.0078250  12.0000000   1.0078250   1.0078250  12.0000000  12.0000000   1.0078250  12.0000000  15.9949146  14.0030740
 NucSpn=           1           0           1           1           0           0           1           0           0           2
 AtZEff=  -0.0000000  -0.0000000  -0.0000000  -0.0000000  -0.0000000  -0.0000000  -0.0000000  -0.0000000  -0.0000000  -0.0000000
 NQMom=    0.0000000   0.0000000   0.0000000   0.0000000   0.0000000   0.0000000   0.0000000   0.0000000   0.0000000   2.0440000
 NMagM=    2.7928460   0.0000000   2.7928460   2.7928460   0.0000000   0.0000000   2.7928460   0.0000000   0.0000000   0.4037610
 AtZNuc=   1.0000000   6.0000000   1.0000000   1.0000000   6.0000000   6.0000000   1.0000000   6.0000000   8.0000000   7.0000000

  Atom        31          32          33          34          35          36          37          38          39          40
 IAtWgt=           1           1           1          12          12          12          12          12          16          32
 AtmWgt=   1.0078250   1.0078250   1.0078250  12.0000000  12.0000000  12.0000000  12.0000000  12.0000000  15.9949146  31.9720718
 NucSpn=           1           1           1           0           0           0           0           0           0           0
 AtZEff=  -0.0000000  -0.0000000  -0.0000000  -0.0000000  -0.0000000  -0.0000000  -0.0000000  -0.0000000  -0.0000000  -0.0000000
 NQMom=    0.0000000   0.0000000   0.0000000   0.0000000   0.0000000   0.0000000   0.0000000   0.0000000   0.0000000   0.0000000
 NMagM=    2.7928460   2.7928460   2.7928460   0.0000000   0.0000000   0.0000000   0.0000000   0.0000000   0.0000000   0.0000000
 AtZNuc=   1.0000000   1.0000000   1.0000000   6.0000000   6.0000000   6.0000000   6.0000000   6.0000000   8.0000000  16.0000000

  Atom        41          42          43          44          45          46          47          48
 IAtWgt=           1           1           1           1           1           1           1           1
 AtmWgt=   1.0078250   1.0078250   1.0078250   1.0078250   1.0078250   1.0078250   1.0078250   1.0078250
 NucSpn=           1           1           1           1           1           1           1           1
 AtZEff=  -0.0000000  -0.0000000  -0.0000000  -0.0000000  -0.0000000  -0.0000000  -0.0000000  -0.0000000
 NQMom=    0.0000000   0.0000000   0.0000000   0.0000000   0.0000000   0.0000000   0.0000000   0.0000000
 NMagM=    2.7928460   2.7928460   2.7928460   2.7928460   2.7928460   2.7928460   2.7928460   2.7928460
 AtZNuc=   1.0000000   1.0000000   1.0000000   1.0000000   1.0000000   1.0000000   1.0000000   1.0000000
 Background charge distribution read from input stream:
 Leave Link  101 at Sat Aug 13 20:21:43 2022, MaxMem=  2684354560 cpu:               2.2 elap:               0.2
 (Enter /storage/apps/GAUSSIAN/G16_RevA03/g16/l103.exe)

 GradGradGradGradGradGradGradGradGradGradGradGradGradGradGradGradGradGrad
 Berny optimization.
 Initialization pass.
 Trust Radius=3.00D-01 FncErr=1.00D-07 GrdErr=1.00D-07 EigMax=2.50D+02 EigMin=1.00D-04
 Number of steps in this run=      2 maximum allowed number of steps=      2.
 GradGradGradGradGradGradGradGradGradGradGradGradGradGradGradGradGradGrad

 Leave Link  103 at Sat Aug 13 20:21:43 2022, MaxMem=  2684354560 cpu:               0.6 elap:               0.1
 (Enter /storage/apps/GAUSSIAN/G16_RevA03/g16/l202.exe)
 ---------------------------------------------------------------------------------------------------
                            Z-MATRIX (ANGSTROMS AND DEGREES)
   CD    Cent   Atom    N1       Length/X        N2       Alpha/Y        N3        Beta/Z          J
 ---------------------------------------------------------------------------------------------------
      1      1  C        0   3.632405         -3.623030         -0.444958
      2      2  H        0   3.788668         -3.722841         -1.518247
      3      3  H        0   4.356865         -4.251041          0.074963
      4      4  C        0   1.906748         -1.460831          1.215790
      5      5  H        0   1.265281         -2.338849          1.079553
      6      6  O        0   1.498603         -0.698391          2.313192
      7      7  H        0   0.562685         -0.451233          2.194978
      8      8  C        0   3.356823         -1.892113          1.399564
      9      9  H        0   3.450606         -2.777053          2.036794
     10     10  O        0   4.112497         -0.819332          1.911575
     11     11  H        0   3.570141         -0.391522          2.586911
     12     12  C        0   1.988175         -0.676388         -0.104546
     13     13  H        0   2.286849          0.354068          0.113392
     14     14  C        0   3.795042         -2.172642         -0.033833
     15     15  H        0   4.829870         -1.849421         -0.159161
     16     16  O        0   2.968812         -1.344704         -0.865759
     17     17  N        0   0.762277         -0.611822         -0.858560
     18     18  C        0   0.181316         -1.789548         -1.326391
     19     19  H        0   0.726580         -2.691753         -1.089125
     20     20  C        0  -0.933102         -1.808166         -2.049703
     21     21  H        0  -1.309421         -2.763868         -2.388526
     22     22  C        0  -1.678952         -0.561185         -2.432250
     23     23  H        0  -1.800178         -0.524010         -3.523855
     24     24  H        0  -2.698351         -0.593522         -2.022855
     25     25  C        0  -0.946639          0.660884         -1.935075
     26     26  C        0   0.187118          0.571522         -1.217740
     27     27  H        0   0.677776          1.477217         -0.880350
     28     28  C        0  -1.470622          2.018913         -2.184406
     29     29  O        0  -0.874807          3.043881         -1.909074
     30     30  N        0  -2.739667          2.065738         -2.711822
     31     31  H        0  -3.049724          2.971702         -3.022843
     32     32  H        0  -3.141939          1.258965         -3.157945
     33     33  H        0   2.630376         -3.988067         -0.208250
     34     34  C        0   0.221783          2.209442          2.766171
     35     35  C        0  -1.702255          0.921246          1.325732
     36     36  C        0  -2.965972          0.878837          0.564966
     37     37  C        0  -4.872527         -0.419392         -0.393122
     38     38  C        0  -3.568821         -0.281312          0.315724
     39     39  O        0  -1.069871         -0.068544          1.642410
     40     40  S        0  -1.233110          2.552522          1.768968
     41     41  H        0   0.508547          3.152088          3.226425
     42     42  H        0   1.036281          1.839191          2.148205
     43     43  H        0  -5.639076         -0.783627          0.295346
     44     44  H        0  -5.202768          0.532107         -0.808821
     45     45  H        0  -4.803981         -1.155073         -1.196864
     46     46  H        0  -3.080060         -1.187339          0.663752
     47     47  H        0  -3.388420          1.823413          0.244402
     48     48  H        0  -0.016454          1.478641          3.535971
 ---------------------------------------------------------------------------------------------------
                         Z-Matrix orientation:                         
 ---------------------------------------------------------------------
 Center     Atomic      Atomic             Coordinates (Angstroms)
 Number     Number       Type             X           Y           Z
 ---------------------------------------------------------------------
      1          6           0        3.632405   -3.623030   -0.444958
      2          1           0        3.788668   -3.722841   -1.518247
      3          1           0        4.356865   -4.251041    0.074963
      4          6           0        1.906748   -1.460831    1.215790
      5          1           0        1.265281   -2.338849    1.079553
      6          8           0        1.498603   -0.698391    2.313192
      7          1           0        0.562685   -0.451233    2.194978
      8          6           0        3.356823   -1.892113    1.399564
      9          1           0        3.450606   -2.777053    2.036794
     10          8           0        4.112497   -0.819332    1.911575
     11          1           0        3.570141   -0.391522    2.586911
     12          6           0        1.988175   -0.676388   -0.104546
     13          1           0        2.286849    0.354068    0.113392
     14          6           0        3.795042   -2.172642   -0.033833
     15          1           0        4.829870   -1.849421   -0.159161
     16          8           0        2.968812   -1.344704   -0.865759
     17          7           0        0.762277   -0.611822   -0.858560
     18          6           0        0.181316   -1.789548   -1.326391
     19          1           0        0.726580   -2.691753   -1.089125
     20          6           0       -0.933102   -1.808166   -2.049703
     21          1           0       -1.309421   -2.763868   -2.388526
     22          6           0       -1.678952   -0.561185   -2.432250
     23          1           0       -1.800178   -0.524010   -3.523855
     24          1           0       -2.698351   -0.593522   -2.022855
     25          6           0       -0.946639    0.660884   -1.935075
     26          6           0        0.187118    0.571522   -1.217740
     27          1           0        0.677776    1.477217   -0.880350
     28          6           0       -1.470622    2.018913   -2.184406
     29          8           0       -0.874807    3.043881   -1.909074
     30          7           0       -2.739667    2.065738   -2.711822
     31          1           0       -3.049724    2.971702   -3.022843
     32          1           0       -3.141939    1.258965   -3.157945
     33          1           0        2.630376   -3.988067   -0.208250
     34          6           0        0.221783    2.209442    2.766171
     35          6           0       -1.702255    0.921246    1.325732
     36          6           0       -2.965972    0.878837    0.564966
     37          6           0       -4.872527   -0.419392   -0.393122
     38          6           0       -3.568821   -0.281312    0.315724
     39          8           0       -1.069871   -0.068544    1.642410
     40         16           0       -1.233110    2.552522    1.768968
     41          1           0        0.508547    3.152088    3.226425
     42          1           0        1.036281    1.839191    2.148205
     43          1           0       -5.639076   -0.783627    0.295346
     44          1           0       -5.202768    0.532107   -0.808821
     45          1           0       -4.803981   -1.155073   -1.196864
     46          1           0       -3.080060   -1.187339    0.663752
     47          1           0       -3.388420    1.823413    0.244402
     48          1           0       -0.016454    1.478641    3.535971
 ---------------------------------------------------------------------
                    Distance matrix (angstroms):
                    1          2          3          4          5
     1  C    0.000000
     2  H    1.089188   0.000000
     3  H    1.090669   1.772050   0.000000
     4  C    3.226621   4.016624   3.884563   0.000000
     5  H    3.094597   3.877045   3.771415   1.095881   0.000000
     6  O    4.551265   5.391810   5.079434   1.397207   2.065770
     7  H    5.143223   5.907489   5.773111   1.945406   2.302370
     8  C    2.544461   3.471552   2.884301   1.523973   2.162528
     9  H    2.628273   3.694201   2.615861   2.188604   2.425691
    10  O    3.693841   4.505431   3.899934   2.400201   3.332841
    11  H    4.431563   5.291291   4.671692   2.406298   3.372920
    12  C    3.391470   3.810669   4.291976   1.537943   2.165281
    13  H    4.235515   4.641001   5.049106   2.157224   3.037906
    14  C    1.516278   2.146309   2.155742   2.373581   2.768925
    15  H    2.159002   2.537897   2.458928   3.253634   3.805292
    16  O    2.410020   2.598738   3.355360   2.339725   2.770303
    17  N    4.180440   4.390065   5.199658   2.516656   2.644223
    18  C    4.006070   4.097245   5.045587   3.089960   2.695418
    19  H    3.118661   3.259397   4.118914   2.867159   2.262279
    20  C    5.168442   5.122845   6.202064   4.341524   3.860927
    21  H    5.379336   5.259993   6.355097   5.003273   4.340196
    22  C    6.444745   6.381719   7.505481   5.193727   4.915420
    23  H    6.971118   6.744641   8.046827   6.089595   5.820829
    24  H    7.193480   7.220020   8.219146   5.696313   5.327427
    25  C    6.445154   6.466369   7.502960   4.750941   4.793639
    26  C    5.482833   5.612755   6.504997   3.606890   3.861379
    27  H    5.910323   6.093042   6.874682   3.812650   4.329982
    28  C    7.803722   7.814834   8.853060   5.922548   6.093331
    29  O    8.179627   8.227349   9.193622   6.147703   6.518102
    30  N    8.837650   8.806329   9.900941   7.032211   7.057940
    31  H    9.735853   9.687328  10.799166   7.885428   7.978150
    32  H    8.779858   8.691393   9.851087   7.212218   7.093958
    33  H    1.092403   1.768637   1.769217   2.989724   2.498368
    34  C    7.480737   8.140693   8.128920   4.325933   4.961907
    35  C    7.228028   7.733434   8.064113   4.325654   4.415325
    36  C    8.051418   8.434476   8.954311   5.444357   5.340581
    37  C    9.088446   9.337825  10.004115   7.044981   6.597407
    38  C    7.975172   8.327077   8.867537   5.673027   5.308996
    39  O    6.253229   6.851937   7.028487   3.313718   3.305152
    40  S    8.167750   8.683560   8.966936   5.125594   5.535590
    41  H    8.315033   8.974172   8.918945   5.222704   5.944081
    42  H    6.580290   7.207961   7.239857   3.537973   4.318620
    43  H    9.724743  10.040441  10.582550   7.631860   7.120663
    44  H    9.770253   9.972652  10.725957   7.656113   7.324207
    45  H    8.822062   8.973870   9.753136   7.137806   6.589335
    46  H    7.226273   7.639981   8.064787   5.024719   4.514516
    47  H    8.912404   9.240046   9.844650   6.306240   6.299114
    48  H    7.428931   8.190207   7.995858   4.209803   4.716997
                    6          7          8          9         10
     6  O    0.000000
     7  H    0.975194   0.000000
     8  C    2.390119   3.242842   0.000000
     9  H    2.864882   3.711408   1.094521   0.000000
    10  O    2.647332   3.580081   1.408566   2.070375   0.000000
    11  H    2.111957   3.033475   1.925376   2.451056   0.966049
    12  C    2.466905   2.714871   2.369289   3.337190   2.932221
    13  H    2.562835   2.820328   2.800788   3.854572   2.818390
    14  C    3.599385   4.287071   1.524913   2.184364   2.390991
    15  H    4.305199   5.070086   2.145067   2.754104   2.421498
    16  O    3.561596   3.994477   2.362604   3.272394   3.049199
    17  N    3.257251   3.064265   3.670141   4.505376   4.352089
    18  C    4.021496   3.786366   4.186310   4.793166   5.184586
    19  H    4.018118   3.978960   3.708258   4.147163   4.896386
    20  C    5.116605   4.700634   5.505265   6.070840   6.490577
    21  H    5.852978   5.464574   6.073172   6.499345   7.188135
    22  C    5.712696   5.142788   6.466313   7.155053   7.244055
    23  H    6.706973   6.188172   7.259919   7.972939   8.036843
    24  H    6.035456   5.333359   7.075622   7.684935   7.868823
    25  C    5.086709   4.535659   6.013102   6.850614   6.525535
    26  C    3.974941   3.582419   4.792370   5.696955   5.209193
    27  H    3.950410   3.631777   4.871107   5.856375   4.986611
    28  C    6.035597   5.423556   7.172530   8.064633   7.483576
    29  O    6.120883   5.579019   7.295054   8.256049   7.375295
    30  N    7.131207   6.427858   8.350765   9.182672   8.755089
    31  H    7.913920   7.210523   9.179228  10.045019   9.487773
    32  H    7.436344   6.730736   8.540146   9.313238   9.090995
    33  H    4.296574   4.749742   2.739674   2.679469   4.090382
    34  C    3.207951   2.742566   5.340304   5.985183   5.004144
    35  C    3.720725   2.787336   5.789189   6.382398   6.097882
    36  C    5.047412   4.108217   6.953593   7.530225   7.402828
    37  C    6.927718   6.020034   8.550136   8.985410   9.284516
    38  C    5.462840   4.542005   7.192631   7.646121   7.863768
    39  O    2.728317   1.765509   4.793746   5.284531   5.243383
    40  S    4.280989   3.525466   6.399900   7.100232   6.321808
    41  H    4.079264   3.748431   6.074048   6.725002   5.521726
    42  H    2.584625   2.339342   4.457354   5.210670   4.072695
    43  H    7.417913   6.494685   9.130949   9.467244   9.884667
    44  H    7.494629   6.574969   9.166265   9.691695   9.798015
    45  H    7.228528   6.387573   8.595545   9.012523   9.448740
    46  H    4.891204   4.019465   6.517023   6.860177   7.309266
    47  H    5.875575   4.958830   7.787030   8.435000   8.125720
    48  H    2.920626   2.420347   5.225439   5.690252   4.996757
                   11         12         13         14         15
    11  H    0.000000
    12  C    3.134917   0.000000
    13  H    2.884621   1.094780   0.000000
    14  C    3.176676   2.347029   2.946283   0.000000
    15  H    3.354594   3.074771   3.375886   1.091351   0.000000
    16  O    3.631953   1.409872   2.075966   1.435353   2.053669
    17  N    4.450158   1.440671   2.049867   3.509131   4.308842
    18  C    5.362140   2.448830   3.331866   3.857004   4.793231
    19  H    5.185571   2.573463   3.627329   3.286119   4.290844
    20  C    6.616968   3.687603   4.440982   5.152856   6.065286
    21  H    7.361598   4.521977   5.377200   5.652404   6.595239
    22  C    7.264554   4.345031   4.800579   6.189815   7.013647
    23  H    8.136298   5.105537   5.541153   6.797406   7.552180
    24  H    7.783620   5.064613   5.505788   6.972373   7.856510
    25  C    6.477439   3.708405   3.840026   5.841843   6.543971
    26  C    5.181473   2.457699   2.495610   4.684996   5.341975
    27  H    4.886702   2.637619   2.199569   4.873952   5.369033
    28  C    7.347445   4.853220   4.708521   7.065502   7.665626
    29  O    7.195376   5.029253   4.617524   7.248181   7.716861
    30  N    8.598161   6.055546   6.014774   8.236377   8.896204
    31  H    9.306086   6.870622   6.720639   9.069139   9.671189
    32  H    8.987741   6.275899   6.402517   8.346119   9.066670
    33  H    4.650937   3.374966   4.367562   2.163940   3.068223
    34  C    4.243660   4.437248   3.839811   6.309585   6.801941
    35  C    5.577821   4.268185   4.207661   6.452971   7.249149
    36  C    6.958653   5.235508   5.298248   7.441868   8.291134
    37  C    8.953213   6.871576   7.218827   8.850408   9.810007
    38  C    7.492344   5.586852   5.893515   7.610900   8.557014
    39  O    4.746168   3.573930   3.712690   5.559172   6.420602
    40  S    5.692771   4.930780   4.468136   7.131590   7.736570
    41  H    4.726469   5.286009   4.547774   7.055713   7.426380
    42  H    3.404261   3.508437   2.812468   5.335434   5.772444
    43  H    9.498142   7.638480   8.009229   9.541504  10.532869
    44  H    9.452408   7.325717   7.548280   9.427452  10.331871
    45  H    9.220948   6.896063   7.367099   8.736778   9.714424
    46  H    6.968288   5.151539   5.610931   6.980292   7.980134
    47  H    7.669084   5.939574   5.863857   8.224840   9.010708
    48  H    4.154743   4.681458   4.275970   6.372038   6.943836
                   16         17         18         19         20
    16  O    0.000000
    17  N    2.325073   0.000000
    18  C    2.860105   1.394066   0.000000
    19  H    2.625269   2.092976   1.080547   0.000000
    20  C    4.103834   2.392566   1.328704   2.111393   0.000000
    21  H    4.757744   3.356193   2.073578   2.416391   1.081565
    22  C    4.966841   2.904938   2.488453   3.482799   1.502530
    23  H    5.521076   3.698335   3.218191   4.124503   2.138692
    24  H    5.832657   3.651282   3.195000   4.123661   2.142938
    25  C    4.527314   2.387270   2.765393   3.841285   2.471746
    26  C    3.396120   1.363863   2.363576   3.310064   2.758617
    27  H    3.634872   2.090861   3.334243   4.174480   3.841361
    28  C    5.723751   3.696549   4.239040   5.312035   3.866989
    29  O    5.926347   4.140989   4.981661   6.011177   4.854435
    30  N    6.901145   4.782000   5.031381   6.105877   4.325415
    31  H    7.714088   5.661900   5.998922   7.076331   5.317352
    32  H    7.026698   4.902032   4.867448   5.903696   3.938839
    33  H    2.744854   3.913020   3.475862   2.465930   4.565226
    34  C    5.776594   4.624969   5.722117   6.256184   6.377113
    35  C    5.635249   3.632540   4.234383   4.978407   4.408497
    36  C    6.497136   4.260086   4.539045   5.396302   4.264861
    37  C    7.909879   5.657268   5.318801   6.082602   4.493554
    38  C    6.728102   4.499621   4.362894   5.121943   3.856623
    39  O    4.922444   3.147502   3.652547   4.191628   4.083710
    40  S    6.307639   4.571493   5.516831   6.285817   5.804124
    41  H    6.558964   5.560441   6.727182   7.267874   7.383766
    42  H    4.791226   3.888853   5.096227   5.577246   5.899501
    43  H    8.703948   6.506792   6.125265   6.788172   5.356783
    44  H    8.384532   6.073945   5.886113   6.754925   5.024611
    45  H    7.782153   5.602928   5.027178   5.741089   4.017159
    46  H    6.241235   4.172794   3.867803   4.452679   3.515351
    47  H    7.189146   4.937123   5.316380   6.252859   4.947714
    48  H    6.021488   4.928322   5.861974   6.271826   6.545464
                   21         22         23         24         25
    21  H    0.000000
    22  C    2.233893   0.000000
    23  H    2.558667   1.098945   0.000000
    24  H    2.602546   1.099011   1.750585   0.000000
    25  C    3.473637   1.508946   2.157945   2.156324   0.000000
    26  C    3.838645   2.498055   3.235383   3.214260   1.344604
    27  H    4.920401   3.481041   4.139237   4.122076   2.101801
    28  C    4.789848   2.600333   2.892955   2.891061   1.476810
    29  O    5.843690   3.730531   4.024137   4.070499   2.384221
    30  N    5.047298   2.846753   2.872078   2.747371   2.406637
    31  H    6.027253   3.835245   3.745982   3.719444   3.308487
    32  H    4.487016   2.445385   2.261241   2.217410   2.583109
    33  H    4.666290   5.938013   6.528609   6.573512   6.114712
    34  C    7.324568   6.189729   7.150141   6.270451   5.085760
    35  C    5.246913   4.039873   5.061309   3.807856   3.357321
    36  C    4.973588   3.565584   4.477222   2.989361   3.221089
    37  C    4.708920   3.791711   4.387683   2.722755   4.353988
    38  C    4.310562   3.346834   4.234308   2.514785   3.581853
    39  O    4.854956   4.149281   5.237470   4.044962   3.653170
    40  S    6.749413   5.248255   6.148218   5.140277   4.168968
    41  H    8.356508   7.112957   8.025596   7.201995   5.913100
    42  H    6.875493   5.840793   6.767753   6.104368   4.689729
    43  H    5.465385   4.813714   5.421331   3.749408   5.392620
    44  H    5.340138   4.030892   4.479332   3.002170   4.404505
    45  H    4.027435   3.412431   3.851748   2.330510   4.326863
    46  H    3.864842   3.455489   4.428787   2.777801   3.836837
    47  H    5.683106   3.971530   4.715153   3.385000   3.473311
    48  H    7.400697   6.522611   7.552048   6.510528   5.609484
                   26         27         28         29         30
    26  C    0.000000
    27  H    1.083910   0.000000
    28  C    2.403640   2.570916   0.000000
    29  O    2.778162   2.433767   1.217112   0.000000
    30  N    3.609852   3.921679   1.375077   2.253635   0.000000
    31  H    4.415474   4.551705   2.025919   2.444577   1.006797
    32  H    3.914025   4.452561   2.078124   3.144120   1.005848
    33  H    5.270525   5.842405   7.537054   8.039117   8.470761
    34  C    4.307613   3.747159   5.235337   4.874086   6.228904
    35  C    3.187677   3.292484   3.685050   3.956541   4.322954
    36  C    3.635170   3.965337   3.330899   3.896314   3.492462
    37  C    5.221294   5.885608   4.552690   5.502194   4.012647
    38  C    4.145590   4.749379   3.993009   4.823313   3.919461
    39  O    3.189069   3.436272   4.377511   4.726339   5.128617
    40  S    3.855105   3.438990   3.996288   3.727976   4.752279
    41  H    5.149101   4.438404   5.871821   5.319655   6.855204
    42  H    3.695626   3.071107   5.008830   4.643818   6.158650
    43  H    6.170121   6.811483   5.601733   6.496733   5.056532
    44  H    5.405519   5.956437   4.246380   5.123555   3.469914
    45  H    5.281348   6.089236   4.707516   5.794555   4.114622
    46  H    4.160295   4.858543   4.580649   5.420867   4.700306
    47  H    4.060734   4.233068   3.100851   3.527783   3.036258
    48  H    4.843767   4.470553   5.926990   5.730206   6.840723
                   31         32         33         34         35
    31  H    0.000000
    32  H    1.720530   0.000000
    33  H    9.414024   8.339764   0.000000
    34  C    6.693017   6.878458   7.284066   0.000000
    35  C    4.993010   4.721240   6.725039   2.726946   0.000000
    36  C    4.154452   3.746402   7.456791   4.096046   1.475650
    37  C    4.662356   3.668251   8.310426   6.545525   3.847388
    38  C    4.690159   3.823749   7.241866   5.155310   2.439330
    39  O    5.909949   5.394363   5.699073   2.849637   1.216503
    40  S    5.141717   5.439797   7.849536   1.796895   1.754314
    41  H    7.193551   7.594086   8.202497   1.087497   3.671095
    42  H    6.687134   6.778600   6.484671   1.087371   3.003109
    43  H    5.640711   4.725790   8.882898   7.029446   4.412125
    44  H    3.935621   3.208383   9.063708   6.709678   4.118414
    45  H    4.841682   3.526443   8.017037   7.230761   4.505030
    46  H    5.557835   4.538017   6.419778   5.182707   2.604361
    47  H    3.479680   3.457647   8.378789   4.420622   2.196892
    48  H    7.378889   7.390902   7.135110   1.087851   2.835096
                   36         37         38         39         40
    36  C    0.000000
    37  C    2.497656   0.000000
    38  C    1.330975   1.490362   0.000000
    39  O    2.377733   4.327433   2.837273   0.000000
    40  S    2.693261   5.172259   3.949440   2.629192   0.000000
    41  H    4.931867   7.403550   6.073331   3.920839   2.348836
    42  H    4.409870   6.817151   5.390870   2.886374   2.408900
    43  H    3.159425   1.092819   2.130420   4.817007   5.719614
    44  H    2.647786   1.089594   2.143836   4.842536   5.146383
    45  H    3.258698   1.091754   2.139393   4.815143   5.940837
    46  H    2.071680   2.218031   1.086690   2.500067   4.315007
    47  H    1.083258   2.763908   2.113646   3.302968   2.738843
    48  H    4.229219   6.528533   5.107518   2.662526   2.399119
                   41         42         43         44         45
    41  H    0.000000
    42  H    1.778977   0.000000
    43  H    7.866025   7.407608   0.000000
    44  H    7.467706   7.026963   1.772204   0.000000
    45  H    8.144942   7.366394   1.749870   1.776565   0.000000
    46  H    6.186762   5.320503   2.616729   3.103362   2.536698
    47  H    5.083718   4.816917   3.444518   2.463455   3.598950
    48  H    1.780974   1.778803   6.872655   6.831617   7.228872
                   46         47         48
    46  H    0.000000
    47  H    3.055416   0.000000
    48  H    4.974211   4.724770   0.000000
 Stoichiometry    C16H24N2O5S
 Framework group  C1[X(C16H24N2O5S)]
 Deg. of freedom   138
 Full point group                 C1      NOp   1
 Largest Abelian subgroup         C1      NOp   1
 Largest concise Abelian subgroup C1      NOp   1
                         Standard orientation:                         
 ---------------------------------------------------------------------
 Center     Atomic      Atomic             Coordinates (Angstroms)
 Number     Number       Type             X           Y           Z
 ---------------------------------------------------------------------
      1          6           0        4.717088   -1.924896    0.605920
      2          1           0        4.690719   -2.880743    0.084392
      3          1           0        5.733703   -1.745060    0.957645
      4          6           0        2.551749    0.466046    0.681951
      5          1           0        2.370087   -0.152329    1.568273
      6          8           0        2.061134    1.762478    0.857309
      7          1           0        1.112845    1.713500    1.079466
      8          6           0        4.043217    0.517644    0.373158
      9          1           0        4.652577    0.615416    1.277093
     10          8           0        4.307652    1.566212   -0.529413
     11          1           0        3.771903    2.319503   -0.248743
     12          6           0        2.008269   -0.253005   -0.564189
     13          1           0        1.838479    0.486020   -1.353845
     14          6           0        4.274562   -0.816127   -0.328907
     15          1           0        5.000763   -0.674575   -1.131180
     16          8           0        3.017821   -1.168083   -0.926374
     17          7           0        0.768760   -0.962170   -0.373845
     18          6           0        0.712516   -2.012886    0.540624
     19          1           0        1.644285   -2.229642    1.043024
     20          6           0       -0.386248   -2.729602    0.751550
     21          1           0       -0.341426   -3.539759    1.466687
     22          6           0       -1.677897   -2.476055    0.027015
     23          1           0       -2.011317   -3.399425   -0.466846
     24          1           0       -2.468764   -2.224335    0.747425
     25          6           0       -1.504878   -1.365403   -0.979681
     26          6           0       -0.341105   -0.707673   -1.124546
     27          1           0       -0.264088    0.084732   -1.860088
     28          6           0       -2.628949   -0.923287   -1.829365
     29          8           0       -2.527201   -0.114279   -2.732979
     30          7           0       -3.853958   -1.451384   -1.495749
     31          1           0       -4.597550   -1.276916   -2.151700
     32          1           0       -3.920527   -2.278858   -0.927782
     33          1           0        4.060027   -1.990117    1.476186
     34          6           0       -0.289240    3.540011   -0.410394
     35          6           0       -1.648957    1.494132    0.773575
     36          6           0       -2.873683    0.721264    1.056886
     37          6           0       -4.120316   -0.916206    2.472118
     38          6           0       -2.914672   -0.135399    2.074699
     39          8           0       -0.586151    1.307242    1.335176
     40         16           0       -1.901932    2.747694   -0.427343
     41          1           0       -0.382333    4.440067   -1.013620
     42          1           0        0.467513    2.887045   -0.838570
     43          1           0       -4.485939   -0.576166    3.444201
     44          1           0       -4.922503   -0.809425    1.742523
     45          1           0       -3.879902   -1.975126    2.585321
     46          1           0       -2.008773   -0.263989    2.660964
     47          1           0       -3.734336    0.898411    0.423370
     48          1           0       -0.012917    3.803635    0.608217
 ---------------------------------------------------------------------
 Rotational constants (GHZ):           0.3253119           0.1611573           0.1379756
 Leave Link  202 at Sat Aug 13 20:21:43 2022, MaxMem=  2684354560 cpu:               0.8 elap:               0.1
 (Enter /storage/apps/GAUSSIAN/G16_RevA03/g16/l301.exe)
 Standard basis: def2TZVP (5D, 7F)
 Ernie: Thresh=  0.10000D-02 Tol=  0.10000D-05 Strict=F.
 There are  1014 symmetry adapted cartesian basis functions of A   symmetry.
 There are   894 symmetry adapted basis functions of A   symmetry.
   894 basis functions,  1434 primitive gaussians,  1014 cartesian basis functions
    95 alpha electrons       95 beta electrons
       nuclear repulsion energy      2474.6877831636 Hartrees.
 IExCor= 4336 DFT=T Ex+Corr=M062X ExCW=0 ScaHFX=  0.540000
 ScaDFX=  1.000000  1.000000  1.000000  1.000000 ScalE2=  1.000000  1.000000
 IRadAn=      5 IRanWt=     -1 IRanGd=            0 ICorTp=0 IEmpDi=131
 NAtoms=   48 NActive=   48 NUniq=   48 SFac= 1.00D+00 NAtFMM=   60 NAOKFM=F Big=F
 Integral buffers will be    131072 words long.
 Raffenetti 2 integral format.
 Two-electron integral symmetry is turned on.
 R6Disp:  Grimme-D3 Dispersion energy=       -0.0043350271 Hartrees.
 Nuclear repulsion after empirical dispersion term =     2474.6834481366 Hartrees.
 Leave Link  301 at Sat Aug 13 20:21:43 2022, MaxMem=  2684354560 cpu:               1.6 elap:               0.1
 (Enter /storage/apps/GAUSSIAN/G16_RevA03/g16/l302.exe)
 NPDir=0 NMtPBC=     1 NCelOv=     1 NCel=       1 NClECP=     1 NCelD=      1
         NCelK=      1 NCelE2=     1 NClLst=     1 CellRange=     0.0.
 One-electron integrals computed using PRISM.
 One-electron integral symmetry used in STVInt
   1 Symmetry operations used in ECPInt.
 ECPInt:  NShTT=   65703 NPrTT=  200010 LenC2=   56765 LenP2D=  120618.
 LDataN:  DoStor=T MaxTD1= 6 Len=  172
 NBasis=   894 RedAO= T EigKep=  3.13D-05  NBF=   894
 NBsUse=   894 1.00D-06 EigRej= -1.00D+00 NBFU=   894
 Precomputing XC quadrature grid using
 IXCGrd= 4 IRadAn=           5 IRanWt=          -1 IRanGd=           0 AccXCQ= 0.00D+00.
 Generated NRdTot=       0 NPtTot=           0 NUsed=           0 NTot=          32
 NSgBfM=   998   996   997   997   998 MxSgAt=    48 MxSgA2=    48.
 Leave Link  302 at Sat Aug 13 20:21:44 2022, MaxMem=  2684354560 cpu:              18.8 elap:               1.2
 (Enter /storage/apps/GAUSSIAN/G16_RevA03/g16/l303.exe)
 DipDrv:  MaxL=1.
 Leave Link  303 at Sat Aug 13 20:21:44 2022, MaxMem=  2684354560 cpu:               2.4 elap:               0.2
 (Enter /storage/apps/GAUSSIAN/G16_RevA03/g16/l401.exe)
 ExpMin= 9.52D-02 ExpMax= 6.07D+04 ExpMxC= 2.07D+03 IAcc=3 IRadAn=         5 AccDes= 0.00D+00
 Harris functional with IExCor= 1009 and IRadAn=       5 diagonalized for initial guess.
 HarFok:  IExCor= 1009 AccDes= 0.00D+00 IRadAn=         5 IDoV= 1 UseB2=F ITyADJ=14
 ICtDFT=  3500011 ScaDFX=  1.000000  1.000000  1.000000  1.000000
 FoFCou: FMM=F IPFlag=           0 FMFlag=      100000 FMFlg1=           0
         NFxFlg=           0 DoJE=T BraDBF=F KetDBF=T FulRan=T
         wScrn=  0.000000 ICntrl=       500 IOpCl=  0 I1Cent=   200000004 NGrid=           0
         NMat0=    1 NMatS0=      1 NMatT0=    0 NMatD0=    1 NMtDS0=    0 NMtDT0=    0
 Petite list used in FoFCou.
 Harris En= -1507.25643905891    
 JPrj=0 DoOrth=F DoCkMO=F.
 Leave Link  401 at Sat Aug 13 20:21:48 2022, MaxMem=  2684354560 cpu:              60.4 elap:               3.8
 (Enter /storage/apps/GAUSSIAN/G16_RevA03/g16/l502.exe)
 Integral symmetry usage will be decided dynamically.
 Closed shell SCF:
 Using DIIS extrapolation, IDIIS=  1040.
 NGot=  2684354560 LenX=  2682272944 LenY=  2681243734
 Requested convergence on RMS density matrix=1.00D-08 within 128 cycles.
 Requested convergence on MAX density matrix=1.00D-06.
 Requested convergence on             energy=1.00D-06.
 No special actions if energy rises.
 Fock matrices will be formed incrementally for  20 cycles.
 Integral accuracy reduced to 1.0D-05 until final iterations.

 Cycle   1  Pass 0  IDiag  1:
 FoFJK:  IHMeth= 1 ICntrl=       0 DoSepK=F KAlg= 0 I1Cent=           0 FoldK=F
 IRaf= 790000000 NMat=       1 IRICut=       1 DoRegI=T DoRafI=F ISym2E= 0 IDoP0=0 IntGTp=1.
 FoFCou: FMM=F IPFlag=           0 FMFlag=      100000 FMFlg1=           0
         NFxFlg=           0 DoJE=F BraDBF=F KetDBF=F FulRan=T
         wScrn=  0.000000 ICntrl=         0 IOpCl=  0 I1Cent=           0 NGrid=           0
         NMat0=    1 NMatS0=      1 NMatT0=    0 NMatD0=    1 NMtDS0=    0 NMtDT0=    0
 Symmetry not used in FoFCou.
 E= -1507.18840510223    
 DIIS: error= 1.41D-02 at cycle   1 NSaved=   1.
 NSaved= 1 IEnMin= 1 EnMin= -1507.18840510223     IErMin= 1 ErrMin= 1.41D-02
 ErrMax= 1.41D-02  0.00D+00 EMaxC= 1.00D-01 BMatC= 1.00D+00 BMatP= 1.00D+00
 IDIUse=3 WtCom= 8.59D-01 WtEn= 1.41D-01
 Coeff-Com:  0.100D+01
 Coeff-En:   0.100D+01
 Coeff:      0.100D+01
 Gap=     0.305 Goal=   None    Shift=    0.000
 GapD=    0.305 DampG=1.000 DampE=0.500 DampFc=0.5000 IDamp=-1.
 Damping current iteration by 5.00D-01
 RMSDP=4.31D-03 MaxDP=1.65D+00              OVMax= 2.70D-01

 Cycle   2  Pass 0  IDiag  1:
 RMSU=  2.15D-03    CP:  1.02D+00
 E= -1507.53333314659     Delta-E=       -0.344928044358 Rises=F Damp=T
 DIIS: error= 3.33D-03 at cycle   2 NSaved=   2.
 NSaved= 2 IEnMin= 2 EnMin= -1507.53333314659     IErMin= 2 ErrMin= 3.33D-03
 ErrMax= 3.33D-03  0.00D+00 EMaxC= 1.00D-01 BMatC= 8.62D-02 BMatP= 1.00D+00
 IDIUse=3 WtCom= 9.67D-01 WtEn= 3.33D-02
 Coeff-Com: -0.170D-01 0.102D+01
 Coeff-En:   0.146D-01 0.985D+00
 Coeff:     -0.159D-01 0.102D+01
 Gap=     0.313 Goal=   None    Shift=    0.000
 RMSDP=1.27D-03 MaxDP=4.59D-01 DE=-3.45D-01 OVMax= 1.71D-01

 Cycle   3  Pass 0  IDiag  1:
 RMSU=  1.03D-03    CP:  1.00D+00  6.59D-01
 E= -1507.89209972347     Delta-E=       -0.358766576881 Rises=F Damp=F
 DIIS: error= 3.54D-03 at cycle   3 NSaved=   3.
 NSaved= 3 IEnMin= 3 EnMin= -1507.89209972347     IErMin= 2 ErrMin= 3.33D-03
 ErrMax= 3.54D-03  0.00D+00 EMaxC= 1.00D-01 BMatC= 5.09D-02 BMatP= 8.62D-02
 IDIUse=3 WtCom= 9.65D-01 WtEn= 3.54D-02
 Coeff-Com: -0.836D-01 0.457D+00 0.627D+00
 Coeff-En:   0.000D+00 0.000D+00 0.100D+01
 Coeff:     -0.806D-01 0.441D+00 0.640D+00
 Gap=     0.211 Goal=   None    Shift=    0.000
 RMSDP=3.58D-04 MaxDP=6.32D-02 DE=-3.59D-01 OVMax= 6.72D-02

 Cycle   4  Pass 0  IDiag  1:
 RMSU=  3.02D-04    CP:  1.01D+00  7.38D-01  9.15D-01
 E= -1507.92495337447     Delta-E=       -0.032853650994 Rises=F Damp=F
 DIIS: error= 1.90D-03 at cycle   4 NSaved=   4.
 NSaved= 4 IEnMin= 4 EnMin= -1507.92495337447     IErMin= 4 ErrMin= 1.90D-03
 ErrMax= 1.90D-03  0.00D+00 EMaxC= 1.00D-01 BMatC= 1.00D-02 BMatP= 5.09D-02
 IDIUse=3 WtCom= 9.81D-01 WtEn= 1.90D-02
 Coeff-Com: -0.373D-01 0.997D-01 0.345D+00 0.592D+00
 Coeff-En:   0.000D+00 0.000D+00 0.132D+00 0.868D+00
 Coeff:     -0.366D-01 0.978D-01 0.341D+00 0.598D+00
 Gap=     0.211 Goal=   None    Shift=    0.000
 RMSDP=1.23D-04 MaxDP=1.39D-02 DE=-3.29D-02 OVMax= 1.68D-02

 Cycle   5  Pass 0  IDiag  1:
 RMSU=  8.05D-05    CP:  1.00D+00  7.25D-01  9.41D-01  7.23D-01
 E= -1507.93235157118     Delta-E=       -0.007398196715 Rises=F Damp=F
 DIIS: error= 2.97D-04 at cycle   5 NSaved=   5.
 NSaved= 5 IEnMin= 5 EnMin= -1507.93235157118     IErMin= 5 ErrMin= 2.97D-04
 ErrMax= 2.97D-04  0.00D+00 EMaxC= 1.00D-01 BMatC= 3.96D-04 BMatP= 1.00D-02
 IDIUse=3 WtCom= 9.97D-01 WtEn= 2.97D-03
 Coeff-Com: -0.106D-01 0.183D-01 0.119D+00 0.264D+00 0.610D+00
 Coeff-En:   0.000D+00 0.000D+00 0.000D+00 0.000D+00 0.100D+01
 Coeff:     -0.105D-01 0.182D-01 0.118D+00 0.263D+00 0.611D+00
 Gap=     0.210 Goal=   None    Shift=    0.000
 RMSDP=4.64D-05 MaxDP=1.52D-02 DE=-7.40D-03 OVMax= 4.19D-03

 Cycle   6  Pass 0  IDiag  1:
 RMSU=  3.10D-05    CP:  1.00D+00  7.11D-01  9.53D-01  7.39D-01  8.90D-01
 E= -1507.93266804580     Delta-E=       -0.000316474619 Rises=F Damp=F
 DIIS: error= 1.79D-04 at cycle   6 NSaved=   6.
 NSaved= 6 IEnMin= 6 EnMin= -1507.93266804580     IErMin= 6 ErrMin= 1.79D-04
 ErrMax= 1.79D-04  0.00D+00 EMaxC= 1.00D-01 BMatC= 5.16D-05 BMatP= 3.96D-04
 IDIUse=3 WtCom= 9.98D-01 WtEn= 1.79D-03
 Coeff-Com:  0.184D-03-0.419D-02 0.124D-01 0.426D-01 0.274D+00 0.675D+00
 Coeff-En:   0.000D+00 0.000D+00 0.000D+00 0.000D+00 0.000D+00 0.100D+01
 Coeff:      0.183D-03-0.419D-02 0.124D-01 0.425D-01 0.273D+00 0.676D+00
 Gap=     0.211 Goal=   None    Shift=    0.000
 RMSDP=1.87D-05 MaxDP=3.22D-03 DE=-3.16D-04 OVMax= 3.24D-03

 Cycle   7  Pass 0  IDiag  1:
 RMSU=  1.58D-05    CP:  1.00D+00  7.08D-01  9.57D-01  7.43D-01  9.61D-01
                    CP:  1.01D+00
 E= -1507.93272900674     Delta-E=       -0.000060960940 Rises=F Damp=F
 DIIS: error= 7.64D-05 at cycle   7 NSaved=   7.
 NSaved= 7 IEnMin= 7 EnMin= -1507.93272900674     IErMin= 7 ErrMin= 7.64D-05
 ErrMax= 7.64D-05  0.00D+00 EMaxC= 1.00D-01 BMatC= 8.84D-06 BMatP= 5.16D-05
 IDIUse=1 WtCom= 1.00D+00 WtEn= 0.00D+00
 Coeff-Com:  0.185D-02-0.498D-02-0.119D-01-0.248D-01 0.122D-01 0.289D+00
 Coeff-Com:  0.739D+00
 Coeff:      0.185D-02-0.498D-02-0.119D-01-0.248D-01 0.122D-01 0.289D+00
 Coeff:      0.739D+00
 Gap=     0.211 Goal=   None    Shift=    0.000
 RMSDP=1.74D-05 MaxDP=6.06D-03 DE=-6.10D-05 OVMax= 2.01D-03

 Cycle   8  Pass 0  IDiag  1:
 RMSU=  9.72D-06    CP:  1.00D+00  7.02D-01  9.59D-01  7.47D-01  1.01D+00
                    CP:  1.22D+00  1.25D+00
 E= -1507.93273672137     Delta-E=       -0.000007714632 Rises=F Damp=F
 DIIS: error= 3.16D-05 at cycle   8 NSaved=   8.
 NSaved= 8 IEnMin= 8 EnMin= -1507.93273672137     IErMin= 8 ErrMin= 3.16D-05
 ErrMax= 3.16D-05  0.00D+00 EMaxC= 1.00D-01 BMatC= 1.97D-06 BMatP= 8.84D-06
 IDIUse=1 WtCom= 1.00D+00 WtEn= 0.00D+00
 Coeff-Com:  0.955D-03-0.175D-02-0.786D-02-0.222D-01-0.472D-01 0.878D-02
 Coeff-Com:  0.359D+00 0.711D+00
 Coeff:      0.955D-03-0.175D-02-0.786D-02-0.222D-01-0.472D-01 0.878D-02
 Coeff:      0.359D+00 0.711D+00
 Gap=     0.212 Goal=   None    Shift=    0.000
 RMSDP=1.55D-05 MaxDP=3.50D-03 DE=-7.71D-06 OVMax= 7.06D-04

 Cycle   9  Pass 0  IDiag  1:
 RMSU=  8.37D-06    CP:  1.00D+00  6.99D-01  9.60D-01  7.48D-01  1.05D+00
                    CP:  1.37D+00  1.64D+00  1.77D+00
 E= -1507.93272698570     Delta-E=        0.000009735675 Rises=F Damp=F
 DIIS: error= 2.34D-05 at cycle   9 NSaved=   9.
 NSaved= 9 IEnMin= 8 EnMin= -1507.93273672137     IErMin= 9 ErrMin= 2.34D-05
 ErrMax= 2.34D-05  0.00D+00 EMaxC= 1.00D-01 BMatC= 3.66D-07 BMatP= 1.97D-06
 IDIUse=1 WtCom= 1.00D+00 WtEn= 0.00D+00
 Coeff-Com:  0.253D-03-0.341D-03-0.201D-02-0.774D-02-0.209D-01-0.236D-01
 Coeff-Com:  0.906D-01 0.319D+00 0.644D+00
 Coeff:      0.253D-03-0.341D-03-0.201D-02-0.774D-02-0.209D-01-0.236D-01
 Coeff:      0.906D-01 0.319D+00 0.644D+00
 Gap=     0.212 Goal=   None    Shift=    0.000
 RMSDP=1.72D-05 MaxDP=2.73D-03 DE= 9.74D-06 OVMax= 2.16D-04

 Cycle  10  Pass 0  IDiag  1:
 RMSU=  5.66D-06    CP:  1.00D+00  6.97D-01  9.60D-01  7.50D-01  1.06D+00
                    CP:  1.50D+00  2.02D+00  2.70D+00  2.24D+00
 E= -1507.93271381232     Delta-E=        0.000013173380 Rises=F Damp=F
 DIIS: error= 3.63D-05 at cycle  10 NSaved=  10.
 NSaved=10 IEnMin= 8 EnMin= -1507.93273672137     IErMin= 9 ErrMin= 2.34D-05
 ErrMax= 3.63D-05  0.00D+00 EMaxC= 1.00D-01 BMatC= 5.58D-07 BMatP= 3.66D-07
 IDIUse=1 WtCom= 1.00D+00 WtEn= 0.00D+00
 Coeff-Com:  0.274D-03-0.330D-03-0.223D-02-0.892D-02-0.252D-01-0.324D-01
 Coeff-Com:  0.981D-01 0.386D+00 0.872D+00-0.287D+00
 Coeff:      0.274D-03-0.330D-03-0.223D-02-0.892D-02-0.252D-01-0.324D-01
 Coeff:      0.981D-01 0.386D+00 0.872D+00-0.287D+00
 Gap=     0.212 Goal=   None    Shift=    0.000
 RMSDP=1.04D-05 MaxDP=1.18D-03 DE= 1.32D-05 OVMax= 2.59D-05

 Cycle  11  Pass 0  IDiag  1:
 RMSU=  1.97D-06    CP:  1.00D+00  6.98D-01  9.60D-01  7.48D-01  1.05D+00
                    CP:  1.43D+00  1.83D+00  2.24D+00  1.42D+00  2.36D-01
 E= -1507.93271622540     Delta-E=       -0.000002413087 Rises=F Damp=F
 DIIS: error= 2.79D-05 at cycle  11 NSaved=  11.
 NSaved=11 IEnMin= 8 EnMin= -1507.93273672137     IErMin= 9 ErrMin= 2.34D-05
 ErrMax= 2.79D-05  0.00D+00 EMaxC= 1.00D-01 BMatC= 3.23D-07 BMatP= 3.66D-07
 IDIUse=1 WtCom= 1.00D+00 WtEn= 0.00D+00
 Coeff-Com: -0.527D-04 0.246D-03 0.611D-03-0.104D-02-0.777D-02-0.320D-01
 Coeff-Com: -0.243D-01 0.116D+00 0.771D+00-0.155D+01 0.173D+01
 Coeff:     -0.527D-04 0.246D-03 0.611D-03-0.104D-02-0.777D-02-0.320D-01
 Coeff:     -0.243D-01 0.116D+00 0.771D+00-0.155D+01 0.173D+01
 Gap=     0.212 Goal=   None    Shift=    0.000
 RMSDP=1.65D-05 MaxDP=1.55D-03 DE=-2.41D-06 OVMax= 1.22D-04

 Cycle  12  Pass 0  IDiag  1:
 RMSU=  6.36D-06    CP:  1.00D+00  6.96D-01  9.59D-01  7.44D-01  1.05D+00
                    CP:  1.42D+00  1.65D+00  1.91D+00  5.32D-01 -1.54D+00
                    CP:  3.00D+00
 E= -1507.93271140349     Delta-E=        0.000004821912 Rises=F Damp=F
 DIIS: error= 1.69D-05 at cycle  12 NSaved=  12.
 NSaved=12 IEnMin= 8 EnMin= -1507.93273672137     IErMin=12 ErrMin= 1.69D-05
 ErrMax= 1.69D-05  0.00D+00 EMaxC= 1.00D-01 BMatC= 1.00D-07 BMatP= 3.23D-07
 IDIUse=1 WtCom= 1.00D+00 WtEn= 0.00D+00
 Coeff-Com: -0.489D-04 0.184D-03 0.584D-03-0.221D-03-0.386D-02-0.205D-01
 Coeff-Com: -0.227D-01 0.556D-01 0.481D+00-0.103D+01 0.117D+01 0.376D+00
 Coeff:     -0.489D-04 0.184D-03 0.584D-03-0.221D-03-0.386D-02-0.205D-01
 Coeff:     -0.227D-01 0.556D-01 0.481D+00-0.103D+01 0.117D+01 0.376D+00
 Gap=     0.212 Goal=   None    Shift=    0.000
 RMSDP=6.73D-06 MaxDP=1.66D-03 DE= 4.82D-06 OVMax= 2.12D-05

 Cycle  13  Pass 0  IDiag  1:
 RMSU=  3.54D-06    CP:  1.00D+00  6.95D-01  9.59D-01  7.44D-01  1.05D+00
                    CP:  1.46D+00  1.76D+00  2.23D+00  7.26D-01 -1.56D+00
                    CP:  3.00D+00  1.41D+00
 E= -1507.93270041397     Delta-E=        0.000010989519 Rises=F Damp=F
 DIIS: error= 2.20D-05 at cycle  13 NSaved=  13.
 NSaved=13 IEnMin= 8 EnMin= -1507.93273672137     IErMin=12 ErrMin= 1.69D-05
 ErrMax= 2.20D-05  0.00D+00 EMaxC= 1.00D-01 BMatC= 1.38D-07 BMatP= 1.00D-07
 IDIUse=1 WtCom= 1.00D+00 WtEn= 0.00D+00
 Coeff-Com: -0.125D-03 0.343D-03 0.129D-02 0.125D-02-0.151D-02-0.257D-01
 Coeff-Com: -0.524D-01 0.179D-01 0.585D+00-0.148D+01 0.178D+01 0.109D+01
 Coeff-Com: -0.921D+00
 Coeff:     -0.125D-03 0.343D-03 0.129D-02 0.125D-02-0.151D-02-0.257D-01
 Coeff:     -0.524D-01 0.179D-01 0.585D+00-0.148D+01 0.178D+01 0.109D+01
 Coeff:     -0.921D+00
 Gap=     0.212 Goal=   None    Shift=    0.000
 RMSDP=1.41D-05 MaxDP=2.60D-03 DE= 1.10D-05 OVMax= 2.58D-05

 Cycle  14  Pass 0  IDiag  1:
 RMSU=  8.83D-06    CP:  1.00D+00  6.97D-01  9.60D-01  7.47D-01  1.03D+00
                    CP:  1.38D+00  1.59D+00  1.76D+00  8.68D-02 -1.49D+00
                    CP:  3.00D+00  7.88D-01  4.60D-02
 E= -1507.93271345367     Delta-E=       -0.000013039693 Rises=F Damp=F
 DIIS: error= 1.51D-05 at cycle  14 NSaved=  14.
 NSaved=14 IEnMin= 8 EnMin= -1507.93273672137     IErMin=14 ErrMin= 1.51D-05
 ErrMax= 1.51D-05  0.00D+00 EMaxC= 1.00D-01 BMatC= 8.64D-08 BMatP= 1.00D-07
 IDIUse=1 WtCom= 1.00D+00 WtEn= 0.00D+00
 Coeff-Com: -0.105D-03 0.244D-03 0.114D-02 0.185D-02 0.213D-02-0.124D-01
 Coeff-Com: -0.442D-01-0.388D-01 0.254D+00-0.868D+00 0.112D+01 0.126D+01
 Coeff-Com: -0.151D+01 0.834D+00
 Coeff:     -0.105D-03 0.244D-03 0.114D-02 0.185D-02 0.213D-02-0.124D-01
 Coeff:     -0.442D-01-0.388D-01 0.254D+00-0.868D+00 0.112D+01 0.126D+01
 Coeff:     -0.151D+01 0.834D+00
 Gap=     0.212 Goal=   None    Shift=    0.000
 RMSDP=1.28D-05 MaxDP=2.14D-03 DE=-1.30D-05 OVMax= 2.59D-05

 Cycle  15  Pass 0  IDiag  1:
 RMSU=  6.08D-06    CP:  1.00D+00  6.97D-01  9.59D-01  7.49D-01  1.01D+00
                    CP:  1.39D+00  1.52D+00  1.67D+00 -3.49D-01 -1.91D+00
                    CP:  3.00D+00  8.08D-01 -1.42D+00  1.99D+00
 E= -1507.93272584054     Delta-E=       -0.000012386875 Rises=F Damp=F
 DIIS: error= 8.55D-06 at cycle  15 NSaved=  15.
 NSaved=15 IEnMin= 8 EnMin= -1507.93273672137     IErMin=15 ErrMin= 8.55D-06
 ErrMax= 8.55D-06  0.00D+00 EMaxC= 1.00D-01 BMatC= 3.82D-08 BMatP= 8.64D-08
 IDIUse=1 WtCom= 1.00D+00 WtEn= 0.00D+00
 Coeff-Com: -0.541D-04 0.127D-03 0.632D-03 0.102D-02 0.126D-02-0.654D-02
 Coeff-Com: -0.232D-01-0.241D-01 0.114D+00-0.400D+00 0.543D+00 0.662D+00
 Coeff-Com: -0.844D+00 0.546D+00 0.430D+00
 Coeff:     -0.541D-04 0.127D-03 0.632D-03 0.102D-02 0.126D-02-0.654D-02
 Coeff:     -0.232D-01-0.241D-01 0.114D+00-0.400D+00 0.543D+00 0.662D+00
 Coeff:     -0.844D+00 0.546D+00 0.430D+00
 Gap=     0.212 Goal=   None    Shift=    0.000
 RMSDP=7.36D-06 MaxDP=1.07D-03 DE=-1.24D-05 OVMax= 1.48D-05

 Cycle  16  Pass 0  IDiag  1:
 RMSU=  2.25D-06    CP:  1.00D+00  6.96D-01  9.59D-01  7.49D-01  1.00D+00
                    CP:  1.43D+00  1.62D+00  1.98D+00 -3.66D-01 -2.12D+00
                    CP:  3.00D+00  9.21D-01 -1.17D+00  2.39D+00  1.65D+00
 E= -1507.93271364056     Delta-E=        0.000012199979 Rises=F Damp=F
 DIIS: error= 9.53D-06 at cycle  16 NSaved=  16.
 NSaved=16 IEnMin= 8 EnMin= -1507.93273672137     IErMin=15 ErrMin= 8.55D-06
 ErrMax= 9.53D-06  0.00D+00 EMaxC= 1.00D-01 BMatC= 4.65D-08 BMatP= 3.82D-08
 IDIUse=1 WtCom= 1.00D+00 WtEn= 0.00D+00
 Coeff-Com: -0.708D-04 0.155D-03 0.843D-03 0.153D-02 0.238D-02-0.634D-02
 Coeff-Com: -0.306D-01-0.448D-01 0.930D-01-0.424D+00 0.611D+00 0.944D+00
 Coeff-Com: -0.136D+01 0.108D+01 0.931D+00-0.803D+00
 Coeff:     -0.708D-04 0.155D-03 0.843D-03 0.153D-02 0.238D-02-0.634D-02
 Coeff:     -0.306D-01-0.448D-01 0.930D-01-0.424D+00 0.611D+00 0.944D+00
 Coeff:     -0.136D+01 0.108D+01 0.931D+00-0.803D+00
 Gap=     0.212 Goal=   None    Shift=    0.000
 RMSDP=1.30D-05 MaxDP=2.68D-03 DE= 1.22D-05 OVMax= 2.13D-05

 Cycle  17  Pass 0  IDiag  1:
 RMSU=  2.81D-06    CP:  1.00D+00  6.99D-01  9.60D-01  7.48D-01  1.01D+00
                    CP:  1.33D+00  1.48D+00  1.41D+00 -5.28D-01 -1.56D+00
                    CP:  3.00D+00  4.99D-01 -1.21D+00  1.98D+00  6.48D-01
                    CP: -7.09D-01
 E= -1507.93272887613     Delta-E=       -0.000015235564 Rises=F Damp=F
 DIIS: error= 7.41D-06 at cycle  17 NSaved=  17.
 NSaved=17 IEnMin= 8 EnMin= -1507.93273672137     IErMin=17 ErrMin= 7.41D-06
 ErrMax= 7.41D-06  0.00D+00 EMaxC= 1.00D-01 BMatC= 2.34D-08 BMatP= 3.82D-08
 IDIUse=1 WtCom= 1.00D+00 WtEn= 0.00D+00
 Coeff-Com: -0.385D-04 0.893D-04 0.497D-03 0.853D-03 0.141D-02-0.432D-02
 Coeff-Com: -0.183D-01-0.253D-01 0.625D-01-0.308D+00 0.414D+00 0.395D+00
 Coeff-Com: -0.823D+00 0.736D+00 0.657D+00-0.157D+01 0.148D+01
 Coeff:     -0.385D-04 0.893D-04 0.497D-03 0.853D-03 0.141D-02-0.432D-02
 Coeff:     -0.183D-01-0.253D-01 0.625D-01-0.308D+00 0.414D+00 0.395D+00
 Coeff:     -0.823D+00 0.736D+00 0.657D+00-0.157D+01 0.148D+01
 Gap=     0.212 Goal=   None    Shift=    0.000
 RMSDP=1.75D-05 MaxDP=4.46D-03 DE=-1.52D-05 OVMax= 3.22D-05

 Cycle  18  Pass 0  IDiag  1:
 RMSU=  2.89D-06    CP:  1.00D+00  7.03D-01  9.60D-01  7.45D-01  1.01D+00
                    CP:  1.19D+00  1.25D+00  6.17D-01 -8.96D-01 -1.14D+00
                    CP:  3.00D+00 -2.16D-01 -1.72D+00  1.33D+00 -2.32D-01
                    CP: -1.86D+00  3.00D+00
 E= -1507.93274667420     Delta-E=       -0.000017798073 Rises=F Damp=F
 DIIS: error= 5.09D-06 at cycle  18 NSaved=  18.
 NSaved=18 IEnMin=18 EnMin= -1507.93274667420     IErMin=18 ErrMin= 5.09D-06
 ErrMax= 5.09D-06  0.00D+00 EMaxC= 1.00D-01 BMatC= 1.10D-08 BMatP= 2.34D-08
 IDIUse=1 WtCom= 1.00D+00 WtEn= 0.00D+00
 Coeff-Com: -0.174D-04 0.378D-04 0.245D-03 0.435D-03 0.840D-03-0.160D-02
 Coeff-Com: -0.796D-02-0.123D-01 0.312D-01-0.240D+00 0.252D+00 0.161D+00
 Coeff-Com: -0.352D+00 0.268D+00 0.150D+00-0.981D+00 0.860D+00 0.871D+00
 Coeff:     -0.174D-04 0.378D-04 0.245D-03 0.435D-03 0.840D-03-0.160D-02
 Coeff:     -0.796D-02-0.123D-01 0.312D-01-0.240D+00 0.252D+00 0.161D+00
 Coeff:     -0.352D+00 0.268D+00 0.150D+00-0.981D+00 0.860D+00 0.871D+00
 Gap=     0.212 Goal=   None    Shift=    0.000
 RMSDP=1.07D-05 MaxDP=1.94D-03 DE=-1.78D-05 OVMax= 2.01D-05

 Cycle  19  Pass 0  IDiag  1:
 RMSU=  4.03D-06    CP:  1.00D+00  7.04D-01  9.60D-01  7.44D-01  1.01D+00
                    CP:  1.10D+00  1.11D+00  1.28D-01 -1.29D+00 -8.95D-01
                    CP:  1.57D+00 -3.77D-01 -1.61D+00  1.23D+00 -6.26D-01
                    CP: -2.66D+00  3.00D+00  2.14D+00
 E= -1507.93276629870     Delta-E=       -0.000019624503 Rises=F Damp=F
 DIIS: error= 4.50D-06 at cycle  19 NSaved=  19.
 NSaved=19 IEnMin=19 EnMin= -1507.93276629870     IErMin=19 ErrMin= 4.50D-06
 ErrMax= 4.50D-06  0.00D+00 EMaxC= 1.00D-01 BMatC= 7.30D-09 BMatP= 1.10D-08
 IDIUse=1 WtCom= 1.00D+00 WtEn= 0.00D+00
 Coeff-Com: -0.265D-04 0.580D-04 0.308D-03 0.561D-03 0.918D-03-0.245D-02
 Coeff-Com: -0.114D-01-0.150D-01 0.509D-01-0.310D+00 0.336D+00 0.256D+00
 Coeff-Com: -0.410D+00 0.279D+00 0.962D-01-0.670D+00 0.444D+00 0.432D+00
 Coeff-Com:  0.525D+00
 Coeff:     -0.265D-04 0.580D-04 0.308D-03 0.561D-03 0.918D-03-0.245D-02
 Coeff:     -0.114D-01-0.150D-01 0.509D-01-0.310D+00 0.336D+00 0.256D+00
 Coeff:     -0.410D+00 0.279D+00 0.962D-01-0.670D+00 0.444D+00 0.432D+00
 Coeff:      0.525D+00
 Gap=     0.212 Goal=   None    Shift=    0.000
 RMSDP=5.83D-06 MaxDP=1.06D-03 DE=-1.96D-05 OVMax= 8.52D-06

 Cycle  20  Pass 0  IDiag  1:
 RMSU=  1.85D-06    CP:  1.00D+00  7.05D-01  9.60D-01  7.43D-01  1.01D+00
                    CP:  1.05D+00  1.05D+00 -1.22D-01 -1.49D+00 -8.03D-01
                    CP:  4.17D-01 -5.26D-01 -1.40D+00  1.09D+00 -7.14D-01
                    CP: -2.85D+00  3.00D+00  2.11D+00  1.54D+00
 E= -1507.93277148001     Delta-E=       -0.000005181309 Rises=F Damp=F
 DIIS: error= 4.65D-06 at cycle  20 NSaved=  20.
 NSaved=20 IEnMin=20 EnMin= -1507.93277148001     IErMin=19 ErrMin= 4.50D-06
 ErrMax= 4.65D-06  0.00D+00 EMaxC= 1.00D-01 BMatC= 5.97D-09 BMatP= 7.30D-09
 IDIUse=1 WtCom= 1.00D+00 WtEn= 0.00D+00
 Coeff-Com: -0.323D-04 0.698D-04 0.366D-03 0.679D-03 0.111D-02-0.283D-02
 Coeff-Com: -0.137D-01-0.180D-01 0.574D-01-0.326D+00 0.377D+00 0.286D+00
 Coeff-Com: -0.463D+00 0.333D+00 0.334D-01-0.564D+00 0.412D+00 0.305D+00
 Coeff-Com:  0.414D-02 0.577D+00
 Coeff:     -0.323D-04 0.698D-04 0.366D-03 0.679D-03 0.111D-02-0.283D-02
 Coeff:     -0.137D-01-0.180D-01 0.574D-01-0.326D+00 0.377D+00 0.286D+00
 Coeff:     -0.463D+00 0.333D+00 0.334D-01-0.564D+00 0.412D+00 0.305D+00
 Coeff:      0.414D-02 0.577D+00
 Gap=     0.212 Goal=   None    Shift=    0.000
 RMSDP=3.20D-06 MaxDP=6.08D-04 DE=-5.18D-06 OVMax= 5.51D-06

 Initial convergence to 1.0D-05 achieved.  Increase integral accuracy.
 Cycle  21  Pass 1  IDiag  1:
 E= -1507.93267879506     Delta-E=        0.000092684949 Rises=F Damp=F
 DIIS: error= 2.71D-04 at cycle   1 NSaved=   1.
 NSaved= 1 IEnMin= 1 EnMin= -1507.93267879506     IErMin= 1 ErrMin= 2.71D-04
 ErrMax= 2.71D-04  0.00D+00 EMaxC= 1.00D-01 BMatC= 8.49D-05 BMatP= 8.49D-05
 IDIUse=3 WtCom= 9.97D-01 WtEn= 2.71D-03
 Coeff-Com:  0.100D+01
 Coeff-En:   0.100D+01
 Coeff:      0.100D+01
 Gap=     0.212 Goal=   None    Shift=    0.000
 RMSDP=3.20D-06 MaxDP=6.08D-04 DE= 9.27D-05 OVMax= 9.28D-04

 Cycle  22  Pass 1  IDiag  1:
 RMSU=  3.95D-04    CP:  9.94D-01
 E= -1507.93273106143     Delta-E=       -0.000052266370 Rises=F Damp=F
 DIIS: error= 6.73D-06 at cycle   2 NSaved=   2.
 NSaved= 2 IEnMin= 2 EnMin= -1507.93273106143     IErMin= 2 ErrMin= 6.73D-06
 ErrMax= 6.73D-06  0.00D+00 EMaxC= 1.00D-01 BMatC= 6.10D-08 BMatP= 8.49D-05
 IDIUse=1 WtCom= 1.00D+00 WtEn= 0.00D+00
 Coeff-Com: -0.163D-01 0.102D+01
 Coeff:     -0.163D-01 0.102D+01
 Gap=     0.211 Goal=   None    Shift=    0.000
 RMSDP=1.45D-05 MaxDP=1.12D-03 DE=-5.23D-05 OVMax= 8.26D-05

 Cycle  23  Pass 1  IDiag  1:
 RMSU=  4.64D-06    CP:  9.94D-01  1.03D+00
 E= -1507.93273112820     Delta-E=       -0.000000066772 Rises=F Damp=F
 DIIS: error= 2.31D-06 at cycle   3 NSaved=   3.
 NSaved= 3 IEnMin= 3 EnMin= -1507.93273112820     IErMin= 3 ErrMin= 2.31D-06
 ErrMax= 2.31D-06  0.00D+00 EMaxC= 1.00D-01 BMatC= 2.11D-08 BMatP= 6.10D-08
 IDIUse=1 WtCom= 1.00D+00 WtEn= 0.00D+00
 Coeff-Com: -0.682D-02 0.404D+00 0.602D+00
 Coeff:     -0.682D-02 0.404D+00 0.602D+00
 Gap=     0.211 Goal=   None    Shift=    0.000
 RMSDP=4.41D-07 MaxDP=6.38D-05 DE=-6.68D-08 OVMax= 4.79D-05

 Cycle  24  Pass 1  IDiag  1:
 RMSU=  3.18D-07    CP:  9.94D-01  1.04D+00  1.03D+00
 E= -1507.93273114354     Delta-E=       -0.000000015331 Rises=F Damp=F
 DIIS: error= 1.33D-06 at cycle   4 NSaved=   4.
 NSaved= 4 IEnMin= 4 EnMin= -1507.93273114354     IErMin= 4 ErrMin= 1.33D-06
 ErrMax= 1.33D-06  0.00D+00 EMaxC= 1.00D-01 BMatC= 4.63D-09 BMatP= 2.11D-08
 IDIUse=1 WtCom= 1.00D+00 WtEn= 0.00D+00
 Coeff-Com: -0.207D-03 0.213D-02 0.308D+00 0.690D+00
 Coeff:     -0.207D-03 0.213D-02 0.308D+00 0.690D+00
 Gap=     0.211 Goal=   None    Shift=    0.000
 RMSDP=2.66D-07 MaxDP=2.78D-05 DE=-1.53D-08 OVMax= 1.43D-05

 Cycle  25  Pass 1  IDiag  1:
 RMSU=  1.34D-07    CP:  9.94D-01  1.04D+00  1.06D+00  9.93D-01
 E= -1507.93273114705     Delta-E=       -0.000000003513 Rises=F Damp=F
 DIIS: error= 5.72D-07 at cycle   5 NSaved=   5.
 NSaved= 5 IEnMin= 5 EnMin= -1507.93273114705     IErMin= 5 ErrMin= 5.72D-07
 ErrMax= 5.72D-07  0.00D+00 EMaxC= 1.00D-01 BMatC= 6.32D-10 BMatP= 4.63D-09
 IDIUse=1 WtCom= 1.00D+00 WtEn= 0.00D+00
 Coeff-Com:  0.428D-03-0.310D-01 0.127D+00 0.383D+00 0.521D+00
 Coeff:      0.428D-03-0.310D-01 0.127D+00 0.383D+00 0.521D+00
 Gap=     0.211 Goal=   None    Shift=    0.000
 RMSDP=5.72D-08 MaxDP=5.04D-06 DE=-3.51D-09 OVMax= 4.51D-06

 Cycle  26  Pass 1  IDiag  1:
 RMSU=  4.27D-08    CP:  9.94D-01  1.04D+00  1.07D+00  1.04D+00  1.04D+00
 E= -1507.93273114752     Delta-E=       -0.000000000468 Rises=F Damp=F
 DIIS: error= 9.79D-08 at cycle   6 NSaved=   6.
 NSaved= 6 IEnMin= 6 EnMin= -1507.93273114752     IErMin= 6 ErrMin= 9.79D-08
 ErrMax= 9.79D-08  0.00D+00 EMaxC= 1.00D-01 BMatC= 2.03D-11 BMatP= 6.32D-10
 IDIUse=1 WtCom= 1.00D+00 WtEn= 0.00D+00
 Coeff-Com:  0.163D-03-0.106D-01 0.134D-01 0.601D-01 0.172D+00 0.765D+00
 Coeff:      0.163D-03-0.106D-01 0.134D-01 0.601D-01 0.172D+00 0.765D+00
 Gap=     0.211 Goal=   None    Shift=    0.000
 RMSDP=1.60D-08 MaxDP=1.34D-06 DE=-4.68D-10 OVMax= 1.64D-06

 Cycle  27  Pass 1  IDiag  1:
 RMSU=  9.70D-09    CP:  9.94D-01  1.04D+00  1.07D+00  1.06D+00  1.11D+00
                    CP:  1.12D+00
 E= -1507.93273114757     Delta-E=       -0.000000000050 Rises=F Damp=F
 DIIS: error= 3.98D-08 at cycle   7 NSaved=   7.
 NSaved= 7 IEnMin= 7 EnMin= -1507.93273114757     IErMin= 7 ErrMin= 3.98D-08
 ErrMax= 3.98D-08  0.00D+00 EMaxC= 1.00D-01 BMatC= 3.92D-12 BMatP= 2.03D-11
 IDIUse=1 WtCom= 1.00D+00 WtEn= 0.00D+00
 Coeff-Com:  0.490D-05 0.183D-03-0.134D-01-0.334D-01-0.461D-02 0.331D+00
 Coeff-Com:  0.720D+00
 Coeff:      0.490D-05 0.183D-03-0.134D-01-0.334D-01-0.461D-02 0.331D+00
 Coeff:      0.720D+00
 Gap=     0.211 Goal=   None    Shift=    0.000
 RMSDP=7.05D-09 MaxDP=6.27D-07 DE=-4.96D-11 OVMax= 7.27D-07

 SCF Done:  E(RM062X) =  -1507.93273115     A.U. after   27 cycles
            NFock= 27  Conv=0.71D-08     -V/T= 2.0037
 KE= 1.502338802884D+03 PE=-8.487918975609D+03 EE= 3.002963993441D+03
 Leave Link  502 at Sat Aug 13 20:31:40 2022, MaxMem=  2684354560 cpu:            9455.5 elap:             591.9
 (Enter /storage/apps/GAUSSIAN/G16_RevA03/g16/l601.exe)
 Copying SCF densities to generalized density rwf, IOpCl= 0 IROHF=0.

 **********************************************************************

            Population analysis using the SCF density.

 **********************************************************************

 Orbital symmetries:
       Occupied  (A) (A) (A) (A) (A) (A) (A) (A) (A) (A) (A) (A)
                 (A) (A) (A) (A) (A) (A) (A) (A) (A) (A) (A) (A)
                 (A) (A) (A) (A) (A) (A) (A) (A) (A) (A) (A) (A)
                 (A) (A) (A) (A) (A) (A) (A) (A) (A) (A) (A) (A)
                 (A) (A) (A) (A) (A) (A) (A) (A) (A) (A) (A) (A)
                 (A) (A) (A) (A) (A) (A) (A) (A) (A) (A) (A) (A)
                 (A) (A) (A) (A) (A) (A) (A) (A) (A) (A) (A) (A)
                 (A) (A) (A) (A) (A) (A) (A) (A) (A) (A) (A)
       Virtual   (A) (A) (A) (A) (A) (A) (A) (A) (A) (A) (A) (A)
                 (A) (A) (A) (A) (A) (A) (A) (A) (A) (A) (A) (A)
                 (A) (A) (A) (A) (A) (A) (A) (A) (A) (A) (A) (A)
                 (A) (A) (A) (A) (A) (A) (A) (A) (A) (A) (A) (A)
                 (A) (A) (A) (A) (A) (A) (A) (A) (A) (A) (A) (A)
                 (A) (A) (A) (A) (A) (A) (A) (A) (A) (A) (A) (A)
                 (A) (A) (A) (A) (A) (A) (A) (A) (A) (A) (A) (A)
                 (A) (A) (A) (A) (A) (A) (A) (A) (A) (A) (A) (A)
                 (A) (A) (A) (A) (A) (A) (A) (A) (A) (A) (A) (A)
                 (A) (A) (A) (A) (A) (A) (A) (A) (A) (A) (A) (A)
                 (A) (A) (A) (A) (A) (A) (A) (A) (A) (A) (A) (A)
                 (A) (A) (A) (A) (A) (A) (A) (A) (A) (A) (A) (A)
                 (A) (A) (A) (A) (A) (A) (A) (A) (A) (A) (A) (A)
                 (A) (A) (A) (A) (A) (A) (A) (A) (A) (A) (A) (A)
                 (A) (A) (A) (A) (A) (A) (A) (A) (A) (A) (A) (A)
                 (A) (A) (A) (A) (A) (A) (A) (A) (A) (A) (A) (A)
                 (A) (A) (A) (A) (A) (A) (A) (A) (A) (A) (A) (A)
                 (A) (A) (A) (A) (A) (A) (A) (A) (A) (A) (A) (A)
                 (A) (A) (A) (A) (A) (A) (A) (A) (A) (A) (A) (A)
                 (A) (A) (A) (A) (A) (A) (A) (A) (A) (A) (A) (A)
                 (A) (A) (A) (A) (A) (A) (A) (A) (A) (A) (A) (A)
                 (A) (A) (A) (A) (A) (A) (A) (A) (A) (A) (A) (A)
                 (A) (A) (A) (A) (A) (A) (A) (A) (A) (A) (A) (A)
                 (A) (A) (A) (A) (A) (A) (A) (A) (A) (A) (A) (A)
                 (A) (A) (A) (A) (A) (A) (A) (A) (A) (A) (A) (A)
                 (A) (A) (A) (A) (A) (A) (A) (A) (A) (A) (A) (A)
                 (A) (A) (A) (A) (A) (A) (A) (A) (A) (A) (A) (A)
                 (A) (A) (A) (A) (A) (A) (A) (A) (A) (A) (A) (A)
                 (A) (A) (A) (A) (A) (A) (A) (A) (A) (A) (A) (A)
                 (A) (A) (A) (A) (A) (A) (A) (A) (A) (A) (A) (A)
                 (A) (A) (A) (A) (A) (A) (A) (A) (A) (A) (A) (A)
                 (A) (A) (A) (A) (A) (A) (A) (A) (A) (A) (A) (A)
                 (A) (A) (A) (A) (A) (A) (A) (A) (A) (A) (A) (A)
                 (A) (A) (A) (A) (A) (A) (A) (A) (A) (A) (A) (A)
                 (A) (A) (A) (A) (A) (A) (A) (A) (A) (A) (A) (A)
                 (A) (A) (A) (A) (A) (A) (A) (A) (A) (A) (A) (A)
                 (A) (A) (A) (A) (A) (A) (A) (A) (A) (A) (A) (A)
                 (A) (A) (A) (A) (A) (A) (A) (A) (A) (A) (A) (A)
                 (A) (A) (A) (A) (A) (A) (A) (A) (A) (A) (A) (A)
                 (A) (A) (A) (A) (A) (A) (A) (A) (A) (A) (A) (A)
                 (A) (A) (A) (A) (A) (A) (A) (A) (A) (A) (A) (A)
                 (A) (A) (A) (A) (A) (A) (A) (A) (A) (A) (A) (A)
                 (A) (A) (A) (A) (A) (A) (A) (A) (A) (A) (A) (A)
                 (A) (A) (A) (A) (A) (A) (A) (A) (A) (A) (A) (A)
                 (A) (A) (A) (A) (A) (A) (A) (A) (A) (A) (A) (A)
                 (A) (A) (A) (A) (A) (A) (A) (A) (A) (A) (A) (A)
                 (A) (A) (A) (A) (A) (A) (A) (A) (A) (A) (A) (A)
                 (A) (A) (A) (A) (A) (A) (A) (A) (A) (A) (A) (A)
                 (A) (A) (A) (A) (A) (A) (A) (A) (A) (A) (A) (A)
                 (A) (A) (A) (A) (A) (A) (A) (A) (A) (A) (A) (A)
                 (A) (A) (A) (A) (A) (A) (A) (A) (A) (A) (A) (A)
                 (A) (A) (A) (A) (A) (A) (A) (A) (A) (A) (A) (A)
                 (A) (A) (A) (A) (A) (A) (A) (A) (A) (A) (A) (A)
                 (A) (A) (A) (A) (A) (A) (A) (A) (A) (A) (A) (A)
                 (A) (A) (A) (A) (A) (A) (A) (A) (A) (A) (A) (A)
                 (A) (A) (A) (A) (A) (A) (A) (A) (A) (A) (A) (A)
                 (A) (A) (A) (A) (A) (A) (A) (A) (A) (A) (A) (A)
                 (A) (A) (A) (A) (A) (A) (A) (A) (A) (A) (A) (A)
                 (A) (A) (A) (A) (A) (A) (A) (A) (A) (A) (A) (A)
                 (A) (A) (A) (A) (A) (A) (A) (A) (A) (A) (A) (A)
                 (A) (A) (A) (A) (A) (A) (A) (A) (A) (A) (A) (A)
                 (A) (A) (A) (A) (A) (A) (A) (A) (A) (A) (A) (A)
                 (A) (A) (A) (A) (A) (A) (A) (A) (A) (A) (A) (A)
                 (A) (A) (A) (A) (A) (A) (A) (A) (A) (A) (A) (A)
                 (A) (A) (A) (A) (A) (A) (A) (A) (A) (A) (A) (A)
                 (A) (A) (A) (A) (A) (A) (A) (A) (A) (A) (A) (A)
                 (A) (A) (A) (A) (A) (A) (A)
 The electronic state is 1-A.
 Alpha  occ. eigenvalues --  -89.92013 -19.63519 -19.63270 -19.62693 -19.62231
 Alpha  occ. eigenvalues --  -19.57768 -14.78952 -14.76070 -10.66169 -10.63439
 Alpha  occ. eigenvalues --  -10.62901 -10.59477 -10.59077 -10.59008 -10.58348
 Alpha  occ. eigenvalues --  -10.57578 -10.56923 -10.56919 -10.55376 -10.55236
 Alpha  occ. eigenvalues --  -10.55102 -10.53826 -10.53422 -10.53244  -8.27945
 Alpha  occ. eigenvalues --   -6.19883  -6.19647  -6.19454  -1.19259  -1.18796
 Alpha  occ. eigenvalues --   -1.15899  -1.15044  -1.13742  -1.08316  -1.00667
 Alpha  occ. eigenvalues --   -0.92712  -0.91808  -0.90201  -0.88505  -0.87492
 Alpha  occ. eigenvalues --   -0.85549  -0.82897  -0.78866  -0.76618  -0.75513
 Alpha  occ. eigenvalues --   -0.73437  -0.70743  -0.67639  -0.67406  -0.66323
 Alpha  occ. eigenvalues --   -0.63509  -0.63185  -0.61672  -0.60399  -0.58747
 Alpha  occ. eigenvalues --   -0.58116  -0.57141  -0.56546  -0.56038  -0.55000
 Alpha  occ. eigenvalues --   -0.54059  -0.52986  -0.52344  -0.51768  -0.51200
 Alpha  occ. eigenvalues --   -0.50609  -0.50379  -0.49948  -0.49253  -0.48920
 Alpha  occ. eigenvalues --   -0.48520  -0.48235  -0.47847  -0.47114  -0.46654
 Alpha  occ. eigenvalues --   -0.45931  -0.44715  -0.44230  -0.43806  -0.43743
 Alpha  occ. eigenvalues --   -0.43411  -0.43205  -0.41425  -0.41344  -0.37798
 Alpha  occ. eigenvalues --   -0.36132  -0.35606  -0.34510  -0.34387  -0.33873
 Alpha  occ. eigenvalues --   -0.33449  -0.32899  -0.32422  -0.30978  -0.24370
 Alpha virt. eigenvalues --   -0.03222   0.00324   0.04363   0.04645   0.06075
 Alpha virt. eigenvalues --    0.07171   0.07428   0.07992   0.08602   0.09107
 Alpha virt. eigenvalues --    0.09294   0.09581   0.10404   0.10687   0.11131
 Alpha virt. eigenvalues --    0.11714   0.12177   0.12510   0.12821   0.12943
 Alpha virt. eigenvalues --    0.13640   0.13891   0.13916   0.14185   0.14703
 Alpha virt. eigenvalues --    0.15418   0.15853   0.16310   0.17115   0.17302
 Alpha virt. eigenvalues --    0.18022   0.18414   0.18729   0.18954   0.19541
 Alpha virt. eigenvalues --    0.20373   0.20654   0.21311   0.21852   0.22510
 Alpha virt. eigenvalues --    0.22965   0.23292   0.23528   0.24328   0.24829
 Alpha virt. eigenvalues --    0.24920   0.25571   0.25722   0.26216   0.27033
 Alpha virt. eigenvalues --    0.27456   0.27589   0.28105   0.28686   0.28932
 Alpha virt. eigenvalues --    0.29384   0.30103   0.30184   0.30412   0.31137
 Alpha virt. eigenvalues --    0.31430   0.31847   0.33123   0.33367   0.33912
 Alpha virt. eigenvalues --    0.34298   0.35107   0.35410   0.35662   0.36173
 Alpha virt. eigenvalues --    0.36676   0.37001   0.37388   0.37733   0.38315
 Alpha virt. eigenvalues --    0.38480   0.39062   0.39931   0.40146   0.40196
 Alpha virt. eigenvalues --    0.40843   0.41114   0.41574   0.42043   0.42425
 Alpha virt. eigenvalues --    0.42642   0.42939   0.43664   0.43779   0.44002
 Alpha virt. eigenvalues --    0.44526   0.44955   0.45206   0.45401   0.45892
 Alpha virt. eigenvalues --    0.46451   0.46781   0.47252   0.47548   0.47661
 Alpha virt. eigenvalues --    0.47710   0.48051   0.48895   0.49133   0.49371
 Alpha virt. eigenvalues --    0.50152   0.50469   0.50728   0.51027   0.51355
 Alpha virt. eigenvalues --    0.51857   0.51966   0.52325   0.52549   0.52681
 Alpha virt. eigenvalues --    0.53121   0.53386   0.54347   0.54493   0.54979
 Alpha virt. eigenvalues --    0.55407   0.55476   0.56231   0.56889   0.57653
 Alpha virt. eigenvalues --    0.58127   0.58397   0.58541   0.59315   0.60230
 Alpha virt. eigenvalues --    0.60403   0.61230   0.61879   0.62121   0.62379
 Alpha virt. eigenvalues --    0.63038   0.64012   0.64441   0.65450   0.65662
 Alpha virt. eigenvalues --    0.65933   0.66156   0.66733   0.67591   0.67860
 Alpha virt. eigenvalues --    0.68556   0.68947   0.69106   0.70037   0.71299
 Alpha virt. eigenvalues --    0.71466   0.72341   0.72888   0.73585   0.73936
 Alpha virt. eigenvalues --    0.74295   0.75090   0.75415   0.76390   0.76670
 Alpha virt. eigenvalues --    0.76794   0.78039   0.79190   0.80544   0.80641
 Alpha virt. eigenvalues --    0.81574   0.81861   0.82544   0.83562   0.84107
 Alpha virt. eigenvalues --    0.84691   0.85009   0.86292   0.86663   0.87172
 Alpha virt. eigenvalues --    0.87767   0.88298   0.88785   0.89284   0.90124
 Alpha virt. eigenvalues --    0.91012   0.91202   0.91379   0.92577   0.92998
 Alpha virt. eigenvalues --    0.93638   0.94077   0.95220   0.95374   0.96204
 Alpha virt. eigenvalues --    0.96694   0.97601   0.98448   0.98543   0.99376
 Alpha virt. eigenvalues --    0.99730   1.00417   1.00884   1.02159   1.03163
 Alpha virt. eigenvalues --    1.03758   1.04719   1.05085   1.06154   1.06873
 Alpha virt. eigenvalues --    1.07191   1.07530   1.08698   1.09149   1.09997
 Alpha virt. eigenvalues --    1.10697   1.11516   1.11755   1.11931   1.12524
 Alpha virt. eigenvalues --    1.13472   1.14160   1.15289   1.15808   1.16199
 Alpha virt. eigenvalues --    1.16932   1.18086   1.18623   1.19252   1.20428
 Alpha virt. eigenvalues --    1.21038   1.22052   1.22697   1.22923   1.23307
 Alpha virt. eigenvalues --    1.25077   1.25367   1.26480   1.26922   1.28806
 Alpha virt. eigenvalues --    1.29335   1.30118   1.30657   1.31326   1.31447
 Alpha virt. eigenvalues --    1.32894   1.33941   1.34096   1.35560   1.36117
 Alpha virt. eigenvalues --    1.37567   1.37673   1.38284   1.38983   1.39805
 Alpha virt. eigenvalues --    1.41163   1.41915   1.42448   1.43712   1.44861
 Alpha virt. eigenvalues --    1.45397   1.46644   1.48276   1.48513   1.49724
 Alpha virt. eigenvalues --    1.50210   1.50862   1.51333   1.52067   1.52737
 Alpha virt. eigenvalues --    1.53231   1.53728   1.54424   1.54980   1.55184
 Alpha virt. eigenvalues --    1.55975   1.56455   1.57272   1.57699   1.58382
 Alpha virt. eigenvalues --    1.58799   1.59067   1.59954   1.60052   1.60141
[...]
 (Enter /storage/apps/GAUSSIAN/G16_RevA03/g16/l716.exe)
 Dipole        =-9.38863657D-01-7.28822308D-01 1.68498741D+00
 ***** Axes restored to original set *****
 -------------------------------------------------------------------
 Center     Atomic                   Forces (Hartrees/Bohr)
 Number     Number              X              Y              Z
 -------------------------------------------------------------------
      1        6           0.000402861   -0.000058982   -0.000009063
      2        1           0.000002900    0.000001825    0.000000505
      3        1          -0.000007548   -0.000008161    0.000001296
      4        6           0.000116087   -0.000106688   -0.000182903
      5        1          -0.000026341   -0.000004257    0.000022400
      6        8          -0.000234643   -0.000072784   -0.000319263
      7        1           0.000091046   -0.000025028    0.000029064
      8        6           0.000091655   -0.000012371   -0.000040066
      9        1          -0.000014223    0.000003732    0.000014033
     10        8           0.000056663    0.000115443   -0.000085479
     11        1          -0.000011473   -0.000017448    0.000020321
     12        6           0.000105580   -0.000112780   -0.000197373
     13        1           0.000024384    0.000004484   -0.000020627
     14        6           0.000193340    0.000025062   -0.000025766
     15        1          -0.000017785    0.000005624   -0.000008799
     16        8           0.000240788   -0.000203766   -0.000145299
     17        7           0.000370452   -0.000074616   -0.000067239
     18        6          -0.000067406   -0.000157898   -0.000158074
     19        1          -0.000026144    0.000037248   -0.000013119
     20        6           0.000176134   -0.000076854    0.000011225
     21        1           0.000001772    0.000029731    0.000024907
     22        6          -0.000283593    0.000025090   -0.000168924
     23        1           0.000098987    0.000010360    0.000064740
     24        1           0.000411251    0.000001953   -0.000117778
     25        6           0.000277017    0.000059711   -0.000027055
     26        6          -0.000029434    0.000024644   -0.000080148
     27        1           0.000010702   -0.000004367    0.000035875
     28        6           0.000187811   -0.000218128    0.000152607
     29        8          -0.000132029    0.000236596    0.001537418
     30        7           0.000117673   -0.001091711   -0.001486259
     31        1          -0.000021587    0.000190392   -0.000146440
     32        1           0.000372228    0.000919627    0.000495852
     33        1          -0.000038196    0.000005412    0.000010240
     34        6           0.000233528    0.000168933   -0.000629230
     35        6          -0.000083136   -0.000024644    0.000203221
     36        6          -0.001075490   -0.002471586    0.000317346
     37        6          -0.000617150    0.000244212    0.000222762
     38        6           0.000558225    0.001836389    0.000979390
     39        8          -0.000912018    0.000147858    0.000745929
     40       16          -0.000358309    0.000225450   -0.000531461
     41        1           0.000010155   -0.000046828   -0.000057236
     42        1          -0.000055537   -0.000012389    0.000021417
     43        1          -0.000085816   -0.000023277    0.000071416
     44        1           0.000019969   -0.000065536    0.000036790
     45        1          -0.000005355   -0.000119045   -0.000133730
     46        1           0.000062784   -0.000129295    0.000042046
     47        1          -0.000139063    0.000798833   -0.000389222
     48        1           0.000008286    0.000019831   -0.000020247
 -------------------------------------------------------------------
 Cartesian Forces:  Max     0.002471586 RMS     0.000411091
 Leave Link  716 at Sat Aug 13 20:34:47 2022, MaxMem=  2684354560 cpu:               0.4 elap:               0.0
 (Enter /storage/apps/GAUSSIAN/G16_RevA03/g16/l103.exe)

 GradGradGradGradGradGradGradGradGradGradGradGradGradGradGradGradGradGrad
 Berny optimization.
 Search for a local minimum.
 Step number   1 out of a maximum of    2
 All quantities printed in internal units (Hartrees-Bohrs-Radians)
 Second derivative matrix not updated -- first step.
 ITU=  0
     Eigenvalues ---    0.00038   0.00090   0.00104   0.00125   0.00187
     Eigenvalues ---    0.00235   0.00309   0.00392   0.00419   0.00456
     Eigenvalues ---    0.00531   0.00729   0.00835   0.00914   0.00933
     Eigenvalues ---    0.00995   0.01073   0.01177   0.01378   0.01523
     Eigenvalues ---    0.01688   0.01886   0.02344   0.02498   0.02617
     Eigenvalues ---    0.02956   0.03212   0.03359   0.03760   0.03882
     Eigenvalues ---    0.04377   0.04628   0.04919   0.05078   0.05241
     Eigenvalues ---    0.05327   0.05536   0.05736   0.05840   0.05883
     Eigenvalues ---    0.06073   0.06165   0.06315   0.06394   0.06667
     Eigenvalues ---    0.06936   0.07299   0.07627   0.07826   0.08094
     Eigenvalues ---    0.08447   0.08769   0.09016   0.09622   0.10296
     Eigenvalues ---    0.10515   0.11587   0.12117   0.12210   0.12516
     Eigenvalues ---    0.12966   0.13131   0.13215   0.13590   0.13654
     Eigenvalues ---    0.14011   0.14082   0.15379   0.15983   0.16584
     Eigenvalues ---    0.16933   0.18181   0.18888   0.19634   0.19834
     Eigenvalues ---    0.19924   0.20291   0.21677   0.21846   0.22205
     Eigenvalues ---    0.24048   0.26806   0.27413   0.27649   0.31899
     Eigenvalues ---    0.33007   0.34138   0.34680   0.35328   0.37164
     Eigenvalues ---    0.38061   0.38061   0.38061   0.38061   0.40162
     Eigenvalues ---    0.43180   0.45160   0.48051   0.56574   0.56823
     Eigenvalues ---    0.61660   0.66413   0.69490   0.70099   0.74270
     Eigenvalues ---    0.78978   0.82469   0.87534   0.89079   0.91129
     Eigenvalues ---    0.91314   0.91972   0.93862   0.94452   0.94989
     Eigenvalues ---    0.95571   0.97186   0.99804   1.01442   1.02973
     Eigenvalues ---    1.05482   1.06754   1.09664   1.11417   1.14079
     Eigenvalues ---    1.19638   1.19905   1.24137   1.25928   1.29850
     Eigenvalues ---    1.33728   1.41938   1.51570   1.63004   1.69998
     Eigenvalues ---    1.79347   2.17944   2.27440
 Quadratic step=1.752D+00 exceeds max=3.000D-01 adjusted using Lamda=-3.081D-03.
 Angle between NR and scaled steps=  34.53 degrees.
 Angle between quadratic step and forces=  68.70 degrees.
 Linear search not attempted -- first point.
 Variable       Old X    -DE/DX   Delta X   Delta X   Delta X     New X
                                 (Linear)    (Quad)   (Total)
    X1        6.86425   0.00040   0.00000   0.00527   0.00527   6.86953
    Y1       -6.84653  -0.00006   0.00000  -0.00561  -0.00561  -6.85215
    Z1       -0.84085  -0.00001   0.00000   0.01650   0.01650  -0.82434
    X2        7.15954   0.00000   0.00000   0.00484   0.00484   7.16439
    Y2       -7.03515   0.00000   0.00000  -0.02022  -0.02022  -7.05537
    Z2       -2.86907   0.00000   0.00000   0.01834   0.01834  -2.85073
    X3        8.23328  -0.00001   0.00000  -0.00085  -0.00085   8.23243
    Y3       -8.03330  -0.00001   0.00000  -0.00296  -0.00296  -8.03627
    Z3        0.14166   0.00000   0.00000   0.02797   0.02797   0.16963
    X4        3.60323   0.00012   0.00000   0.00148   0.00148   3.60471
    Y4       -2.76057  -0.00011   0.00000  -0.00134  -0.00134  -2.76191
    Z4        2.29751  -0.00018   0.00000  -0.01689  -0.01689   2.28062
    X5        2.39103  -0.00003   0.00000   0.00547   0.00547   2.39651
    Y5       -4.41978  -0.00000   0.00000  -0.00539  -0.00539  -4.42518
    Z5        2.04006   0.00002   0.00000  -0.01173  -0.01173   2.02833
    X6        2.83195  -0.00023   0.00000  -0.00923  -0.00923   2.82272
    Y6       -1.31977  -0.00007   0.00000   0.00323   0.00323  -1.31653
    Z6        4.37130  -0.00032   0.00000  -0.02435  -0.02435   4.34695
    X7        1.06332   0.00009   0.00000  -0.01252  -0.01252   1.05080
    Y7       -0.85271  -0.00003   0.00000  -0.00817  -0.00817  -0.86088
    Z7        4.14791   0.00003   0.00000  -0.02224  -0.02224   4.12567
    X8        6.34348   0.00009   0.00000   0.00274   0.00274   6.34621
    Y8       -3.57558  -0.00001   0.00000   0.01059   0.01059  -3.56498
    Z8        2.64479  -0.00004   0.00000  -0.00534  -0.00534   2.63945
    X9        6.52070  -0.00001   0.00000   0.00249   0.00249   6.52319
    Y9       -5.24787   0.00000   0.00000   0.01802   0.01802  -5.22984
    Z9        3.84898   0.00001   0.00000   0.00578   0.00578   3.85476
   X10        7.77149   0.00006   0.00000  -0.00714  -0.00714   7.76435
   Y10       -1.54831   0.00012   0.00000   0.02118   0.02118  -1.52713
   Z10        3.61235  -0.00009   0.00000  -0.01256  -0.01256   3.59979
   X11        6.74659  -0.00001   0.00000  -0.01150  -0.01150   6.73509
   Y11       -0.73987  -0.00002   0.00000   0.01673   0.01673  -0.72314
   Z11        4.88855   0.00002   0.00000  -0.01261  -0.01261   4.87595
   X12        3.75711   0.00011   0.00000   0.00812   0.00812   3.76523
   Y12       -1.27819  -0.00011   0.00000  -0.00742  -0.00742  -1.28560
   Z12       -0.19756  -0.00020   0.00000  -0.01921  -0.01921  -0.21677
   X13        4.32152   0.00002   0.00000   0.00379   0.00379   4.32531
   Y13        0.66909   0.00000   0.00000  -0.00678  -0.00678   0.66231
   Z13        0.21428  -0.00002   0.00000  -0.01609  -0.01609   0.19819
   X14        7.17159   0.00019   0.00000   0.00931   0.00931   7.18090
   Y14       -4.10570   0.00003   0.00000  -0.00161  -0.00161  -4.10731
   Z14       -0.06394  -0.00003   0.00000  -0.00072  -0.00072  -0.06465
   X15        9.12713  -0.00002   0.00000   0.00993   0.00993   9.13707
   Y15       -3.49490   0.00001   0.00000  -0.00422  -0.00422  -3.49911
   Z15       -0.30077  -0.00001   0.00000   0.00333   0.00333  -0.29744
   X16        5.61024   0.00024   0.00000   0.01364   0.01364   5.62388
   Y16       -2.54112  -0.00020   0.00000  -0.00841  -0.00841  -2.54954
   Z16       -1.63605  -0.00015   0.00000  -0.01246  -0.01246  -1.64850
   X17        1.44049   0.00037   0.00000   0.00870   0.00870   1.44919
   Y17       -1.15618  -0.00007   0.00000  -0.00676  -0.00676  -1.16293
   Z17       -1.62244  -0.00007   0.00000  -0.01858  -0.01858  -1.64102
   X18        0.34264  -0.00007   0.00000   0.00523   0.00523   0.34787
   Y18       -3.38176  -0.00016   0.00000  -0.00444  -0.00444  -3.38620
   Z18       -2.50652  -0.00016   0.00000  -0.02047  -0.02047  -2.52699
   X19        1.37304  -0.00003   0.00000   0.00046   0.00046   1.37350
   Y19       -5.08668   0.00004   0.00000  -0.00668  -0.00668  -5.09336
   Z19       -2.05815  -0.00001   0.00000  -0.01895  -0.01895  -2.07710
   X20       -1.76331   0.00018   0.00000   0.00185   0.00185  -1.76145
   Y20       -3.41694  -0.00008   0.00000   0.00008   0.00008  -3.41686
   Z20       -3.87338   0.00001   0.00000  -0.01511  -0.01511  -3.88848
   X21       -2.47445   0.00000   0.00000  -0.00618  -0.00618  -2.48063
   Y21       -5.22295   0.00003   0.00000   0.00120   0.00120  -5.22176
   Z21       -4.51366   0.00002   0.00000  -0.00907  -0.00907  -4.52273
   X22       -3.17276  -0.00028   0.00000   0.00189   0.00189  -3.17087
   Y22       -1.06049   0.00003   0.00000   0.00292   0.00292  -1.05756
   Z22       -4.59629  -0.00017   0.00000  -0.00733  -0.00733  -4.60362
   X23       -3.40184   0.00010   0.00000  -0.00260  -0.00260  -3.40444
   Y23       -0.99024   0.00001   0.00000   0.01173   0.01173  -0.97851
   Z23       -6.65912   0.00006   0.00000  -0.00573  -0.00573  -6.66485
   X24       -5.09914   0.00041   0.00000   0.00444   0.00444  -5.09471
   Y24       -1.12159   0.00000   0.00000  -0.00286  -0.00286  -1.12445
   Z24       -3.82264  -0.00012   0.00000  -0.00289  -0.00289  -3.82553
   X25       -1.78889   0.00028   0.00000  -0.00188  -0.00188  -1.79077
   Y25        1.24889   0.00006   0.00000  -0.00029  -0.00029   1.24860
   Z25       -3.65676  -0.00003   0.00000   0.00722   0.00722  -3.64954
   X26        0.35360  -0.00003   0.00000   0.00082   0.00082   0.35442
   Y26        1.08002   0.00002   0.00000  -0.00493  -0.00493   1.07509
   Z26       -2.30120  -0.00008   0.00000   0.00112   0.00112  -2.30007
   X27        1.28081   0.00001   0.00000  -0.00656  -0.00656   1.27425
   Y27        2.79154  -0.00000   0.00000  -0.00725  -0.00725   2.78428
   Z27       -1.66362   0.00004   0.00000   0.01799   0.01799  -1.64563
   X28       -2.77907   0.00019   0.00000  -0.01566  -0.01566  -2.79473
   Y28        3.81519  -0.00022   0.00000   0.00093   0.00093   3.81612
   Z28       -4.12793   0.00015   0.00000   0.04487   0.04487  -4.08306
   X29       -1.65315  -0.00013   0.00000  -0.05794  -0.05794  -1.71109
   Y29        5.75210   0.00024   0.00000  -0.00099  -0.00099   5.75111
   Z29       -3.60763   0.00154   0.00000   0.14555   0.14555  -3.46208
   X30       -5.17722   0.00012   0.00000   0.01259   0.01259  -5.16463
   Y30        3.90368  -0.00109   0.00000  -0.00006  -0.00006   3.90362
   Z30       -5.12460  -0.00149   0.00000  -0.02489  -0.02489  -5.14949
   X31       -5.76314  -0.00002   0.00000   0.00658   0.00658  -5.75656
   Y31        5.61570   0.00019   0.00000   0.00831   0.00831   5.62401
   Z31       -5.71235  -0.00015   0.00000   0.00425   0.00425  -5.70810
   X32       -5.93740   0.00037   0.00000   0.04575   0.04575  -5.89165
   Y32        2.37910   0.00092   0.00000   0.01338   0.01338   2.39248
   Z32       -5.96765   0.00050   0.00000  -0.07376  -0.07376  -6.04141
   X33        4.97069  -0.00004   0.00000   0.00224   0.00224   4.97293
   Y33       -7.53635   0.00001   0.00000   0.00356   0.00356  -7.53279
   Z33       -0.39354   0.00001   0.00000   0.02087   0.02087  -0.37266
   X34        0.41911   0.00023   0.00000   0.00714   0.00714   0.42625
   Y34        4.17524   0.00017   0.00000   0.00271   0.00271   4.17795
   Z34        5.22731  -0.00063   0.00000  -0.01880  -0.01880   5.20851
   X35       -3.21680  -0.00008   0.00000  -0.01336  -0.01336  -3.23016
   Y35        1.74090  -0.00002   0.00000  -0.00481  -0.00481   1.73609
   Z35        2.50527   0.00020   0.00000   0.02302   0.02302   2.52829
   X36       -5.60487  -0.00108   0.00000   0.00155   0.00155  -5.60332
   Y36        1.66076  -0.00247   0.00000  -0.00356  -0.00356   1.65720
   Z36        1.06763   0.00032   0.00000  -0.00033  -0.00033   1.06730
   X37       -9.20774  -0.00062   0.00000   0.00567   0.00567  -9.20208
   Y37       -0.79254   0.00024   0.00000   0.00177   0.00177  -0.79076
   Z37       -0.74289   0.00022   0.00000  -0.00928  -0.00928  -0.75217
   X38       -6.74409   0.00056   0.00000  -0.01029  -0.01029  -6.75439
   Y38       -0.53160   0.00184   0.00000   0.00187   0.00187  -0.52973
   Z38        0.59663   0.00098   0.00000   0.02076   0.02076   0.61739
   X39       -2.02176  -0.00091   0.00000  -0.07121  -0.07121  -2.09298
   Y39       -0.12953   0.00015   0.00000  -0.01164  -0.01164  -0.14117
   Z39        3.10371   0.00075   0.00000   0.11603   0.11603   3.21974
   X40       -2.33024  -0.00036   0.00000   0.05468   0.05468  -2.27556
   Y40        4.82357   0.00023   0.00000   0.00582   0.00582   4.82939
   Z40        3.34287  -0.00053   0.00000  -0.08946  -0.08946   3.25341
   X41        0.96101   0.00001   0.00000   0.00119   0.00119   0.96221
   Y41        5.95658  -0.00005   0.00000   0.00492   0.00492   5.96150
   Z41        6.09706  -0.00006   0.00000  -0.01969  -0.01969   6.07737
   X42        1.95829  -0.00006   0.00000   0.02897   0.02897   1.98726
   Y42        3.47557  -0.00001   0.00000  -0.02210  -0.02210   3.45347
   Z42        4.05952   0.00002   0.00000   0.02602   0.02602   4.08554
   X43      -10.65631  -0.00009   0.00000  -0.01258  -0.01258 -10.66889
   Y43       -1.48084  -0.00002   0.00000   0.01278   0.01278  -1.46806
   Z43        0.55812   0.00007   0.00000  -0.02375  -0.02375   0.53438
   X44       -9.83181   0.00002   0.00000   0.02255   0.02255  -9.80926
   Y44        1.00554  -0.00007   0.00000  -0.00056  -0.00056   1.00498
   Z44       -1.52845   0.00004   0.00000  -0.02721  -0.02721  -1.55566
   X45       -9.07821  -0.00001   0.00000   0.02230   0.02230  -9.05591
   Y45       -2.18277  -0.00012   0.00000  -0.00694  -0.00694  -2.18971
   Z45       -2.26175  -0.00013   0.00000  -0.00073  -0.00073  -2.26248
   X46       -5.82047   0.00006   0.00000  -0.02741  -0.02741  -5.84788
   Y46       -2.24375  -0.00013   0.00000   0.00330   0.00330  -2.24045
   Z46        1.25431   0.00004   0.00000   0.05035   0.05035   1.30466
   X47       -6.40319  -0.00014   0.00000   0.03011   0.03011  -6.37308
   Y47        3.44575   0.00080   0.00000  -0.00277  -0.00277   3.44298
   Z47        0.46185  -0.00039   0.00000  -0.04320  -0.04320   0.41865
   X48       -0.03109   0.00001   0.00000  -0.03717  -0.03717  -0.06826
   Y48        2.79423   0.00002   0.00000   0.02035   0.02035   2.81458
   Z48        6.68202  -0.00002   0.00000  -0.01472  -0.01472   6.66730
         Item               Value     Threshold  Converged?
 Maximum Force            0.002472     0.000450     NO 
 RMS     Force            0.000411     0.000300     NO 
 Maximum Displacement     0.145550     0.001800     NO 
 RMS     Displacement     0.025003     0.001200     NO 
 Predicted change in Energy=-4.075268D-04
 GradGradGradGradGradGradGradGradGradGradGradGradGradGradGradGradGradGrad

 Leave Link  103 at Sat Aug 13 20:34:48 2022, MaxMem=  2684354560 cpu:               0.9 elap:               0.1
 (Enter /storage/apps/GAUSSIAN/G16_RevA03/g16/l9999.exe)

 Test job not archived.
 1\1\GINC-T074\Force\RM062X\def2TZVP\C16H24N2O5S1\LV87696\13-Aug-2022\0
 \\#P M062X/Def2TZVP scf=(direct,conver=8) EmpiricalDispersion=GD3 Forc
 e Charge Prop=(Field,Read)\\Gaussian run\\0,1\C,3.632405,-3.62303,-0.4
 44958\H,3.788668,-3.722841,-1.518247\H,4.356865,-4.251041,0.074963\C,1
 .906748,-1.460831,1.21579\H,1.265281,-2.338849,1.079553\O,1.498603,-0.
 698391,2.313192\H,0.562685,-0.451233,2.194978\C,3.356823,-1.892113,1.3
 99564\H,3.450606,-2.777053,2.036794\O,4.112497,-0.819332,1.911575\H,3.
 570141,-0.391522,2.586911\C,1.988175,-0.676388,-0.104546\H,2.286849,0.
 354068,0.113392\C,3.795042,-2.172642,-0.033833\H,4.82987,-1.849421,-0.
 159161\O,2.968812,-1.344704,-0.865759\N,0.762277,-0.611822,-0.85856\C,
 0.181316,-1.789548,-1.326391\H,0.72658,-2.691753,-1.089125\C,-0.933102
 ,-1.808166,-2.049703\H,-1.309421,-2.763868,-2.388526\C,-1.678952,-0.56
 1185,-2.43225\H,-1.800178,-0.52401,-3.523855\H,-2.698351,-0.593522,-2.
 022855\C,-0.946639,0.660884,-1.935075\C,0.187118,0.571522,-1.21774\H,0
 .677776,1.477217,-0.88035\C,-1.470622,2.018913,-2.184406\O,-0.874807,3
 .043881,-1.909074\N,-2.739667,2.065738,-2.711822\H,-3.049724,2.971702,
 -3.022843\H,-3.141939,1.258965,-3.157945\H,2.630376,-3.988067,-0.20825
 \C,0.221783,2.209442,2.766171\C,-1.702255,0.921246,1.325732\C,-2.96597
 2,0.878837,0.564966\C,-4.872527,-0.419392,-0.393122\C,-3.568821,-0.281
 312,0.315724\O,-1.069871,-0.068544,1.64241\S,-1.23311,2.552522,1.76896
 8\H,0.508547,3.152088,3.226425\H,1.036281,1.839191,2.148205\H,-5.63907
 6,-0.783627,0.295346\H,-5.202768,0.532107,-0.808821\H,-4.803981,-1.155
 073,-1.196864\H,-3.08006,-1.187339,0.663752\H,-3.38842,1.823413,0.2444
 02\H,-0.016454,1.478641,3.535971\\Version=ES64L-G16RevA.03\State=1-A\H
 F=-1507.9327311\RMSD=7.051e-09\RMSF=4.111e-04\Dipole=-1.6989492,-1.168
 4769,0.0079321\Quadrupole=4.2395616,-3.0286283,-1.2109332,-2.1806823,8
 .0245644,5.6911166\PG=C01 [X(C16H24N2O5S1)]\\@


 TIMES HAVE CHANGED. IN THE BIBLE WHEN AN ASS
 SPOKE IT WAS CONSIDERED A MIRACLE.
 Job cpu time:       0 days  3 hours 28 minutes 54.0 seconds.
 Elapsed time:       0 days  0 hours 13 minutes  5.2 seconds.
 File lengths (MBytes):  RWF=    435 Int=      0 D2E=      0 Chk=     48 Scr=      1
 Normal termination of Gaussian 16 at Sat Aug 13 20:34:48 2022.
