 Entering Gaussian System, Link 0=g16
 Initial command:
 /storage/apps/GAUSSIAN/G16_RevA03/g16/l1.exe "/scratch/tmp/1019228/Gau-200296.inp" -scrdir="/scratch/tmp/1019228/"
 Entering Link 1 = /storage/apps/GAUSSIAN/G16_RevA03/g16/l1.exe PID=    200297.
  
 Copyright (c) 1988,1990,1992,1993,1995,1998,2003,2009,2016,
            Gaussian, Inc.  All Rights Reserved.
  
 This is part of the Gaussian(R) 16 program.  It is based on
 the Gaussian(R) 09 system (copyright 2009, Gaussian, Inc.),
 the Gaussian(R) 03 system (copyright 2003, Gaussian, Inc.),
 the Gaussian(R) 98 system (copyright 1998, Gaussian, Inc.),
 the Gaussian(R) 94 system (copyright 1995, Gaussian, Inc.),
 the Gaussian 92(TM) system (copyright 1992, Gaussian, Inc.),
 the Gaussian 90(TM) system (copyright 1990, Gaussian, Inc.),
 the Gaussian 88(TM) system (copyright 1988, Gaussian, Inc.),
 the Gaussian 86(TM) system (copyright 1986, Carnegie Mellon
 University), and the Gaussian 82(TM) system (copyright 1983,
 Carnegie Mellon University). Gaussian is a federally registered
 trademark of Gaussian, Inc.
  
 This software contains proprietary and confidential information,
 including trade secrets, belonging to Gaussian, Inc.
  
 This software is provided under written license and may be
 used, copied, transmitted, or stored only in accord with that
 written license.
  
 The following legend is applicable only to US Government
 contracts under FAR:
  
                    RESTRICTED RIGHTS LEGEND
  
 Use, reproduction and disclosure by the US Government is
 subject to restrictions as set forth in subparagraphs (a)
 and (c) of the Commercial Computer Software - Restricted
 Rights clause in FAR 52.227-19.
  
 Gaussian, Inc.
 340 Quinnipiac St., Bldg. 40, Wallingford CT 06492
  
  
 ---------------------------------------------------------------
 Warning -- This program may not be used in any manner that
 competes with the business of Gaussian, Inc. or will provide
 assistance to any competitor of Gaussian, Inc.  The licensee
 of this program is prohibited from giving any competitor of
 Gaussian, Inc. access to this program.  By using this program,
 the user acknowledges that Gaussian, Inc. is engaged in the
 business of creating and licensing software in the field of
 computational chemistry and represents and warrants to the
 licensee that it is not a competitor of Gaussian, Inc. and that
 it will not use this program in any manner prohibited above.
 ---------------------------------------------------------------
  

 Cite this work as:
 Gaussian 16, Revision A.03,
 M. J. Frisch, G. W. Trucks, H. B. Schlegel, G. E. Scuseria, 
 M. A. Robb, J. R. Cheeseman, G. Scalmani, V. Barone, 
 G. A. Petersson, H. Nakatsuji, X. Li, M. Caricato, A. V. Marenich, 
 J. Bloino, B. G. Janesko, R. Gomperts, B. Mennucci, H. P. Hratchian, 
 J. V. Ortiz, A. F. Izmaylov, J. L. Sonnenberg, D. Williams-Young, 
 F. Ding, F. Lipparini, F. Egidi, J. Goings, B. Peng, A. Petrone, 
 T. Henderson, D. Ranasinghe, V. G. Zakrzewski, J. Gao, N. Rega, 
 G. Zheng, W. Liang, M. Hada, M. Ehara, K. Toyota, R. Fukuda, 
 J. Hasegawa, M. Ishida, T. Nakajima, Y. Honda, O. Kitao, H. Nakai, 
 T. Vreven, K. Throssell, J. A. Montgomery, Jr., J. E. Peralta, 
 F. Ogliaro, M. J. Bearpark, J. J. Heyd, E. N. Brothers, K. N. Kudin, 
 V. N. Staroverov, T. A. Keith, R. Kobayashi, J. Normand, 
 K. Raghavachari, A. P. Rendell, J. C. Burant, S. S. Iyengar, 
 J. Tomasi, M. Cossi, J. M. Millam, M. Klene, C. Adamo, R. Cammi, 
 J. W. Ochterski, R. L. Martin, K. Morokuma, O. Farkas, 
 J. B. Foresman, and D. J. Fox, Gaussian, Inc., Wallingford CT, 2016.
 
 ******************************************
 Gaussian 16:  ES64L-G16RevA.03 25-Dec-2016
                13-Aug-2022 
 ******************************************
 %NProcShared=16
 Will use up to   16 processors via shared memory.
 %mem=20GB
 ----------------------------------------------------------------------
 #P M062X/Def2TZVP scf=(direct,conver=8) EmpiricalDispersion=GD3 Force 
 Charge Prop=(Field,Read)
 ----------------------------------------------------------------------
 1/10=7,18=10,28=-2,30=1,38=1,125=101/1,3;
 2/12=2,17=6,18=5,29=2,40=1/2;
 3/5=44,7=101,11=2,25=1,30=1,71=1,74=-55,124=31/1,2,3;
 4//1;
 5/5=2,6=8,38=5/2;
 6/7=2,8=2,9=2,10=2,14=2,15=1,28=1/1,2;
 7/7=1,16=-2,29=1/1,2,3,16;
 1/10=7,18=10,28=-2,30=1/3;
 99/12=1/99;
 Leave Link    1 at Sat Aug 13 20:21:47 2022, MaxMem=  2684354560 cpu:               0.5 elap:               0.0
 (Enter /storage/apps/GAUSSIAN/G16_RevA03/g16/l101.exe)
 ------------
 Gaussian run
 ------------
 Symbolic Z-matrix:
 Charge =  0 Multiplicity = 1
 C                     3.62512  -3.62187  -0.44481 
 H                     3.77867  -3.7212   -1.51853 
 H                     4.34975  -4.25124   0.07317 
 C                     1.90438  -1.45891   1.2191 
 H                     1.26111  -2.33577   1.08376 
 O                     1.49987  -0.69683   2.31817 
 H                     0.5653   -0.44583   2.19875 
 C                     3.35415  -1.89196   1.40078 
 H                     3.44746  -2.77741   2.03739 
 O                     4.1113   -0.82029   1.91288 
 H                     3.56946  -0.3921    2.5884 
 C                     1.98437  -0.67402  -0.10142 
 H                     2.28265   0.35661   0.11641 
 C                     3.79052  -2.17194  -0.03308 
 H                     4.82568  -1.85026  -0.15935 
 O                     2.96483  -1.34198  -0.86336 
 N                     0.75847  -0.60999  -0.85556 
 C                     0.17975  -1.78815  -1.32498 
 H                     0.72705  -2.68945  -1.08922 
 C                    -0.93425  -1.80813  -2.04882 
 H                    -1.30815  -2.76401  -2.38979 
 C                    -1.68258  -0.56193  -2.4291 
 H                    -1.80867  -0.52321  -3.51891 
 H                    -2.69986  -0.59723  -2.01576 
 C                    -0.95086   0.66101  -1.93347 
 C                     0.18325   0.57294  -1.21677 
 H                     0.67456   1.47917  -0.88177 
 C                    -1.47401   2.0187   -2.1878 
 O                    -0.86951   3.04409  -1.93294 
 N                    -2.75012   2.06487  -2.69695 
 H                    -3.06676   2.96794  -3.00918 
 H                    -3.17355   1.25309  -3.10899 
 H                     2.6231   -3.98569  -0.20602 
 C                     0.2191    2.2065    2.77796 
 C                    -1.69368   0.92042   1.31909 
 C                    -2.95923   0.87735   0.56132 
 C                    -4.86282  -0.4215   -0.39953 
 C                    -3.55604  -0.28264   0.30438 
 O                    -1.0575   -0.06891   1.62862 
 S                    -1.23079   2.55064   1.77359 
 H                     0.4988    3.14719   3.24643 
 H                     1.03948   1.84287   2.16402 
 H                    -5.62503  -0.79263   0.29058 
 H                    -5.19895   0.53118  -0.80755 
 H                    -4.79682  -1.15226  -1.20696 
 H                    -3.06135  -1.18929   0.64172 
 H                    -3.38498   1.82423   0.24637 
 H                    -0.02236   1.47047   3.54183 
 
 ITRead=  0  0  0  0  0  0  0  0  0  0  0  0  0  0  0  0  0  0  0  0
 ITRead=  0  0  0  0  0  0  0  0  0  0  0  0  0  0  0  0  0  0  0  0
 ITRead=  0  0  0  0  0  0  0  0
 MicOpt= -1 -1 -1 -1 -1 -1 -1 -1 -1 -1 -1 -1 -1 -1 -1 -1 -1 -1 -1 -1
 MicOpt= -1 -1 -1 -1 -1 -1 -1 -1 -1 -1 -1 -1 -1 -1 -1 -1 -1 -1 -1 -1
 MicOpt= -1 -1 -1 -1 -1 -1 -1 -1
 NAtoms=     48 NQM=       48 NQMF=       0 NMMI=      0 NMMIF=      0
                NMic=       0 NMicF=      0.
                    Isotopes and Nuclear Properties:
 (Nuclear quadrupole moments (NQMom) in fm**2, nuclear magnetic moments (NMagM)
  in nuclear magnetons)

  Atom         1           2           3           4           5           6           7           8           9          10
 IAtWgt=          12           1           1          12           1          16           1          12           1          16
 AtmWgt=  12.0000000   1.0078250   1.0078250  12.0000000   1.0078250  15.9949146   1.0078250  12.0000000   1.0078250  15.9949146
 NucSpn=           0           1           1           0           1           0           1           0           1           0
 AtZEff=  -0.0000000  -0.0000000  -0.0000000  -0.0000000  -0.0000000  -0.0000000  -0.0000000  -0.0000000  -0.0000000  -0.0000000
 NQMom=    0.0000000   0.0000000   0.0000000   0.0000000   0.0000000   0.0000000   0.0000000   0.0000000   0.0000000   0.0000000
 NMagM=    0.0000000   2.7928460   2.7928460   0.0000000   2.7928460   0.0000000   2.7928460   0.0000000   2.7928460   0.0000000
 AtZNuc=   6.0000000   1.0000000   1.0000000   6.0000000   1.0000000   8.0000000   1.0000000   6.0000000   1.0000000   8.0000000

  Atom        11          12          13          14          15          16          17          18          19          20
 IAtWgt=           1          12           1          12           1          16          14          12           1          12
 AtmWgt=   1.0078250  12.0000000   1.0078250  12.0000000   1.0078250  15.9949146  14.0030740  12.0000000   1.0078250  12.0000000
 NucSpn=           1           0           1           0           1           0           2           0           1           0
 AtZEff=  -0.0000000  -0.0000000  -0.0000000  -0.0000000  -0.0000000  -0.0000000  -0.0000000  -0.0000000  -0.0000000  -0.0000000
 NQMom=    0.0000000   0.0000000   0.0000000   0.0000000   0.0000000   0.0000000   2.0440000   0.0000000   0.0000000   0.0000000
 NMagM=    2.7928460   0.0000000   2.7928460   0.0000000   2.7928460   0.0000000   0.4037610   0.0000000   2.7928460   0.0000000
 AtZNuc=   1.0000000   6.0000000   1.0000000   6.0000000   1.0000000   8.0000000   7.0000000   6.0000000   1.0000000   6.0000000

  Atom        21          22          23          24          25          26          27          28          29          30
 IAtWgt=           1          12           1           1          12          12           1          12          16          14
 AtmWgt=   1.0078250  12.0000000   1.0078250   1.0078250  12.0000000  12.0000000   1.0078250  12.0000000  15.9949146  14.0030740
 NucSpn=           1           0           1           1           0           0           1           0           0           2
 AtZEff=  -0.0000000  -0.0000000  -0.0000000  -0.0000000  -0.0000000  -0.0000000  -0.0000000  -0.0000000  -0.0000000  -0.0000000
 NQMom=    0.0000000   0.0000000   0.0000000   0.0000000   0.0000000   0.0000000   0.0000000   0.0000000   0.0000000   2.0440000
 NMagM=    2.7928460   0.0000000   2.7928460   2.7928460   0.0000000   0.0000000   2.7928460   0.0000000   0.0000000   0.4037610
 AtZNuc=   1.0000000   6.0000000   1.0000000   1.0000000   6.0000000   6.0000000   1.0000000   6.0000000   8.0000000   7.0000000

  Atom        31          32          33          34          35          36          37          38          39          40
 IAtWgt=           1           1           1          12          12          12          12          12          16          32
 AtmWgt=   1.0078250   1.0078250   1.0078250  12.0000000  12.0000000  12.0000000  12.0000000  12.0000000  15.9949146  31.9720718
 NucSpn=           1           1           1           0           0           0           0           0           0           0
 AtZEff=  -0.0000000  -0.0000000  -0.0000000  -0.0000000  -0.0000000  -0.0000000  -0.0000000  -0.0000000  -0.0000000  -0.0000000
 NQMom=    0.0000000   0.0000000   0.0000000   0.0000000   0.0000000   0.0000000   0.0000000   0.0000000   0.0000000   0.0000000
 NMagM=    2.7928460   2.7928460   2.7928460   0.0000000   0.0000000   0.0000000   0.0000000   0.0000000   0.0000000   0.0000000
 AtZNuc=   1.0000000   1.0000000   1.0000000   6.0000000   6.0000000   6.0000000   6.0000000   6.0000000   8.0000000  16.0000000

  Atom        41          42          43          44          45          46          47          48
 IAtWgt=           1           1           1           1           1           1           1           1
 AtmWgt=   1.0078250   1.0078250   1.0078250   1.0078250   1.0078250   1.0078250   1.0078250   1.0078250
 NucSpn=           1           1           1           1           1           1           1           1
 AtZEff=  -0.0000000  -0.0000000  -0.0000000  -0.0000000  -0.0000000  -0.0000000  -0.0000000  -0.0000000
 NQMom=    0.0000000   0.0000000   0.0000000   0.0000000   0.0000000   0.0000000   0.0000000   0.0000000
 NMagM=    2.7928460   2.7928460   2.7928460   2.7928460   2.7928460   2.7928460   2.7928460   2.7928460
 AtZNuc=   1.0000000   1.0000000   1.0000000   1.0000000   1.0000000   1.0000000   1.0000000   1.0000000
 Background charge distribution read from input stream:
 Leave Link  101 at Sat Aug 13 20:21:47 2022, MaxMem=  2684354560 cpu:               1.5 elap:               0.1
 (Enter /storage/apps/GAUSSIAN/G16_RevA03/g16/l103.exe)

 GradGradGradGradGradGradGradGradGradGradGradGradGradGradGradGradGradGrad
 Berny optimization.
 Initialization pass.
 Trust Radius=3.00D-01 FncErr=1.00D-07 GrdErr=1.00D-07 EigMax=2.50D+02 EigMin=1.00D-04
 Number of steps in this run=      2 maximum allowed number of steps=      2.
 GradGradGradGradGradGradGradGradGradGradGradGradGradGradGradGradGradGrad

 Leave Link  103 at Sat Aug 13 20:21:47 2022, MaxMem=  2684354560 cpu:               0.3 elap:               0.0
 (Enter /storage/apps/GAUSSIAN/G16_RevA03/g16/l202.exe)
 ---------------------------------------------------------------------------------------------------
                            Z-MATRIX (ANGSTROMS AND DEGREES)
   CD    Cent   Atom    N1       Length/X        N2       Alpha/Y        N3        Beta/Z          J
 ---------------------------------------------------------------------------------------------------
      1      1  C        0   3.625119         -3.621870         -0.444810
      2      2  H        0   3.778673         -3.721201         -1.518525
      3      3  H        0   4.349753         -4.251237          0.073166
      4      4  C        0   1.904381         -1.458911          1.219096
      5      5  H        0   1.261113         -2.335773          1.083762
      6      6  O        0   1.499870         -0.696833          2.318167
      7      7  H        0   0.565299         -0.445832          2.198747
      8      8  C        0   3.354151         -1.891959          1.400783
      9      9  H        0   3.447455         -2.777409          2.037394
     10     10  O        0   4.111295         -0.820289          1.912884
     11     11  H        0   3.569458         -0.392098          2.588401
     12     12  C        0   1.984366         -0.674017         -0.101417
     13     13  H        0   2.282654          0.356607          0.116412
     14     14  C        0   3.790520         -2.171937         -0.033081
     15     15  H        0   4.825684         -1.850260         -0.159345
     16     16  O        0   2.964829         -1.341976         -0.863355
     17     17  N        0   0.758474         -0.609994         -0.855558
     18     18  C        0   0.179753         -1.788151         -1.324978
     19     19  H        0   0.727053         -2.689445         -1.089217
     20     20  C        0  -0.934248         -1.808134         -2.048818
     21     21  H        0  -1.308149         -2.764007         -2.389789
     22     22  C        0  -1.682582         -0.561933         -2.429097
     23     23  H        0  -1.808673         -0.523207         -3.518909
     24     24  H        0  -2.699862         -0.597231         -2.015757
     25     25  C        0  -0.950859          0.661009         -1.933470
     26     26  C        0   0.183247          0.572936         -1.216772
     27     27  H        0   0.674564          1.479165         -0.881768
     28     28  C        0  -1.474009          2.018698         -2.187804
     29     29  O        0  -0.869512          3.044092         -1.932935
     30     30  N        0  -2.750117          2.064868         -2.696951
     31     31  H        0  -3.066755          2.967941         -3.009179
     32     32  H        0  -3.173552          1.253089         -3.108993
     33     33  H        0   2.623100         -3.985690         -0.206017
     34     34  C        0   0.219098          2.206503          2.777962
     35     35  C        0  -1.693680          0.920418          1.319088
     36     36  C        0  -2.959226          0.877353          0.561318
     37     37  C        0  -4.862821         -0.421497         -0.399528
     38     38  C        0  -3.556041         -0.282642          0.304379
     39     39  O        0  -1.057501         -0.068913          1.628617
     40     40  S        0  -1.230790          2.550643          1.773591
     41     41  H        0   0.498804          3.147187          3.246427
     42     42  H        0   1.039477          1.842872          2.164024
     43     43  H        0  -5.625029         -0.792625          0.290578
     44     44  H        0  -5.198953          0.531178         -0.807549
     45     45  H        0  -4.796819         -1.152260         -1.206959
     46     46  H        0  -3.061355         -1.189291          0.641722
     47     47  H        0  -3.384975          1.824226          0.246366
     48     48  H        0  -0.022355          1.470468          3.541830
 ---------------------------------------------------------------------------------------------------
                         Z-Matrix orientation:                         
 ---------------------------------------------------------------------
 Center     Atomic      Atomic             Coordinates (Angstroms)
 Number     Number       Type             X           Y           Z
 ---------------------------------------------------------------------
      1          6           0        3.625119   -3.621870   -0.444810
      2          1           0        3.778673   -3.721201   -1.518525
      3          1           0        4.349753   -4.251237    0.073166
      4          6           0        1.904381   -1.458911    1.219096
      5          1           0        1.261113   -2.335773    1.083762
      6          8           0        1.499870   -0.696833    2.318167
      7          1           0        0.565299   -0.445832    2.198747
      8          6           0        3.354151   -1.891959    1.400783
      9          1           0        3.447455   -2.777409    2.037394
     10          8           0        4.111295   -0.820289    1.912884
     11          1           0        3.569458   -0.392098    2.588401
     12          6           0        1.984366   -0.674017   -0.101417
     13          1           0        2.282654    0.356607    0.116412
     14          6           0        3.790520   -2.171937   -0.033081
     15          1           0        4.825684   -1.850260   -0.159345
     16          8           0        2.964829   -1.341976   -0.863355
     17          7           0        0.758474   -0.609994   -0.855558
     18          6           0        0.179753   -1.788151   -1.324978
     19          1           0        0.727053   -2.689445   -1.089217
     20          6           0       -0.934248   -1.808134   -2.048818
     21          1           0       -1.308149   -2.764007   -2.389789
     22          6           0       -1.682582   -0.561933   -2.429097
     23          1           0       -1.808673   -0.523207   -3.518909
     24          1           0       -2.699862   -0.597231   -2.015757
     25          6           0       -0.950859    0.661009   -1.933470
     26          6           0        0.183247    0.572936   -1.216772
     27          1           0        0.674564    1.479165   -0.881768
     28          6           0       -1.474009    2.018698   -2.187804
     29          8           0       -0.869512    3.044092   -1.932935
     30          7           0       -2.750117    2.064868   -2.696951
     31          1           0       -3.066755    2.967941   -3.009179
     32          1           0       -3.173552    1.253089   -3.108993
     33          1           0        2.623100   -3.985690   -0.206017
     34          6           0        0.219098    2.206503    2.777962
     35          6           0       -1.693680    0.920418    1.319088
     36          6           0       -2.959226    0.877353    0.561318
     37          6           0       -4.862821   -0.421497   -0.399528
     38          6           0       -3.556041   -0.282642    0.304379
     39          8           0       -1.057501   -0.068913    1.628617
     40         16           0       -1.230790    2.550643    1.773591
     41          1           0        0.498804    3.147187    3.246427
     42          1           0        1.039477    1.842872    2.164024
     43          1           0       -5.625029   -0.792625    0.290578
     44          1           0       -5.198953    0.531178   -0.807549
     45          1           0       -4.796819   -1.152260   -1.206959
     46          1           0       -3.061355   -1.189291    0.641722
     47          1           0       -3.384975    1.824226    0.246366
     48          1           0       -0.022355    1.470468    3.541830
 ---------------------------------------------------------------------
                    Distance matrix (angstroms):
                    1          2          3          4          5
     1  C    0.000000
     2  H    1.089178   0.000000
     3  H    1.090640   1.772160   0.000000
     4  C    3.226130   4.015656   3.884596   0.000000
     5  H    3.095012   3.876779   3.772268   1.095900   0.000000
     6  O    4.550447   5.390728   5.078942   1.397265   2.065644
     7  H    5.141800   5.905246   5.772460   1.944013   2.302005
     8  C    2.544058   3.471124   2.884438   1.523934   2.162933
     9  H    2.627930   3.693915   2.616200   2.188407   2.425809
    10  O    3.693771   4.505607   3.900363   2.399927   3.332817
    11  H    4.431128   5.290892   4.672068   2.405321   3.371983
    12  C    3.391139   3.809601   4.292090   1.538249   2.165451
    13  H    4.236208   4.641079   5.050445   2.157570   3.037799
    14  C    1.516306   2.146370   2.155810   2.373578   2.769852
    15  H    2.159039   2.538508   2.458711   3.253808   3.806206
    16  O    2.410203   2.598519   3.355426   2.339835   2.771560
    17  N    4.178249   4.386426   5.197929   2.517529   2.644224
    18  C    4.000971   4.089788   5.040883   3.091125   2.696527
    19  H    3.111826   3.249802   4.112698   2.868558   2.265423
    20  C    5.162394   5.113967   6.196147   4.342699   3.861486
    21  H    5.371779   5.248912   6.347429   5.004765   4.341664
    22  C    6.439899   6.374592   7.500757   5.194245   4.914471
    23  H    6.969784   6.741449   8.045335   6.091880   5.821818
    24  H    7.184824   7.209566   8.210507   5.692611   5.321548
    25  C    6.441951   6.460992   7.500216   4.752381   4.793455
    26  C    5.480767   5.608721   6.503565   3.608900   3.861974
    27  H    5.909083   6.089726   6.874331   3.815543   4.331409
    28  C    7.800971   7.809292   8.851004   5.925728   6.094707
    29  O    8.176263   8.218671   9.191681   6.156851   6.525563
    30  N    8.834861   8.802976   9.898226   7.029708   7.053325
    31  H    9.735645   9.686411  10.799165   7.885906   7.975712
    32  H    8.779808   8.695205   9.850069   7.202271   7.079928
    33  H    1.092442   1.768610   1.769121   2.988665   2.498152
    34  C    7.480453   8.140519   8.129000   4.324986   4.958667
    35  C    7.213414   7.716432   8.051175   4.314771   4.403290
    36  C    8.037966   8.418535   8.942142   5.435575   5.329952
    37  C    9.071360   9.317490   9.988086   7.034998   6.585375
    38  C    7.954922   8.303294   8.848999   5.660082   5.294125
    39  O    6.232939   6.828784   7.010682   3.297355   3.288083
    40  S    8.160948   8.675758   8.960998   5.119891   5.528337
    41  H    8.319808   8.979814   8.923904   5.225118   5.943154
    42  H    6.584449   7.212716   7.243465   3.541570   4.321708
    43  H    9.701065  10.013941  10.559618   7.615648   7.101366
    44  H    9.759284   9.959216  10.715640   7.650170   7.316346
    45  H    8.809590   8.957432   9.741774   7.133432   6.583817
    46  H    7.197703   7.606788   8.038861   5.006455   4.493723
    47  H    8.903881   9.229542   9.837035   6.300990   6.292293
    48  H    7.424909   8.185868   7.992801   4.205790   4.709231
                    6          7          8          9         10
     6  O    0.000000
     7  H    0.975031   0.000000
     8  C    2.389200   3.241254   0.000000
     9  H    2.863689   3.710675   1.094532   0.000000
    10  O    2.645569   3.577153   1.408542   2.070388   0.000000
    11  H    2.109285   3.029800   1.925195   2.451163   0.966053
    12  C    2.467720   2.712300   2.369873   3.337574   2.933024
    13  H    2.563242   2.815908   2.802457   3.856033   2.820696
    14  C    3.598802   4.285154   1.524720   2.184298   2.390947
    15  H    4.304590   5.067928   2.145029   2.754048   2.421843
    16  O    3.561516   3.992153   2.362281   3.272268   3.048614
    17  N    3.260328   3.064807   3.670429   4.505272   4.353149
    18  C    4.025691   3.790396   4.185374   4.791874   5.184354
    19  H    4.022190   3.983801   3.706444   4.145361   4.894839
    20  C    5.121570   4.705987   5.504284   6.069262   6.490641
    21  H    5.858586   5.471600   6.071733   6.497376   7.187587
    22  C    5.716880   5.146201   6.465727   7.153681   7.244899
    23  H    6.711785   6.191391   7.261653   7.973758   8.039817
    24  H    6.035774   5.333502   7.071078   7.679239   7.866119
    25  C    5.091780   4.538618   6.013984   6.850959   6.527947
    26  C    3.980151   3.584637   4.793948   5.698198   5.212042
    27  H    3.956726   3.634161   4.873880   5.859083   4.990860
    28  C    6.043330   5.429044   7.175118   8.066954   7.488065
    29  O    6.138433   5.595449   7.301890   8.263752   7.384592
    30  N    7.130273   6.423664   8.349251   9.179955   8.755209
    31  H    7.916138   7.208894   9.181200  10.045490   9.492196
    32  H    7.422744   6.710994   8.534654   9.304190   9.087747
    33  H    4.295315   4.748477   2.738604   2.678133   4.089527
    34  C    3.206423   2.736828   5.340653   5.984155   5.005899
    35  C    3.716507   2.782701   5.778991   6.373473   6.089367
    36  C    5.044613   4.105395   6.944964   7.522077   7.396012
    37  C    6.924270   6.017982   8.539438   8.974943   9.275831
    38  C    5.457942   4.538800   7.179328   7.633882   7.852668
    39  O    2.722115   1.760851   4.778920   5.272350   5.230853
    40  S    4.277753   3.519312   6.395106   7.095330   6.318264
    41  H    4.079251   3.743239   6.078849   6.727343   5.528951
    42  H    2.585696   2.337566   4.459733   5.211659   4.073274
    43  H    7.408406   6.487028   9.114097   9.449905   9.870595
    44  H    7.493487   6.574113   9.159908   9.685082   9.793260
    45  H    7.230644   6.391415   8.589865   9.007496   9.444476
    46  H    4.884440   4.016177   6.498356   6.843583   7.293759
    47  H    5.874505   4.956775   7.781936   8.430002   8.121872
    48  H    2.917484   2.412761   5.224059   5.687475   4.998809
                   11         12         13         14         15
    11  H    0.000000
    12  C    3.134823   0.000000
    13  H    2.885681   1.094811   0.000000
    14  C    3.176297   2.347472   2.947803   0.000000
    15  H    3.354765   3.075710   3.378358   1.091322   0.000000
    16  O    3.630766   1.409974   2.076172   1.435255   2.053476
    17  N    4.450838   1.440708   2.049919   3.508481   4.308732
    18  C    5.362238   2.448474   3.331634   3.854079   4.790327
    19  H    5.184780   2.572651   3.626551   3.281473   4.285752
    20  C    6.617577   3.687397   4.441034   5.149658   6.062071
    21  H    7.362023   4.521655   5.377094   5.648101   6.590426
    22  C    7.265539   4.344786   4.800670   6.187718   7.012067
    23  H    8.138840   5.107753   5.543337   6.798549   7.553968
    24  H    7.781049   5.060888   5.502855   6.966761   7.851763
    25  C    6.479940   3.708673   3.840610   5.841039   6.543886
    26  C    5.184309   2.458239   2.496335   4.684855   5.342495
    27  H    4.891228   2.638318   2.200557   4.874423   5.370173
    28  C    7.352593   4.854285   4.710040   7.065375   7.666134
    29  O    7.207936   5.032237   4.621531   7.247917   7.715929
    30  N    8.597014   6.054223   6.013481   8.235694   8.897215
    31  H    9.309247   6.872609   6.723434   9.071809   9.676115
    32  H    8.979706   6.274023   6.401336   8.348074   9.072980
    33  H    4.649545   3.374330   4.367540   2.163903   3.068162
    34  C    4.244240   4.438963   3.842425   6.310923   6.804832
    35  C    5.570859   4.253008   4.192320   6.439524   7.236334
    36  C    6.953006   5.223511   5.286438   7.430380   8.280341
    37  C    8.946056   6.858324   7.206209   8.836212   9.796233
    38  C    7.483413   5.569017   5.876592   7.593107   8.539659
    39  O    4.736495   3.551355   3.691134   5.539608   6.401708
    40  S    5.689114   4.924562   4.461426   7.126035   7.732080
    41  H    4.731644   5.293067   4.557022   7.062836   7.436104
    42  H    3.402351   3.515646   2.819076   5.339869   5.776905
    43  H    9.485726   7.620408   7.992654   9.521545  10.513726
    44  H    9.448277   7.317868   7.540466   9.418984  10.323990
    45  H    9.218308   6.887337   7.358460   8.726977   9.704497
    46  H    6.956490   5.126116   5.587860   6.954793   7.955122
    47  H    7.665596   5.932284   5.856006   8.217977   9.004519
    48  H    4.156838   4.679636   4.276358   6.370645   6.944740
                   16         17         18         19         20
    16  O    0.000000
    17  N    2.324621   0.000000
    18  C    2.858114   1.394033   0.000000
    19  H    2.621894   2.092773   1.080487   0.000000
    20  C    4.101881   2.392638   1.328662   2.111271   0.000000
    21  H    4.755051   3.356273   2.073637   2.416422   1.081553
    22  C    4.965727   2.904667   2.488168   3.482517   1.502542
    23  H    5.523465   3.700164   3.219822   4.126245   2.139351
    24  H    5.828499   3.647782   3.191810   4.120629   2.141208
    25  C    4.526556   2.387292   2.765308   3.841054   2.471892
    26  C    3.395437   1.364069   2.363568   3.309853   2.758730
    27  H    3.633798   2.091008   3.334161   4.174099   3.841434
    28  C    5.722899   3.697145   4.239280   5.312078   3.867209
    29  O    5.923155   4.142876   4.982082   6.011183   4.854041
    30  N    6.901396   4.780777   5.031123   6.105654   4.326384
    31  H    7.717509   5.663222   5.999730   7.077093   5.317967
    32  H    7.032565   4.899987   4.865851   5.902355   3.938215
    33  H    2.745559   3.910762   3.471483   2.460749   4.559867
    34  C    5.778402   4.628828   5.726511   6.259664   6.383206
    35  C    5.619892   3.617223   4.223409   4.969003   4.400514
    36  C    6.484562   4.247474   4.529483   5.388410   4.257368
    37  C    7.895221   5.642912   5.305823   6.071734   4.480693
    38  C    6.708766   4.479693   4.344827   5.106829   3.839070
    39  O    4.899975   3.124365   3.634598   4.175936   4.069841
    40  S    6.301522   4.567190   5.515061   6.283895   5.804971
    41  H    6.566900   5.568673   6.734768   7.274351   7.392460
    42  H    4.797422   3.900435   5.108482   5.587762   5.913837
    43  H    8.684412   6.488150   6.107093   6.771315   5.339238
    44  H    8.376106   6.065931   5.880263   6.750503   5.020044
    45  H    7.771566   5.592747   5.018422   5.734977   4.007287
    46  H    6.213169   4.143492   3.838141   4.427036   3.485191
    47  H    7.181666   4.930297   5.312784   6.250263   4.946511
    48  H    6.019864   4.926970   5.860483   6.270015   6.544931
                   21         22         23         24         25
    21  H    0.000000
    22  C    2.234027   0.000000
    23  H    2.558637   1.097765   0.000000
    24  H    2.602246   1.098615   1.749046   0.000000
    25  C    3.473704   1.508858   2.156810   2.156143   0.000000
    26  C    3.838674   2.497795   3.235600   3.212473   1.344474
    27  H    4.920344   3.480868   4.138897   4.121177   2.101775
    28  C    4.789841   2.600266   2.888792   2.894028   1.477055
    29  O    5.842528   3.729702   4.015340   4.076306   2.384471
    30  N    5.048926   2.848063   2.874033   2.748331   2.406461
    31  H    6.027567   3.835680   3.745759   3.719133   3.310000
    32  H    4.487097   2.445313   2.277313   2.200734   2.583172
    33  H    4.660052   5.933220   6.527224   6.564354   6.111390
    34  C    7.331037   6.196296   7.156379   6.273834   5.094599
    35  C    5.242079   4.030680   5.050098   3.799586   3.346373
    36  C    4.969365   3.555833   4.464705   2.980433   3.210033
    37  C    4.699381   3.775287   4.366773   2.705822   4.339152
    38  C    4.297526   3.325619   4.210546   2.492998   3.561660
    39  O    4.844992   4.135074   5.221845   4.032113   3.637667
    40  S    6.751683   5.249270   6.147606   5.140665   4.170297
    41  H    8.365060   7.122330   8.035298   7.207129   5.925701
    42  H    6.889985   5.855720   6.782773   6.116153   4.706134
    43  H    5.450336   4.795074   5.399014   3.730142   5.376552
    44  H    5.338547   4.023577   4.467348   2.996419   4.396687
    45  H    4.020900   3.397143   3.830122   2.315046   4.313603
    46  H    3.839729   3.424109   4.395877   2.746526   3.809123
    47  H    5.684576   3.968627   4.708765   3.383790   3.468383
    48  H    7.400551   6.522191   7.551139   6.506243   5.612152
                   26         27         28         29         30
    26  C    0.000000
    27  H    1.083915   0.000000
    28  C    2.404086   2.571613   0.000000
    29  O    2.779893   2.436826   1.217295   0.000000
    30  N    3.608520   3.919997   1.374705   2.253725   0.000000
    31  H    4.417158   4.554097   2.027945   2.447851   1.006621
    32  H    3.912954   4.451925   2.079229   3.146332   1.004022
    33  H    5.268356   5.841068   7.534352   8.037314   8.466727
    34  C    4.315985   3.759002   5.249830   4.907054   6.229845
    35  C    3.173986   3.280937   3.681408   3.970503   4.307481
    36  C    3.623453   3.955895   3.326591   3.909343   3.474224
    37  C    5.207647   5.874326   4.542745   5.505285   3.990449
    38  C    4.126523   4.733807   3.980201   4.825989   3.894650
    39  O    3.169805   3.420326   4.369973   4.734004   5.111605
    40  S    3.853972   3.439385   4.004344   3.756641   4.746586
    41  H    5.162024   4.455915   5.890360   5.358051   6.859347
    42  H    3.711556   3.089060   5.028611   4.676777   6.167608
    43  H    6.154099   6.798551   5.592574   6.502257   5.035446
    44  H    5.397896   5.949991   4.241819   5.130818   3.452368
    45  H    5.270432   6.079982   4.696605   5.793112   4.093773
    46  H    4.133629   4.837228   4.562574   5.417985   4.672596
    47  H    4.054468   4.227483   3.100773   3.544712   3.020607
    48  H    4.846868   4.478168   5.936039   5.759081   6.834939
                   31         32         33         34         35
    31  H    0.000000
    32  H    1.721071   0.000000
    33  H    9.411969   8.335061   0.000000
    34  C    6.698330   6.861145   7.281937   0.000000
    35  C    4.981122   4.680662   6.710472   2.727828   0.000000
    36  C    4.138909   3.695713   7.443141   4.096571   1.475695
    37  C    4.639442   3.605422   8.293367   6.544366   3.846795
    38  C    4.667479   3.762430   7.221832   5.154234   2.438314
    39  O    5.896502   5.354466   5.679247   2.851003   1.216268
    40  S    5.140019   5.412725   7.841873   1.797044   1.754558
    41  H    7.202635   7.580578   8.204263   1.087466   3.671529
    42  H    6.699922   6.775114   6.488227   1.087276   3.005825
    43  H    5.619165   4.663879   8.858550   7.023935   4.409972
    44  H    3.915515   3.149611   9.052538   6.709536   4.118377
    45  H    4.818420   3.469644   8.005336   7.233278   4.506260
    46  H    5.532783   4.477239   6.391521   5.182307   2.603888
    47  H    3.465245   3.410181   8.369990   4.420911   2.197289
    48  H    7.377433   7.362794   7.128425   1.087907   2.834866
                   36         37         38         39         40
    36  C    0.000000
    37  C    2.496780   0.000000
    38  C    1.329584   1.490785   0.000000
    39  O    2.377205   4.326447   2.835840   0.000000
    40  S    2.693881   5.171819   3.948782   2.629281   0.000000
    41  H    4.931524   7.401048   6.071338   3.922078   2.348746
    42  H    4.414807   6.821751   5.393967   2.887715   2.409873
    43  H    3.157314   1.093135   2.130959   4.814189   5.717176
    44  H    2.647643   1.089521   2.144259   4.842173   5.146537
    45  H    3.259276   1.091016   2.140072   4.816288   5.942368
    46  H    2.070728   2.217879   1.086521   2.498928   4.314997
    47  H    1.084908   2.764865   2.114597   3.303291   2.738724
    48  H    4.226162   6.522572   5.103080   2.664884   2.398700
                   41         42         43         44         45
    41  H    0.000000
    42  H    1.779090   0.000000
    43  H    7.858784   7.407515   0.000000
    44  H    7.466101   7.033406   1.771970   0.000000
    45  H    8.146258   7.375411   1.748681   1.776289   0.000000
    46  H    6.185811   5.322428   2.617837   3.103180   2.535908
    47  H    5.082748   4.822192   3.444954   2.464392   3.600684
    48  H    1.780521   1.778910   6.861646   6.826165   7.226701
                   46         47         48
    46  H    0.000000
    47  H    3.056521   0.000000
    48  H    4.971968   4.721487   0.000000
 Stoichiometry    C16H24N2O5S
 Framework group  C1[X(C16H24N2O5S)]
 Deg. of freedom   138
 Full point group                 C1      NOp   1
 Largest Abelian subgroup         C1      NOp   1
 Largest concise Abelian subgroup C1      NOp   1
                         Standard orientation:                         
 ---------------------------------------------------------------------
 Center     Atomic      Atomic             Coordinates (Angstroms)
 Number     Number       Type             X           Y           Z
 ---------------------------------------------------------------------
      1          6           0        4.707664   -1.933672    0.601406
      2          1           0        4.676459   -2.889212    0.079601
      3          1           0        5.725341   -1.758326    0.952238
      4          6           0        2.551056    0.464375    0.680945
      5          1           0        2.367335   -0.153467    1.567238
      6          8           0        2.066498    1.762974    0.857563
      7          1           0        1.117533    1.716429    1.076617
      8          6           0        4.042426    0.511045    0.371087
      9          1           0        4.652585    0.605917    1.274805
     10          8           0        4.309530    1.559800   -0.530445
     11          1           0        3.775679    2.314083   -0.248811
     12          6           0        2.003560   -0.252362   -0.565147
     13          1           0        1.833790    0.487810   -1.353775
     14          6           0        4.268802   -0.822587   -0.332442
     15          1           0        4.995229   -0.682942   -1.134805
     16          8           0        3.010705   -1.169212   -0.929937
     17          7           0        0.763259   -0.960000   -0.373990
     18          6           0        0.707986   -2.013054    0.537794
     19          1           0        1.640956   -2.232633    1.036596
     20          6           0       -0.390907   -2.729239    0.749580
     21          1           0       -0.344982   -3.542012    1.461653
     22          6           0       -1.684223   -2.471315    0.029551
     23          1           0       -2.024321   -3.391606   -0.462878
     24          1           0       -2.469947   -2.217042    0.754078
     25          6           0       -1.511550   -1.360742   -0.977157
     26          6           0       -0.347211   -0.704701   -1.123900
     27          1           0       -0.269732    0.086694   -1.860488
     28          6           0       -2.635838   -0.920112   -1.827753
     29          8           0       -2.530297   -0.126820   -2.745008
     30          7           0       -3.863667   -1.431782   -1.480700
     31          1           0       -4.612261   -1.258333   -2.130938
     32          1           0       -3.940482   -2.234942   -0.883126
     33          1           0        4.051253   -1.996342    1.472398
     34          6           0       -0.282168    3.549168   -0.397199
     35          6           0       -1.638973    1.490529    0.769906
     36          6           0       -2.865433    0.721521    1.056434
     37          6           0       -4.111101   -0.917846    2.468771
     38          6           0       -2.903181   -0.142236    2.066529
     39          8           0       -0.574223    1.295611    1.324545
     40         16           0       -1.893780    2.754464   -0.420058
     41          1           0       -0.377961    4.455506   -0.990458
     42          1           0        0.475881    2.902699   -0.832640
     43          1           0       -4.467895   -0.580087    3.445276
     44          1           0       -4.918006   -0.802167    1.745876
     45          1           0       -3.877567   -1.978123    2.576429
     46          1           0       -1.993560   -0.282020    2.644091
     47          1           0       -3.729253    0.906576    0.426675
     48          1           0       -0.005895    3.803149    0.623932
 ---------------------------------------------------------------------
 Rotational constants (GHZ):           0.3255772           0.1614541           0.1381229
 Leave Link  202 at Sat Aug 13 20:21:47 2022, MaxMem=  2684354560 cpu:               0.2 elap:               0.0
 (Enter /storage/apps/GAUSSIAN/G16_RevA03/g16/l301.exe)
 Standard basis: def2TZVP (5D, 7F)
 Ernie: Thresh=  0.10000D-02 Tol=  0.10000D-05 Strict=F.
 There are  1014 symmetry adapted cartesian basis functions of A   symmetry.
 There are   894 symmetry adapted basis functions of A   symmetry.
   894 basis functions,  1434 primitive gaussians,  1014 cartesian basis functions
    95 alpha electrons       95 beta electrons
       nuclear repulsion energy      2476.0141282006 Hartrees.
 IExCor= 4336 DFT=T Ex+Corr=M062X ExCW=0 ScaHFX=  0.540000
 ScaDFX=  1.000000  1.000000  1.000000  1.000000 ScalE2=  1.000000  1.000000
 IRadAn=      5 IRanWt=     -1 IRanGd=            0 ICorTp=0 IEmpDi=131
 NAtoms=   48 NActive=   48 NUniq=   48 SFac= 1.00D+00 NAtFMM=   60 NAOKFM=F Big=F
 Integral buffers will be    131072 words long.
 Raffenetti 2 integral format.
 Two-electron integral symmetry is turned on.
 R6Disp:  Grimme-D3 Dispersion energy=       -0.0043305705 Hartrees.
 Nuclear repulsion after empirical dispersion term =     2476.0097976301 Hartrees.
 Leave Link  301 at Sat Aug 13 20:21:47 2022, MaxMem=  2684354560 cpu:               0.8 elap:               0.1
 (Enter /storage/apps/GAUSSIAN/G16_RevA03/g16/l302.exe)
 NPDir=0 NMtPBC=     1 NCelOv=     1 NCel=       1 NClECP=     1 NCelD=      1
         NCelK=      1 NCelE2=     1 NClLst=     1 CellRange=     0.0.
 One-electron integrals computed using PRISM.
 One-electron integral symmetry used in STVInt
   1 Symmetry operations used in ECPInt.
 ECPInt:  NShTT=   65703 NPrTT=  200010 LenC2=   56778 LenP2D=  120690.
 LDataN:  DoStor=T MaxTD1= 6 Len=  172
 NBasis=   894 RedAO= T EigKep=  3.09D-05  NBF=   894
 NBsUse=   894 1.00D-06 EigRej= -1.00D+00 NBFU=   894
 Precomputing XC quadrature grid using
 IXCGrd= 4 IRadAn=           5 IRanWt=          -1 IRanGd=           0 AccXCQ= 0.00D+00.
 Generated NRdTot=       0 NPtTot=           0 NUsed=           0 NTot=          32
 NSgBfM=   996   996   996   996   996 MxSgAt=    48 MxSgA2=    48.
 Leave Link  302 at Sat Aug 13 20:21:48 2022, MaxMem=  2684354560 cpu:              18.6 elap:               1.2
 (Enter /storage/apps/GAUSSIAN/G16_RevA03/g16/l303.exe)
 DipDrv:  MaxL=1.
 Leave Link  303 at Sat Aug 13 20:21:48 2022, MaxMem=  2684354560 cpu:               2.0 elap:               0.2
 (Enter /storage/apps/GAUSSIAN/G16_RevA03/g16/l401.exe)
 ExpMin= 9.52D-02 ExpMax= 6.07D+04 ExpMxC= 2.07D+03 IAcc=3 IRadAn=         5 AccDes= 0.00D+00
 Harris functional with IExCor= 1009 and IRadAn=       5 diagonalized for initial guess.
 HarFok:  IExCor= 1009 AccDes= 0.00D+00 IRadAn=         5 IDoV= 1 UseB2=F ITyADJ=14
 ICtDFT=  3500011 ScaDFX=  1.000000  1.000000  1.000000  1.000000
 FoFCou: FMM=F IPFlag=           0 FMFlag=      100000 FMFlg1=           0
         NFxFlg=           0 DoJE=T BraDBF=F KetDBF=T FulRan=T
         wScrn=  0.000000 ICntrl=       500 IOpCl=  0 I1Cent=   200000004 NGrid=           0
         NMat0=    1 NMatS0=      1 NMatT0=    0 NMatD0=    1 NMtDS0=    0 NMtDT0=    0
 Petite list used in FoFCou.
 Harris En= -1507.25620111621    
 JPrj=0 DoOrth=F DoCkMO=F.
 Leave Link  401 at Sat Aug 13 20:21:52 2022, MaxMem=  2684354560 cpu:              59.2 elap:               3.7
 (Enter /storage/apps/GAUSSIAN/G16_RevA03/g16/l502.exe)
 Integral symmetry usage will be decided dynamically.
 Closed shell SCF:
 Using DIIS extrapolation, IDIIS=  1040.
 NGot=  2684354560 LenX=  2682272944 LenY=  2681243734
 Requested convergence on RMS density matrix=1.00D-08 within 128 cycles.
 Requested convergence on MAX density matrix=1.00D-06.
 Requested convergence on             energy=1.00D-06.
 No special actions if energy rises.
 Fock matrices will be formed incrementally for  20 cycles.
 Integral accuracy reduced to 1.0D-05 until final iterations.

 Cycle   1  Pass 0  IDiag  1:
 FoFJK:  IHMeth= 1 ICntrl=       0 DoSepK=F KAlg= 0 I1Cent=           0 FoldK=F
 IRaf= 790000000 NMat=       1 IRICut=       1 DoRegI=T DoRafI=F ISym2E= 0 IDoP0=0 IntGTp=1.
 FoFCou: FMM=F IPFlag=           0 FMFlag=      100000 FMFlg1=           0
         NFxFlg=           0 DoJE=F BraDBF=F KetDBF=F FulRan=T
         wScrn=  0.000000 ICntrl=         0 IOpCl=  0 I1Cent=           0 NGrid=           0
         NMat0=    1 NMatS0=      1 NMatT0=    0 NMatD0=    1 NMtDS0=    0 NMtDT0=    0
 Symmetry not used in FoFCou.
 E= -1507.18781567205    
 DIIS: error= 1.45D-02 at cycle   1 NSaved=   1.
 NSaved= 1 IEnMin= 1 EnMin= -1507.18781567205     IErMin= 1 ErrMin= 1.45D-02
 ErrMax= 1.45D-02  0.00D+00 EMaxC= 1.00D-01 BMatC= 1.00D+00 BMatP= 1.00D+00
 IDIUse=3 WtCom= 8.55D-01 WtEn= 1.45D-01
 Coeff-Com:  0.100D+01
 Coeff-En:   0.100D+01
 Coeff:      0.100D+01
 Gap=     0.305 Goal=   None    Shift=    0.000
 GapD=    0.305 DampG=1.000 DampE=0.500 DampFc=0.5000 IDamp=-1.
 Damping current iteration by 5.00D-01
 RMSDP=4.30D-03 MaxDP=1.65D+00              OVMax= 2.69D-01

 Cycle   2  Pass 0  IDiag  1:
 RMSU=  2.15D-03    CP:  1.02D+00
 E= -1507.53286731048     Delta-E=       -0.345051638434 Rises=F Damp=T
 DIIS: error= 3.30D-03 at cycle   2 NSaved=   2.
 NSaved= 2 IEnMin= 2 EnMin= -1507.53286731048     IErMin= 2 ErrMin= 3.30D-03
 ErrMax= 3.30D-03  0.00D+00 EMaxC= 1.00D-01 BMatC= 8.62D-02 BMatP= 1.00D+00
 IDIUse=3 WtCom= 9.67D-01 WtEn= 3.30D-02
 Coeff-Com: -0.170D-01 0.102D+01
 Coeff-En:   0.147D-01 0.985D+00
 Coeff:     -0.160D-01 0.102D+01
 Gap=     0.314 Goal=   None    Shift=    0.000
 RMSDP=1.27D-03 MaxDP=4.58D-01 DE=-3.45D-01 OVMax= 1.71D-01

 Cycle   3  Pass 0  IDiag  1:
 RMSU=  1.03D-03    CP:  1.00D+00  6.58D-01
 E= -1507.89179436207     Delta-E=       -0.358927051581 Rises=F Damp=F
 DIIS: error= 3.86D-03 at cycle   3 NSaved=   3.
 NSaved= 3 IEnMin= 3 EnMin= -1507.89179436207     IErMin= 2 ErrMin= 3.30D-03
 ErrMax= 3.86D-03  0.00D+00 EMaxC= 1.00D-01 BMatC= 5.10D-02 BMatP= 8.62D-02
 IDIUse=3 WtCom= 9.61D-01 WtEn= 3.86D-02
 Coeff-Com: -0.836D-01 0.457D+00 0.627D+00
 Coeff-En:   0.000D+00 0.000D+00 0.100D+01
 Coeff:     -0.804D-01 0.439D+00 0.641D+00
 Gap=     0.211 Goal=   None    Shift=    0.000
 RMSDP=3.61D-04 MaxDP=6.48D-02 DE=-3.59D-01 OVMax= 6.74D-02

 Cycle   4  Pass 0  IDiag  1:
 RMSU=  3.04D-04    CP:  1.01D+00  7.39D-01  9.14D-01
 E= -1507.92457367479     Delta-E=       -0.032779312721 Rises=F Damp=F
 DIIS: error= 1.92D-03 at cycle   4 NSaved=   4.
 NSaved= 4 IEnMin= 4 EnMin= -1507.92457367479     IErMin= 4 ErrMin= 1.92D-03
 ErrMax= 1.92D-03  0.00D+00 EMaxC= 1.00D-01 BMatC= 1.01D-02 BMatP= 5.10D-02
 IDIUse=3 WtCom= 9.81D-01 WtEn= 1.92D-02
 Coeff-Com: -0.371D-01 0.994D-01 0.347D+00 0.591D+00
 Coeff-En:   0.000D+00 0.000D+00 0.135D+00 0.865D+00
 Coeff:     -0.364D-01 0.975D-01 0.343D+00 0.596D+00
 Gap=     0.211 Goal=   None    Shift=    0.000
 RMSDP=1.24D-04 MaxDP=1.49D-02 DE=-3.28D-02 OVMax= 1.70D-02

 Cycle   5  Pass 0  IDiag  1:
 RMSU=  8.03D-05    CP:  1.00D+00  7.25D-01  9.41D-01  7.20D-01
 E= -1507.93207151755     Delta-E=       -0.007497842766 Rises=F Damp=F
 DIIS: error= 3.21D-04 at cycle   5 NSaved=   5.
 NSaved= 5 IEnMin= 5 EnMin= -1507.93207151755     IErMin= 5 ErrMin= 3.21D-04
 ErrMax= 3.21D-04  0.00D+00 EMaxC= 1.00D-01 BMatC= 3.98D-04 BMatP= 1.01D-02
 IDIUse=3 WtCom= 9.97D-01 WtEn= 3.21D-03
 Coeff-Com: -0.105D-01 0.181D-01 0.119D+00 0.264D+00 0.609D+00
 Coeff-En:   0.000D+00 0.000D+00 0.000D+00 0.000D+00 0.100D+01
 Coeff:     -0.105D-01 0.181D-01 0.119D+00 0.263D+00 0.610D+00
 Gap=     0.210 Goal=   None    Shift=    0.000
 RMSDP=4.61D-05 MaxDP=1.49D-02 DE=-7.50D-03 OVMax= 3.99D-03

 Cycle   6  Pass 0  IDiag  1:
 RMSU=  3.10D-05    CP:  1.00D+00  7.11D-01  9.53D-01  7.35D-01  8.88D-01
 E= -1507.93239004151     Delta-E=       -0.000318523954 Rises=F Damp=F
 DIIS: error= 1.78D-04 at cycle   6 NSaved=   6.
 NSaved= 6 IEnMin= 6 EnMin= -1507.93239004151     IErMin= 6 ErrMin= 1.78D-04
 ErrMax= 1.78D-04  0.00D+00 EMaxC= 1.00D-01 BMatC= 5.19D-05 BMatP= 3.98D-04
 IDIUse=3 WtCom= 9.98D-01 WtEn= 1.78D-03
 Coeff-Com:  0.185D-03-0.421D-02 0.126D-01 0.427D-01 0.274D+00 0.675D+00
 Coeff-En:   0.000D+00 0.000D+00 0.000D+00 0.000D+00 0.000D+00 0.100D+01
 Coeff:      0.185D-03-0.420D-02 0.126D-01 0.426D-01 0.274D+00 0.675D+00
 Gap=     0.211 Goal=   None    Shift=    0.000
 RMSDP=1.89D-05 MaxDP=3.43D-03 DE=-3.19D-04 OVMax= 3.26D-03

 Cycle   7  Pass 0  IDiag  1:
 RMSU=  1.58D-05    CP:  1.00D+00  7.08D-01  9.58D-01  7.39D-01  9.61D-01
                    CP:  1.01D+00
 E= -1507.93245147645     Delta-E=       -0.000061434946 Rises=F Damp=F
 DIIS: error= 7.75D-05 at cycle   7 NSaved=   7.
 NSaved= 7 IEnMin= 7 EnMin= -1507.93245147645     IErMin= 7 ErrMin= 7.75D-05
 ErrMax= 7.75D-05  0.00D+00 EMaxC= 1.00D-01 BMatC= 8.89D-06 BMatP= 5.19D-05
 IDIUse=1 WtCom= 1.00D+00 WtEn= 0.00D+00
 Coeff-Com:  0.184D-02-0.497D-02-0.120D-01-0.247D-01 0.127D-01 0.289D+00
 Coeff-Com:  0.738D+00
 Coeff:      0.184D-02-0.497D-02-0.120D-01-0.247D-01 0.127D-01 0.289D+00
 Coeff:      0.738D+00
 Gap=     0.211 Goal=   None    Shift=    0.000
 RMSDP=1.69D-05 MaxDP=5.81D-03 DE=-6.14D-05 OVMax= 2.01D-03

 Cycle   8  Pass 0  IDiag  1:
 RMSU=  9.27D-06    CP:  1.00D+00  7.03D-01  9.59D-01  7.44D-01  1.02D+00
                    CP:  1.21D+00  1.24D+00
 E= -1507.93245888995     Delta-E=       -0.000007413499 Rises=F Damp=F
 DIIS: error= 3.15D-05 at cycle   8 NSaved=   8.
 NSaved= 8 IEnMin= 8 EnMin= -1507.93245888995     IErMin= 8 ErrMin= 3.15D-05
 ErrMax= 3.15D-05  0.00D+00 EMaxC= 1.00D-01 BMatC= 1.99D-06 BMatP= 8.89D-06
 IDIUse=1 WtCom= 1.00D+00 WtEn= 0.00D+00
 Coeff-Com:  0.949D-03-0.174D-02-0.792D-02-0.222D-01-0.470D-01 0.924D-02
 Coeff-Com:  0.358D+00 0.710D+00
 Coeff:      0.949D-03-0.174D-02-0.792D-02-0.222D-01-0.470D-01 0.924D-02
 Coeff:      0.358D+00 0.710D+00
 Gap=     0.211 Goal=   None    Shift=    0.000
 RMSDP=1.56D-05 MaxDP=3.35D-03 DE=-7.41D-06 OVMax= 7.07D-04

 Cycle   9  Pass 0  IDiag  1:
 RMSU=  8.75D-06    CP:  1.00D+00  7.00D-01  9.60D-01  7.44D-01  1.05D+00
                    CP:  1.36D+00  1.62D+00  1.85D+00
 E= -1507.93244912993     Delta-E=        0.000009760019 Rises=F Damp=F
 DIIS: error= 2.41D-05 at cycle   9 NSaved=   9.
 NSaved= 9 IEnMin= 8 EnMin= -1507.93245888995     IErMin= 9 ErrMin= 2.41D-05
 ErrMax= 2.41D-05  0.00D+00 EMaxC= 1.00D-01 BMatC= 3.92D-07 BMatP= 1.99D-06
 IDIUse=1 WtCom= 1.00D+00 WtEn= 0.00D+00
 Coeff-Com:  0.274D-03-0.387D-03-0.222D-02-0.818D-02-0.215D-01-0.218D-01
 Coeff-Com:  0.993D-01 0.329D+00 0.625D+00
 Coeff:      0.274D-03-0.387D-03-0.222D-02-0.818D-02-0.215D-01-0.218D-01
 Coeff:      0.993D-01 0.329D+00 0.625D+00
 Gap=     0.211 Goal=   None    Shift=    0.000
 RMSDP=1.77D-05 MaxDP=2.56D-03 DE= 9.76D-06 OVMax= 2.09D-04

 Cycle  10  Pass 0  IDiag  1:
 RMSU=  5.46D-06    CP:  1.00D+00  6.98D-01  9.61D-01  7.46D-01  1.07D+00
                    CP:  1.48D+00  1.99D+00  2.90D+00  2.25D+00
 E= -1507.93243669591     Delta-E=        0.000012434028 Rises=F Damp=F
 DIIS: error= 3.71D-05 at cycle  10 NSaved=  10.
 NSaved=10 IEnMin= 8 EnMin= -1507.93245888995     IErMin= 9 ErrMin= 2.41D-05
 ErrMax= 3.71D-05  0.00D+00 EMaxC= 1.00D-01 BMatC= 6.20D-07 BMatP= 3.92D-07
 IDIUse=1 WtCom= 1.00D+00 WtEn= 0.00D+00
 Coeff-Com:  0.291D-03-0.358D-03-0.243D-02-0.943D-02-0.264D-01-0.327D-01
 Coeff-Com:  0.105D+00 0.405D+00 0.910D+00-0.349D+00
 Coeff:      0.291D-03-0.358D-03-0.243D-02-0.943D-02-0.264D-01-0.327D-01
 Coeff:      0.105D+00 0.405D+00 0.910D+00-0.349D+00
 Gap=     0.211 Goal=   None    Shift=    0.000
 RMSDP=1.31D-05 MaxDP=1.17D-03 DE= 1.24D-05 OVMax= 3.23D-05

 Cycle  11  Pass 0  IDiag  1:
 RMSU=  2.38D-06    CP:  1.00D+00  6.99D-01  9.60D-01  7.44D-01  1.06D+00
                    CP:  1.41D+00  1.76D+00  2.23D+00  1.26D+00  6.20D-02
 E= -1507.93244024992     Delta-E=       -0.000003554017 Rises=F Damp=F
 DIIS: error= 2.67D-05 at cycle  11 NSaved=  11.
 NSaved=11 IEnMin= 8 EnMin= -1507.93245888995     IErMin= 9 ErrMin= 2.41D-05
 ErrMax= 2.67D-05  0.00D+00 EMaxC= 1.00D-01 BMatC= 3.11D-07 BMatP= 3.92D-07
 IDIUse=1 WtCom= 1.00D+00 WtEn= 0.00D+00
 Coeff-Com: -0.599D-04 0.258D-03 0.672D-03-0.849D-03-0.731D-02-0.318D-01
 Coeff-Com: -0.272D-01 0.108D+00 0.773D+00-0.132D+01 0.150D+01
 Coeff:     -0.599D-04 0.258D-03 0.672D-03-0.849D-03-0.731D-02-0.318D-01
 Coeff:     -0.272D-01 0.108D+00 0.773D+00-0.132D+01 0.150D+01
 Gap=     0.211 Goal=   None    Shift=    0.000
 RMSDP=1.72D-05 MaxDP=2.45D-03 DE=-3.55D-06 OVMax= 1.33D-04

 Cycle  12  Pass 0  IDiag  1:
 RMSU=  6.07D-06    CP:  1.00D+00  6.96D-01  9.59D-01  7.41D-01  1.05D+00
                    CP:  1.41D+00  1.58D+00  1.94D+00  3.27D-01 -1.76D+00
                    CP:  3.00D+00
 E= -1507.93243385959     Delta-E=        0.000006390331 Rises=F Damp=F
 DIIS: error= 1.59D-05 at cycle  12 NSaved=  12.
 NSaved=12 IEnMin= 8 EnMin= -1507.93245888995     IErMin=12 ErrMin= 1.59D-05
 ErrMax= 1.59D-05  0.00D+00 EMaxC= 1.00D-01 BMatC= 1.02D-07 BMatP= 3.11D-07
 IDIUse=1 WtCom= 1.00D+00 WtEn= 0.00D+00
 Coeff-Com: -0.524D-04 0.193D-03 0.615D-03-0.177D-03-0.385D-02-0.210D-01
 Coeff-Com: -0.242D-01 0.551D-01 0.498D+00-0.884D+00 0.104D+01 0.337D+00
 Coeff:     -0.524D-04 0.193D-03 0.615D-03-0.177D-03-0.385D-02-0.210D-01
 Coeff:     -0.242D-01 0.551D-01 0.498D+00-0.884D+00 0.104D+01 0.337D+00
 Gap=     0.211 Goal=   None    Shift=    0.000
 RMSDP=6.86D-06 MaxDP=1.79D-03 DE= 6.39D-06 OVMax= 1.98D-05

 Cycle  13  Pass 0  IDiag  1:
 RMSU=  2.80D-06    CP:  1.00D+00  6.95D-01  9.59D-01  7.41D-01  1.06D+00
                    CP:  1.46D+00  1.68D+00  2.30D+00  5.51D-01 -1.88D+00
                    CP:  3.00D+00  1.45D+00
 E= -1507.93242264744     Delta-E=        0.000011212155 Rises=F Damp=F
 DIIS: error= 2.11D-05 at cycle  13 NSaved=  13.
 NSaved=13 IEnMin= 8 EnMin= -1507.93245888995     IErMin=12 ErrMin= 1.59D-05
 ErrMax= 2.11D-05  0.00D+00 EMaxC= 1.00D-01 BMatC= 1.39D-07 BMatP= 1.02D-07
 IDIUse=1 WtCom= 1.00D+00 WtEn= 0.00D+00
 Coeff-Com: -0.131D-03 0.352D-03 0.136D-02 0.146D-02-0.950D-03-0.253D-01
 Coeff-Com: -0.554D-01 0.855D-02 0.578D+00-0.122D+01 0.154D+01 0.130D+01
 Coeff-Com: -0.113D+01
 Coeff:     -0.131D-03 0.352D-03 0.136D-02 0.146D-02-0.950D-03-0.253D-01
 Coeff:     -0.554D-01 0.855D-02 0.578D+00-0.122D+01 0.154D+01 0.130D+01
 Coeff:     -0.113D+01
 Gap=     0.211 Goal=   None    Shift=    0.000
 RMSDP=1.76D-05 MaxDP=5.41D-03 DE= 1.12D-05 OVMax= 3.55D-05

 Cycle  14  Pass 0  IDiag  1:
 RMSU=  8.28D-06    CP:  1.00D+00  6.99D-01  9.58D-01  7.42D-01  1.03D+00
                    CP:  1.32D+00  1.46D+00  1.62D+00 -2.19D-01 -1.69D+00
                    CP:  3.00D+00  5.79D-01 -2.05D-01
 E= -1507.93243578635     Delta-E=       -0.000013138909 Rises=F Damp=F
 DIIS: error= 1.24D-05 at cycle  14 NSaved=  14.
 NSaved=14 IEnMin= 8 EnMin= -1507.93245888995     IErMin=14 ErrMin= 1.24D-05
 ErrMax= 1.24D-05  0.00D+00 EMaxC= 1.00D-01 BMatC= 7.36D-08 BMatP= 1.02D-07
 IDIUse=1 WtCom= 1.00D+00 WtEn= 0.00D+00
 Coeff-Com: -0.957D-04 0.227D-03 0.106D-02 0.165D-02 0.169D-02-0.123D-01
 Coeff-Com: -0.408D-01-0.322D-01 0.253D+00-0.642D+00 0.899D+00 0.125D+01
 Coeff-Com: -0.144D+01 0.761D+00
 Coeff:     -0.957D-04 0.227D-03 0.106D-02 0.165D-02 0.169D-02-0.123D-01
 Coeff:     -0.408D-01-0.322D-01 0.253D+00-0.642D+00 0.899D+00 0.125D+01
 Coeff:     -0.144D+01 0.761D+00
 Gap=     0.211 Goal=   None    Shift=    0.000
 RMSDP=1.14D-05 MaxDP=1.72D-03 DE=-1.31D-05 OVMax= 2.42D-05

 Cycle  15  Pass 0  IDiag  1:
 RMSU=  6.51D-06    CP:  1.00D+00  6.99D-01  9.57D-01  7.42D-01  1.01D+00
                    CP:  1.32D+00  1.38D+00  1.51D+00 -5.07D-01 -2.08D+00
                    CP:  3.00D+00  6.23D-01 -1.15D+00  1.95D+00
 E= -1507.93244142374     Delta-E=       -0.000005637395 Rises=F Damp=F
 DIIS: error= 1.13D-05 at cycle  15 NSaved=  15.
 NSaved=15 IEnMin= 8 EnMin= -1507.93245888995     IErMin=15 ErrMin= 1.13D-05
 ErrMax= 1.13D-05  0.00D+00 EMaxC= 1.00D-01 BMatC= 4.81D-08 BMatP= 7.36D-08
 IDIUse=1 WtCom= 1.00D+00 WtEn= 0.00D+00
 Coeff-Com: -0.688D-04 0.167D-03 0.791D-03 0.118D-02 0.110D-02-0.960D-02
 Coeff-Com: -0.297D-01-0.222D-01 0.187D+00-0.450D+00 0.652D+00 0.895D+00
 Coeff-Com: -0.107D+01 0.588D+00 0.256D+00
 Coeff:     -0.688D-04 0.167D-03 0.791D-03 0.118D-02 0.110D-02-0.960D-02
 Coeff:     -0.297D-01-0.222D-01 0.187D+00-0.450D+00 0.652D+00 0.895D+00
 Coeff:     -0.107D+01 0.588D+00 0.256D+00
 Gap=     0.211 Goal=   None    Shift=    0.000
 RMSDP=5.05D-06 MaxDP=7.14D-04 DE=-5.64D-06 OVMax= 7.88D-06

 Initial convergence to 1.0D-05 achieved.  Increase integral accuracy.
 Cycle  16  Pass 1  IDiag  1:
 E= -1507.93240179123     Delta-E=        0.000039632509 Rises=F Damp=F
 DIIS: error= 2.63D-04 at cycle   1 NSaved=   1.
 NSaved= 1 IEnMin= 1 EnMin= -1507.93240179123     IErMin= 1 ErrMin= 2.63D-04
 ErrMax= 2.63D-04  0.00D+00 EMaxC= 1.00D-01 BMatC= 8.52D-05 BMatP= 8.52D-05
 IDIUse=3 WtCom= 9.97D-01 WtEn= 2.63D-03
 Coeff-Com:  0.100D+01
 Coeff-En:   0.100D+01
 Coeff:      0.100D+01
 Gap=     0.211 Goal=   None    Shift=    0.000
 RMSDP=5.05D-06 MaxDP=7.14D-04 DE= 3.96D-05 OVMax= 9.24D-04

 Cycle  17  Pass 1  IDiag  1:
 RMSU=  3.90D-04    CP:  9.95D-01
 E= -1507.93245411456     Delta-E=       -0.000052323330 Rises=F Damp=F
 DIIS: error= 7.06D-06 at cycle   2 NSaved=   2.
 NSaved= 2 IEnMin= 2 EnMin= -1507.93245411456     IErMin= 2 ErrMin= 7.06D-06
 ErrMax= 7.06D-06  0.00D+00 EMaxC= 1.00D-01 BMatC= 6.02D-08 BMatP= 8.52D-05
 IDIUse=1 WtCom= 1.00D+00 WtEn= 0.00D+00
 Coeff-Com: -0.163D-01 0.102D+01
 Coeff:     -0.163D-01 0.102D+01
 Gap=     0.211 Goal=   None    Shift=    0.000
 RMSDP=1.43D-05 MaxDP=9.94D-04 DE=-5.23D-05 OVMax= 8.38D-05

 Cycle  18  Pass 1  IDiag  1:
 RMSU=  4.75D-06    CP:  9.95D-01  1.03D+00
 E= -1507.93245418581     Delta-E=       -0.000000071245 Rises=F Damp=F
 DIIS: error= 2.37D-06 at cycle   3 NSaved=   3.
 NSaved= 3 IEnMin= 3 EnMin= -1507.93245418581     IErMin= 3 ErrMin= 2.37D-06
 ErrMax= 2.37D-06  0.00D+00 EMaxC= 1.00D-01 BMatC= 1.64D-08 BMatP= 6.02D-08
 IDIUse=1 WtCom= 1.00D+00 WtEn= 0.00D+00
 Coeff-Com: -0.618D-02 0.364D+00 0.642D+00
 Coeff:     -0.618D-02 0.364D+00 0.642D+00
 Gap=     0.211 Goal=   None    Shift=    0.000
 RMSDP=4.11D-07 MaxDP=2.61D-05 DE=-7.12D-08 OVMax= 4.80D-05

 Cycle  19  Pass 1  IDiag  1:
 RMSU=  2.76D-07    CP:  9.95D-01  1.04D+00  1.03D+00
 E= -1507.93245419846     Delta-E=       -0.000000012649 Rises=F Damp=F
 DIIS: error= 1.14D-06 at cycle   4 NSaved=   4.
 NSaved= 4 IEnMin= 4 EnMin= -1507.93245419846     IErMin= 4 ErrMin= 1.14D-06
 ErrMax= 1.14D-06  0.00D+00 EMaxC= 1.00D-01 BMatC= 3.33D-09 BMatP= 1.64D-08
 IDIUse=1 WtCom= 1.00D+00 WtEn= 0.00D+00
 Coeff-Com:  0.198D-03-0.218D-01 0.296D+00 0.726D+00
 Coeff:      0.198D-03-0.218D-01 0.296D+00 0.726D+00
 Gap=     0.211 Goal=   None    Shift=    0.000
 RMSDP=2.52D-07 MaxDP=1.85D-05 DE=-1.26D-08 OVMax= 1.41D-05

 Cycle  20  Pass 1  IDiag  1:
 RMSU=  1.28D-07    CP:  9.95D-01  1.04D+00  1.06D+00  9.67D-01
 E= -1507.93245420129     Delta-E=       -0.000000002838 Rises=F Damp=F
 DIIS: error= 3.32D-07 at cycle   5 NSaved=   5.
 NSaved= 5 IEnMin= 5 EnMin= -1507.93245420129     IErMin= 5 ErrMin= 3.32D-07
 ErrMax= 3.32D-07  0.00D+00 EMaxC= 1.00D-01 BMatC= 3.90D-10 BMatP= 3.33D-09
 IDIUse=1 WtCom= 1.00D+00 WtEn= 0.00D+00
 Coeff-Com:  0.441D-03-0.316D-01 0.127D+00 0.390D+00 0.514D+00
 Coeff:      0.441D-03-0.316D-01 0.127D+00 0.390D+00 0.514D+00
 Gap=     0.211 Goal=   None    Shift=    0.000
 RMSDP=4.63D-08 MaxDP=7.11D-06 DE=-2.84D-09 OVMax= 4.42D-06

 Cycle  21  Pass 1  IDiag  1:
 RMSU=  3.86D-08    CP:  9.95D-01  1.04D+00  1.07D+00  1.02D+00  1.03D+00
 E= -1507.93245420160     Delta-E=       -0.000000000308 Rises=F Damp=F
 DIIS: error= 1.05D-07 at cycle   6 NSaved=   6.
 NSaved= 6 IEnMin= 6 EnMin= -1507.93245420160     IErMin= 6 ErrMin= 1.05D-07
 ErrMax= 1.05D-07  0.00D+00 EMaxC= 1.00D-01 BMatC= 2.60D-11 BMatP= 3.90D-10
 IDIUse=1 WtCom= 1.00D+00 WtEn= 0.00D+00
 Coeff-Com:  0.152D-03-0.972D-02 0.855D-02 0.514D-01 0.210D+00 0.740D+00
 Coeff:      0.152D-03-0.972D-02 0.855D-02 0.514D-01 0.210D+00 0.740D+00
 Gap=     0.211 Goal=   None    Shift=    0.000
 RMSDP=1.55D-08 MaxDP=1.11D-06 DE=-3.08D-10 OVMax= 1.90D-06

 Cycle  22  Pass 1  IDiag  1:
 RMSU=  9.33D-09    CP:  9.95D-01  1.04D+00  1.07D+00  1.04D+00  1.12D+00
                    CP:  1.07D+00
 E= -1507.93245420161     Delta-E=       -0.000000000004 Rises=F Damp=F
 DIIS: error= 3.84D-08 at cycle   7 NSaved=   7.
 NSaved= 7 IEnMin= 7 EnMin= -1507.93245420161     IErMin= 7 ErrMin= 3.84D-08
 ErrMax= 3.84D-08  0.00D+00 EMaxC= 1.00D-01 BMatC= 4.48D-12 BMatP= 2.60D-11
 IDIUse=1 WtCom= 1.00D+00 WtEn= 0.00D+00
 Coeff-Com: -0.574D-05 0.935D-03-0.174D-01-0.424D-01 0.851D-02 0.341D+00
 Coeff-Com:  0.709D+00
 Coeff:     -0.574D-05 0.935D-03-0.174D-01-0.424D-01 0.851D-02 0.341D+00
 Coeff:      0.709D+00
 Gap=     0.211 Goal=   None    Shift=    0.000
 RMSDP=7.45D-09 MaxDP=6.20D-07 DE=-3.64D-12 OVMax= 8.35D-07

 SCF Done:  E(RM062X) =  -1507.93245420     A.U. after   22 cycles
            NFock= 22  Conv=0.74D-08     -V/T= 2.0037
 KE= 1.502348228981D+03 PE=-8.490559908396D+03 EE= 3.004269427583D+03
 Leave Link  502 at Sat Aug 13 20:30:32 2022, MaxMem=  2684354560 cpu:            8301.0 elap:             519.6
 (Enter /storage/apps/GAUSSIAN/G16_RevA03/g16/l601.exe)
 Copying SCF densities to generalized density rwf, IOpCl= 0 IROHF=0.

 **********************************************************************

            Population analysis using the SCF density.

 **********************************************************************

 Orbital symmetries:
       Occupied  (A) (A) (A) (A) (A) (A) (A) (A) (A) (A) (A) (A)
                 (A) (A) (A) (A) (A) (A) (A) (A) (A) (A) (A) (A)
                 (A) (A) (A) (A) (A) (A) (A) (A) (A) (A) (A) (A)
                 (A) (A) (A) (A) (A) (A) (A) (A) (A) (A) (A) (A)
                 (A) (A) (A) (A) (A) (A) (A) (A) (A) (A) (A) (A)
                 (A) (A) (A) (A) (A) (A) (A) (A) (A) (A) (A) (A)
                 (A) (A) (A) (A) (A) (A) (A) (A) (A) (A) (A) (A)
                 (A) (A) (A) (A) (A) (A) (A) (A) (A) (A) (A)
       Virtual   (A) (A) (A) (A) (A) (A) (A) (A) (A) (A) (A) (A)
                 (A) (A) (A) (A) (A) (A) (A) (A) (A) (A) (A) (A)
                 (A) (A) (A) (A) (A) (A) (A) (A) (A) (A) (A) (A)
                 (A) (A) (A) (A) (A) (A) (A) (A) (A) (A) (A) (A)
                 (A) (A) (A) (A) (A) (A) (A) (A) (A) (A) (A) (A)
                 (A) (A) (A) (A) (A) (A) (A) (A) (A) (A) (A) (A)
                 (A) (A) (A) (A) (A) (A) (A) (A) (A) (A) (A) (A)
                 (A) (A) (A) (A) (A) (A) (A) (A) (A) (A) (A) (A)
                 (A) (A) (A) (A) (A) (A) (A) (A) (A) (A) (A) (A)
                 (A) (A) (A) (A) (A) (A) (A) (A) (A) (A) (A) (A)
                 (A) (A) (A) (A) (A) (A) (A) (A) (A) (A) (A) (A)
                 (A) (A) (A) (A) (A) (A) (A) (A) (A) (A) (A) (A)
                 (A) (A) (A) (A) (A) (A) (A) (A) (A) (A) (A) (A)
                 (A) (A) (A) (A) (A) (A) (A) (A) (A) (A) (A) (A)
                 (A) (A) (A) (A) (A) (A) (A) (A) (A) (A) (A) (A)
                 (A) (A) (A) (A) (A) (A) (A) (A) (A) (A) (A) (A)
                 (A) (A) (A) (A) (A) (A) (A) (A) (A) (A) (A) (A)
                 (A) (A) (A) (A) (A) (A) (A) (A) (A) (A) (A) (A)
                 (A) (A) (A) (A) (A) (A) (A) (A) (A) (A) (A) (A)
                 (A) (A) (A) (A) (A) (A) (A) (A) (A) (A) (A) (A)
                 (A) (A) (A) (A) (A) (A) (A) (A) (A) (A) (A) (A)
                 (A) (A) (A) (A) (A) (A) (A) (A) (A) (A) (A) (A)
                 (A) (A) (A) (A) (A) (A) (A) (A) (A) (A) (A) (A)
                 (A) (A) (A) (A) (A) (A) (A) (A) (A) (A) (A) (A)
                 (A) (A) (A) (A) (A) (A) (A) (A) (A) (A) (A) (A)
                 (A) (A) (A) (A) (A) (A) (A) (A) (A) (A) (A) (A)
                 (A) (A) (A) (A) (A) (A) (A) (A) (A) (A) (A) (A)
                 (A) (A) (A) (A) (A) (A) (A) (A) (A) (A) (A) (A)
                 (A) (A) (A) (A) (A) (A) (A) (A) (A) (A) (A) (A)
                 (A) (A) (A) (A) (A) (A) (A) (A) (A) (A) (A) (A)
                 (A) (A) (A) (A) (A) (A) (A) (A) (A) (A) (A) (A)
                 (A) (A) (A) (A) (A) (A) (A) (A) (A) (A) (A) (A)
                 (A) (A) (A) (A) (A) (A) (A) (A) (A) (A) (A) (A)
                 (A) (A) (A) (A) (A) (A) (A) (A) (A) (A) (A) (A)
                 (A) (A) (A) (A) (A) (A) (A) (A) (A) (A) (A) (A)
                 (A) (A) (A) (A) (A) (A) (A) (A) (A) (A) (A) (A)
                 (A) (A) (A) (A) (A) (A) (A) (A) (A) (A) (A) (A)
                 (A) (A) (A) (A) (A) (A) (A) (A) (A) (A) (A) (A)
                 (A) (A) (A) (A) (A) (A) (A) (A) (A) (A) (A) (A)
                 (A) (A) (A) (A) (A) (A) (A) (A) (A) (A) (A) (A)
                 (A) (A) (A) (A) (A) (A) (A) (A) (A) (A) (A) (A)
                 (A) (A) (A) (A) (A) (A) (A) (A) (A) (A) (A) (A)
                 (A) (A) (A) (A) (A) (A) (A) (A) (A) (A) (A) (A)
                 (A) (A) (A) (A) (A) (A) (A) (A) (A) (A) (A) (A)
                 (A) (A) (A) (A) (A) (A) (A) (A) (A) (A) (A) (A)
                 (A) (A) (A) (A) (A) (A) (A) (A) (A) (A) (A) (A)
                 (A) (A) (A) (A) (A) (A) (A) (A) (A) (A) (A) (A)
                 (A) (A) (A) (A) (A) (A) (A) (A) (A) (A) (A) (A)
                 (A) (A) (A) (A) (A) (A) (A) (A) (A) (A) (A) (A)
                 (A) (A) (A) (A) (A) (A) (A) (A) (A) (A) (A) (A)
                 (A) (A) (A) (A) (A) (A) (A) (A) (A) (A) (A) (A)
                 (A) (A) (A) (A) (A) (A) (A) (A) (A) (A) (A) (A)
                 (A) (A) (A) (A) (A) (A) (A) (A) (A) (A) (A) (A)
                 (A) (A) (A) (A) (A) (A) (A) (A) (A) (A) (A) (A)
                 (A) (A) (A) (A) (A) (A) (A) (A) (A) (A) (A) (A)
                 (A) (A) (A) (A) (A) (A) (A) (A) (A) (A) (A) (A)
                 (A) (A) (A) (A) (A) (A) (A) (A) (A) (A) (A) (A)
                 (A) (A) (A) (A) (A) (A) (A) (A) (A) (A) (A) (A)
                 (A) (A) (A) (A) (A) (A) (A) (A) (A) (A) (A) (A)
                 (A) (A) (A) (A) (A) (A) (A) (A) (A) (A) (A) (A)
                 (A) (A) (A) (A) (A) (A) (A) (A) (A) (A) (A) (A)
                 (A) (A) (A) (A) (A) (A) (A) (A) (A) (A) (A) (A)
                 (A) (A) (A) (A) (A) (A) (A) (A) (A) (A) (A) (A)
                 (A) (A) (A) (A) (A) (A) (A) (A) (A) (A) (A) (A)
                 (A) (A) (A) (A) (A) (A) (A) (A) (A) (A) (A) (A)
                 (A) (A) (A) (A) (A) (A) (A) (A) (A) (A) (A) (A)
                 (A) (A) (A) (A) (A) (A) (A)
 The electronic state is 1-A.
 Alpha  occ. eigenvalues --  -89.92059 -19.63566 -19.63257 -19.62673 -19.62214
 Alpha  occ. eigenvalues --  -19.57755 -14.78932 -14.76072 -10.66208 -10.63450
 Alpha  occ. eigenvalues --  -10.62897 -10.59467 -10.59064 -10.58994 -10.58334
 Alpha  occ. eigenvalues --  -10.57568 -10.56961 -10.56929 -10.55406 -10.55219
 Alpha  occ. eigenvalues --  -10.55141 -10.53817 -10.53421 -10.53237  -8.27991
 Alpha  occ. eigenvalues --   -6.19929  -6.19693  -6.19500  -1.19274  -1.18837
 Alpha  occ. eigenvalues --   -1.15893  -1.15022  -1.13727  -1.08295  -1.00687
 Alpha  occ. eigenvalues --   -0.92762  -0.91807  -0.90243  -0.88496  -0.87484
 Alpha  occ. eigenvalues --   -0.85537  -0.82935  -0.78863  -0.76669  -0.75512
 Alpha  occ. eigenvalues --   -0.73435  -0.70738  -0.67631  -0.67451  -0.66357
 Alpha  occ. eigenvalues --   -0.63540  -0.63193  -0.61701  -0.60418  -0.58750
 Alpha  occ. eigenvalues --   -0.58123  -0.57183  -0.56543  -0.56054  -0.55012
 Alpha  occ. eigenvalues --   -0.54120  -0.52993  -0.52350  -0.51802  -0.51203
 Alpha  occ. eigenvalues --   -0.50618  -0.50372  -0.49952  -0.49243  -0.48951
 Alpha  occ. eigenvalues --   -0.48547  -0.48270  -0.47828  -0.47116  -0.46691
 Alpha  occ. eigenvalues --   -0.45946  -0.44708  -0.44214  -0.43811  -0.43757
 Alpha  occ. eigenvalues --   -0.43411  -0.43193  -0.41458  -0.41346  -0.37791
 Alpha  occ. eigenvalues --   -0.36122  -0.35594  -0.34536  -0.34430  -0.33847
 Alpha  occ. eigenvalues --   -0.33442  -0.32894  -0.32413  -0.31034  -0.24363
 Alpha virt. eigenvalues --   -0.03241   0.00345   0.04342   0.04616   0.06082
 Alpha virt. eigenvalues --    0.07169   0.07427   0.07963   0.08610   0.09109
 Alpha virt. eigenvalues --    0.09316   0.09582   0.10413   0.10652   0.11092
 Alpha virt. eigenvalues --    0.11716   0.12167   0.12479   0.12786   0.12924
 Alpha virt. eigenvalues --    0.13636   0.13895   0.13908   0.14178   0.14683
 Alpha virt. eigenvalues --    0.15440   0.15800   0.16307   0.17117   0.17328
 Alpha virt. eigenvalues --    0.18041   0.18454   0.18729   0.18961   0.19528
 Alpha virt. eigenvalues --    0.20378   0.20665   0.21336   0.21901   0.22571
 Alpha virt. eigenvalues --    0.22956   0.23283   0.23529   0.24339   0.24834
 Alpha virt. eigenvalues --    0.24899   0.25571   0.25706   0.26213   0.27061
 Alpha virt. eigenvalues --    0.27480   0.27623   0.28109   0.28637   0.28960
 Alpha virt. eigenvalues --    0.29422   0.30084   0.30196   0.30377   0.31132
 Alpha virt. eigenvalues --    0.31411   0.31831   0.33151   0.33399   0.33925
 Alpha virt. eigenvalues --    0.34308   0.35133   0.35462   0.35688   0.36199
 Alpha virt. eigenvalues --    0.36719   0.37009   0.37377   0.37752   0.38292
 Alpha virt. eigenvalues --    0.38505   0.39061   0.39941   0.40131   0.40205
 Alpha virt. eigenvalues --    0.40842   0.41156   0.41580   0.42094   0.42389
 Alpha virt. eigenvalues --    0.42610   0.42950   0.43678   0.43782   0.43978
 Alpha virt. eigenvalues --    0.44545   0.44983   0.45221   0.45426   0.45891
 Alpha virt. eigenvalues --    0.46408   0.46765   0.47230   0.47562   0.47687
 Alpha virt. eigenvalues --    0.47690   0.48035   0.48923   0.49107   0.49393
 Alpha virt. eigenvalues --    0.50147   0.50488   0.50733   0.51084   0.51358
 Alpha virt. eigenvalues --    0.51852   0.51966   0.52325   0.52546   0.52712
 Alpha virt. eigenvalues --    0.53142   0.53367   0.54351   0.54475   0.54967
 Alpha virt. eigenvalues --    0.55383   0.55560   0.56221   0.56882   0.57624
 Alpha virt. eigenvalues --    0.58248   0.58389   0.58520   0.59343   0.60271
 Alpha virt. eigenvalues --    0.60377   0.61224   0.61906   0.62053   0.62390
 Alpha virt. eigenvalues --    0.63067   0.63992   0.64419   0.65501   0.65702
 Alpha virt. eigenvalues --    0.65957   0.66186   0.66709   0.67562   0.67891
 Alpha virt. eigenvalues --    0.68591   0.68876   0.69165   0.70049   0.71314
 Alpha virt. eigenvalues --    0.71552   0.72416   0.72938   0.73562   0.73902
 Alpha virt. eigenvalues --    0.74298   0.75127   0.75607   0.76380   0.76761
 Alpha virt. eigenvalues --    0.76811   0.78099   0.79184   0.80427   0.80688
 Alpha virt. eigenvalues --    0.81611   0.81855   0.82604   0.83680   0.84187
 Alpha virt. eigenvalues --    0.84817   0.85094   0.86407   0.86655   0.87151
 Alpha virt. eigenvalues --    0.87814   0.88338   0.88874   0.89255   0.90112
 Alpha virt. eigenvalues --    0.91022   0.91220   0.91393   0.92643   0.93007
 Alpha virt. eigenvalues --    0.93703   0.94146   0.95273   0.95435   0.96226
 Alpha virt. eigenvalues --    0.96831   0.97690   0.98435   0.98590   0.99388
 Alpha virt. eigenvalues --    0.99739   1.00485   1.00923   1.02199   1.03184
 Alpha virt. eigenvalues --    1.03778   1.04769   1.05095   1.06198   1.06971
 Alpha virt. eigenvalues --    1.07233   1.07589   1.08687   1.09120   1.10073
 Alpha virt. eigenvalues --    1.10781   1.11507   1.11794   1.12024   1.12528
 Alpha virt. eigenvalues --    1.13626   1.14242   1.15278   1.15829   1.16234
 Alpha virt. eigenvalues --    1.17002   1.18100   1.18716   1.19314   1.20487
 Alpha virt. eigenvalues --    1.21029   1.21997   1.22674   1.22911   1.23272
 Alpha virt. eigenvalues --    1.25072   1.25281   1.26387   1.26904   1.28849
 Alpha virt. eigenvalues --    1.29292   1.30074   1.30727   1.31259   1.31394
 Alpha virt. eigenvalues --    1.32962   1.33934   1.34099   1.35573   1.36136
 Alpha virt. eigenvalues --    1.37605   1.37774   1.38277   1.39022   1.39895
 Alpha virt. eigenvalues --    1.41262   1.41997   1.42462   1.43706   1.44878
 Alpha virt. eigenvalues --    1.45370   1.46578   1.48308   1.48596   1.49783
 Alpha virt. eigenvalues --    1.50271   1.50851   1.51322   1.52039   1.52786
 Alpha virt. eigenvalues --    1.53219   1.53675   1.54326   1.54977   1.55171
 Alpha virt. eigenvalues --    1.56013   1.56454   1.57238   1.57645   1.58414
 Alpha virt. eigenvalues --    1.58856   1.59030   1.59957   1.60049   1.60130
 Alpha virt. eigenvalues --    1.60903   1.61166   1.61672   1.62113   1.62166
 Alpha virt. eigenvalues --    1.62817   1.63366   1.63742   1.64544   1.65733
 Alpha virt. eigenvalues --    1.66013   1.67073   1.67888   1.68440   1.68656
 Alpha virt. eigenvalues --    1.68943   1.69423   1.70196   1.70735   1.71375
 Alpha virt. eigenvalues --    1.71485   1.72817   1.73172   1.73932   1.74112
 Alpha virt. eigenvalues --    1.75185   1.75828   1.76244   1.76704   1.77829
 Alpha virt. eigenvalues --    1.78205   1.78609   1.79507   1.79565   1.80315
 Alpha virt. eigenvalues --    1.82156   1.82829   1.83673   1.84416   1.84875
 Alpha virt. eigenvalues --    1.84968   1.85759   1.86658   1.87074   1.87561
 Alpha virt. eigenvalues --    1.88432   1.89099   1.90045   1.91050   1.91225
 Alpha virt. eigenvalues --    1.92590   1.93465   1.93716   1.94021   1.94679
 Alpha virt. eigenvalues --    1.95901   1.96152   1.96741   1.97228   1.97404
 Alpha virt. eigenvalues --    1.98440   1.99454   1.99979   2.01878   2.02083
 Alpha virt. eigenvalues --    2.02487   2.03264   2.03505   2.04251   2.04486
 Alpha virt. eigenvalues --    2.05410   2.06390   2.06808   2.07696   2.08761
 Alpha virt. eigenvalues --    2.09092   2.10187   2.11261   2.12326   2.12569
 Alpha virt. eigenvalues --    2.13083   2.15124   2.16135   2.16712   2.17066
 Alpha virt. eigenvalues --    2.18254   2.19331   2.19977   2.20077   2.20862
 Alpha virt. eigenvalues --    2.20929   2.21607   2.22220   2.22767   2.23512
 Alpha virt. eigenvalues --    2.23815   2.24888   2.25839   2.26677   2.26837
 Alpha virt. eigenvalues --    2.27723   2.28745   2.29191   2.30131   2.31046
 Alpha virt. eigenvalues --    2.31213   2.31509   2.32493   2.32893   2.34030
 Alpha virt. eigenvalues --    2.34504   2.34834   2.35530   2.36298   2.36703
 Alpha virt. eigenvalues --    2.37059   2.37345   2.38284   2.39147   2.39511
 Alpha virt. eigenvalues --    2.40232   2.40823   2.41149   2.42168   2.43075
 Alpha virt. eigenvalues --    2.43720   2.44730   2.45115   2.45481   2.46576
 Alpha virt. eigenvalues --    2.47624   2.48578   2.49948   2.50482   2.50821
 Alpha virt. eigenvalues --    2.52464   2.52927   2.53686   2.54781   2.55276
 Alpha virt. eigenvalues --    2.55799   2.57073   2.58027   2.58475   2.59071
 Alpha virt. eigenvalues --    2.59278   2.59960   2.60591   2.61643   2.62142
 Alpha virt. eigenvalues --    2.63177   2.63285   2.63923   2.64364   2.64610
 Alpha virt. eigenvalues --    2.65342   2.66492   2.67158   2.67192   2.67813
 Alpha virt. eigenvalues --    2.68006   2.68849   2.69521   2.70399   2.71277
 Alpha virt. eigenvalues --    2.72097   2.72244   2.72599   2.73359   2.74004
 Alpha virt. eigenvalues --    2.74950   2.75739   2.76742   2.77319   2.78663
 Alpha virt. eigenvalues --    2.80129   2.80313   2.81391   2.82384   2.82510
 Alpha virt. eigenvalues --    2.83614   2.83920   2.84302   2.85478   2.86182
 Alpha virt. eigenvalues --    2.86604   2.87664   2.88512   2.89123   2.90195
 Alpha virt. eigenvalues --    2.90561   2.90911   2.91865   2.92344   2.92744
 Alpha virt. eigenvalues --    2.93012   2.94135   2.94928   2.96032   2.97429
 Alpha virt. eigenvalues --    2.98030   2.98333   2.98390   3.00258   3.00722
 Alpha virt. eigenvalues --    3.01899   3.02670   3.03067   3.03565   3.03850
 Alpha virt. eigenvalues --    3.05502   3.05660   3.06099   3.06969   3.07107
 Alpha virt. eigenvalues --    3.08169   3.08517   3.08666   3.09069   3.09952
 Alpha virt. eigenvalues --    3.10020   3.10956   3.11797   3.12509   3.12674
 Alpha virt. eigenvalues --    3.13252   3.13873   3.14292   3.14719   3.15386
 Alpha virt. eigenvalues --    3.15851   3.16223   3.16549   3.17588   3.17853
 Alpha virt. eigenvalues --    3.18465   3.18904   3.19129   3.20060   3.20731
 Alpha virt. eigenvalues --    3.21392   3.21885   3.22753   3.23735   3.24646
 Alpha virt. eigenvalues --    3.24737   3.25254   3.25871   3.26749   3.27125
 Alpha virt. eigenvalues --    3.27975   3.29138   3.29748   3.30253   3.30867
 Alpha virt. eigenvalues --    3.31766   3.32174   3.32522   3.33833   3.34489
 Alpha virt. eigenvalues --    3.34821   3.35177   3.35749   3.36237   3.36584
 Alpha virt. eigenvalues --    3.37228   3.38047   3.38244   3.38816   3.39473
 Alpha virt. eigenvalues --    3.39994   3.41186   3.41694   3.42076   3.42583
 Alpha virt. eigenvalues --    3.43152   3.44328   3.44956   3.45328   3.46102
 Alpha virt. eigenvalues --    3.46765   3.47258   3.47605   3.49455   3.50022
 Alpha virt. eigenvalues --    3.50274   3.50491   3.52440   3.52879   3.53886
 Alpha virt. eigenvalues --    3.54265   3.55419   3.55776   3.56425   3.56726
 Alpha virt. eigenvalues --    3.58303   3.59157   3.59602   3.59986   3.60730
 Alpha virt. eigenvalues --    3.61866   3.62630   3.63132   3.64710   3.65707
 Alpha virt. eigenvalues --    3.66420   3.66581   3.66974   3.68137   3.68334
 Alpha virt. eigenvalues --    3.69605   3.70575   3.71755   3.73254   3.73867
 Alpha virt. eigenvalues --    3.75087   3.75418   3.76960   3.77603   3.78175
 Alpha virt. eigenvalues --    3.79598   3.80534   3.81643   3.81874   3.82468
 Alpha virt. eigenvalues --    3.84492   3.85150   3.86683   3.87432   3.88856
 Alpha virt. eigenvalues --    3.89751   3.90906   3.92509   3.93669   3.94761
 Alpha virt. eigenvalues --    3.95409   3.96227   3.97757   3.98257   4.00297
 Alpha virt. eigenvalues --    4.01511   4.02077   4.03594   4.04937   4.06102
 Alpha virt. eigenvalues --    4.07870   4.09822   4.11365   4.13111   4.13456
 Alpha virt. eigenvalues --    4.14590   4.16094   4.16495   4.18295   4.18523
 Alpha virt. eigenvalues --    4.19196   4.19935   4.21049   4.21909   4.24566
 Alpha virt. eigenvalues --    4.25626   4.27067   4.28691   4.30500   4.33222
 Alpha virt. eigenvalues --    4.33789   4.36257   4.37277   4.38294   4.38572
[...]
 ***** Axes restored to original set *****
 -------------------------------------------------------------------
 Center     Atomic                   Forces (Hartrees/Bohr)
 Number     Number              X              Y              Z
 -------------------------------------------------------------------
      1        6           0.000333275   -0.000051037   -0.000026051
      2        1           0.000024145   -0.000003440   -0.000004452
      3        1           0.000010972   -0.000010502    0.000000024
      4        6           0.000110120   -0.000098060   -0.000171966
      5        1          -0.000013062   -0.000015300    0.000007197
      6        8          -0.000098639   -0.000084995   -0.000333583
      7        1          -0.000015075   -0.000018660    0.000008135
      8        6           0.000112501   -0.000012688   -0.000049560
      9        1          -0.000001245    0.000003038    0.000009096
     10        8           0.000091387    0.000097561   -0.000095265
     11        1          -0.000003423   -0.000016593    0.000017308
     12        6           0.000164417   -0.000110892   -0.000178500
     13        1           0.000037537   -0.000008195   -0.000031123
     14        6           0.000212563    0.000017349   -0.000028009
     15        1          -0.000000839    0.000004314   -0.000010826
     16        8           0.000274029   -0.000165650   -0.000157736
     17        7           0.000281144   -0.000091946   -0.000153877
     18        6           0.000009931   -0.000101103   -0.000081681
     19        1          -0.000025137   -0.000008290    0.000021296
     20        6           0.000203555   -0.000007049   -0.000132154
     21        1          -0.000009559    0.000027256    0.000028347
     22        6          -0.000147683   -0.000031770    0.000462823
     23        1           0.000136527   -0.000003538   -0.000552858
     24        1           0.000169479    0.000012370   -0.000063062
     25        6           0.000377154    0.000052340   -0.000229028
     26        6           0.000157469   -0.000011256   -0.000118012
     27        1           0.000019204   -0.000008698    0.000051883
     28        6           0.000182198   -0.000027311    0.000041016
     29        8          -0.000361394   -0.000030828    0.001530220
     30        7           0.000912400    0.000145822   -0.000723191
     31        1          -0.000014661    0.000164742   -0.000115083
     32        1          -0.000087580   -0.000229436   -0.000255713
     33        1          -0.000018098    0.000001603    0.000007800
     34        6           0.000167329    0.000123838   -0.000606618
     35        6          -0.000349209    0.000027269    0.000365176
     36        6          -0.000544567   -0.000088147    0.000058399
     37        6          -0.000756813    0.000334170    0.000749595
     38        6          -0.000551315    0.000676772    0.000692457
     39        8          -0.000953867    0.000026458    0.000950035
     40       16          -0.000394953    0.000237203   -0.000547231
     41        1           0.000036780   -0.000010009   -0.000086876
     42        1          -0.000043561   -0.000010160   -0.000041750
     43        1           0.000066750    0.000115297    0.000025180
     44        1           0.000004976    0.000006406    0.000015737
     45        1           0.000090453   -0.000383763   -0.000500755
     46        1           0.000098860   -0.000216957    0.000197612
     47        1           0.000075765   -0.000234961    0.000096983
     48        1           0.000029762    0.000017426   -0.000041358
 -------------------------------------------------------------------
 Cartesian Forces:  Max     0.001530220 RMS     0.000289353
 Leave Link  716 at Sat Aug 13 20:33:40 2022, MaxMem=  2684354560 cpu:               0.4 elap:               0.0
 (Enter /storage/apps/GAUSSIAN/G16_RevA03/g16/l103.exe)

 GradGradGradGradGradGradGradGradGradGradGradGradGradGradGradGradGradGrad
 Berny optimization.
 Search for a local minimum.
 Step number   1 out of a maximum of    2
 All quantities printed in internal units (Hartrees-Bohrs-Radians)
 Second derivative matrix not updated -- first step.
 ITU=  0
     Eigenvalues ---    0.00037   0.00089   0.00103   0.00125   0.00186
     Eigenvalues ---    0.00235   0.00309   0.00390   0.00419   0.00456
     Eigenvalues ---    0.00534   0.00730   0.00835   0.00913   0.00930
     Eigenvalues ---    0.00998   0.01071   0.01177   0.01378   0.01522
     Eigenvalues ---    0.01688   0.01887   0.02341   0.02497   0.02615
     Eigenvalues ---    0.02957   0.03211   0.03362   0.03761   0.03882
     Eigenvalues ---    0.04378   0.04628   0.04922   0.05085   0.05245
     Eigenvalues ---    0.05334   0.05539   0.05737   0.05842   0.05882
     Eigenvalues ---    0.06077   0.06163   0.06321   0.06397   0.06672
     Eigenvalues ---    0.06941   0.07327   0.07636   0.07839   0.08103
     Eigenvalues ---    0.08452   0.08766   0.09019   0.09629   0.10296
     Eigenvalues ---    0.10513   0.11602   0.12123   0.12231   0.12520
     Eigenvalues ---    0.12972   0.13132   0.13214   0.13619   0.13654
     Eigenvalues ---    0.14009   0.14085   0.15387   0.15994   0.16585
     Eigenvalues ---    0.16933   0.18257   0.18906   0.19643   0.19854
     Eigenvalues ---    0.19942   0.20407   0.21691   0.21849   0.22209
     Eigenvalues ---    0.24149   0.26842   0.27404   0.27633   0.31883
     Eigenvalues ---    0.33021   0.34219   0.34689   0.35323   0.37133
     Eigenvalues ---    0.38078   0.38078   0.38078   0.38078   0.40154
     Eigenvalues ---    0.43133   0.45165   0.48052   0.56595   0.56754
     Eigenvalues ---    0.61672   0.66467   0.69499   0.70084   0.74180
     Eigenvalues ---    0.78980   0.82439   0.87554   0.89198   0.91140
     Eigenvalues ---    0.91324   0.91968   0.93871   0.94463   0.95004
     Eigenvalues ---    0.95642   0.97202   0.99745   1.01482   1.02968
     Eigenvalues ---    1.05520   1.06766   1.09700   1.11430   1.14084
     Eigenvalues ---    1.19577   1.19896   1.24790   1.26018   1.29887
     Eigenvalues ---    1.33671   1.42233   1.51597   1.63571   1.69991
     Eigenvalues ---    1.79355   2.18128   2.27365
 Quadratic step=1.934D+00 exceeds max=3.000D-01 adjusted using Lamda=-3.558D-03.
 Angle between NR and scaled steps=  37.20 degrees.
 Angle between quadratic step and forces=  54.88 degrees.
 Linear search not attempted -- first point.
 Variable       Old X    -DE/DX   Delta X   Delta X   Delta X     New X
                                 (Linear)    (Quad)   (Total)
    X1        6.85048   0.00033   0.00000   0.00390   0.00390   6.85438
    Y1       -6.84434  -0.00005   0.00000  -0.00400  -0.00400  -6.84834
    Z1       -0.84057  -0.00003   0.00000   0.01462   0.01462  -0.82595
    X2        7.14066   0.00002   0.00000   0.00323   0.00323   7.14389
    Y2       -7.03205  -0.00000   0.00000  -0.01764  -0.01764  -7.04969
    Z2       -2.86960  -0.00000   0.00000   0.01640   0.01640  -2.85320
    X3        8.21984   0.00001   0.00000  -0.00261  -0.00261   8.21723
    Y3       -8.03367  -0.00001   0.00000  -0.00231  -0.00231  -8.03598
    Z3        0.13826   0.00000   0.00000   0.02558   0.02558   0.16384
    X4        3.59876   0.00011   0.00000   0.00160   0.00160   3.60036
    Y4       -2.75694  -0.00010   0.00000  -0.00122  -0.00122  -2.75816
    Z4        2.30376  -0.00017   0.00000  -0.01708  -0.01708   2.28668
    X5        2.38316  -0.00001   0.00000   0.00530   0.00530   2.38846
    Y5       -4.41397  -0.00002   0.00000  -0.00510  -0.00510  -4.41907
    Z5        2.04801   0.00001   0.00000  -0.01191  -0.01191   2.03610
    X6        2.83434  -0.00010   0.00000  -0.00842  -0.00842   2.82592
    Y6       -1.31682  -0.00008   0.00000   0.00259   0.00259  -1.31423
    Z6        4.38070  -0.00033   0.00000  -0.02376  -0.02376   4.35694
    X7        1.06826  -0.00002   0.00000  -0.01253  -0.01253   1.05573
    Y7       -0.84250  -0.00002   0.00000  -0.00982  -0.00982  -0.85232
    Z7        4.15503   0.00001   0.00000  -0.01958  -0.01958   4.13545
    X8        6.33843   0.00011   0.00000   0.00271   0.00271   6.34114
    Y8       -3.57528  -0.00001   0.00000   0.00993   0.00993  -3.56535
    Z8        2.64710  -0.00005   0.00000  -0.00564  -0.00564   2.64146
    X9        6.51475  -0.00000   0.00000   0.00183   0.00183   6.51657
    Y9       -5.24854   0.00000   0.00000   0.01665   0.01665  -5.23189
    Z9        3.85012   0.00001   0.00000   0.00470   0.00470   3.85482
   X10        7.76922   0.00009   0.00000  -0.00646  -0.00646   7.76276
   Y10       -1.55012   0.00010   0.00000   0.01929   0.01929  -1.53083
   Z10        3.61483  -0.00010   0.00000  -0.01132  -0.01132   3.60351
   X11        6.74530  -0.00000   0.00000  -0.01020  -0.01020   6.73509
   Y11       -0.74096  -0.00002   0.00000   0.01370   0.01370  -0.72726
   Z11        4.89137   0.00002   0.00000  -0.01004  -0.01004   4.88133
   X12        3.74991   0.00016   0.00000   0.00859   0.00859   3.75850
   Y12       -1.27371  -0.00011   0.00000  -0.00642  -0.00642  -1.28013
   Z12       -0.19165  -0.00018   0.00000  -0.01909  -0.01909  -0.21074
   X13        4.31359   0.00004   0.00000   0.00330   0.00330   4.31689
   Y13        0.67389  -0.00001   0.00000  -0.00578  -0.00578   0.66811
   Z13        0.21999  -0.00003   0.00000  -0.01470  -0.01470   0.20529
   X14        7.16304   0.00021   0.00000   0.00958   0.00958   7.17262
   Y14       -4.10437   0.00002   0.00000  -0.00072  -0.00072  -4.10509
   Z14       -0.06251  -0.00003   0.00000  -0.00111  -0.00111  -0.06363
   X15        9.11922  -0.00000   0.00000   0.01054   0.01054   9.12976
   Y15       -3.49648   0.00000   0.00000  -0.00402  -0.00402  -3.50050
   Z15       -0.30112  -0.00001   0.00000   0.00421   0.00421  -0.29691
   X16        5.60271   0.00027   0.00000   0.01513   0.01513   5.61785
   Y16       -2.53597  -0.00017   0.00000  -0.00587  -0.00587  -2.54184
   Z16       -1.63150  -0.00016   0.00000  -0.01236  -0.01236  -1.64386
   X17        1.43331   0.00028   0.00000   0.00994   0.00994   1.44325
   Y17       -1.15272  -0.00009   0.00000  -0.00622  -0.00622  -1.15894
   Z17       -1.61677  -0.00015   0.00000  -0.02001  -0.02001  -1.63678
   X18        0.33968   0.00001   0.00000   0.00482   0.00482   0.34451
   Y18       -3.37912  -0.00010   0.00000  -0.00430  -0.00430  -3.38341
   Z18       -2.50385  -0.00008   0.00000  -0.01850  -0.01850  -2.52234
   X19        1.37393  -0.00003   0.00000  -0.00213  -0.00213   1.37180
   Y19       -5.08231  -0.00001   0.00000  -0.00691  -0.00691  -5.08923
   Z19       -2.05832   0.00002   0.00000  -0.01286  -0.01286  -2.07118
   X20       -1.76547   0.00020   0.00000   0.00147   0.00147  -1.76400
   Y20       -3.41688  -0.00001   0.00000  -0.00005  -0.00005  -3.41692
   Z20       -3.87170  -0.00013   0.00000  -0.01340  -0.01340  -3.88511
   X21       -2.47204  -0.00001   0.00000  -0.00863  -0.00863  -2.48067
   Y21       -5.22322   0.00003   0.00000   0.00061   0.00061  -5.22261
   Z21       -4.51605   0.00003   0.00000  -0.00380  -0.00380  -4.51984
   X22       -3.17962  -0.00015   0.00000   0.00255   0.00255  -3.17707
   Y22       -1.06190  -0.00003   0.00000   0.00251   0.00251  -1.05939
   Z22       -4.59033   0.00046   0.00000  -0.00813  -0.00813  -4.59845
   X23       -3.41790   0.00014   0.00000  -0.00201  -0.00201  -3.41991
   Y23       -0.98872  -0.00000   0.00000   0.00818   0.00818  -0.98054
   Z23       -6.64977  -0.00055   0.00000  -0.00822  -0.00822  -6.65800
   X24       -5.10200   0.00017   0.00000   0.00452   0.00452  -5.09748
   Y24       -1.12860   0.00001   0.00000  -0.00033  -0.00033  -1.12893
   Z24       -3.80923  -0.00006   0.00000  -0.00264  -0.00264  -3.81187
   X25       -1.79686   0.00038   0.00000   0.00157   0.00157  -1.79530
   Y25        1.24913   0.00005   0.00000  -0.00040  -0.00040   1.24873
   Z25       -3.65373  -0.00023   0.00000   0.00166   0.00166  -3.65207
   X26        0.34629   0.00016   0.00000   0.00413   0.00413   0.35042
   Y26        1.08269  -0.00001   0.00000  -0.00460  -0.00460   1.07809
   Z26       -2.29937  -0.00012   0.00000  -0.00389  -0.00389  -2.30325
   X27        1.27474   0.00002   0.00000  -0.00334  -0.00334   1.27141
   Y27        2.79522  -0.00001   0.00000  -0.00675  -0.00675   2.78847
   Z27       -1.66630   0.00005   0.00000   0.01292   0.01292  -1.65338
   X28       -2.78547   0.00018   0.00000  -0.01318  -0.01318  -2.79866
   Y28        3.81479  -0.00003   0.00000   0.00078   0.00078   3.81557
   Z28       -4.13435   0.00004   0.00000   0.04044   0.04044  -4.09391
   X29       -1.64314  -0.00036   0.00000  -0.05525  -0.05525  -1.69839
   Y29        5.75250  -0.00003   0.00000   0.00042   0.00042   5.75292
   Z29       -3.65272   0.00153   0.00000   0.14196   0.14196  -3.51076
   X30       -5.19697   0.00091   0.00000   0.01210   0.01210  -5.18487
   Y30        3.90204   0.00015   0.00000  -0.00121  -0.00121   3.90082
   Z30       -5.09650  -0.00072   0.00000  -0.02326  -0.02326  -5.11976
   X31       -5.79533  -0.00001   0.00000   0.00273   0.00273  -5.79260
   Y31        5.60860   0.00016   0.00000   0.00797   0.00797   5.61656
   Z31       -5.68652  -0.00012   0.00000   0.01178   0.01178  -5.67474
   X32       -5.99714  -0.00009   0.00000   0.04318   0.04318  -5.95396
   Y32        2.36800  -0.00023   0.00000   0.00909   0.00909   2.37708
   Z32       -5.87515  -0.00026   0.00000  -0.07709  -0.07709  -5.95223
   X33        4.95694  -0.00002   0.00000   0.00068   0.00068   4.95762
   Y33       -7.53186   0.00000   0.00000   0.00587   0.00587  -7.52599
   Z33       -0.38932   0.00001   0.00000   0.01919   0.01919  -0.37012
   X34        0.41404   0.00017   0.00000   0.00997   0.00997   0.42401
   Y34        4.16969   0.00012   0.00000   0.00342   0.00342   4.17310
   Z34        5.24959  -0.00061   0.00000  -0.02204  -0.02204   5.22755
   X35       -3.20059  -0.00035   0.00000  -0.01815  -0.01815  -3.21874
   Y35        1.73934   0.00003   0.00000  -0.00543  -0.00543   1.73390
   Z35        2.49272   0.00037   0.00000   0.03028   0.03028   2.52300
   X36       -5.59213  -0.00054   0.00000  -0.00063  -0.00063  -5.59276
   Y36        1.65796  -0.00009   0.00000  -0.00201  -0.00201   1.65594
   Z36        1.06074   0.00006   0.00000   0.00291   0.00291   1.06364
   X37       -9.18940  -0.00076   0.00000   0.00638   0.00638  -9.18302
   Y37       -0.79651   0.00033   0.00000   0.00124   0.00124  -0.79527
   Z37       -0.75500   0.00075   0.00000  -0.01303  -0.01303  -0.76803
   X38       -6.71994  -0.00055   0.00000  -0.01244  -0.01244  -6.73239
   Y38       -0.53412   0.00068   0.00000   0.00112   0.00112  -0.53300
   Z38        0.57519   0.00069   0.00000   0.02104   0.02104   0.59624
   X39       -1.99839  -0.00095   0.00000  -0.07839  -0.07839  -2.07678
   Y39       -0.13023   0.00003   0.00000  -0.01405  -0.01405  -0.14428
   Z39        3.07764   0.00095   0.00000   0.12593   0.12593   3.20357
   X40       -2.32586  -0.00039   0.00000   0.05315   0.05315  -2.27271
   Y40        4.82002   0.00024   0.00000   0.00616   0.00616   4.82618
   Z40        3.35160  -0.00055   0.00000  -0.08603  -0.08603   3.26557
   X41        0.94260   0.00004   0.00000   0.00459   0.00459   0.94719
   Y41        5.94732  -0.00001   0.00000   0.00557   0.00557   5.95289
   Z41        6.13486  -0.00009   0.00000  -0.02286  -0.02286   6.11200
   X42        1.96433  -0.00004   0.00000   0.02967   0.02967   1.99399
   Y42        3.48252  -0.00001   0.00000  -0.01883  -0.01883   3.46369
   Z42        4.08941  -0.00004   0.00000   0.01851   0.01851   4.10793
   X43      -10.62976   0.00007   0.00000  -0.01274  -0.01274 -10.64250
   Y43       -1.49784   0.00012   0.00000   0.01213   0.01213  -1.48571
   Z43        0.54911   0.00003   0.00000  -0.02922  -0.02922   0.51990
   X44       -9.82460   0.00000   0.00000   0.02440   0.02440  -9.80020
   Y44        1.00378   0.00001   0.00000  -0.00015  -0.00015   1.00364
   Z44       -1.52605   0.00002   0.00000  -0.03079  -0.03079  -1.55684
   X45       -9.06467   0.00009   0.00000   0.02695   0.02695  -9.03772
   Y45       -2.17746  -0.00038   0.00000  -0.00701  -0.00701  -2.18446
   Z45       -2.28082  -0.00050   0.00000  -0.00645  -0.00645  -2.28727
   X46       -5.78512   0.00010   0.00000  -0.02929  -0.02929  -5.81441
   Y46       -2.24743  -0.00022   0.00000   0.00234   0.00234  -2.24509
   Z46        1.21268   0.00020   0.00000   0.05233   0.05233   1.26501
   X47       -6.39668   0.00008   0.00000   0.02667   0.02667  -6.37000
   Y47        3.44729  -0.00023   0.00000  -0.00360  -0.00360   3.44369
   Z47        0.46556   0.00010   0.00000  -0.03554  -0.03554   0.43002
   X48       -0.04224   0.00003   0.00000  -0.02917  -0.02917  -0.07142
   Y48        2.77878   0.00002   0.00000   0.01930   0.01930   2.79809
   Z48        6.69309  -0.00004   0.00000  -0.01802  -0.01802   6.67507
         Item               Value     Threshold  Converged?
 Maximum Force            0.001530     0.000450     NO 
 RMS     Force            0.000289     0.000300     YES
 Maximum Displacement     0.141962     0.001800     NO 
 RMS     Displacement     0.025023     0.001200     NO 
 Predicted change in Energy=-4.603054D-04
 GradGradGradGradGradGradGradGradGradGradGradGradGradGradGradGradGradGrad

 Leave Link  103 at Sat Aug 13 20:33:41 2022, MaxMem=  2684354560 cpu:               0.9 elap:               0.1
 (Enter /storage/apps/GAUSSIAN/G16_RevA03/g16/l9999.exe)

 Test job not archived.
 1\1\GINC-T055\Force\RM062X\def2TZVP\C16H24N2O5S1\LV87696\13-Aug-2022\0
 \\#P M062X/Def2TZVP scf=(direct,conver=8) EmpiricalDispersion=GD3 Forc
 e Charge Prop=(Field,Read)\\Gaussian run\\0,1\C,3.625119,-3.62187,-0.4
 4481\H,3.778673,-3.721201,-1.518525\H,4.349753,-4.251237,0.073166\C,1.
 904381,-1.458911,1.219096\H,1.261113,-2.335773,1.083762\O,1.49987,-0.6
 96833,2.318167\H,0.565299,-0.445832,2.198747\C,3.354151,-1.891959,1.40
 0783\H,3.447455,-2.777409,2.037394\O,4.111295,-0.820289,1.912884\H,3.5
 69458,-0.392098,2.588401\C,1.984366,-0.674017,-0.101417\H,2.282654,0.3
 56607,0.116412\C,3.79052,-2.171937,-0.033081\H,4.825684,-1.85026,-0.15
 9345\O,2.964829,-1.341976,-0.863355\N,0.758474,-0.609994,-0.855558\C,0
 .179753,-1.788151,-1.324978\H,0.727053,-2.689445,-1.089217\C,-0.934248
 ,-1.808134,-2.048818\H,-1.308149,-2.764007,-2.389789\C,-1.682582,-0.56
 1933,-2.429097\H,-1.808673,-0.523207,-3.518909\H,-2.699862,-0.597231,-
 2.015757\C,-0.950859,0.661009,-1.93347\C,0.183247,0.572936,-1.216772\H
 ,0.674564,1.479165,-0.881768\C,-1.474009,2.018698,-2.187804\O,-0.86951
 2,3.044092,-1.932935\N,-2.750117,2.064868,-2.696951\H,-3.066755,2.9679
 41,-3.009179\H,-3.173552,1.253089,-3.108993\H,2.6231,-3.98569,-0.20601
 7\C,0.219098,2.206503,2.777962\C,-1.69368,0.920418,1.319088\C,-2.95922
 6,0.877353,0.561318\C,-4.862821,-0.421497,-0.399528\C,-3.556041,-0.282
 642,0.304379\O,-1.057501,-0.068913,1.628617\S,-1.23079,2.550643,1.7735
 91\H,0.498804,3.147187,3.246427\H,1.039477,1.842872,2.164024\H,-5.6250
 29,-0.792625,0.290578\H,-5.198953,0.531178,-0.807549\H,-4.796819,-1.15
 226,-1.206959\H,-3.061355,-1.189291,0.641722\H,-3.384975,1.824226,0.24
 6366\H,-0.022355,1.470468,3.54183\\Version=ES64L-G16RevA.03\State=1-A\
 HF=-1507.9324542\RMSD=7.445e-09\RMSF=2.894e-04\Dipole=-1.7270681,-1.16
 99792,0.0467576\Quadrupole=4.4428963,-3.0300374,-1.4128589,-2.2377528,
 7.9868261,5.9154966\PG=C01 [X(C16H24N2O5S1)]\\@


 THE WORLD IS MADE UP OF THE WILLS, THE WON'TS, AND THE CANT'S:
 THE WILLS DO EVERYTHING,
 THE WON'TS DO NOTHING,
 THE CAN'TS CAN'T DO ANYTHING.

                               -- FROM WALT DISNEY'S "BLACK HOLE"
 Job cpu time:       0 days  3 hours  9 minutes 56.5 seconds.
 Elapsed time:       0 days  0 hours 11 minutes 53.8 seconds.
 File lengths (MBytes):  RWF=    435 Int=      0 D2E=      0 Chk=     48 Scr=      1
 Normal termination of Gaussian 16 at Sat Aug 13 20:33:41 2022.
