 Entering Gaussian System, Link 0=g16
 Initial command:
 /storage/apps/GAUSSIAN/G16_RevA03/g16/l1.exe "/scratch/tmp/1019220/Gau-138194.inp" -scrdir="/scratch/tmp/1019220/"
 Entering Link 1 = /storage/apps/GAUSSIAN/G16_RevA03/g16/l1.exe PID=    138197.
  
 Copyright (c) 1988,1990,1992,1993,1995,1998,2003,2009,2016,
            Gaussian, Inc.  All Rights Reserved.
  
 This is part of the Gaussian(R) 16 program.  It is based on
 the Gaussian(R) 09 system (copyright 2009, Gaussian, Inc.),
 the Gaussian(R) 03 system (copyright 2003, Gaussian, Inc.),
 the Gaussian(R) 98 system (copyright 1998, Gaussian, Inc.),
 the Gaussian(R) 94 system (copyright 1995, Gaussian, Inc.),
 the Gaussian 92(TM) system (copyright 1992, Gaussian, Inc.),
 the Gaussian 90(TM) system (copyright 1990, Gaussian, Inc.),
 the Gaussian 88(TM) system (copyright 1988, Gaussian, Inc.),
 the Gaussian 86(TM) system (copyright 1986, Carnegie Mellon
 University), and the Gaussian 82(TM) system (copyright 1983,
 Carnegie Mellon University). Gaussian is a federally registered
 trademark of Gaussian, Inc.
  
 This software contains proprietary and confidential information,
 including trade secrets, belonging to Gaussian, Inc.
  
 This software is provided under written license and may be
 used, copied, transmitted, or stored only in accord with that
 written license.
  
 The following legend is applicable only to US Government
 contracts under FAR:
  
                    RESTRICTED RIGHTS LEGEND
  
 Use, reproduction and disclosure by the US Government is
 subject to restrictions as set forth in subparagraphs (a)
 and (c) of the Commercial Computer Software - Restricted
 Rights clause in FAR 52.227-19.
  
 Gaussian, Inc.
 340 Quinnipiac St., Bldg. 40, Wallingford CT 06492
  
  
 ---------------------------------------------------------------
 Warning -- This program may not be used in any manner that
 competes with the business of Gaussian, Inc. or will provide
 assistance to any competitor of Gaussian, Inc.  The licensee
 of this program is prohibited from giving any competitor of
 Gaussian, Inc. access to this program.  By using this program,
 the user acknowledges that Gaussian, Inc. is engaged in the
 business of creating and licensing software in the field of
 computational chemistry and represents and warrants to the
 licensee that it is not a competitor of Gaussian, Inc. and that
 it will not use this program in any manner prohibited above.
 ---------------------------------------------------------------
  

 Cite this work as:
 Gaussian 16, Revision A.03,
 M. J. Frisch, G. W. Trucks, H. B. Schlegel, G. E. Scuseria, 
 M. A. Robb, J. R. Cheeseman, G. Scalmani, V. Barone, 
 G. A. Petersson, H. Nakatsuji, X. Li, M. Caricato, A. V. Marenich, 
 J. Bloino, B. G. Janesko, R. Gomperts, B. Mennucci, H. P. Hratchian, 
 J. V. Ortiz, A. F. Izmaylov, J. L. Sonnenberg, D. Williams-Young, 
 F. Ding, F. Lipparini, F. Egidi, J. Goings, B. Peng, A. Petrone, 
 T. Henderson, D. Ranasinghe, V. G. Zakrzewski, J. Gao, N. Rega, 
 G. Zheng, W. Liang, M. Hada, M. Ehara, K. Toyota, R. Fukuda, 
 J. Hasegawa, M. Ishida, T. Nakajima, Y. Honda, O. Kitao, H. Nakai, 
 T. Vreven, K. Throssell, J. A. Montgomery, Jr., J. E. Peralta, 
 F. Ogliaro, M. J. Bearpark, J. J. Heyd, E. N. Brothers, K. N. Kudin, 
 V. N. Staroverov, T. A. Keith, R. Kobayashi, J. Normand, 
 K. Raghavachari, A. P. Rendell, J. C. Burant, S. S. Iyengar, 
 J. Tomasi, M. Cossi, J. M. Millam, M. Klene, C. Adamo, R. Cammi, 
 J. W. Ochterski, R. L. Martin, K. Morokuma, O. Farkas, 
 J. B. Foresman, and D. J. Fox, Gaussian, Inc., Wallingford CT, 2016.
 
 ******************************************
 Gaussian 16:  ES64L-G16RevA.03 25-Dec-2016
                13-Aug-2022 
 ******************************************
 %NProcShared=16
 Will use up to   16 processors via shared memory.
 %mem=20GB
 ----------------------------------------------------------------------
 #P M062X/Def2TZVP scf=(direct,conver=8) EmpiricalDispersion=GD3 Force 
 Charge Prop=(Field,Read)
 ----------------------------------------------------------------------
 1/10=7,18=10,28=-2,30=1,38=1,125=101/1,3;
 2/12=2,17=6,18=5,29=2,40=1/2;
 3/5=44,7=101,11=2,25=1,30=1,71=1,74=-55,124=31/1,2,3;
 4//1;
 5/5=2,6=8,38=5/2;
 6/7=2,8=2,9=2,10=2,14=2,15=1,28=1/1,2;
 7/7=1,16=-2,29=1/1,2,3,16;
 1/10=7,18=10,28=-2,30=1/3;
 99/12=1/99;
 Leave Link    1 at Sat Aug 13 20:21:42 2022, MaxMem=  2684354560 cpu:               0.7 elap:               0.1
 (Enter /storage/apps/GAUSSIAN/G16_RevA03/g16/l101.exe)
 ------------
 Gaussian run
 ------------
 Symbolic Z-matrix:
 Charge =  0 Multiplicity = 1
 C                     3.61768  -3.62065  -0.44428 
 H                     3.76927  -3.71948  -1.51834 
 H                     4.34293  -4.2507    0.07198 
 C                     1.90102  -1.45667   1.22292 
 H                     1.2557   -2.33218   1.08819 
 O                     1.50097  -0.6952    2.32414 
 H                     0.56797  -0.43942   2.20283 
 C                     3.35035  -1.89171   1.40234 
 H                     3.44332  -2.77763   2.03835 
 O                     4.10877  -0.82099   1.91447 
 H                     3.56723  -0.39238   2.58997 
 C                     1.97964  -0.67125  -0.09789 
 H                     2.27795   0.35948   0.11953 
 C                     3.78495  -2.17107  -0.03193 
 H                     4.82033  -1.85051  -0.15914 
 O                     2.9595   -1.33948  -0.86052 
 N                     0.754    -0.60773  -0.85256 
 C                     0.17895  -1.78602  -1.32512 
 H                     0.73015  -2.686    -1.09364 
 C                    -0.93609  -1.80754  -2.04744 
 H                    -1.30647  -2.76315  -2.39274 
 C                    -1.69037  -0.56296  -2.42018 
 H                    -1.82141  -0.51998  -3.50988 
 H                    -2.70528  -0.60337  -2.0029 
 C                    -0.959     0.66102  -1.92694 
 C                     0.1772    0.57482  -1.21376 
 H                     0.66981   1.48161  -0.88216 
 C                    -1.48011   2.01879  -2.18899 
 O                    -0.8642    3.04386  -1.96018 
 N                    -2.75842   2.06551  -2.68108 
 H                    -3.10251   2.96592  -2.97493 
 H                    -3.23565   1.24067  -3.01168 
 H                     2.61594  -3.98413  -0.20377 
 C                     0.21523   2.20366   2.79255 
 C                    -1.68139   0.91935   1.30936 
 C                    -2.94797   0.87584   0.55388 
 C                    -4.8509   -0.42408  -0.40726 
 C                    -3.53976  -0.28452   0.28948 
 O                    -1.04065  -0.06954   1.6102 
 S                    -1.2278    2.54805   1.77824 
 H                     0.48683   3.14268   3.26892 
 H                     1.04235   1.84735   2.18352 
 H                    -5.60819  -0.79474   0.28743 
 H                    -5.19034   0.5293   -0.81116 
 H                    -4.7897   -1.15414  -1.21755 
 H                    -3.03877  -1.19264   0.61673 
 H                    -3.38038   1.82322   0.25004 
 H                    -0.02961   1.46222   3.55012 
 
 ITRead=  0  0  0  0  0  0  0  0  0  0  0  0  0  0  0  0  0  0  0  0
 ITRead=  0  0  0  0  0  0  0  0  0  0  0  0  0  0  0  0  0  0  0  0
 ITRead=  0  0  0  0  0  0  0  0
 MicOpt= -1 -1 -1 -1 -1 -1 -1 -1 -1 -1 -1 -1 -1 -1 -1 -1 -1 -1 -1 -1
 MicOpt= -1 -1 -1 -1 -1 -1 -1 -1 -1 -1 -1 -1 -1 -1 -1 -1 -1 -1 -1 -1
 MicOpt= -1 -1 -1 -1 -1 -1 -1 -1
 NAtoms=     48 NQM=       48 NQMF=       0 NMMI=      0 NMMIF=      0
                NMic=       0 NMicF=      0.
                    Isotopes and Nuclear Properties:
 (Nuclear quadrupole moments (NQMom) in fm**2, nuclear magnetic moments (NMagM)
  in nuclear magnetons)

  Atom         1           2           3           4           5           6           7           8           9          10
 IAtWgt=          12           1           1          12           1          16           1          12           1          16
 AtmWgt=  12.0000000   1.0078250   1.0078250  12.0000000   1.0078250  15.9949146   1.0078250  12.0000000   1.0078250  15.9949146
 NucSpn=           0           1           1           0           1           0           1           0           1           0
 AtZEff=  -0.0000000  -0.0000000  -0.0000000  -0.0000000  -0.0000000  -0.0000000  -0.0000000  -0.0000000  -0.0000000  -0.0000000
 NQMom=    0.0000000   0.0000000   0.0000000   0.0000000   0.0000000   0.0000000   0.0000000   0.0000000   0.0000000   0.0000000
 NMagM=    0.0000000   2.7928460   2.7928460   0.0000000   2.7928460   0.0000000   2.7928460   0.0000000   2.7928460   0.0000000
 AtZNuc=   6.0000000   1.0000000   1.0000000   6.0000000   1.0000000   8.0000000   1.0000000   6.0000000   1.0000000   8.0000000

  Atom        11          12          13          14          15          16          17          18          19          20
 IAtWgt=           1          12           1          12           1          16          14          12           1          12
 AtmWgt=   1.0078250  12.0000000   1.0078250  12.0000000   1.0078250  15.9949146  14.0030740  12.0000000   1.0078250  12.0000000
 NucSpn=           1           0           1           0           1           0           2           0           1           0
 AtZEff=  -0.0000000  -0.0000000  -0.0000000  -0.0000000  -0.0000000  -0.0000000  -0.0000000  -0.0000000  -0.0000000  -0.0000000
 NQMom=    0.0000000   0.0000000   0.0000000   0.0000000   0.0000000   0.0000000   2.0440000   0.0000000   0.0000000   0.0000000
 NMagM=    2.7928460   0.0000000   2.7928460   0.0000000   2.7928460   0.0000000   0.4037610   0.0000000   2.7928460   0.0000000
 AtZNuc=   1.0000000   6.0000000   1.0000000   6.0000000   1.0000000   8.0000000   7.0000000   6.0000000   1.0000000   6.0000000

  Atom        21          22          23          24          25          26          27          28          29          30
 IAtWgt=           1          12           1           1          12          12           1          12          16          14
 AtmWgt=   1.0078250  12.0000000   1.0078250   1.0078250  12.0000000  12.0000000   1.0078250  12.0000000  15.9949146  14.0030740
 NucSpn=           1           0           1           1           0           0           1           0           0           2
 AtZEff=  -0.0000000  -0.0000000  -0.0000000  -0.0000000  -0.0000000  -0.0000000  -0.0000000  -0.0000000  -0.0000000  -0.0000000
 NQMom=    0.0000000   0.0000000   0.0000000   0.0000000   0.0000000   0.0000000   0.0000000   0.0000000   0.0000000   2.0440000
 NMagM=    2.7928460   0.0000000   2.7928460   2.7928460   0.0000000   0.0000000   2.7928460   0.0000000   0.0000000   0.4037610
 AtZNuc=   1.0000000   6.0000000   1.0000000   1.0000000   6.0000000   6.0000000   1.0000000   6.0000000   8.0000000   7.0000000

  Atom        31          32          33          34          35          36          37          38          39          40
 IAtWgt=           1           1           1          12          12          12          12          12          16          32
 AtmWgt=   1.0078250   1.0078250   1.0078250  12.0000000  12.0000000  12.0000000  12.0000000  12.0000000  15.9949146  31.9720718
 NucSpn=           1           1           1           0           0           0           0           0           0           0
 AtZEff=  -0.0000000  -0.0000000  -0.0000000  -0.0000000  -0.0000000  -0.0000000  -0.0000000  -0.0000000  -0.0000000  -0.0000000
 NQMom=    0.0000000   0.0000000   0.0000000   0.0000000   0.0000000   0.0000000   0.0000000   0.0000000   0.0000000   0.0000000
 NMagM=    2.7928460   2.7928460   2.7928460   0.0000000   0.0000000   0.0000000   0.0000000   0.0000000   0.0000000   0.0000000
 AtZNuc=   1.0000000   1.0000000   1.0000000   6.0000000   6.0000000   6.0000000   6.0000000   6.0000000   8.0000000  16.0000000

  Atom        41          42          43          44          45          46          47          48
 IAtWgt=           1           1           1           1           1           1           1           1
 AtmWgt=   1.0078250   1.0078250   1.0078250   1.0078250   1.0078250   1.0078250   1.0078250   1.0078250
 NucSpn=           1           1           1           1           1           1           1           1
 AtZEff=  -0.0000000  -0.0000000  -0.0000000  -0.0000000  -0.0000000  -0.0000000  -0.0000000  -0.0000000
 NQMom=    0.0000000   0.0000000   0.0000000   0.0000000   0.0000000   0.0000000   0.0000000   0.0000000
 NMagM=    2.7928460   2.7928460   2.7928460   2.7928460   2.7928460   2.7928460   2.7928460   2.7928460
 AtZNuc=   1.0000000   1.0000000   1.0000000   1.0000000   1.0000000   1.0000000   1.0000000   1.0000000
 Background charge distribution read from input stream:
 Leave Link  101 at Sat Aug 13 20:21:42 2022, MaxMem=  2684354560 cpu:               2.2 elap:               0.2
 (Enter /storage/apps/GAUSSIAN/G16_RevA03/g16/l103.exe)

 GradGradGradGradGradGradGradGradGradGradGradGradGradGradGradGradGradGrad
 Berny optimization.
 Initialization pass.
 Trust Radius=3.00D-01 FncErr=1.00D-07 GrdErr=1.00D-07 EigMax=2.50D+02 EigMin=1.00D-04
 Number of steps in this run=      2 maximum allowed number of steps=      2.
 GradGradGradGradGradGradGradGradGradGradGradGradGradGradGradGradGradGrad

 Leave Link  103 at Sat Aug 13 20:21:42 2022, MaxMem=  2684354560 cpu:               0.4 elap:               0.1
 (Enter /storage/apps/GAUSSIAN/G16_RevA03/g16/l202.exe)
 ---------------------------------------------------------------------------------------------------
                            Z-MATRIX (ANGSTROMS AND DEGREES)
   CD    Cent   Atom    N1       Length/X        N2       Alpha/Y        N3        Beta/Z          J
 ---------------------------------------------------------------------------------------------------
      1      1  C        0   3.617678         -3.620645         -0.444281
      2      2  H        0   3.769272         -3.719477         -1.518335
      3      3  H        0   4.342930         -4.250698          0.071984
      4      4  C        0   1.901019         -1.456669          1.222924
      5      5  H        0   1.255701         -2.332183          1.088188
      6      6  O        0   1.500966         -0.695199          2.324144
      7      7  H        0   0.567970         -0.439420          2.202833
      8      8  C        0   3.350350         -1.891705          1.402335
      9      9  H        0   3.443316         -2.777627          2.038350
     10     10  O        0   4.108765         -0.820986          1.914473
     11     11  H        0   3.567228         -0.392383          2.589967
     12     12  C        0   1.979640         -0.671253         -0.097891
     13     13  H        0   2.277952          0.359480          0.119530
     14     14  C        0   3.784947         -2.171069         -0.031928
     15     15  H        0   4.820327         -1.850505         -0.159136
     16     16  O        0   2.959501         -1.339484         -0.860522
     17     17  N        0   0.753999         -0.607729         -0.852563
     18     18  C        0   0.178950         -1.786016         -1.325123
     19     19  H        0   0.730146         -2.685996         -1.093640
     20     20  C        0  -0.936094         -1.807536         -2.047435
     21     21  H        0  -1.306468         -2.763152         -2.392736
     22     22  C        0  -1.690369         -0.562960         -2.420178
     23     23  H        0  -1.821411         -0.519978         -3.509884
     24     24  H        0  -2.705278         -0.603373         -2.002896
     25     25  C        0  -0.959003          0.661024         -1.926935
     26     26  C        0   0.177197          0.574823         -1.213761
     27     27  H        0   0.669814          1.481610         -0.882155
     28     28  C        0  -1.480109          2.018789         -2.188992
     29     29  O        0  -0.864196          3.043857         -1.960184
     30     30  N        0  -2.758418          2.065509         -2.681079
     31     31  H        0  -3.102508          2.965924         -2.974929
     32     32  H        0  -3.235655          1.240668         -3.011685
     33     33  H        0   2.615941         -3.984127         -0.203768
     34     34  C        0   0.215225          2.203656          2.792549
     35     35  C        0  -1.681393          0.919354          1.309364
     36     36  C        0  -2.947965          0.875837          0.553884
     37     37  C        0  -4.850899         -0.424077         -0.407263
     38     38  C        0  -3.539759         -0.284521          0.289475
     39     39  O        0  -1.040647         -0.069541          1.610203
     40     40  S        0  -1.227799          2.548047          1.778242
     41     41  H        0   0.486831          3.142681          3.268924
     42     42  H        0   1.042347          1.847352          2.183524
     43     43  H        0  -5.608190         -0.794735          0.287431
     44     44  H        0  -5.190344          0.529297         -0.811163
     45     45  H        0  -4.789700         -1.154138         -1.217554
     46     46  H        0  -3.038772         -1.192635          0.616725
     47     47  H        0  -3.380384          1.823216          0.250037
     48     48  H        0  -0.029609          1.462222          3.550120
 ---------------------------------------------------------------------------------------------------
                         Z-Matrix orientation:                         
 ---------------------------------------------------------------------
 Center     Atomic      Atomic             Coordinates (Angstroms)
 Number     Number       Type             X           Y           Z
 ---------------------------------------------------------------------
      1          6           0        3.617678   -3.620645   -0.444281
      2          1           0        3.769272   -3.719477   -1.518335
      3          1           0        4.342930   -4.250698    0.071984
      4          6           0        1.901019   -1.456669    1.222924
      5          1           0        1.255701   -2.332183    1.088188
      6          8           0        1.500966   -0.695199    2.324144
      7          1           0        0.567970   -0.439420    2.202833
      8          6           0        3.350350   -1.891705    1.402335
      9          1           0        3.443316   -2.777627    2.038350
     10          8           0        4.108765   -0.820986    1.914473
     11          1           0        3.567228   -0.392383    2.589967
     12          6           0        1.979640   -0.671253   -0.097891
     13          1           0        2.277952    0.359480    0.119530
     14          6           0        3.784947   -2.171069   -0.031928
     15          1           0        4.820327   -1.850505   -0.159136
     16          8           0        2.959501   -1.339484   -0.860522
     17          7           0        0.753999   -0.607729   -0.852563
     18          6           0        0.178950   -1.786016   -1.325123
     19          1           0        0.730146   -2.685996   -1.093640
     20          6           0       -0.936094   -1.807536   -2.047435
     21          1           0       -1.306468   -2.763152   -2.392736
     22          6           0       -1.690369   -0.562960   -2.420178
     23          1           0       -1.821411   -0.519978   -3.509884
     24          1           0       -2.705278   -0.603373   -2.002896
     25          6           0       -0.959003    0.661024   -1.926935
     26          6           0        0.177197    0.574823   -1.213761
     27          1           0        0.669814    1.481610   -0.882155
     28          6           0       -1.480109    2.018789   -2.188992
     29          8           0       -0.864196    3.043857   -1.960184
     30          7           0       -2.758418    2.065509   -2.681079
     31          1           0       -3.102508    2.965924   -2.974929
     32          1           0       -3.235655    1.240668   -3.011685
     33          1           0        2.615941   -3.984127   -0.203768
     34          6           0        0.215225    2.203656    2.792549
     35          6           0       -1.681393    0.919354    1.309364
     36          6           0       -2.947965    0.875837    0.553884
     37          6           0       -4.850899   -0.424077   -0.407263
     38          6           0       -3.539759   -0.284521    0.289475
     39          8           0       -1.040647   -0.069541    1.610203
     40         16           0       -1.227799    2.548047    1.778242
     41          1           0        0.486831    3.142681    3.268924
     42          1           0        1.042347    1.847352    2.183524
     43          1           0       -5.608190   -0.794735    0.287431
     44          1           0       -5.190344    0.529297   -0.811163
     45          1           0       -4.789700   -1.154138   -1.217554
     46          1           0       -3.038772   -1.192635    0.616725
     47          1           0       -3.380384    1.823216    0.250037
     48          1           0       -0.029609    1.462222    3.550120
 ---------------------------------------------------------------------
                    Distance matrix (angstroms):
                    1          2          3          4          5
     1  C    0.000000
     2  H    1.089193   0.000000
     3  H    1.090636   1.772116   0.000000
     4  C    3.226342   4.015616   3.885124   0.000000
     5  H    3.096374   3.877704   3.774169   1.095953   0.000000
     6  O    4.550042   5.390372   5.078440   1.397342   2.065783
     7  H    5.140829   5.903745   5.772060   1.942173   2.301730
     8  C    2.543755   3.470815   2.884423   1.523813   2.163392
     9  H    2.627649   3.693689   2.616455   2.188271   2.426291
    10  O    3.693640   4.505627   3.900323   2.399266   3.332632
    11  H    4.430675   5.290418   4.672103   2.403698   3.370656
    12  C    3.391470   3.809477   4.292601   1.538705   2.165539
    13  H    4.237233   4.641608   5.051746   2.158229   3.037819
    14  C    1.516339   2.146443   2.155690   2.373648   2.770867
    15  H    2.158951   2.538739   2.458099   3.253852   3.807150
    16  O    2.410425   2.598618   3.355385   2.339843   2.772338
    17  N    4.176723   4.383845   5.196772   2.518730   2.644232
    18  C    3.995822   4.082403   5.036397   3.092982   2.698474
    19  H    3.103720   3.238014   4.105993   2.872048   2.271952
    20  C    5.156967   5.106460   6.191048   4.343681   3.861522
    21  H    5.364605   5.238537   6.340610   5.006782   4.343648
    22  C    6.436534   6.370604   7.497398   5.193166   4.911019
    23  H    6.971065   6.742314   8.046561   6.093714   5.821939
    24  H    7.177255   7.201715   8.202764   5.687882   5.313468
    25  C    6.440261   6.458508   7.498745   4.752469   4.791155
    26  C    5.480051   5.606851   6.503240   3.610534   3.861713
    27  H    5.908861   6.087912   6.874701   3.818469   4.332497
    28  C    7.799658   7.805990   8.850213   5.928913   6.095533
    29  O    8.173172   8.210173   9.189908   6.167116   6.533632
    30  N    8.831207   8.799362   9.894593   7.025477   7.047001
    31  H    9.744125   9.697299  10.807306   7.887749   7.973258
    32  H    8.785904   8.712183   9.853886   7.182824   7.053120
    33  H    1.092448   1.768700   1.769065   2.989081   2.499664
    34  C    7.481727   8.142388   8.130074   4.324766   4.955933
    35  C    7.194930   7.695738   8.034489   4.299608   4.387247
    36  C    8.020122   8.398350   8.925847   5.422255   5.314855
    37  C    9.051862   9.295240   9.969915   7.022261   6.570221
    38  C    7.930765   8.275810   8.826927   5.643343   5.275159
    39  O    6.207353   6.800375   6.987925   3.275287   3.265771
    40  S    8.152976   8.667179   8.953618   5.112302   5.519111
    41  H    8.326624   8.987852   8.930396   5.228773   5.943139
    42  H    6.590651   7.220074   7.248356   3.546354   4.325944
    43  H    9.676663   9.987577  10.536360   7.596152   7.079404
    44  H    9.743607   9.941172  10.701010   7.639961   7.303910
    45  H    8.795772   8.940214   9.729158   7.128336   6.576558
    46  H    7.164446   7.569206   8.008621   4.983847   4.468036
    47  H    8.893288   9.217709   9.827193   6.292644   6.281968
    48  H    7.422498   8.183565   7.990869   4.202748   4.702195
                    6          7          8          9         10
     6  O    0.000000
     7  H    0.974998   0.000000
     8  C    2.387798   3.239069   0.000000
     9  H    2.861976   3.709701   1.094539   0.000000
    10  O    2.642777   3.572950   1.408516   2.070413   0.000000
    11  H    2.105184   3.024506   1.924960   2.451331   0.966051
    12  C    2.468999   2.709223   2.370449   3.338066   2.933462
    13  H    2.564445   2.811126   2.804186   3.857640   2.822622
    14  C    3.598032   4.282722   1.524477   2.184188   2.390828
    15  H    4.303437   5.064839   2.144929   2.754026   2.422000
    16  O    3.561534   3.989195   2.361828   3.271971   3.047990
    17  N    3.264518   3.065678   3.670722   4.505359   4.353897
    18  C    4.031719   3.796200   4.184253   4.790859   5.183600
    19  H    4.029725   3.992510   3.704897   4.144762   4.893064
    20  C    5.127110   4.711553   5.502872   6.067450   6.490038
    21  H    5.865754   5.480192   6.070250   6.495782   7.186710
    22  C    5.719327   5.146609   6.464210   7.151080   7.244704
    23  H    6.716009   6.192800   7.263514   7.974787   8.042465
    24  H    6.035246   5.331903   7.065835   7.672305   7.862844
    25  C    5.095337   4.538459   6.014232   6.850417   6.529551
    26  C    3.985234   3.585318   4.795479   5.699358   5.214533
    27  H    3.963542   3.635640   4.876825   5.861976   4.994943
    28  C    6.051523   5.433741   7.177947   8.069457   7.492547
    29  O    6.158733   5.613825   7.309494   8.272400   7.394614
    30  N    7.128542   6.418109   8.345709   9.175537   8.752666
    31  H    7.916816   7.202638   9.186750  10.048341   9.499968
    32  H    7.392850   6.669442   8.524717   9.287529   9.080636
    33  H    4.295411   4.748775   2.738093   2.677179   4.089123
    34  C    3.205603   2.730942   5.341693   5.983525   5.007907
    35  C    3.709982   2.775642   5.764472   6.360954   6.076255
    36  C    5.039341   4.100089   6.931661   7.509987   7.384297
    37  C    6.919558   6.014730   8.525788   8.961820   9.264101
    38  C    5.451371   4.534134   7.162060   7.618233   7.837623
    39  O    2.713108   1.753759   4.758608   5.255755   5.212839
    40  S    4.273501   3.511413   6.388439   7.088708   6.312516
    41  H    4.080490   3.738259   6.085141   6.730911   5.537472
    42  H    2.587406   2.335537   4.462923   5.213076   4.073737
    43  H    7.395824   6.476107   9.094053   9.430129   9.852267
    44  H    7.490205   6.571207   9.149004   9.674480   9.783955
    45  H    7.233722   6.396444   8.583020   9.001065   9.439452
    46  H    4.875648   4.011441   6.475088   6.822806   7.273896
    47  H    5.871279   4.952013   7.773751   8.421918   8.114771
    48  H    2.915500   2.405935   5.223594   5.685330   5.001452
                   11         12         13         14         15
    11  H    0.000000
    12  C    3.134132   0.000000
    13  H    2.886276   1.094839   0.000000
    14  C    3.175761   2.347963   2.949178   0.000000
    15  H    3.354690   3.076343   3.380142   1.091309   0.000000
    16  O    3.629353   1.410059   2.076413   1.435083   2.053231
    17  N    4.451027   1.440750   2.050095   3.507723   4.308173
    18  C    5.361956   2.447709   3.331064   3.850173   4.786028
    19  H    5.184463   2.571369   3.625246   3.274781   4.277958
    20  C    6.617255   3.686918   4.440922   5.146130   6.058375
    21  H    7.362118   4.521157   5.376837   5.643269   6.584794
    22  C    7.264501   4.344388   4.800894   6.186181   7.011365
    23  H    8.140141   5.110046   5.545347   6.800995   7.557149
    24  H    7.777097   5.057876   5.501305   6.961710   7.847899
    25  C    6.480651   3.708906   3.841461   5.840964   6.544734
    26  C    5.186149   2.458998   2.497441   4.685351   5.343511
    27  H    4.895150   2.639230   2.201966   4.875346   5.371453
    28  C    7.357160   4.855810   4.712282   7.066021   7.667284
    29  O    7.221436   5.035631   4.626466   7.247631   7.714425
    30  N    8.592960   6.050778   6.009906   8.232996   8.895658
    31  H    9.312984   6.880017   6.731907   9.082235   9.690098
    32  H    8.962398   6.272554   6.401630   8.355103   9.087972
    33  H    4.648712   3.375089   4.368716   2.164089   3.068168
    34  C    4.244571   4.442174   3.847188   6.313383   6.808497
    35  C    5.559552   4.232441   4.171999   6.421110   7.218100
    36  C    6.942748   5.205727   5.269298   7.413428   8.263637
    37  C    8.935841   6.842008   7.191105   8.818769   9.779002
    38  C    7.470821   5.546474   5.855713   7.570580   8.517312
    39  O    4.721936   3.521616   3.663231   5.513563   6.376003
    40  S    5.683072   4.916445   4.453251   7.118595   7.725317
    41  H    4.737774   5.301888   4.568698   7.071714   7.447328
    42  H    3.399505   3.525159   2.828525   5.345820   5.782330
    43  H    9.468466   7.598611   7.971928   9.498806  10.491332
    44  H    9.439928   7.304707   7.527979   9.405054  10.310292
    45  H    9.214973   6.878284   7.350547   8.715758   9.693183
    46  H    6.940700   5.095780   5.560919   6.923960   7.924657
    47  H    7.658555   5.922270   5.846052   8.208275   8.995294
    48  H    4.159169   4.679400   4.278998   6.370456   6.946555
                   16         17         18         19         20
    16  O    0.000000
    17  N    2.323740   0.000000
    18  C    2.854244   1.393684   0.000000
    19  H    2.614854   2.092339   1.080447   0.000000
    20  C    4.099207   2.392419   1.328729   2.111344   0.000000
    21  H    4.751105   3.356115   2.073899   2.416899   1.081486
    22  C    4.965562   2.904196   2.487843   3.482223   1.502277
    23  H    5.527009   3.701593   3.221409   4.127991   2.140175
    24  H    5.825513   3.645529   3.190108   4.119005   2.140562
    25  C    4.527024   2.387129   2.764981   3.840592   2.471605
    26  C    3.395669   1.364402   2.363465   3.309550   2.758634
    27  H    3.633415   2.091244   3.333849   4.173405   3.841263
    28  C    5.723021   3.698091   4.239727   5.312252   3.867396
    29  O    5.919763   4.144811   4.981880   6.010328   4.852710
    30  N    6.899493   4.777734   5.030009   6.104657   4.326991
    31  H    7.730149   5.669928   6.005894   7.083268   5.323487
    32  H    7.047315   4.898542   4.864652   5.901285   3.938186
    33  H    2.746543   3.909965   3.468149   2.456265   4.555613
    34  C    5.781853   4.634760   5.733587   6.267081   6.390668
    35  C    5.598987   3.596810   4.209563   4.958679   4.388565
    36  C    6.465783   4.228900   4.515941   5.378614   4.244405
    37  C    7.876913   5.625558   5.291193   6.060978   4.464283
    38  C    6.683997   4.454781   4.323218   5.090401   3.815730
    39  O    4.870156   3.094449   3.612457   4.158403   4.050910
    40  S    6.293604   4.561533   5.513068   6.283030   5.804481
    41  H    6.576946   5.578854   6.744784   7.284548   7.402232
    42  H    4.805998   3.915149   5.124200   5.602546   5.930721
    43  H    8.661402   6.466220   6.088839   6.757124   5.320324
    44  H    8.361504   6.052252   5.869766   6.743152   5.008772
    45  H    7.759635   5.582507   5.009823   5.729803   3.995737
    46  H    6.179248   4.109262   3.804814   4.400025   3.449218
    47  H    7.171482   4.921214   5.308158   6.247793   4.943207
    48  H    6.019809   4.927713   5.861957   6.272914   6.545659
                   21         22         23         24         25
    21  H    0.000000
    22  C    2.233602   0.000000
    23  H    2.558323   1.098398   0.000000
    24  H    2.602555   1.098088   1.749054   0.000000
    25  C    3.473137   1.508748   2.155050   2.157301   0.000000
    26  C    3.838401   2.497558   3.234997   3.212404   1.344246
    27  H    4.919914   3.480840   4.137332   4.122434   2.101897
    28  C    4.789428   2.600593   2.882114   2.900242   1.477752
    29  O    5.839868   3.728711   4.002343   4.085792   2.384950
    30  N    5.050472   2.849149   2.872219   2.754213   2.403998
    31  H    6.032165   3.841212   3.752186   3.720554   3.317449
    32  H    4.487252   2.447624   2.312609   2.167820   2.587627
    33  H    4.654853   5.929685   6.528463   6.556045   6.109579
    34  C    7.339749   6.201449   7.161475   6.277344   5.102162
    35  C    5.235166   4.013330   5.031544   3.786569   3.325991
    36  C    4.961786   3.535071   4.442030   2.963795   3.186939
    37  C    4.687896   3.749675   4.337425   2.679903   4.316677
    38  C    4.280824   3.292414   4.176516   2.460282   3.530840
    39  O    4.832155   4.112125   5.198825   4.013783   3.612719
    40  S    6.753672   5.245862   6.142429   5.139202   4.166707
    41  H    8.375511   7.130067   8.043338   7.212112   5.936835
    42  H    6.907665   5.871236   6.798548   6.129997   4.723203
    43  H    5.437166   4.768038   5.369803   3.702582   5.351410
    44  H    5.331612   4.003970   4.442272   2.979718   4.377961
    45  H    4.012840   3.376633   3.803640   2.294541   4.297938
    46  H    3.811070   3.381932   4.354691   2.705709   3.772492
    47  H    5.685081   3.959802   4.696590   3.379321   3.457309
    48  H    7.402816   6.519505   7.548730   6.500913   5.612827
                   26         27         28         29         30
    26  C    0.000000
    27  H    1.083927   0.000000
    28  C    2.404740   2.572655   0.000000
    29  O    2.781686   2.440481   1.217566   0.000000
    30  N    3.604581   3.915334   1.370550   2.250540   0.000000
    31  H    4.424426   4.562160   2.036404   2.458825   1.007717
    32  H    3.914516   4.454844   2.089076   3.159266   1.008671
    33  H    5.267977   5.841395   7.533508   8.036723   8.462795
    34  C    4.324935   3.772460   5.265366   4.945661   6.230750
    35  C    3.152653   3.262984   3.672570   3.983876   4.289206
    36  C    3.603029   3.939225   3.314258   3.919559   3.451990
    37  C    5.189411   5.859645   4.528176   5.507443   3.968218
    38  C    4.100482   4.713008   3.961085   4.826769   3.867470
    39  O    3.142152   3.397587   4.357537   4.740469   5.091589
    40  S    3.849637   3.437431   4.010327   3.788649   4.739323
    41  H    5.175349   4.474829   5.909385   5.401723   6.862542
    42  H    3.729525   3.109813   5.050849   4.715596   6.177198
    43  H    6.131881   6.779603   5.575809   6.503233   5.011412
    44  H    5.382811   5.937457   4.228811   5.134084   3.430860
    45  H    5.259219   6.071734   4.686635   5.795191   4.078497
    46  H    4.100859   4.811636   4.540344   5.414527   4.644310
    47  H    4.044450   4.219320   3.098089   3.564582   3.006158
    48  H    4.850238   4.487163   5.945681   5.793234   6.829216
                   31         32         33         34         35
    31  H    0.000000
    32  H    1.730777   0.000000
    33  H    9.417176   8.332110   0.000000
    34  C    6.697179   6.820927   7.282171   0.000000
    35  C    4.956126   4.603307   6.693338   2.728815   0.000000
    36  C    4.104250   3.595713   7.426327   4.096400   1.475415
    37  C    4.598031   3.487607   8.274604   6.542889   3.846737
    38  C    4.627409   3.649156   7.198820   5.153281   2.437830
    39  O    5.872713   5.281719   5.655538   2.853521   1.216130
    40  S    5.126577   5.355756   7.834028   1.797148   1.754490
    41  H    7.204186   7.544575   8.208781   1.087415   3.672091
    42  H    6.711234   6.757186   6.494729   1.087196   3.007340
    43  H    5.573508   4.544882   8.834581   7.012712   4.404791
    44  H    3.870154   3.028061   9.037589   6.708979   4.118436
    45  H    4.786428   3.371803   7.992504   7.239128   4.510682
    46  H    5.495239   4.373224   6.359357   5.182422   2.604366
    47  H    3.432696   3.316495   8.359850   4.420125   2.196750
    48  H    7.367502   7.306511   7.124137   1.087925   2.836209
                   36         37         38         39         40
    36  C    0.000000
    37  C    2.496946   0.000000
    38  C    1.329121   1.491311   0.000000
    39  O    2.376428   4.325955   2.834802   0.000000
    40  S    2.693383   5.170765   3.947788   2.629644   0.000000
    41  H    4.930299   7.397802   6.069288   3.924655   2.348548
    42  H    4.418389   6.826560   5.397036   2.888259   2.410143
    43  H    3.152555   1.092464   2.130429   4.810206   5.708286
    44  H    2.647963   1.089624   2.144326   4.841653   5.146079
    45  H    3.263553   1.092385   2.142364   4.819539   5.947109
    46  H    2.071418   2.218792   1.087544   2.498168   4.315257
    47  H    1.084821   2.764920   2.114122   3.302567   2.737592
    48  H    4.223515   6.516429   5.099419   2.670538   2.398797
                   41         42         43         44         45
    41  H    0.000000
    42  H    1.778923   0.000000
    43  H    7.844860   7.403069   0.000000
    44  H    7.463726   7.039308   1.770470   0.000000
    45  H    8.150639   7.388440   1.750450   1.777533   0.000000
    46  H    6.185386   5.324651   2.620814   3.103736   2.536101
    47  H    5.080356   4.826956   3.437759   2.465021   3.606194
    48  H    1.780372   1.779045   6.845404   6.820874   7.227345
                   46         47         48
    46  H    0.000000
    47  H    3.057207   0.000000
    48  H    4.970728   4.716838   0.000000
 Stoichiometry    C16H24N2O5S
 Framework group  C1[X(C16H24N2O5S)]
 Deg. of freedom   138
 Full point group                 C1      NOp   1
 Largest Abelian subgroup         C1      NOp   1
 Largest concise Abelian subgroup C1      NOp   1
                         Standard orientation:                         
 ---------------------------------------------------------------------
 Center     Atomic      Atomic             Coordinates (Angstroms)
 Number     Number       Type             X           Y           Z
 ---------------------------------------------------------------------
      1          6           0        4.698103   -1.943922    0.593228
      2          1           0        4.662483   -2.898270    0.069499
      3          1           0        5.717046   -1.773117    0.942609
      4          6           0        2.549790    0.461582    0.680315
      5          1           0        2.363730   -0.157101    1.565599
      6          8           0        2.072437    1.762498    0.860085
      7          1           0        1.122465    1.718153    1.075043
      8          6           0        4.040941    0.503255    0.369288
      9          1           0        4.652189    0.593938    1.272708
     10          8           0        4.310436    1.553418   -0.529850
     11          1           0        3.778404    2.308198   -0.246119
     12          6           0        1.997950   -0.251090   -0.566755
     13          1           0        1.828481    0.491090   -1.353597
     14          6           0        4.262072   -0.829181   -0.337638
     15          1           0        4.988282   -0.690231   -1.140300
     16          8           0        3.002402   -1.169669   -0.934934
     17          7           0        0.756909   -0.957590   -0.375871
     18          6           0        0.703417   -2.015286    0.530095
     19          1           0        1.638520   -2.240514    1.022253
     20          6           0       -0.396448   -2.729533    0.743797
     21          1           0       -0.349078   -3.547459    1.449747
     22          6           0       -1.693084   -2.462279    0.033764
     23          1           0       -2.041718   -3.378790   -0.461152
     24          1           0       -2.472270   -2.207473    0.764340
     25          6           0       -1.520835   -1.351017   -0.972094
     26          6           0       -0.355193   -0.698645   -1.122712
     27          1           0       -0.276943    0.091953   -1.860091
     28          6           0       -2.645132   -0.912538   -1.824997
     29          8           0       -2.534340   -0.138612   -2.758394
     30          7           0       -3.872273   -1.408148   -1.468765
     31          1           0       -4.640299   -1.219547   -2.093311
     32          1           0       -3.974444   -2.154272   -0.797737
     33          1           0        4.043076   -2.005902    1.465318
     34          6           0       -0.274994    3.560836   -0.377427
     35          6           0       -1.625804    1.483272    0.765145
     36          6           0       -2.853573    0.717464    1.053189
     37          6           0       -4.099558   -0.923890    2.463231
     38          6           0       -2.888646   -0.154920    2.055327
     39          8           0       -0.558696    1.278159    1.311206
     40         16           0       -1.884237    2.761396   -0.408673
     41          1           0       -0.374529    4.474086   -0.959268
     42          1           0        0.484783    2.922566   -0.821661
     43          1           0       -4.449568   -0.583389    3.440486
     44          1           0       -4.909511   -0.801278    1.744744
     45          1           0       -3.872920   -1.987318    2.568400
     46          1           0       -1.974440   -0.306711    2.624483
     47          1           0       -3.721640    0.914909    0.433260
     48          1           0        0.001295    3.803306    0.646514
 ---------------------------------------------------------------------
 Rotational constants (GHZ):           0.3261760           0.1618475           0.1383376
 Leave Link  202 at Sat Aug 13 20:21:43 2022, MaxMem=  2684354560 cpu:               0.4 elap:               0.1
 (Enter /storage/apps/GAUSSIAN/G16_RevA03/g16/l301.exe)
 Standard basis: def2TZVP (5D, 7F)
 Ernie: Thresh=  0.10000D-02 Tol=  0.10000D-05 Strict=F.
 There are  1014 symmetry adapted cartesian basis functions of A   symmetry.
 There are   894 symmetry adapted basis functions of A   symmetry.
   894 basis functions,  1434 primitive gaussians,  1014 cartesian basis functions
    95 alpha electrons       95 beta electrons
       nuclear repulsion energy      2478.1151654462 Hartrees.
 IExCor= 4336 DFT=T Ex+Corr=M062X ExCW=0 ScaHFX=  0.540000
 ScaDFX=  1.000000  1.000000  1.000000  1.000000 ScalE2=  1.000000  1.000000
 IRadAn=      5 IRanWt=     -1 IRanGd=            0 ICorTp=0 IEmpDi=131
 NAtoms=   48 NActive=   48 NUniq=   48 SFac= 1.00D+00 NAtFMM=   60 NAOKFM=F Big=F
 Integral buffers will be    131072 words long.
 Raffenetti 2 integral format.
 Two-electron integral symmetry is turned on.
 R6Disp:  Grimme-D3 Dispersion energy=       -0.0043237312 Hartrees.
 Nuclear repulsion after empirical dispersion term =     2478.1108417150 Hartrees.
 Leave Link  301 at Sat Aug 13 20:21:43 2022, MaxMem=  2684354560 cpu:               1.7 elap:               0.1
 (Enter /storage/apps/GAUSSIAN/G16_RevA03/g16/l302.exe)
 NPDir=0 NMtPBC=     1 NCelOv=     1 NCel=       1 NClECP=     1 NCelD=      1
         NCelK=      1 NCelE2=     1 NClLst=     1 CellRange=     0.0.
 One-electron integrals computed using PRISM.
 One-electron integral symmetry used in STVInt
   1 Symmetry operations used in ECPInt.
 ECPInt:  NShTT=   65703 NPrTT=  200010 LenC2=   56794 LenP2D=  120781.
 LDataN:  DoStor=T MaxTD1= 6 Len=  172
 NBasis=   894 RedAO= T EigKep=  3.00D-05  NBF=   894
 NBsUse=   894 1.00D-06 EigRej= -1.00D+00 NBFU=   894
 Precomputing XC quadrature grid using
 IXCGrd= 4 IRadAn=           5 IRanWt=          -1 IRanGd=           0 AccXCQ= 0.00D+00.
 Generated NRdTot=       0 NPtTot=           0 NUsed=           0 NTot=          32
 NSgBfM=   996   996   996   996   996 MxSgAt=    48 MxSgA2=    48.
 Leave Link  302 at Sat Aug 13 20:21:44 2022, MaxMem=  2684354560 cpu:              19.7 elap:               1.3
 (Enter /storage/apps/GAUSSIAN/G16_RevA03/g16/l303.exe)
 DipDrv:  MaxL=1.
 Leave Link  303 at Sat Aug 13 20:21:44 2022, MaxMem=  2684354560 cpu:               2.4 elap:               0.2
 (Enter /storage/apps/GAUSSIAN/G16_RevA03/g16/l401.exe)
 ExpMin= 9.52D-02 ExpMax= 6.07D+04 ExpMxC= 2.07D+03 IAcc=3 IRadAn=         5 AccDes= 0.00D+00
 Harris functional with IExCor= 1009 and IRadAn=       5 diagonalized for initial guess.
 HarFok:  IExCor= 1009 AccDes= 0.00D+00 IRadAn=         5 IDoV= 1 UseB2=F ITyADJ=14
 ICtDFT=  3500011 ScaDFX=  1.000000  1.000000  1.000000  1.000000
 FoFCou: FMM=F IPFlag=           0 FMFlag=      100000 FMFlg1=           0
         NFxFlg=           0 DoJE=T BraDBF=F KetDBF=T FulRan=T
         wScrn=  0.000000 ICntrl=       500 IOpCl=  0 I1Cent=   200000004 NGrid=           0
         NMat0=    1 NMatS0=      1 NMatT0=    0 NMatD0=    1 NMtDS0=    0 NMtDT0=    0
 Petite list used in FoFCou.
 Harris En= -1507.25554715238    
 JPrj=0 DoOrth=F DoCkMO=F.
 Leave Link  401 at Sat Aug 13 20:21:48 2022, MaxMem=  2684354560 cpu:              60.7 elap:               3.9
 (Enter /storage/apps/GAUSSIAN/G16_RevA03/g16/l502.exe)
 Integral symmetry usage will be decided dynamically.
 Closed shell SCF:
 Using DIIS extrapolation, IDIIS=  1040.
 NGot=  2684354560 LenX=  2682272944 LenY=  2681243734
 Requested convergence on RMS density matrix=1.00D-08 within 128 cycles.
 Requested convergence on MAX density matrix=1.00D-06.
 Requested convergence on             energy=1.00D-06.
 No special actions if energy rises.
 Fock matrices will be formed incrementally for  20 cycles.
 Integral accuracy reduced to 1.0D-05 until final iterations.

 Cycle   1  Pass 0  IDiag  1:
 FoFJK:  IHMeth= 1 ICntrl=       0 DoSepK=F KAlg= 0 I1Cent=           0 FoldK=F
 IRaf= 790000000 NMat=       1 IRICut=       1 DoRegI=T DoRafI=F ISym2E= 0 IDoP0=0 IntGTp=1.
 FoFCou: FMM=F IPFlag=           0 FMFlag=      100000 FMFlg1=           0
         NFxFlg=           0 DoJE=F BraDBF=F KetDBF=F FulRan=T
         wScrn=  0.000000 ICntrl=         0 IOpCl=  0 I1Cent=           0 NGrid=           0
         NMat0=    1 NMatS0=      1 NMatT0=    0 NMatD0=    1 NMtDS0=    0 NMtDT0=    0
 Symmetry not used in FoFCou.
 E= -1507.18713276652    
 DIIS: error= 1.41D-02 at cycle   1 NSaved=   1.
 NSaved= 1 IEnMin= 1 EnMin= -1507.18713276652     IErMin= 1 ErrMin= 1.41D-02
 ErrMax= 1.41D-02  0.00D+00 EMaxC= 1.00D-01 BMatC= 1.00D+00 BMatP= 1.00D+00
 IDIUse=3 WtCom= 8.59D-01 WtEn= 1.41D-01
 Coeff-Com:  0.100D+01
 Coeff-En:   0.100D+01
 Coeff:      0.100D+01
 Gap=     0.302 Goal=   None    Shift=    0.000
 GapD=    0.302 DampG=1.000 DampE=0.500 DampFc=0.5000 IDamp=-1.
 Damping current iteration by 5.00D-01
 RMSDP=4.37D-03 MaxDP=1.69D+00              OVMax= 2.58D-01

 Cycle   2  Pass 0  IDiag  1:
 RMSU=  2.18D-03    CP:  1.02D+00
 E= -1507.53208501568     Delta-E=       -0.344952249162 Rises=F Damp=T
 DIIS: error= 3.54D-03 at cycle   2 NSaved=   2.
 NSaved= 2 IEnMin= 2 EnMin= -1507.53208501568     IErMin= 2 ErrMin= 3.54D-03
 ErrMax= 3.54D-03  0.00D+00 EMaxC= 1.00D-01 BMatC= 8.63D-02 BMatP= 1.00D+00
 IDIUse=3 WtCom= 9.65D-01 WtEn= 3.54D-02
 Coeff-Com: -0.168D-01 0.102D+01
 Coeff-En:   0.153D-01 0.985D+00
 Coeff:     -0.156D-01 0.102D+01
 Gap=     0.316 Goal=   None    Shift=    0.000
 RMSDP=1.31D-03 MaxDP=4.80D-01 DE=-3.45D-01 OVMax= 1.71D-01

 Cycle   3  Pass 0  IDiag  1:
 RMSU=  1.05D-03    CP:  1.00D+00  6.46D-01
 E= -1507.89120884783     Delta-E=       -0.359123832150 Rises=F Damp=F
 DIIS: error= 3.73D-03 at cycle   3 NSaved=   3.
 NSaved= 3 IEnMin= 3 EnMin= -1507.89120884783     IErMin= 2 ErrMin= 3.54D-03
 ErrMax= 3.73D-03  0.00D+00 EMaxC= 1.00D-01 BMatC= 5.11D-02 BMatP= 8.63D-02
 IDIUse=3 WtCom= 9.63D-01 WtEn= 3.73D-02
 Coeff-Com: -0.835D-01 0.457D+00 0.626D+00
 Coeff-En:   0.000D+00 0.000D+00 0.100D+01
 Coeff:     -0.804D-01 0.440D+00 0.640D+00
 Gap=     0.210 Goal=   None    Shift=    0.000
 RMSDP=3.66D-04 MaxDP=6.97D-02 DE=-3.59D-01 OVMax= 6.72D-02

 Cycle   4  Pass 0  IDiag  1:
 RMSU=  3.05D-04    CP:  1.01D+00  7.29D-01  9.15D-01
 E= -1507.92411013167     Delta-E=       -0.032901283842 Rises=F Damp=F
 DIIS: error= 1.95D-03 at cycle   4 NSaved=   4.
 NSaved= 4 IEnMin= 4 EnMin= -1507.92411013167     IErMin= 4 ErrMin= 1.95D-03
 ErrMax= 1.95D-03  0.00D+00 EMaxC= 1.00D-01 BMatC= 1.01D-02 BMatP= 5.11D-02
 IDIUse=3 WtCom= 9.81D-01 WtEn= 1.95D-02
 Coeff-Com: -0.372D-01 0.997D-01 0.346D+00 0.592D+00
 Coeff-En:   0.000D+00 0.000D+00 0.133D+00 0.867D+00
 Coeff:     -0.365D-01 0.978D-01 0.342D+00 0.597D+00
 Gap=     0.210 Goal=   None    Shift=    0.000
 RMSDP=1.26D-04 MaxDP=1.68D-02 DE=-3.29D-02 OVMax= 1.71D-02

 Cycle   5  Pass 0  IDiag  1:
 RMSU=  8.03D-05    CP:  1.00D+00  7.13D-01  9.43D-01  7.21D-01
 E= -1507.93155982335     Delta-E=       -0.007449691679 Rises=F Damp=F
 DIIS: error= 3.04D-04 at cycle   5 NSaved=   5.
 NSaved= 5 IEnMin= 5 EnMin= -1507.93155982335     IErMin= 5 ErrMin= 3.04D-04
 ErrMax= 3.04D-04  0.00D+00 EMaxC= 1.00D-01 BMatC= 4.03D-04 BMatP= 1.01D-02
 IDIUse=3 WtCom= 9.97D-01 WtEn= 3.04D-03
 Coeff-Com: -0.106D-01 0.184D-01 0.119D+00 0.265D+00 0.608D+00
 Coeff-En:   0.000D+00 0.000D+00 0.000D+00 0.000D+00 0.100D+01
 Coeff:     -0.106D-01 0.184D-01 0.119D+00 0.264D+00 0.609D+00
 Gap=     0.209 Goal=   None    Shift=    0.000
 RMSDP=4.68D-05 MaxDP=1.53D-02 DE=-7.45D-03 OVMax= 3.79D-03

 Cycle   6  Pass 0  IDiag  1:
 RMSU=  3.14D-05    CP:  1.00D+00  6.99D-01  9.54D-01  7.35D-01  8.91D-01
 E= -1507.93188164916     Delta-E=       -0.000321825809 Rises=F Damp=F
 DIIS: error= 1.75D-04 at cycle   6 NSaved=   6.
 NSaved= 6 IEnMin= 6 EnMin= -1507.93188164916     IErMin= 6 ErrMin= 1.75D-04
 ErrMax= 1.75D-04  0.00D+00 EMaxC= 1.00D-01 BMatC= 5.26D-05 BMatP= 4.03D-04
 IDIUse=3 WtCom= 9.98D-01 WtEn= 1.75D-03
 Coeff-Com:  0.148D-03-0.415D-02 0.127D-01 0.433D-01 0.274D+00 0.674D+00
 Coeff-En:   0.000D+00 0.000D+00 0.000D+00 0.000D+00 0.000D+00 0.100D+01
 Coeff:      0.148D-03-0.414D-02 0.127D-01 0.432D-01 0.274D+00 0.674D+00
 Gap=     0.210 Goal=   None    Shift=    0.000
 RMSDP=1.96D-05 MaxDP=3.78D-03 DE=-3.22D-04 OVMax= 3.28D-03

 Cycle   7  Pass 0  IDiag  1:
 RMSU=  1.62D-05    CP:  1.00D+00  6.96D-01  9.59D-01  7.39D-01  9.66D-01
                    CP:  1.01D+00
 E= -1507.93194416195     Delta-E=       -0.000062512786 Rises=F Damp=F
 DIIS: error= 7.68D-05 at cycle   7 NSaved=   7.
 NSaved= 7 IEnMin= 7 EnMin= -1507.93194416195     IErMin= 7 ErrMin= 7.68D-05
 ErrMax= 7.68D-05  0.00D+00 EMaxC= 1.00D-01 BMatC= 8.93D-06 BMatP= 5.26D-05
 IDIUse=1 WtCom= 1.00D+00 WtEn= 0.00D+00
 Coeff-Com:  0.184D-02-0.498D-02-0.119D-01-0.246D-01 0.132D-01 0.289D+00
 Coeff-Com:  0.738D+00
 Coeff:      0.184D-02-0.498D-02-0.119D-01-0.246D-01 0.132D-01 0.289D+00
 Coeff:      0.738D+00
 Gap=     0.210 Goal=   None    Shift=    0.000
 RMSDP=1.74D-05 MaxDP=5.96D-03 DE=-6.25D-05 OVMax= 1.99D-03

 Cycle   8  Pass 0  IDiag  1:
 RMSU=  9.85D-06    CP:  1.00D+00  6.91D-01  9.61D-01  7.44D-01  1.02D+00
                    CP:  1.22D+00  1.27D+00
 E= -1507.93195194328     Delta-E=       -0.000007781330 Rises=F Damp=F
 DIIS: error= 3.11D-05 at cycle   8 NSaved=   8.
 NSaved= 8 IEnMin= 8 EnMin= -1507.93195194328     IErMin= 8 ErrMin= 3.11D-05
 ErrMax= 3.11D-05  0.00D+00 EMaxC= 1.00D-01 BMatC= 2.01D-06 BMatP= 8.93D-06
 IDIUse=1 WtCom= 1.00D+00 WtEn= 0.00D+00
 Coeff-Com:  0.958D-03-0.176D-02-0.791D-02-0.222D-01-0.467D-01 0.980D-02
 Coeff-Com:  0.359D+00 0.709D+00
 Coeff:      0.958D-03-0.176D-02-0.791D-02-0.222D-01-0.467D-01 0.980D-02
 Coeff:      0.359D+00 0.709D+00
 Gap=     0.210 Goal=   None    Shift=    0.000
 RMSDP=1.64D-05 MaxDP=3.01D-03 DE=-7.78D-06 OVMax= 7.09D-04

 Cycle   9  Pass 0  IDiag  1:
 RMSU=  9.29D-06    CP:  1.00D+00  6.88D-01  9.61D-01  7.44D-01  1.06D+00
                    CP:  1.37D+00  1.68D+00  1.86D+00
 E= -1507.93194224296     Delta-E=        0.000009700319 Rises=F Damp=F
 DIIS: error= 2.55D-05 at cycle   9 NSaved=   9.
 NSaved= 9 IEnMin= 8 EnMin= -1507.93195194328     IErMin= 9 ErrMin= 2.55D-05
 ErrMax= 2.55D-05  0.00D+00 EMaxC= 1.00D-01 BMatC= 4.44D-07 BMatP= 2.01D-06
 IDIUse=1 WtCom= 1.00D+00 WtEn= 0.00D+00
 Coeff-Com:  0.318D-03-0.482D-03-0.253D-02-0.897D-02-0.226D-01-0.190D-01
 Coeff-Com:  0.114D+00 0.347D+00 0.592D+00
 Coeff:      0.318D-03-0.482D-03-0.253D-02-0.897D-02-0.226D-01-0.190D-01
 Coeff:      0.114D+00 0.347D+00 0.592D+00
 Gap=     0.210 Goal=   None    Shift=    0.000
 RMSDP=1.79D-05 MaxDP=1.95D-03 DE= 9.70D-06 OVMax= 1.95D-04

 Cycle  10  Pass 0  IDiag  1:
 RMSU=  5.32D-06    CP:  1.00D+00  6.87D-01  9.61D-01  7.46D-01  1.08D+00
                    CP:  1.50D+00  2.07D+00  2.85D+00  2.20D+00
 E= -1507.93193007766     Delta-E=        0.000012165294 Rises=F Damp=F
 DIIS: error= 3.86D-05 at cycle  10 NSaved=  10.
 NSaved=10 IEnMin= 8 EnMin= -1507.93195194328     IErMin= 9 ErrMin= 2.55D-05
 ErrMax= 3.86D-05  0.00D+00 EMaxC= 1.00D-01 BMatC= 7.25D-07 BMatP= 4.44D-07
 IDIUse=1 WtCom= 1.00D+00 WtEn= 0.00D+00
 Coeff-Com:  0.328D-03-0.419D-03-0.271D-02-0.103D-01-0.284D-01-0.336D-01
 Coeff-Com:  0.117D+00 0.437D+00 0.989D+00-0.468D+00
 Coeff:      0.328D-03-0.419D-03-0.271D-02-0.103D-01-0.284D-01-0.336D-01
 Coeff:      0.117D+00 0.437D+00 0.989D+00-0.468D+00
 Gap=     0.210 Goal=   None    Shift=    0.000
 RMSDP=1.74D-05 MaxDP=1.54D-03 DE= 1.22D-05 OVMax= 4.19D-05

 Problem detected with inexpensive integrals.
 Switching to full accuracy and repeating last cycle.
 Cycle  11  Pass 1  IDiag  1:
 E= -1507.93189917732     Delta-E=        0.000030900346 Rises=F Damp=F
 DIIS: error= 2.83D-04 at cycle   1 NSaved=   1.
 NSaved= 1 IEnMin= 1 EnMin= -1507.93189917732     IErMin= 1 ErrMin= 2.83D-04
 ErrMax= 2.83D-04  0.00D+00 EMaxC= 1.00D-01 BMatC= 8.67D-05 BMatP= 8.67D-05
 IDIUse=3 WtCom= 9.97D-01 WtEn= 2.83D-03
 Coeff-Com:  0.100D+01
 Coeff-En:   0.100D+01
 Coeff:      0.100D+01
 Gap=     0.210 Goal=   None    Shift=    0.000
 RMSDP=4.09D-04 MaxDP=3.22D-02 DE= 3.09D-05 OVMax= 8.92D-04

 Cycle  12  Pass 1  IDiag  1:
 RMSU=  4.08D-04    CP:  9.95D-01
 E= -1507.93195283777     Delta-E=       -0.000053660451 Rises=F Damp=F
 DIIS: error= 7.17D-06 at cycle   2 NSaved=   2.
 NSaved= 2 IEnMin= 2 EnMin= -1507.93195283777     IErMin= 2 ErrMin= 7.17D-06
 ErrMax= 7.17D-06  0.00D+00 EMaxC= 1.00D-01 BMatC= 9.20D-08 BMatP= 8.67D-05
 IDIUse=1 WtCom= 1.00D+00 WtEn= 0.00D+00
 Coeff-Com: -0.160D-01 0.102D+01
 Coeff:     -0.160D-01 0.102D+01
 Gap=     0.210 Goal=   None    Shift=    0.000
 RMSDP=1.51D-05 MaxDP=1.23D-03 DE=-5.37D-05 OVMax= 1.17D-04

 Cycle  13  Pass 1  IDiag  1:
 RMSU=  5.09D-06    CP:  9.95D-01  1.03D+00
 E= -1507.93195289464     Delta-E=       -0.000000056868 Rises=F Damp=F
 DIIS: error= 5.35D-06 at cycle   3 NSaved=   3.
 NSaved= 3 IEnMin= 3 EnMin= -1507.93195289464     IErMin= 3 ErrMin= 5.35D-06
 ErrMax= 5.35D-06  0.00D+00 EMaxC= 1.00D-01 BMatC= 7.91D-08 BMatP= 9.20D-08
 IDIUse=1 WtCom= 1.00D+00 WtEn= 0.00D+00
 Coeff-Com: -0.889D-02 0.525D+00 0.484D+00
 Coeff:     -0.889D-02 0.525D+00 0.484D+00
 Gap=     0.210 Goal=   None    Shift=    0.000
 RMSDP=6.23D-07 MaxDP=1.81D-04 DE=-5.69D-08 OVMax= 5.94D-05

 Cycle  14  Pass 1  IDiag  1:
 RMSU=  5.70D-07    CP:  9.95D-01  1.04D+00  1.00D+00
 E= -1507.93195295479     Delta-E=       -0.000000060153 Rises=F Damp=F
 DIIS: error= 1.04D-06 at cycle   4 NSaved=   4.
 NSaved= 4 IEnMin= 4 EnMin= -1507.93195295479     IErMin= 4 ErrMin= 1.04D-06
 ErrMax= 1.04D-06  0.00D+00 EMaxC= 1.00D-01 BMatC= 4.15D-09 BMatP= 7.91D-08
 IDIUse=1 WtCom= 1.00D+00 WtEn= 0.00D+00
 Coeff-Com: -0.579D-03 0.231D-01 0.174D+00 0.803D+00
 Coeff:     -0.579D-03 0.231D-01 0.174D+00 0.803D+00
 Gap=     0.210 Goal=   None    Shift=    0.000
 RMSDP=3.32D-07 MaxDP=2.85D-05 DE=-6.02D-08 OVMax= 2.34D-05

 Cycle  15  Pass 1  IDiag  1:
 RMSU=  1.56D-07    CP:  9.95D-01  1.04D+00  1.04D+00  9.52D-01
 E= -1507.93195295780     Delta-E=       -0.000000003005 Rises=F Damp=F
 DIIS: error= 9.51D-07 at cycle   5 NSaved=   5.
 NSaved= 5 IEnMin= 5 EnMin= -1507.93195295780     IErMin= 5 ErrMin= 9.51D-07
 ErrMax= 9.51D-07  0.00D+00 EMaxC= 1.00D-01 BMatC= 1.20D-09 BMatP= 4.15D-09
 IDIUse=1 WtCom= 1.00D+00 WtEn= 0.00D+00
 Coeff-Com:  0.580D-03-0.407D-01 0.465D-01 0.454D+00 0.540D+00
 Coeff:      0.580D-03-0.407D-01 0.465D-01 0.454D+00 0.540D+00
 Gap=     0.210 Goal=   None    Shift=    0.000
 RMSDP=8.04D-08 MaxDP=1.32D-05 DE=-3.01D-09 OVMax= 8.93D-06

 Cycle  16  Pass 1  IDiag  1:
 RMSU=  5.50D-08    CP:  9.95D-01  1.04D+00  1.05D+00  1.01D+00  1.03D+00
 E= -1507.93195295890     Delta-E=       -0.000000001105 Rises=F Damp=F
 DIIS: error= 1.27D-07 at cycle   6 NSaved=   6.
 NSaved= 6 IEnMin= 6 EnMin= -1507.93195295890     IErMin= 6 ErrMin= 1.27D-07
 ErrMax= 1.27D-07  0.00D+00 EMaxC= 1.00D-01 BMatC= 4.74D-11 BMatP= 1.20D-09
 IDIUse=1 WtCom= 1.00D+00 WtEn= 0.00D+00
 Coeff-Com:  0.256D-03-0.162D-01-0.294D-02 0.758D-01 0.165D+00 0.778D+00
 Coeff:      0.256D-03-0.162D-01-0.294D-02 0.758D-01 0.165D+00 0.778D+00
 Gap=     0.210 Goal=   None    Shift=    0.000
 RMSDP=2.42D-08 MaxDP=5.20D-06 DE=-1.10D-09 OVMax= 4.08D-06

 Cycle  17  Pass 1  IDiag  1:
 RMSU=  1.56D-08    CP:  9.95D-01  1.04D+00  1.05D+00  1.02D+00  1.12D+00
                    CP:  1.14D+00
 E= -1507.93195295896     Delta-E=       -0.000000000064 Rises=F Damp=F
 DIIS: error= 8.84D-08 at cycle   7 NSaved=   7.
 NSaved= 7 IEnMin= 7 EnMin= -1507.93195295896     IErMin= 7 ErrMin= 8.84D-08
 ErrMax= 8.84D-08  0.00D+00 EMaxC= 1.00D-01 BMatC= 1.57D-11 BMatP= 4.74D-11
 IDIUse=1 WtCom= 1.00D+00 WtEn= 0.00D+00
 Coeff-Com: -0.131D-04 0.180D-02-0.128D-01-0.675D-01-0.538D-01 0.375D+00
 Coeff-Com:  0.757D+00
 Coeff:     -0.131D-04 0.180D-02-0.128D-01-0.675D-01-0.538D-01 0.375D+00
 Coeff:      0.757D+00
 Gap=     0.210 Goal=   None    Shift=    0.000
 RMSDP=1.17D-08 MaxDP=9.80D-07 DE=-6.37D-11 OVMax= 2.67D-06

 Cycle  18  Pass 1  IDiag  1:
 RMSU=  7.56D-09    CP:  9.95D-01  1.04D+00  1.05D+00  1.03D+00  1.15D+00
                    CP:  1.23D+00  1.06D+00
 E= -1507.93195295899     Delta-E=       -0.000000000025 Rises=F Damp=F
 DIIS: error= 2.80D-08 at cycle   8 NSaved=   8.
 NSaved= 8 IEnMin= 8 EnMin= -1507.93195295899     IErMin= 8 ErrMin= 2.80D-08
 ErrMax= 2.80D-08  0.00D+00 EMaxC= 1.00D-01 BMatC= 1.86D-12 BMatP= 1.57D-11
 IDIUse=1 WtCom= 1.00D+00 WtEn= 0.00D+00
 Coeff-Com: -0.358D-04 0.270D-02-0.548D-02-0.381D-01-0.440D-01 0.793D-01
 Coeff-Com:  0.343D+00 0.662D+00
 Coeff:     -0.358D-04 0.270D-02-0.548D-02-0.381D-01-0.440D-01 0.793D-01
 Coeff:      0.343D+00 0.662D+00
 Gap=     0.210 Goal=   None    Shift=    0.000
 RMSDP=4.74D-09 MaxDP=1.61D-06 DE=-2.46D-11 OVMax= 5.92D-07

 Cycle  19  Pass 1  IDiag  1:
 RMSU=  2.64D-09    CP:  9.95D-01  1.04D+00  1.04D+00  1.03D+00  1.15D+00
                    CP:  1.26D+00  1.20D+00  1.05D+00
 E= -1507.93195295900     Delta-E=       -0.000000000009 Rises=F Damp=F
 DIIS: error= 7.29D-09 at cycle   9 NSaved=   9.
 NSaved= 9 IEnMin= 9 EnMin= -1507.93195295900     IErMin= 9 ErrMin= 7.29D-09
 ErrMax= 7.29D-09  0.00D+00 EMaxC= 1.00D-01 BMatC= 2.13D-13 BMatP= 1.86D-12
 IDIUse=1 WtCom= 1.00D+00 WtEn= 0.00D+00
 Coeff-Com: -0.115D-04 0.743D-03-0.236D-03-0.374D-02-0.914D-02-0.291D-01
 Coeff-Com:  0.199D-01 0.257D+00 0.765D+00
 Coeff:     -0.115D-04 0.743D-03-0.236D-03-0.374D-02-0.914D-02-0.291D-01
 Coeff:      0.199D-01 0.257D+00 0.765D+00
 Gap=     0.210 Goal=   None    Shift=    0.000
 RMSDP=1.40D-09 MaxDP=1.29D-07 DE=-8.64D-12 OVMax= 2.75D-07

 SCF Done:  E(RM062X) =  -1507.93195296     A.U. after   19 cycles
            NFock= 19  Conv=0.14D-08     -V/T= 2.0037
 KE= 1.502345746231D+03 PE=-8.494738160916D+03 EE= 3.006349620010D+03
 Leave Link  502 at Sat Aug 13 20:30:34 2022, MaxMem=  2684354560 cpu:            8393.7 elap:             525.5
 (Enter /storage/apps/GAUSSIAN/G16_RevA03/g16/l601.exe)
 Copying SCF densities to generalized density rwf, IOpCl= 0 IROHF=0.

 **********************************************************************

            Population analysis using the SCF density.

 **********************************************************************

 Orbital symmetries:
       Occupied  (A) (A) (A) (A) (A) (A) (A) (A) (A) (A) (A) (A)
                 (A) (A) (A) (A) (A) (A) (A) (A) (A) (A) (A) (A)
                 (A) (A) (A) (A) (A) (A) (A) (A) (A) (A) (A) (A)
                 (A) (A) (A) (A) (A) (A) (A) (A) (A) (A) (A) (A)
                 (A) (A) (A) (A) (A) (A) (A) (A) (A) (A) (A) (A)
                 (A) (A) (A) (A) (A) (A) (A) (A) (A) (A) (A) (A)
                 (A) (A) (A) (A) (A) (A) (A) (A) (A) (A) (A) (A)
                 (A) (A) (A) (A) (A) (A) (A) (A) (A) (A) (A)
       Virtual   (A) (A) (A) (A) (A) (A) (A) (A) (A) (A) (A) (A)
                 (A) (A) (A) (A) (A) (A) (A) (A) (A) (A) (A) (A)
                 (A) (A) (A) (A) (A) (A) (A) (A) (A) (A) (A) (A)
                 (A) (A) (A) (A) (A) (A) (A) (A) (A) (A) (A) (A)
                 (A) (A) (A) (A) (A) (A) (A) (A) (A) (A) (A) (A)
                 (A) (A) (A) (A) (A) (A) (A) (A) (A) (A) (A) (A)
                 (A) (A) (A) (A) (A) (A) (A) (A) (A) (A) (A) (A)
                 (A) (A) (A) (A) (A) (A) (A) (A) (A) (A) (A) (A)
                 (A) (A) (A) (A) (A) (A) (A) (A) (A) (A) (A) (A)
                 (A) (A) (A) (A) (A) (A) (A) (A) (A) (A) (A) (A)
                 (A) (A) (A) (A) (A) (A) (A) (A) (A) (A) (A) (A)
                 (A) (A) (A) (A) (A) (A) (A) (A) (A) (A) (A) (A)
                 (A) (A) (A) (A) (A) (A) (A) (A) (A) (A) (A) (A)
                 (A) (A) (A) (A) (A) (A) (A) (A) (A) (A) (A) (A)
                 (A) (A) (A) (A) (A) (A) (A) (A) (A) (A) (A) (A)
                 (A) (A) (A) (A) (A) (A) (A) (A) (A) (A) (A) (A)
                 (A) (A) (A) (A) (A) (A) (A) (A) (A) (A) (A) (A)
                 (A) (A) (A) (A) (A) (A) (A) (A) (A) (A) (A) (A)
                 (A) (A) (A) (A) (A) (A) (A) (A) (A) (A) (A) (A)
                 (A) (A) (A) (A) (A) (A) (A) (A) (A) (A) (A) (A)
                 (A) (A) (A) (A) (A) (A) (A) (A) (A) (A) (A) (A)
                 (A) (A) (A) (A) (A) (A) (A) (A) (A) (A) (A) (A)
                 (A) (A) (A) (A) (A) (A) (A) (A) (A) (A) (A) (A)
                 (A) (A) (A) (A) (A) (A) (A) (A) (A) (A) (A) (A)
                 (A) (A) (A) (A) (A) (A) (A) (A) (A) (A) (A) (A)
                 (A) (A) (A) (A) (A) (A) (A) (A) (A) (A) (A) (A)
                 (A) (A) (A) (A) (A) (A) (A) (A) (A) (A) (A) (A)
                 (A) (A) (A) (A) (A) (A) (A) (A) (A) (A) (A) (A)
                 (A) (A) (A) (A) (A) (A) (A) (A) (A) (A) (A) (A)
                 (A) (A) (A) (A) (A) (A) (A) (A) (A) (A) (A) (A)
                 (A) (A) (A) (A) (A) (A) (A) (A) (A) (A) (A) (A)
                 (A) (A) (A) (A) (A) (A) (A) (A) (A) (A) (A) (A)
                 (A) (A) (A) (A) (A) (A) (A) (A) (A) (A) (A) (A)
                 (A) (A) (A) (A) (A) (A) (A) (A) (A) (A) (A) (A)
                 (A) (A) (A) (A) (A) (A) (A) (A) (A) (A) (A) (A)
                 (A) (A) (A) (A) (A) (A) (A) (A) (A) (A) (A) (A)
                 (A) (A) (A) (A) (A) (A) (A) (A) (A) (A) (A) (A)
                 (A) (A) (A) (A) (A) (A) (A) (A) (A) (A) (A) (A)
                 (A) (A) (A) (A) (A) (A) (A) (A) (A) (A) (A) (A)
                 (A) (A) (A) (A) (A) (A) (A) (A) (A) (A) (A) (A)
                 (A) (A) (A) (A) (A) (A) (A) (A) (A) (A) (A) (A)
                 (A) (A) (A) (A) (A) (A) (A) (A) (A) (A) (A) (A)
                 (A) (A) (A) (A) (A) (A) (A) (A) (A) (A) (A) (A)
                 (A) (A) (A) (A) (A) (A) (A) (A) (A) (A) (A) (A)
                 (A) (A) (A) (A) (A) (A) (A) (A) (A) (A) (A) (A)
                 (A) (A) (A) (A) (A) (A) (A) (A) (A) (A) (A) (A)
                 (A) (A) (A) (A) (A) (A) (A) (A) (A) (A) (A) (A)
                 (A) (A) (A) (A) (A) (A) (A) (A) (A) (A) (A) (A)
                 (A) (A) (A) (A) (A) (A) (A) (A) (A) (A) (A) (A)
                 (A) (A) (A) (A) (A) (A) (A) (A) (A) (A) (A) (A)
                 (A) (A) (A) (A) (A) (A) (A) (A) (A) (A) (A) (A)
                 (A) (A) (A) (A) (A) (A) (A) (A) (A) (A) (A) (A)
                 (A) (A) (A) (A) (A) (A) (A) (A) (A) (A) (A) (A)
                 (A) (A) (A) (A) (A) (A) (A) (A) (A) (A) (A) (A)
                 (A) (A) (A) (A) (A) (A) (A) (A) (A) (A) (A) (A)
                 (A) (A) (A) (A) (A) (A) (A) (A) (A) (A) (A) (A)
                 (A) (A) (A) (A) (A) (A) (A) (A) (A) (A) (A) (A)
                 (A) (A) (A) (A) (A) (A) (A) (A) (A) (A) (A) (A)
                 (A) (A) (A) (A) (A) (A) (A) (A) (A) (A) (A) (A)
                 (A) (A) (A) (A) (A) (A) (A) (A) (A) (A) (A) (A)
                 (A) (A) (A) (A) (A) (A) (A) (A) (A) (A) (A) (A)
                 (A) (A) (A) (A) (A) (A) (A) (A) (A) (A) (A) (A)
                 (A) (A) (A) (A) (A) (A) (A) (A) (A) (A) (A) (A)
                 (A) (A) (A) (A) (A) (A) (A) (A) (A) (A) (A) (A)
                 (A) (A) (A) (A) (A) (A) (A) (A) (A) (A) (A) (A)
                 (A) (A) (A) (A) (A) (A) (A) (A) (A) (A) (A) (A)
                 (A) (A) (A) (A) (A) (A) (A)
 The electronic state is 1-A.
 Alpha  occ. eigenvalues --  -89.92131 -19.63634 -19.63230 -19.62641 -19.62183
 Alpha  occ. eigenvalues --  -19.57647 -14.78884 -14.76166 -10.66275 -10.63424
 Alpha  occ. eigenvalues --  -10.62878 -10.59443 -10.59039 -10.58966 -10.58285
 Alpha  occ. eigenvalues --  -10.57538 -10.57024 -10.57005 -10.55480 -10.55276
 Alpha  occ. eigenvalues --  -10.55202 -10.53782 -10.53402 -10.53220  -8.28063
 Alpha  occ. eigenvalues --   -6.20001  -6.19766  -6.19572  -1.19300  -1.18877
 Alpha  occ. eigenvalues --   -1.15878  -1.14950  -1.13696  -1.08255  -1.00647
 Alpha  occ. eigenvalues --   -0.92857  -0.91787  -0.90317  -0.88473  -0.87451
 Alpha  occ. eigenvalues --   -0.85508  -0.83029  -0.78844  -0.76752  -0.75491
 Alpha  occ. eigenvalues --   -0.73421  -0.70720  -0.67617  -0.67532  -0.66448
 Alpha  occ. eigenvalues --   -0.63595  -0.63189  -0.61736  -0.60420  -0.58748
 Alpha  occ. eigenvalues --   -0.58111  -0.57245  -0.56528  -0.56081  -0.55029
 Alpha  occ. eigenvalues --   -0.54198  -0.52986  -0.52377  -0.51854  -0.51218
 Alpha  occ. eigenvalues --   -0.50631  -0.50347  -0.50001  -0.49221  -0.48976
 Alpha  occ. eigenvalues --   -0.48570  -0.48352  -0.47785  -0.47124  -0.46746
 Alpha  occ. eigenvalues --   -0.45961  -0.44681  -0.44186  -0.43867  -0.43753
 Alpha  occ. eigenvalues --   -0.43396  -0.43174  -0.41508  -0.41327  -0.37776
 Alpha  occ. eigenvalues --   -0.36103  -0.35569  -0.34573  -0.34498  -0.33714
 Alpha  occ. eigenvalues --   -0.33400  -0.32867  -0.32382  -0.31109  -0.24331
 Alpha virt. eigenvalues --   -0.03302   0.00424   0.04266   0.04541   0.06097
 Alpha virt. eigenvalues --    0.07158   0.07427   0.07895   0.08625   0.09096
 Alpha virt. eigenvalues --    0.09346   0.09591   0.10424   0.10569   0.10996
 Alpha virt. eigenvalues --    0.11727   0.12142   0.12436   0.12733   0.12890
 Alpha virt. eigenvalues --    0.13618   0.13885   0.13911   0.14119   0.14630
 Alpha virt. eigenvalues --    0.15443   0.15723   0.16306   0.17125   0.17382
 Alpha virt. eigenvalues --    0.18058   0.18523   0.18716   0.18982   0.19510
 Alpha virt. eigenvalues --    0.20391   0.20674   0.21352   0.21981   0.22718
 Alpha virt. eigenvalues --    0.22934   0.23289   0.23530   0.24324   0.24812
 Alpha virt. eigenvalues --    0.24875   0.25567   0.25688   0.26215   0.27092
 Alpha virt. eigenvalues --    0.27488   0.27701   0.28131   0.28566   0.29019
 Alpha virt. eigenvalues --    0.29492   0.30069   0.30207   0.30371   0.31101
 Alpha virt. eigenvalues --    0.31387   0.31818   0.33183   0.33441   0.33929
 Alpha virt. eigenvalues --    0.34307   0.35174   0.35518   0.35716   0.36242
 Alpha virt. eigenvalues --    0.36794   0.37044   0.37326   0.37805   0.38260
 Alpha virt. eigenvalues --    0.38533   0.39078   0.39955   0.40116   0.40237
 Alpha virt. eigenvalues --    0.40840   0.41212   0.41625   0.42144   0.42386
 Alpha virt. eigenvalues --    0.42514   0.42975   0.43694   0.43783   0.43943
 Alpha virt. eigenvalues --    0.44568   0.45022   0.45266   0.45527   0.45915
 Alpha virt. eigenvalues --    0.46363   0.46731   0.47185   0.47568   0.47653
 Alpha virt. eigenvalues --    0.47719   0.47992   0.48920   0.49075   0.49423
 Alpha virt. eigenvalues --    0.50122   0.50507   0.50728   0.51163   0.51329
 Alpha virt. eigenvalues --    0.51861   0.51982   0.52335   0.52523   0.52809
 Alpha virt. eigenvalues --    0.53201   0.53328   0.54330   0.54430   0.54965
 Alpha virt. eigenvalues --    0.55389   0.55772   0.56175   0.56877   0.57609
 Alpha virt. eigenvalues --    0.58380   0.58461   0.58539   0.59358   0.60304
 Alpha virt. eigenvalues --    0.60375   0.61176   0.61832   0.62045   0.62411
 Alpha virt. eigenvalues --    0.63100   0.63854   0.64494   0.65553   0.65761
 Alpha virt. eigenvalues --    0.66103   0.66239   0.66709   0.67538   0.67913
 Alpha virt. eigenvalues --    0.68573   0.68897   0.69274   0.70104   0.71340
 Alpha virt. eigenvalues --    0.71633   0.72715   0.73006   0.73565   0.73893
 Alpha virt. eigenvalues --    0.74340   0.75168   0.76021   0.76422   0.76827
 Alpha virt. eigenvalues --    0.76996   0.78147   0.79299   0.80333   0.80819
 Alpha virt. eigenvalues --    0.81642   0.82002   0.82639   0.83803   0.84578
 Alpha virt. eigenvalues --    0.84970   0.85270   0.86575   0.86699   0.87100
 Alpha virt. eigenvalues --    0.87938   0.88386   0.88906   0.89378   0.90137
 Alpha virt. eigenvalues --    0.91042   0.91333   0.91399   0.92728   0.93015
 Alpha virt. eigenvalues --    0.93742   0.94263   0.95317   0.95631   0.96253
 Alpha virt. eigenvalues --    0.97070   0.97724   0.98450   0.98629   0.99425
 Alpha virt. eigenvalues --    0.99796   1.00574   1.00951   1.02200   1.03190
 Alpha virt. eigenvalues --    1.03793   1.04844   1.05137   1.06261   1.06919
 Alpha virt. eigenvalues --    1.07343   1.07690   1.08656   1.09023   1.10036
 Alpha virt. eigenvalues --    1.10897   1.11540   1.11796   1.12147   1.12598
 Alpha virt. eigenvalues --    1.13962   1.14256   1.14919   1.15933   1.16242
 Alpha virt. eigenvalues --    1.17116   1.18052   1.18834   1.19377   1.20572
 Alpha virt. eigenvalues --    1.21020   1.21540   1.22595   1.22922   1.23230
 Alpha virt. eigenvalues --    1.24826   1.25157   1.26041   1.26898   1.28898
 Alpha virt. eigenvalues --    1.29194   1.30003   1.30836   1.31127   1.31396
 Alpha virt. eigenvalues --    1.33081   1.33936   1.34095   1.35530   1.36200
 Alpha virt. eigenvalues --    1.37620   1.37989   1.38202   1.39090   1.40059
 Alpha virt. eigenvalues --    1.41378   1.42095   1.42444   1.43575   1.44856
 Alpha virt. eigenvalues --    1.45378   1.46547   1.48329   1.48743   1.49847
 Alpha virt. eigenvalues --    1.50415   1.50837   1.51230   1.51959   1.52825
 Alpha virt. eigenvalues --    1.53220   1.53639   1.54165   1.54972   1.55142
 Alpha virt. eigenvalues --    1.56148   1.56452   1.57197   1.57548   1.58470
 Alpha virt. eigenvalues --    1.58919   1.58981   1.59932   1.60000   1.60166
 Alpha virt. eigenvalues --    1.60780   1.61200   1.61705   1.62045   1.62258
 Alpha virt. eigenvalues --    1.62868   1.63428   1.63827   1.64532   1.65793
 Alpha virt. eigenvalues --    1.66018   1.67083   1.67881   1.68274   1.68693
 Alpha virt. eigenvalues --    1.68963   1.69407   1.70183   1.70696   1.71502
 Alpha virt. eigenvalues --    1.71777   1.72802   1.73185   1.74160   1.74338
 Alpha virt. eigenvalues --    1.75453   1.75980   1.76378   1.76958   1.77918
 Alpha virt. eigenvalues --    1.78322   1.78664   1.79476   1.79601   1.80563
 Alpha virt. eigenvalues --    1.82228   1.83234   1.83700   1.84442   1.84918
 Alpha virt. eigenvalues --    1.85166   1.85811   1.86568   1.87238   1.87536
 Alpha virt. eigenvalues --    1.88410   1.89212   1.89359   1.90967   1.91272
 Alpha virt. eigenvalues --    1.92820   1.93404   1.93572   1.93985   1.94370
 Alpha virt. eigenvalues --    1.95932   1.96142   1.96808   1.97157   1.97297
 Alpha virt. eigenvalues --    1.98507   1.99297   1.99956   2.01753   2.02361
 Alpha virt. eigenvalues --    2.02689   2.03181   2.03737   2.04230   2.04319
 Alpha virt. eigenvalues --    2.05323   2.06594   2.06848   2.07644   2.08767
 Alpha virt. eigenvalues --    2.09069   2.10227   2.11282   2.12267   2.12562
 Alpha virt. eigenvalues --    2.12984   2.15139   2.16304   2.16790   2.17103
 Alpha virt. eigenvalues --    2.18339   2.19355   2.19891   2.20182   2.20867
 Alpha virt. eigenvalues --    2.21014   2.21658   2.22321   2.22729   2.23571
 Alpha virt. eigenvalues --    2.24066   2.24865   2.25967   2.26677   2.26911
 Alpha virt. eigenvalues --    2.27859   2.28705   2.29055   2.30132   2.30994
 Alpha virt. eigenvalues --    2.31191   2.31592   2.32563   2.32946   2.34062
 Alpha virt. eigenvalues --    2.34505   2.34898   2.35546   2.36257   2.36717
 Alpha virt. eigenvalues --    2.37094   2.37406   2.38357   2.38942   2.39475
 Alpha virt. eigenvalues --    2.40255   2.40865   2.41222   2.42336   2.43136
 Alpha virt. eigenvalues --    2.43681   2.44699   2.45139   2.45679   2.46647
 Alpha virt. eigenvalues --    2.47753   2.48483   2.50059   2.50580   2.51038
 Alpha virt. eigenvalues --    2.52632   2.52950   2.53810   2.54757   2.55335
 Alpha virt. eigenvalues --    2.55836   2.57132   2.58036   2.58538   2.59094
 Alpha virt. eigenvalues --    2.59330   2.60057   2.60576   2.61580   2.62127
 Alpha virt. eigenvalues --    2.63126   2.63362   2.63953   2.64254   2.64574
 Alpha virt. eigenvalues --    2.65292   2.66545   2.67103   2.67390   2.67994
 Alpha virt. eigenvalues --    2.68070   2.69193   2.69729   2.70294   2.71488
 Alpha virt. eigenvalues --    2.72017   2.72293   2.72578   2.73249   2.73970
 Alpha virt. eigenvalues --    2.74895   2.75691   2.76880   2.77403   2.78841
 Alpha virt. eigenvalues --    2.80280   2.80417   2.81428   2.82464   2.82569
 Alpha virt. eigenvalues --    2.83629   2.83981   2.84465   2.85369   2.86227
 Alpha virt. eigenvalues --    2.86671   2.87571   2.88406   2.89143   2.90184
 Alpha virt. eigenvalues --    2.90549   2.91017   2.91816   2.92332   2.92713
 Alpha virt. eigenvalues --    2.93345   2.94038   2.94970   2.96133   2.97550
 Alpha virt. eigenvalues --    2.97997   2.98150   2.98472   3.00309   3.00827
 Alpha virt. eigenvalues --    3.02233   3.02789   3.03288   3.03822   3.03944
 Alpha virt. eigenvalues --    3.05583   3.05812   3.06308   3.06990   3.07176
 Alpha virt. eigenvalues --    3.08347   3.08571   3.08881   3.09249   3.09813
 Alpha virt. eigenvalues --    3.10497   3.11103   3.11775   3.12580   3.12809
 Alpha virt. eigenvalues --    3.13432   3.13898   3.14289   3.14803   3.15501
 Alpha virt. eigenvalues --    3.15783   3.16383   3.16727   3.17667   3.17846
 Alpha virt. eigenvalues --    3.18433   3.18929   3.19105   3.20122   3.20745
 Alpha virt. eigenvalues --    3.21479   3.21995   3.22795   3.23617   3.24584
 Alpha virt. eigenvalues --    3.24740   3.25209   3.25876   3.27020   3.27226
 Alpha virt. eigenvalues --    3.27930   3.29271   3.29580   3.30367   3.31109
 Alpha virt. eigenvalues --    3.31881   3.32183   3.32436   3.33677   3.34606
 Alpha virt. eigenvalues --    3.34985   3.35200   3.35792   3.36424   3.36628
 Alpha virt. eigenvalues --    3.37121   3.38013   3.38310   3.38933   3.39710
 Alpha virt. eigenvalues --    3.40109   3.41448   3.41616   3.42190   3.42674
 Alpha virt. eigenvalues --    3.43632   3.44495   3.44976   3.45485   3.46220
 Alpha virt. eigenvalues --    3.46999   3.47564   3.47940   3.49398   3.50111
 Alpha virt. eigenvalues --    3.50549   3.50813   3.52480   3.53037   3.54399
 Alpha virt. eigenvalues --    3.54406   3.55572   3.55805   3.56477   3.56800
 Alpha virt. eigenvalues --    3.58472   3.59223   3.59726   3.60135   3.60906
 Alpha virt. eigenvalues --    3.62230   3.62517   3.63090   3.64804   3.65750
 Alpha virt. eigenvalues --    3.66344   3.66512   3.67294   3.68378   3.68485
 Alpha virt. eigenvalues --    3.69749   3.70762   3.71697   3.73358   3.74508
 Alpha virt. eigenvalues --    3.75102   3.75514   3.77047   3.77657   3.78325
 Alpha virt. eigenvalues --    3.79802   3.80686   3.81899   3.81962   3.82488
 Alpha virt. eigenvalues --    3.84989   3.85282   3.86706   3.87518   3.88989
 Alpha virt. eigenvalues --    3.90259   3.90979   3.92656   3.93808   3.94962
 Alpha virt. eigenvalues --    3.95474   3.96348   3.97788   3.98469   4.00389
 Alpha virt. eigenvalues --    4.01725   4.02265   4.03626   4.05510   4.06336
 Alpha virt. eigenvalues --    4.07827   4.09837   4.11392   4.13157   4.13705
 Alpha virt. eigenvalues --    4.14626   4.16132   4.16568   4.18302   4.18589
 Alpha virt. eigenvalues --    4.19199   4.19949   4.20992   4.21936   4.24582
 Alpha virt. eigenvalues --    4.25476   4.26971   4.28957   4.30491   4.33242
 Alpha virt. eigenvalues --    4.33609   4.35901   4.37260   4.37909   4.38507
 Alpha virt. eigenvalues --    4.39314   4.40107   4.41237   4.41915   4.42964
 Alpha virt. eigenvalues --    4.44655   4.47128   4.47446   4.49277   4.49951
 Alpha virt. eigenvalues --    4.52605   4.53050   4.53869   4.56822   4.59260
 Alpha virt. eigenvalues --    4.62206   4.64671   4.65513   4.66821   4.68002
 Alpha virt. eigenvalues --    4.69252   4.69896   4.71475   4.73399   4.74364
 Alpha virt. eigenvalues --    4.75672   4.76696   4.79584   4.82453   4.84626
 Alpha virt. eigenvalues --    4.86410   4.87958   4.89831   4.90181   4.92832
 Alpha virt. eigenvalues --    4.93850   4.95150   4.97956   4.99438   5.00664
 Alpha virt. eigenvalues --    5.03038   5.04394   5.05475   5.07335   5.08928
 Alpha virt. eigenvalues --    5.13155   5.14088   5.14571   5.19321   5.21047
 Alpha virt. eigenvalues --    5.22054   5.24400   5.25243   5.26399   5.29164
 Alpha virt. eigenvalues --    5.30136   5.31314   5.31470   5.32844   5.38714
 Alpha virt. eigenvalues --    5.40230   5.42431   5.44295   5.47122   5.49144
 Alpha virt. eigenvalues --    5.49848   5.50876   5.53612   5.55283   5.56072
 Alpha virt. eigenvalues --    5.64554   5.69178   5.75946   5.77222   5.79551
 Alpha virt. eigenvalues --    5.79792   5.82050   5.82635   5.83793   5.88697
 Alpha virt. eigenvalues --    5.89575   5.91884   5.93894   5.96342   5.97530
 Alpha virt. eigenvalues --    5.99928   6.05857   6.07390   6.16350   6.18545
 Alpha virt. eigenvalues --    6.21642   6.25470   6.28464   6.29856   6.38682
 Alpha virt. eigenvalues --    6.38897   6.43599   6.44569   6.48629   6.54213
 Alpha virt. eigenvalues --    6.58422   6.62172   6.72583   6.76400   6.77378
 Alpha virt. eigenvalues --    6.77626   6.82776   6.84102   6.85459   6.86433
 Alpha virt. eigenvalues --    6.87129   6.98320   7.00482   7.04583   7.09131
 Alpha virt. eigenvalues --    7.11403   7.14427   7.14786   7.18204   7.22853
 Alpha virt. eigenvalues --    7.31454   7.35864   9.02165   9.39513   9.55115
 Alpha virt. eigenvalues --   19.98555  22.33370  22.46050  22.49589  22.52011
 Alpha virt. eigenvalues --   22.59192  22.66528  22.75237  22.77689  22.84825
 Alpha virt. eigenvalues --   22.91523  23.00504  23.01992  23.08632  23.09951
 Alpha virt. eigenvalues --   23.28400  23.51234  32.18209  33.23956  44.17375
 Alpha virt. eigenvalues --   44.19086  44.26061  44.29017  44.54409
          Condensed to atoms (all electrons):
               1          2          3          4          5          6
     1  C    5.154635   0.425612   0.409912   0.012587  -0.007977  -0.000243
     2  H    0.425612   0.499007  -0.015770  -0.002327   0.000465  -0.000006
     3  H    0.409912  -0.015770   0.521207  -0.000909   0.000342  -0.000012
     4  C    0.012587  -0.002327  -0.000909   5.632275   0.541236   0.187054
     5  H   -0.007977   0.000465   0.000342   0.541236   0.522877  -0.037409
     6  O   -0.000243  -0.000006  -0.000012   0.187054  -0.037409   8.145553
     7  H    0.000038  -0.000003  -0.000002  -0.055370  -0.008653   0.321978
     8  C   -0.012170   0.010929  -0.001100  -0.017617  -0.098755  -0.053029
     9  H    0.005026  -0.000349  -0.001722  -0.071137   0.002080   0.001160
    10  O    0.005498  -0.000185  -0.000035   0.057010   0.005707  -0.020696
[...]
 (Enter /storage/apps/GAUSSIAN/G16_RevA03/g16/l716.exe)
 Dipole        =-9.97486094D-01-6.38210372D-01 1.78962809D+00
 ***** Axes restored to original set *****
 -------------------------------------------------------------------
 Center     Atomic                   Forces (Hartrees/Bohr)
 Number     Number              X              Y              Z
 -------------------------------------------------------------------
      1        6           0.000335719   -0.000046418   -0.000051142
      2        1           0.000017814   -0.000001357   -0.000002178
      3        1           0.000009246   -0.000018247    0.000002953
      4        6           0.000155863   -0.000102848   -0.000188917
      5        1          -0.000014436   -0.000010648    0.000009406
      6        8          -0.000103320   -0.000091843   -0.000393534
      7        1           0.000008461   -0.000023451    0.000026214
      8        6           0.000168853   -0.000013570   -0.000065744
      9        1           0.000002520    0.000000368    0.000011491
     10        8           0.000189659    0.000068382   -0.000097514
     11        1           0.000002607   -0.000017073    0.000014997
     12        6           0.000208255   -0.000126173   -0.000188454
     13        1           0.000040470   -0.000011476   -0.000029127
     14        6           0.000251257    0.000012653   -0.000045236
     15        1           0.000014145   -0.000000087   -0.000005351
     16        8           0.000346440   -0.000120142   -0.000183374
     17        7           0.000282923   -0.000072717   -0.000166037
     18        6          -0.000093045   -0.000105691    0.000034229
     19        1          -0.000000153   -0.000043328   -0.000001000
     20        6           0.000107121   -0.000063143   -0.000033758
     21        1           0.000006423   -0.000034707    0.000026674
     22        6           0.000499184    0.000183526   -0.000643297
     23        1           0.000037986   -0.000034481   -0.000029450
     24        1          -0.000010610   -0.000112053    0.000060037
     25        6           0.000514793    0.000072007   -0.000451328
     26        6           0.000281270   -0.000073144   -0.000162357
     27        1           0.000021890   -0.000002278    0.000022523
     28        6           0.001007332    0.000037985    0.000094628
     29        8          -0.000137902    0.000085127    0.001685681
     30        7          -0.003692570   -0.002524520   -0.003002099
     31        1           0.000974139   -0.001084909    0.000450520
     32        1           0.002606999    0.003522191    0.001156405
     33        1          -0.000018287    0.000008037    0.000010714
     34        6           0.000217949    0.000083466   -0.000738299
     35        6          -0.000510658   -0.000015580    0.000544178
     36        6          -0.000617619    0.000261687    0.000253632
     37        6          -0.000270862    0.000091575    0.000002883
     38        6          -0.000786406   -0.000327713    0.001000799
     39        8          -0.001206111    0.000068645    0.001193304
     40       16          -0.000428164    0.000317005   -0.000470323
     41        1           0.000038294    0.000021727   -0.000068986
     42        1          -0.000008225   -0.000035584   -0.000071895
     43        1          -0.000238059   -0.000142331    0.000174380
     44        1          -0.000059742    0.000044880    0.000016287
     45        1          -0.000051034    0.000171400    0.000277416
     46        1          -0.000172518    0.000369986   -0.000012626
     47        1           0.000061800   -0.000188893    0.000081405
     48        1           0.000010310    0.000023758   -0.000048728
 -------------------------------------------------------------------
 Cartesian Forces:  Max     0.003692570 RMS     0.000673602
 Leave Link  716 at Sat Aug 13 20:33:44 2022, MaxMem=  2684354560 cpu:               0.8 elap:               0.1
 (Enter /storage/apps/GAUSSIAN/G16_RevA03/g16/l103.exe)

 GradGradGradGradGradGradGradGradGradGradGradGradGradGradGradGradGradGrad
 Berny optimization.
 Search for a local minimum.
 Step number   1 out of a maximum of    2
 All quantities printed in internal units (Hartrees-Bohrs-Radians)
 Second derivative matrix not updated -- first step.
 ITU=  0
     Eigenvalues ---    0.00037   0.00089   0.00103   0.00124   0.00186
     Eigenvalues ---    0.00236   0.00310   0.00388   0.00420   0.00455
     Eigenvalues ---    0.00542   0.00730   0.00835   0.00913   0.00921
     Eigenvalues ---    0.01009   0.01067   0.01179   0.01384   0.01522
     Eigenvalues ---    0.01690   0.01889   0.02345   0.02498   0.02627
     Eigenvalues ---    0.02954   0.03209   0.03367   0.03764   0.03879
     Eigenvalues ---    0.04378   0.04627   0.04925   0.05094   0.05250
     Eigenvalues ---    0.05340   0.05539   0.05736   0.05840   0.05880
     Eigenvalues ---    0.06085   0.06162   0.06333   0.06399   0.06680
     Eigenvalues ---    0.06955   0.07420   0.07661   0.07873   0.08132
     Eigenvalues ---    0.08501   0.08751   0.09032   0.09674   0.10296
     Eigenvalues ---    0.10511   0.11623   0.12128   0.12286   0.12526
     Eigenvalues ---    0.12983   0.13127   0.13215   0.13653   0.13679
     Eigenvalues ---    0.14007   0.14105   0.15392   0.16021   0.16587
     Eigenvalues ---    0.16915   0.18405   0.18956   0.19670   0.19859
     Eigenvalues ---    0.19982   0.20791   0.21767   0.21852   0.22218
     Eigenvalues ---    0.24700   0.26988   0.27382   0.27580   0.31746
     Eigenvalues ---    0.33018   0.34236   0.34787   0.35318   0.36937
     Eigenvalues ---    0.38093   0.38093   0.38093   0.38093   0.40148
     Eigenvalues ---    0.42913   0.45176   0.48017   0.56343   0.56579
     Eigenvalues ---    0.61652   0.66408   0.69496   0.69890   0.74124
     Eigenvalues ---    0.78865   0.82428   0.87558   0.89189   0.91124
     Eigenvalues ---    0.91332   0.91979   0.93883   0.94472   0.94880
     Eigenvalues ---    0.95651   0.97216   0.99708   1.01522   1.02960
     Eigenvalues ---    1.05546   1.06791   1.09773   1.11444   1.14095
     Eigenvalues ---    1.19458   1.19874   1.24428   1.25940   1.29966
     Eigenvalues ---    1.33598   1.43626   1.51790   1.63748   1.70019
     Eigenvalues ---    1.79372   2.18265   2.27594
 Quadratic step=2.199D+00 exceeds max=3.000D-01 adjusted using Lamda=-4.392D-03.
 Angle between NR and scaled steps=  41.51 degrees.
 Angle between quadratic step and forces=  71.43 degrees.
 Linear search not attempted -- first point.
 Variable       Old X    -DE/DX   Delta X   Delta X   Delta X     New X
                                 (Linear)    (Quad)   (Total)
    X1        6.83642   0.00034   0.00000   0.00125   0.00125   6.83767
    Y1       -6.84203  -0.00005   0.00000  -0.00139  -0.00139  -6.84342
    Z1       -0.83957  -0.00005   0.00000   0.01168   0.01168  -0.82789
    X2        7.12289   0.00002   0.00000  -0.00112  -0.00112   7.12177
    Y2       -7.02879  -0.00000   0.00000  -0.01297  -0.01297  -7.04176
    Z2       -2.86924  -0.00000   0.00000   0.01313   0.01313  -2.85611
    X3        8.20695   0.00001   0.00000  -0.00561  -0.00561   8.20134
    Y3       -8.03266  -0.00002   0.00000  -0.00150  -0.00150  -8.03415
    Z3        0.13603   0.00000   0.00000   0.02094   0.02094   0.15697
    X4        3.59241   0.00016   0.00000   0.00176   0.00176   3.59417
    Y4       -2.75271  -0.00010   0.00000  -0.00075  -0.00075  -2.75345
    Z4        2.31099  -0.00019   0.00000  -0.01616  -0.01616   2.29483
    X5        2.37293  -0.00001   0.00000   0.00427   0.00427   2.37720
    Y5       -4.40719  -0.00001   0.00000  -0.00386  -0.00386  -4.41105
    Z5        2.05638   0.00001   0.00000  -0.01038  -0.01038   2.04599
    X6        2.83641  -0.00010   0.00000  -0.00640  -0.00640   2.83001
    Y6       -1.31374  -0.00009   0.00000   0.00212   0.00212  -1.31161
    Z6        4.39200  -0.00039   0.00000  -0.02151  -0.02151   4.37049
    X7        1.07331   0.00001   0.00000  -0.01100  -0.01100   1.06230
    Y7       -0.83038  -0.00002   0.00000  -0.01022  -0.01022  -0.84060
    Z7        4.16275   0.00003   0.00000  -0.01396  -0.01396   4.14879
    X8        6.33124   0.00017   0.00000   0.00275   0.00275   6.33399
    Y8       -3.57480  -0.00001   0.00000   0.00869   0.00869  -3.56611
    Z8        2.65003  -0.00007   0.00000  -0.00563  -0.00563   2.64440
    X9        6.50692   0.00000   0.00000   0.00056   0.00056   6.50749
    Y9       -5.24895   0.00000   0.00000   0.01419   0.01419  -5.23477
    Z9        3.85192   0.00001   0.00000   0.00327   0.00327   3.85520
   X10        7.76444   0.00019   0.00000  -0.00443  -0.00443   7.76001
   Y10       -1.55144   0.00007   0.00000   0.01557   0.01557  -1.53587
   Z10        3.61783  -0.00010   0.00000  -0.00898  -0.00898   3.60885
   X11        6.74108   0.00000   0.00000  -0.00736  -0.00736   6.73372
   Y11       -0.74150  -0.00002   0.00000   0.00935   0.00935  -0.73215
   Z11        4.89433   0.00001   0.00000  -0.00651  -0.00651   4.88781
   X12        3.74098   0.00021   0.00000   0.00823   0.00823   3.74921
   Y12       -1.26848  -0.00013   0.00000  -0.00494  -0.00494  -1.27343
   Z12       -0.18499  -0.00019   0.00000  -0.01796  -0.01796  -0.20294
   X13        4.30471   0.00004   0.00000   0.00110   0.00110   4.30581
   Y13        0.67932  -0.00001   0.00000  -0.00404  -0.00404   0.67528
   Z13        0.22588  -0.00003   0.00000  -0.01201  -0.01201   0.21387
   X14        7.15251   0.00025   0.00000   0.00942   0.00942   7.16193
   Y14       -4.10273   0.00001   0.00000   0.00067   0.00067  -4.10205
   Z14       -0.06034  -0.00005   0.00000  -0.00152  -0.00152  -0.06185
   X15        9.10910   0.00001   0.00000   0.01066   0.01066   9.11976
   Y15       -3.49695  -0.00000   0.00000  -0.00332  -0.00332  -3.50026
   Z15       -0.30072  -0.00001   0.00000   0.00501   0.00501  -0.29571
   X16        5.59265   0.00035   0.00000   0.01623   0.01623   5.60888
   Y16       -2.53126  -0.00012   0.00000  -0.00206  -0.00206  -2.53331
   Z16       -1.62615  -0.00018   0.00000  -0.01147  -0.01147  -1.63762
   X17        1.42485   0.00028   0.00000   0.01056   0.01056   1.43542
   Y17       -1.14844  -0.00007   0.00000  -0.00561  -0.00561  -1.15405
   Z17       -1.61111  -0.00017   0.00000  -0.02094  -0.02094  -1.63206
   X18        0.33817  -0.00009   0.00000   0.00329   0.00329   0.34145
   Y18       -3.37508  -0.00011   0.00000  -0.00458  -0.00458  -3.37966
   Z18       -2.50412   0.00003   0.00000  -0.01495  -0.01495  -2.51907
   X19        1.37978  -0.00000   0.00000  -0.00653  -0.00653   1.37325
   Y19       -5.07580  -0.00004   0.00000  -0.00755  -0.00755  -5.08335
   Z19       -2.06668  -0.00000   0.00000  -0.00355  -0.00355  -2.07023
   X20       -1.76896   0.00011   0.00000   0.00171   0.00171  -1.76725
   Y20       -3.41575  -0.00006   0.00000  -0.00116  -0.00116  -3.41691
   Z20       -3.86909  -0.00003   0.00000  -0.01264  -0.01264  -3.88173
   X21       -2.46887   0.00001   0.00000  -0.01067  -0.01067  -2.47954
   Y21       -5.22160  -0.00003   0.00000  -0.00165  -0.00165  -5.22325
   Z21       -4.52162   0.00003   0.00000   0.00214   0.00214  -4.51948
   X22       -3.19433   0.00050   0.00000   0.00721   0.00721  -3.18713
   Y22       -1.06384   0.00018   0.00000   0.00177   0.00177  -1.06207
   Z22       -4.57347  -0.00064   0.00000  -0.01544  -0.01544  -4.58892
   X23       -3.44197   0.00004   0.00000  -0.00201  -0.00201  -3.44398
   Y23       -0.98262  -0.00003   0.00000   0.00330   0.00330  -0.97931
   Z23       -6.63272  -0.00003   0.00000  -0.01331  -0.01331  -6.64603
   X24       -5.11223  -0.00001   0.00000   0.00967   0.00967  -5.10256
   Y24       -1.14021  -0.00011   0.00000   0.00091   0.00091  -1.13930
   Z24       -3.78492   0.00006   0.00000  -0.00613  -0.00613  -3.79106
   X25       -1.81225   0.00051   0.00000   0.00722   0.00722  -1.80503
   Y25        1.24915   0.00007   0.00000  -0.00059  -0.00059   1.24856
   Z25       -3.64138  -0.00045   0.00000  -0.00869  -0.00869  -3.65007
   X26        0.33485   0.00028   0.00000   0.00777   0.00777   0.34262
   Y26        1.08626  -0.00007   0.00000  -0.00434  -0.00434   1.08192
   Z26       -2.29368  -0.00016   0.00000  -0.01080  -0.01080  -2.30448
   X27        1.26577   0.00002   0.00000  -0.00094  -0.00094   1.26482
   Y27        2.79984  -0.00000   0.00000  -0.00589  -0.00589   2.79394
   Z27       -1.66703   0.00002   0.00000   0.00654   0.00654  -1.66049
   X28       -2.79700   0.00101   0.00000  -0.01023  -0.01023  -2.80723
   Y28        3.81496   0.00004   0.00000   0.00056   0.00056   3.81552
   Z28       -4.13660   0.00009   0.00000   0.03342   0.03342  -4.10318
   X29       -1.63309  -0.00014   0.00000  -0.04954  -0.04954  -1.68263
   Y29        5.75206   0.00009   0.00000   0.00220   0.00220   5.75426
   Z29       -3.70421   0.00169   0.00000   0.13323   0.13323  -3.57098
   X30       -5.21265  -0.00369   0.00000   0.00691   0.00691  -5.20575
   Y30        3.90325  -0.00252   0.00000  -0.00394  -0.00394   3.89931
   Z30       -5.06651  -0.00300   0.00000  -0.01745  -0.01745  -5.08396
   X31       -5.86289   0.00097   0.00000  -0.00185  -0.00185  -5.86474
   Y31        5.60478  -0.00108   0.00000   0.00277   0.00277   5.60756
   Z31       -5.62180   0.00045   0.00000   0.02398   0.02398  -5.59782
   X32       -6.11450   0.00261   0.00000   0.04345   0.04345  -6.07105
   Y32        2.34452   0.00352   0.00000   0.00946   0.00946   2.35398
   Z32       -5.69126   0.00116   0.00000  -0.07427  -0.07427  -5.76553
   X33        4.94341  -0.00002   0.00000  -0.00225  -0.00225   4.94116
   Y33       -7.52891   0.00001   0.00000   0.00975   0.00975  -7.51916
   Z33       -0.38507   0.00001   0.00000   0.01716   0.01716  -0.36790
   X34        0.40672   0.00022   0.00000   0.01473   0.01473   0.42144
   Y34        4.16431   0.00008   0.00000   0.00360   0.00360   4.16790
   Z34        5.27715  -0.00074   0.00000  -0.02653  -0.02653   5.25063
   X35       -3.17737  -0.00051   0.00000  -0.02544  -0.02544  -3.20281
   Y35        1.73733  -0.00002   0.00000  -0.00538  -0.00538   1.73195
   Z35        2.47434   0.00054   0.00000   0.03981   0.03981   2.51415
   X36       -5.57085  -0.00062   0.00000  -0.00659  -0.00659  -5.57744
   Y36        1.65509   0.00026   0.00000  -0.00036  -0.00036   1.65473
   Z36        1.04669   0.00025   0.00000   0.00999   0.00999   1.05668
   X37       -9.16687  -0.00027   0.00000   0.00810   0.00810  -9.15877
   Y37       -0.80139   0.00009   0.00000   0.00023   0.00023  -0.80115
   Z37       -0.76962   0.00000   0.00000  -0.01728  -0.01728  -0.78690
   X38       -6.68918  -0.00079   0.00000  -0.01435  -0.01435  -6.70352
   Y38       -0.53767  -0.00033   0.00000   0.00116   0.00116  -0.53650
   Z38        0.54703   0.00100   0.00000   0.02233   0.02233   0.56936
   X39       -1.96654  -0.00121   0.00000  -0.08865  -0.08865  -2.05519
   Y39       -0.13141   0.00007   0.00000  -0.01622  -0.01622  -0.14763
   Z39        3.04284   0.00119   0.00000   0.13787   0.13787   3.18071
   X40       -2.32020  -0.00043   0.00000   0.05199   0.05199  -2.26821
   Y40        4.81511   0.00032   0.00000   0.00740   0.00740   4.82251
   Z40        3.36039  -0.00047   0.00000  -0.08123  -0.08123   3.27916
   X41        0.91998   0.00004   0.00000   0.00967   0.00967   0.92965
   Y41        5.93881   0.00002   0.00000   0.00486   0.00486   5.94366
   Z41        6.17737  -0.00007   0.00000  -0.02543  -0.02543   6.15195
   X42        1.96975  -0.00001   0.00000   0.03214   0.03214   2.00189
   Y42        3.49099  -0.00004   0.00000  -0.01552  -0.01552   3.47547
   Z42        4.12626  -0.00007   0.00000   0.00929   0.00929   4.13555
   X43      -10.59794  -0.00024   0.00000  -0.01266  -0.01266 -10.61061
   Y43       -1.50183  -0.00014   0.00000   0.00246   0.00246  -1.49937
   Z43        0.54317   0.00017   0.00000  -0.03812  -0.03812   0.50505
   X44       -9.80833  -0.00006   0.00000   0.02318   0.02318  -9.78515
   Y44        1.00023   0.00004   0.00000  -0.00047  -0.00047   0.99976
   Z44       -1.53288   0.00002   0.00000  -0.03159  -0.03159  -1.56446
   X45       -9.05122  -0.00005   0.00000   0.03435   0.03435  -9.01687
   Y45       -2.18100   0.00017   0.00000  -0.00261  -0.00261  -2.18362
   Z45       -2.30084   0.00028   0.00000  -0.01168  -0.01168  -2.31252
   X46       -5.74245  -0.00017   0.00000  -0.02802  -0.02802  -5.77047
   Y46       -2.25375   0.00037   0.00000   0.00434   0.00434  -2.24941
   Z46        1.16544  -0.00001   0.00000   0.04936   0.04936   1.21480
   X47       -6.38800   0.00006   0.00000   0.02065   0.02065  -6.36735
   Y47        3.44538  -0.00019   0.00000  -0.00101  -0.00101   3.44437
   Z47        0.47250   0.00008   0.00000  -0.02776  -0.02776   0.44474
   X48       -0.05595   0.00001   0.00000  -0.01949  -0.01949  -0.07544
   Y48        2.76320   0.00002   0.00000   0.01697   0.01697   2.78017
   Z48        6.70875  -0.00005   0.00000  -0.02330  -0.02330   6.68546
         Item               Value     Threshold  Converged?
 Maximum Force            0.003693     0.000450     NO 
 RMS     Force            0.000674     0.000300     NO 
 Maximum Displacement     0.137871     0.001800     NO 
 RMS     Displacement     0.025004     0.001200     NO 
 Predicted change in Energy=-5.839161D-04
 GradGradGradGradGradGradGradGradGradGradGradGradGradGradGradGradGradGrad

 Leave Link  103 at Sat Aug 13 20:33:44 2022, MaxMem=  2684354560 cpu:               1.3 elap:               0.1
 (Enter /storage/apps/GAUSSIAN/G16_RevA03/g16/l9999.exe)

 Test job not archived.
 1\1\GINC-T082\Force\RM062X\def2TZVP\C16H24N2O5S1\LV87696\13-Aug-2022\0
 \\#P M062X/Def2TZVP scf=(direct,conver=8) EmpiricalDispersion=GD3 Forc
 e Charge Prop=(Field,Read)\\Gaussian run\\0,1\C,3.617678,-3.620645,-0.
 444281\H,3.769272,-3.719477,-1.518335\H,4.34293,-4.250698,0.071984\C,1
 .901019,-1.456669,1.222924\H,1.255701,-2.332183,1.088188\O,1.500966,-0
 .695199,2.324144\H,0.56797,-0.43942,2.202833\C,3.35035,-1.891705,1.402
 335\H,3.443316,-2.777627,2.03835\O,4.108765,-0.820986,1.914473\H,3.567
 228,-0.392383,2.589967\C,1.97964,-0.671253,-0.097891\H,2.277952,0.3594
 8,0.11953\C,3.784947,-2.171069,-0.031928\H,4.820327,-1.850505,-0.15913
 6\O,2.959501,-1.339484,-0.860522\N,0.753999,-0.607729,-0.852563\C,0.17
 895,-1.786016,-1.325123\H,0.730146,-2.685996,-1.09364\C,-0.936094,-1.8
 07536,-2.047435\H,-1.306468,-2.763152,-2.392736\C,-1.690369,-0.56296,-
 2.420178\H,-1.821411,-0.519978,-3.509884\H,-2.705278,-0.603373,-2.0028
 96\C,-0.959003,0.661024,-1.926935\C,0.177197,0.574823,-1.213761\H,0.66
 9814,1.48161,-0.882155\C,-1.480109,2.018789,-2.188992\O,-0.864196,3.04
 3857,-1.960184\N,-2.758418,2.065509,-2.681079\H,-3.102508,2.965924,-2.
 974929\H,-3.235655,1.240668,-3.011685\H,2.615941,-3.984127,-0.203768\C
 ,0.215225,2.203656,2.792549\C,-1.681393,0.919354,1.309364\C,-2.947965,
 0.875837,0.553884\C,-4.850899,-0.424077,-0.407263\C,-3.539759,-0.28452
 1,0.289475\O,-1.040647,-0.069541,1.610203\S,-1.227799,2.548047,1.77824
 2\H,0.486831,3.142681,3.268924\H,1.042347,1.847352,2.183524\H,-5.60819
 ,-0.794735,0.287431\H,-5.190344,0.529297,-0.811163\H,-4.7897,-1.154138
 ,-1.217554\H,-3.038772,-1.192635,0.616725\H,-3.380384,1.823216,0.25003
 7\H,-0.029609,1.462222,3.55012\\Version=ES64L-G16RevA.03\State=1-A\HF=
 -1507.931953\RMSD=1.396e-09\RMSF=6.736e-04\Dipole=-1.7952052,-1.168867
 6,0.1266749\Quadrupole=5.0777434,-3.0456236,-2.0321198,-2.4232885,7.87
 22541,6.3060467\PG=C01 [X(C16H24N2O5S1)]\\@


 In the race for quality, there is no finish line.
                               -- David T. Kearns
 Job cpu time:       0 days  3 hours 11 minutes 56.2 seconds.
 Elapsed time:       0 days  0 hours 12 minutes  1.7 seconds.
 File lengths (MBytes):  RWF=    435 Int=      0 D2E=      0 Chk=     48 Scr=      1
 Normal termination of Gaussian 16 at Sat Aug 13 20:33:44 2022.
