 Entering Gaussian System, Link 0=g16
 Initial command:
 /storage/apps/GAUSSIAN/G16_RevA03/g16/l1.exe "/scratch/tmp/1019272/Gau-139757.inp" -scrdir="/scratch/tmp/1019272/"
 Entering Link 1 = /storage/apps/GAUSSIAN/G16_RevA03/g16/l1.exe PID=    139758.
  
 Copyright (c) 1988,1990,1992,1993,1995,1998,2003,2009,2016,
            Gaussian, Inc.  All Rights Reserved.
  
 This is part of the Gaussian(R) 16 program.  It is based on
 the Gaussian(R) 09 system (copyright 2009, Gaussian, Inc.),
 the Gaussian(R) 03 system (copyright 2003, Gaussian, Inc.),
 the Gaussian(R) 98 system (copyright 1998, Gaussian, Inc.),
 the Gaussian(R) 94 system (copyright 1995, Gaussian, Inc.),
 the Gaussian 92(TM) system (copyright 1992, Gaussian, Inc.),
 the Gaussian 90(TM) system (copyright 1990, Gaussian, Inc.),
 the Gaussian 88(TM) system (copyright 1988, Gaussian, Inc.),
 the Gaussian 86(TM) system (copyright 1986, Carnegie Mellon
 University), and the Gaussian 82(TM) system (copyright 1983,
 Carnegie Mellon University). Gaussian is a federally registered
 trademark of Gaussian, Inc.
  
 This software contains proprietary and confidential information,
 including trade secrets, belonging to Gaussian, Inc.
  
 This software is provided under written license and may be
 used, copied, transmitted, or stored only in accord with that
 written license.
  
 The following legend is applicable only to US Government
 contracts under FAR:
  
                    RESTRICTED RIGHTS LEGEND
  
 Use, reproduction and disclosure by the US Government is
 subject to restrictions as set forth in subparagraphs (a)
 and (c) of the Commercial Computer Software - Restricted
 Rights clause in FAR 52.227-19.
  
 Gaussian, Inc.
 340 Quinnipiac St., Bldg. 40, Wallingford CT 06492
  
  
 ---------------------------------------------------------------
 Warning -- This program may not be used in any manner that
 competes with the business of Gaussian, Inc. or will provide
 assistance to any competitor of Gaussian, Inc.  The licensee
 of this program is prohibited from giving any competitor of
 Gaussian, Inc. access to this program.  By using this program,
 the user acknowledges that Gaussian, Inc. is engaged in the
 business of creating and licensing software in the field of
 computational chemistry and represents and warrants to the
 licensee that it is not a competitor of Gaussian, Inc. and that
 it will not use this program in any manner prohibited above.
 ---------------------------------------------------------------
  

 Cite this work as:
 Gaussian 16, Revision A.03,
 M. J. Frisch, G. W. Trucks, H. B. Schlegel, G. E. Scuseria, 
 M. A. Robb, J. R. Cheeseman, G. Scalmani, V. Barone, 
 G. A. Petersson, H. Nakatsuji, X. Li, M. Caricato, A. V. Marenich, 
 J. Bloino, B. G. Janesko, R. Gomperts, B. Mennucci, H. P. Hratchian, 
 J. V. Ortiz, A. F. Izmaylov, J. L. Sonnenberg, D. Williams-Young, 
 F. Ding, F. Lipparini, F. Egidi, J. Goings, B. Peng, A. Petrone, 
 T. Henderson, D. Ranasinghe, V. G. Zakrzewski, J. Gao, N. Rega, 
 G. Zheng, W. Liang, M. Hada, M. Ehara, K. Toyota, R. Fukuda, 
 J. Hasegawa, M. Ishida, T. Nakajima, Y. Honda, O. Kitao, H. Nakai, 
 T. Vreven, K. Throssell, J. A. Montgomery, Jr., J. E. Peralta, 
 F. Ogliaro, M. J. Bearpark, J. J. Heyd, E. N. Brothers, K. N. Kudin, 
 V. N. Staroverov, T. A. Keith, R. Kobayashi, J. Normand, 
 K. Raghavachari, A. P. Rendell, J. C. Burant, S. S. Iyengar, 
 J. Tomasi, M. Cossi, J. M. Millam, M. Klene, C. Adamo, R. Cammi, 
 J. W. Ochterski, R. L. Martin, K. Morokuma, O. Farkas, 
 J. B. Foresman, and D. J. Fox, Gaussian, Inc., Wallingford CT, 2016.
 
 ******************************************
 Gaussian 16:  ES64L-G16RevA.03 25-Dec-2016
                13-Aug-2022 
 ******************************************
 %NProcShared=16
 Will use up to   16 processors via shared memory.
 %mem=20GB
 ----------------------------------------------------------------------
 #P M062X/Def2TZVP scf=(direct,conver=8) EmpiricalDispersion=GD3 Force 
 Charge Prop=(Field,Read)
 ----------------------------------------------------------------------
 1/10=7,18=10,28=-2,30=1,38=1,125=101/1,3;
 2/12=2,17=6,18=5,29=2,40=1/2;
 3/5=44,7=101,11=2,25=1,30=1,71=1,74=-55,124=31/1,2,3;
 4//1;
 5/5=2,6=8,38=5/2;
 6/7=2,8=2,9=2,10=2,14=2,15=1,28=1/1,2;
 7/7=1,16=-2,29=1/1,2,3,16;
 1/10=7,18=10,28=-2,30=1/3;
 99/12=1/99;
 Leave Link    1 at Sat Aug 13 20:33:45 2022, MaxMem=  2684354560 cpu:               0.7 elap:               0.1
 (Enter /storage/apps/GAUSSIAN/G16_RevA03/g16/l101.exe)
 ------------
 Gaussian run
 ------------
 Symbolic Z-matrix:
 Charge =  0 Multiplicity = 1
 C                     3.70765  -3.63099  -0.43295 
 H                     3.88561  -3.73589  -1.50237 
 H                     4.43811  -4.23627   0.10521 
 C                     1.91645  -1.47964   1.19624 
 H                     1.28916  -2.36679   1.05285 
 O                     1.48204  -0.71708   2.2831 
 H                     0.54263  -0.4842    2.1648 
 C                     3.36993  -1.89173   1.397 
 H                     3.46978  -2.77186   2.03979 
 O                     4.10745  -0.80626   1.90968 
 H                     3.5559   -0.38439   2.58136 
 C                     2.00719  -0.69916  -0.12345 
 H                     2.31322   0.32925   0.09438 
 C                     3.82672  -2.17406  -0.03178 
 H                     4.85352  -1.82335  -0.15004 
 O                     2.98416  -1.37789  -0.87959 
 N                     0.78216  -0.62664  -0.87619 
 C                     0.19437  -1.79899  -1.35094 
 H                     0.73792  -2.70476  -1.12321 
 C                    -0.92478  -1.80644  -2.06684 
 H                    -1.30801  -2.75787  -2.40989 
 C                    -1.66526  -0.55298  -2.44098 
 H                    -1.77197  -0.50486  -3.53375 
 H                    -2.68889  -0.5846   -2.04304 
 C                    -0.93696   0.66118  -1.91759 
 C                     0.19821   0.56107  -1.20411 
 H                     0.68454   1.46147  -0.84691 
 C                    -1.46247   2.02221  -2.14057 
 O                    -0.92109   3.03888  -1.74497 
 N                    -2.66784   2.08071  -2.79639 
 H                    -2.96722   2.99845  -3.08357 
 H                    -3.00987   1.29412  -3.32062 
 H                     2.71027  -4.01762  -0.21129 
 C                     0.23792   2.23148   2.6854 
 C                    -1.73996   0.92817   1.34306 
 C                    -3.00028   0.88342   0.57393 
 C                    -4.93028  -0.40427  -0.35079 
 C                    -3.63746  -0.26703   0.37883 
 O                    -1.13338  -0.06164   1.70718 
 S                    -1.23314   2.56532   1.70977 
 H                     0.5567    3.18513   3.10042 
 H                     1.02814   1.81979   2.06132 
 H                    -5.71706  -0.73432   0.33175 
 H                    -5.23413   0.5384   -0.80432 
 H                    -4.85568  -1.1658   -1.13036 
 H                    -3.18588  -1.16786   0.78595 
 H                    -3.38495   1.82334   0.19449 
 H                     0.0061    1.53495   3.48838 
 
 ITRead=  0  0  0  0  0  0  0  0  0  0  0  0  0  0  0  0  0  0  0  0
 ITRead=  0  0  0  0  0  0  0  0  0  0  0  0  0  0  0  0  0  0  0  0
 ITRead=  0  0  0  0  0  0  0  0
 MicOpt= -1 -1 -1 -1 -1 -1 -1 -1 -1 -1 -1 -1 -1 -1 -1 -1 -1 -1 -1 -1
 MicOpt= -1 -1 -1 -1 -1 -1 -1 -1 -1 -1 -1 -1 -1 -1 -1 -1 -1 -1 -1 -1
 MicOpt= -1 -1 -1 -1 -1 -1 -1 -1
 NAtoms=     48 NQM=       48 NQMF=       0 NMMI=      0 NMMIF=      0
                NMic=       0 NMicF=      0.
                    Isotopes and Nuclear Properties:
 (Nuclear quadrupole moments (NQMom) in fm**2, nuclear magnetic moments (NMagM)
  in nuclear magnetons)

  Atom         1           2           3           4           5           6           7           8           9          10
 IAtWgt=          12           1           1          12           1          16           1          12           1          16
 AtmWgt=  12.0000000   1.0078250   1.0078250  12.0000000   1.0078250  15.9949146   1.0078250  12.0000000   1.0078250  15.9949146
 NucSpn=           0           1           1           0           1           0           1           0           1           0
 AtZEff=  -0.0000000  -0.0000000  -0.0000000  -0.0000000  -0.0000000  -0.0000000  -0.0000000  -0.0000000  -0.0000000  -0.0000000
 NQMom=    0.0000000   0.0000000   0.0000000   0.0000000   0.0000000   0.0000000   0.0000000   0.0000000   0.0000000   0.0000000
 NMagM=    0.0000000   2.7928460   2.7928460   0.0000000   2.7928460   0.0000000   2.7928460   0.0000000   2.7928460   0.0000000
 AtZNuc=   6.0000000   1.0000000   1.0000000   6.0000000   1.0000000   8.0000000   1.0000000   6.0000000   1.0000000   8.0000000

  Atom        11          12          13          14          15          16          17          18          19          20
 IAtWgt=           1          12           1          12           1          16          14          12           1          12
 AtmWgt=   1.0078250  12.0000000   1.0078250  12.0000000   1.0078250  15.9949146  14.0030740  12.0000000   1.0078250  12.0000000
 NucSpn=           1           0           1           0           1           0           2           0           1           0
 AtZEff=  -0.0000000  -0.0000000  -0.0000000  -0.0000000  -0.0000000  -0.0000000  -0.0000000  -0.0000000  -0.0000000  -0.0000000
 NQMom=    0.0000000   0.0000000   0.0000000   0.0000000   0.0000000   0.0000000   2.0440000   0.0000000   0.0000000   0.0000000
 NMagM=    2.7928460   0.0000000   2.7928460   0.0000000   2.7928460   0.0000000   0.4037610   0.0000000   2.7928460   0.0000000
 AtZNuc=   1.0000000   6.0000000   1.0000000   6.0000000   1.0000000   8.0000000   7.0000000   6.0000000   1.0000000   6.0000000

  Atom        21          22          23          24          25          26          27          28          29          30
 IAtWgt=           1          12           1           1          12          12           1          12          16          14
 AtmWgt=   1.0078250  12.0000000   1.0078250   1.0078250  12.0000000  12.0000000   1.0078250  12.0000000  15.9949146  14.0030740
 NucSpn=           1           0           1           1           0           0           1           0           0           2
 AtZEff=  -0.0000000  -0.0000000  -0.0000000  -0.0000000  -0.0000000  -0.0000000  -0.0000000  -0.0000000  -0.0000000  -0.0000000
 NQMom=    0.0000000   0.0000000   0.0000000   0.0000000   0.0000000   0.0000000   0.0000000   0.0000000   0.0000000   2.0440000
 NMagM=    2.7928460   0.0000000   2.7928460   2.7928460   0.0000000   0.0000000   2.7928460   0.0000000   0.0000000   0.4037610
 AtZNuc=   1.0000000   6.0000000   1.0000000   1.0000000   6.0000000   6.0000000   1.0000000   6.0000000   8.0000000   7.0000000

  Atom        31          32          33          34          35          36          37          38          39          40
 IAtWgt=           1           1           1          12          12          12          12          12          16          32
 AtmWgt=   1.0078250   1.0078250   1.0078250  12.0000000  12.0000000  12.0000000  12.0000000  12.0000000  15.9949146  31.9720718
 NucSpn=           1           1           1           0           0           0           0           0           0           0
 AtZEff=  -0.0000000  -0.0000000  -0.0000000  -0.0000000  -0.0000000  -0.0000000  -0.0000000  -0.0000000  -0.0000000  -0.0000000
 NQMom=    0.0000000   0.0000000   0.0000000   0.0000000   0.0000000   0.0000000   0.0000000   0.0000000   0.0000000   0.0000000
 NMagM=    2.7928460   2.7928460   2.7928460   0.0000000   0.0000000   0.0000000   0.0000000   0.0000000   0.0000000   0.0000000
 AtZNuc=   1.0000000   1.0000000   1.0000000   6.0000000   6.0000000   6.0000000   6.0000000   6.0000000   8.0000000  16.0000000

  Atom        41          42          43          44          45          46          47          48
 IAtWgt=           1           1           1           1           1           1           1           1
 AtmWgt=   1.0078250   1.0078250   1.0078250   1.0078250   1.0078250   1.0078250   1.0078250   1.0078250
 NucSpn=           1           1           1           1           1           1           1           1
 AtZEff=  -0.0000000  -0.0000000  -0.0000000  -0.0000000  -0.0000000  -0.0000000  -0.0000000  -0.0000000
 NQMom=    0.0000000   0.0000000   0.0000000   0.0000000   0.0000000   0.0000000   0.0000000   0.0000000
 NMagM=    2.7928460   2.7928460   2.7928460   2.7928460   2.7928460   2.7928460   2.7928460   2.7928460
 AtZNuc=   1.0000000   1.0000000   1.0000000   1.0000000   1.0000000   1.0000000   1.0000000   1.0000000
 Background charge distribution read from input stream:
 Leave Link  101 at Sat Aug 13 20:33:45 2022, MaxMem=  2684354560 cpu:               2.0 elap:               0.2
 (Enter /storage/apps/GAUSSIAN/G16_RevA03/g16/l103.exe)

 GradGradGradGradGradGradGradGradGradGradGradGradGradGradGradGradGradGrad
 Berny optimization.
 Initialization pass.
 Trust Radius=3.00D-01 FncErr=1.00D-07 GrdErr=1.00D-07 EigMax=2.50D+02 EigMin=1.00D-04
 Number of steps in this run=      2 maximum allowed number of steps=      2.
 GradGradGradGradGradGradGradGradGradGradGradGradGradGradGradGradGradGrad

 Leave Link  103 at Sat Aug 13 20:33:45 2022, MaxMem=  2684354560 cpu:               0.5 elap:               0.1
 (Enter /storage/apps/GAUSSIAN/G16_RevA03/g16/l202.exe)
 ---------------------------------------------------------------------------------------------------
                            Z-MATRIX (ANGSTROMS AND DEGREES)
   CD    Cent   Atom    N1       Length/X        N2       Alpha/Y        N3        Beta/Z          J
 ---------------------------------------------------------------------------------------------------
      1      1  C        0   3.707653         -3.630988         -0.432951
      2      2  H        0   3.885613         -3.735887         -1.502372
      3      3  H        0   4.438105         -4.236267          0.105205
      4      4  C        0   1.916448         -1.479637          1.196241
      5      5  H        0   1.289160         -2.366794          1.052845
      6      6  O        0   1.482037         -0.717082          2.283097
      7      7  H        0   0.542627         -0.484202          2.164802
      8      8  C        0   3.369930         -1.891726          1.397001
      9      9  H        0   3.469776         -2.771859          2.039790
     10     10  O        0   4.107446         -0.806261          1.909683
     11     11  H        0   3.555902         -0.384393          2.581362
     12     12  C        0   2.007195         -0.699159         -0.123453
     13     13  H        0   2.313222          0.329254          0.094378
     14     14  C        0   3.826722         -2.174060         -0.031775
     15     15  H        0   4.853523         -1.823353         -0.150037
     16     16  O        0   2.984162         -1.377885         -0.879588
     17     17  N        0   0.782162         -0.626637         -0.876188
     18     18  C        0   0.194366         -1.798992         -1.350937
     19     19  H        0   0.737920         -2.704763         -1.123211
     20     20  C        0  -0.924778         -1.806436         -2.066845
     21     21  H        0  -1.308005         -2.757874         -2.409888
     22     22  C        0  -1.665259         -0.552981         -2.440977
     23     23  H        0  -1.771971         -0.504858         -3.533746
     24     24  H        0  -2.688885         -0.584595         -2.043036
     25     25  C        0  -0.936961          0.661183         -1.917589
     26     26  C        0   0.198211          0.561066         -1.204108
     27     27  H        0   0.684544          1.461473         -0.846906
     28     28  C        0  -1.462467          2.022208         -2.140566
     29     29  O        0  -0.921094          3.038884         -1.744971
     30     30  N        0  -2.667839          2.080711         -2.796392
     31     31  H        0  -2.967224          2.998454         -3.083569
     32     32  H        0  -3.009868          1.294117         -3.320616
     33     33  H        0   2.710269         -4.017615         -0.211294
     34     34  C        0   0.237918          2.231480          2.685398
     35     35  C        0  -1.739964          0.928173          1.343060
     36     36  C        0  -3.000276          0.883418          0.573929
     37     37  C        0  -4.930276         -0.404273         -0.350791
     38     38  C        0  -3.637455         -0.267034          0.378832
     39     39  O        0  -1.133381         -0.061644          1.707179
     40     40  S        0  -1.233136          2.565316          1.709769
     41     41  H        0   0.556702          3.185131          3.100418
     42     42  H        0   1.028144          1.819793          2.061319
     43     43  H        0  -5.717062         -0.734315          0.331747
     44     44  H        0  -5.234131          0.538402         -0.804316
     45     45  H        0  -4.855675         -1.165795         -1.130357
     46     46  H        0  -3.185877         -1.167859          0.785945
     47     47  H        0  -3.384949          1.823342          0.194491
     48     48  H        0   0.006097          1.534946          3.488379
 ---------------------------------------------------------------------------------------------------
                         Z-Matrix orientation:                         
 ---------------------------------------------------------------------
 Center     Atomic      Atomic             Coordinates (Angstroms)
 Number     Number       Type             X           Y           Z
 ---------------------------------------------------------------------
      1          6           0        3.707653   -3.630988   -0.432951
      2          1           0        3.885613   -3.735887   -1.502372
      3          1           0        4.438105   -4.236267    0.105205
      4          6           0        1.916448   -1.479637    1.196241
      5          1           0        1.289160   -2.366794    1.052845
      6          8           0        1.482037   -0.717082    2.283097
      7          1           0        0.542627   -0.484202    2.164802
      8          6           0        3.369930   -1.891726    1.397001
      9          1           0        3.469776   -2.771859    2.039790
     10          8           0        4.107446   -0.806261    1.909683
     11          1           0        3.555902   -0.384393    2.581362
     12          6           0        2.007195   -0.699159   -0.123453
     13          1           0        2.313222    0.329254    0.094378
     14          6           0        3.826722   -2.174060   -0.031775
     15          1           0        4.853523   -1.823353   -0.150037
     16          8           0        2.984162   -1.377885   -0.879588
     17          7           0        0.782162   -0.626637   -0.876188
     18          6           0        0.194366   -1.798992   -1.350937
     19          1           0        0.737920   -2.704763   -1.123211
     20          6           0       -0.924778   -1.806436   -2.066845
     21          1           0       -1.308005   -2.757874   -2.409888
     22          6           0       -1.665259   -0.552981   -2.440977
     23          1           0       -1.771971   -0.504858   -3.533746
     24          1           0       -2.688885   -0.584595   -2.043036
     25          6           0       -0.936961    0.661183   -1.917589
     26          6           0        0.198211    0.561066   -1.204108
     27          1           0        0.684544    1.461473   -0.846906
     28          6           0       -1.462467    2.022208   -2.140566
     29          8           0       -0.921094    3.038884   -1.744971
     30          7           0       -2.667839    2.080711   -2.796392
     31          1           0       -2.967224    2.998454   -3.083569
     32          1           0       -3.009868    1.294117   -3.320616
     33          1           0        2.710269   -4.017615   -0.211294
     34          6           0        0.237918    2.231480    2.685398
     35          6           0       -1.739964    0.928173    1.343060
     36          6           0       -3.000276    0.883418    0.573929
     37          6           0       -4.930276   -0.404273   -0.350791
     38          6           0       -3.637455   -0.267034    0.378832
     39          8           0       -1.133381   -0.061644    1.707179
     40         16           0       -1.233136    2.565316    1.709769
     41          1           0        0.556702    3.185131    3.100418
     42          1           0        1.028144    1.819793    2.061319
     43          1           0       -5.717062   -0.734315    0.331747
     44          1           0       -5.234131    0.538402   -0.804316
     45          1           0       -4.855675   -1.165795   -1.130357
     46          1           0       -3.185877   -1.167859    0.785945
     47          1           0       -3.384949    1.823342    0.194491
     48          1           0        0.006097    1.534946    3.488379
 ---------------------------------------------------------------------
                    Distance matrix (angstroms):
                    1          2          3          4          5
     1  C    0.000000
     2  H    1.089190   0.000000
     3  H    1.090658   1.771985   0.000000
     4  C    3.238980   4.031226   3.892059   0.000000
     5  H    3.107231   3.891673   3.782698   1.095947   0.000000
     6  O    4.563018   5.405565   5.085884   1.396946   2.066947
     7  H    5.164104   5.932721   5.787459   1.953557   2.310392
     8  C    2.547119   3.474654   2.882119   1.524051   2.161883
     9  H    2.628524   3.694480   2.612426   2.189575   2.427596
    10  O    3.691457   4.502670   3.889784   2.400606   3.333492
    11  H    4.432775   5.293213   4.663322   2.409550   3.377040
    12  C    3.403376   3.827739   4.297993   1.535895   2.163390
    13  H    4.231552   4.641917   5.035795   2.154906   3.039085
    14  C    1.515836   2.146026   2.155284   2.374741   2.766364
    15  H    2.158843   2.534452   2.461681   3.249156   3.800913
    16  O    2.408194   2.600124   3.354715   2.336543   2.754137
    17  N    4.216762   4.437449   5.230533   2.511807   2.646953
    18  C    4.067197   4.171307   5.105877   3.091225   2.701692
    19  H    3.186482   3.333909   4.188780   2.875712   2.270090
    20  C    5.240040   5.213566   6.275539   4.339020   3.866263
    21  H    5.461450   5.362254   6.444309   5.003514   4.346117
    22  C    6.509568   6.467152   7.569722   5.188128   4.921920
    23  H    7.029502   6.824536   8.107430   6.076792   5.820150
    24  H    7.265575   7.310744   8.291178   5.701150   5.346546
    25  C    6.496100   6.539407   7.547718   4.735081   4.790380
    26  C    5.521248   5.670071   6.534937   3.588660   3.854396
    27  H    5.936641   6.139139   6.889120   3.787105   4.316276
    28  C    7.848867   7.884473   8.889811   5.900362   6.085447
    29  O    8.223982   8.310283   9.223448   6.092570   6.475674
    30  N    8.880105   8.857485   9.940720   7.045061   7.089060
    31  H    9.773907   9.737192  10.832745   7.887986   8.000788
    32  H    8.815915   8.726661   9.889070   7.236318   7.142204
    33  H    1.092423   1.768527   1.770141   3.008760   2.518493
    34  C    7.492109   8.151844   8.132080   4.336755   4.991439
    35  C    7.322342   7.842006   8.146917   4.380463   4.485156
    36  C    8.148005   8.547776   9.042145   5.490490   5.403008
    37  C    9.221294   9.494508  10.132062   7.101221   6.671062
    38  C    8.119470   8.495200   9.002464   5.743205   5.397668
    39  O    6.384041   6.999399   7.143896   3.401943   3.407429
    40  S    8.209557   8.730670   8.999952   5.152207   5.578462
    41  H    8.298956   8.953648   8.894590   5.218703   5.962627
    42  H    6.565985   7.192399   7.220116   3.524724   4.314239
    43  H    9.889425  10.226671  10.744413   7.718376   7.229946
    44  H    9.873056  10.095868  10.824825   7.694510   7.378519
    45  H    8.938352   9.118875   9.865534   7.167510   6.630819
    46  H    7.421150   7.863659   8.246432   5.128281   4.640543
    47  H    8.969303   9.308353   9.895808   6.325977   6.335717
    48  H    7.467611   8.230427   8.024678   4.241586   4.775107
                    6          7          8          9         10
     6  O    0.000000
     7  H    0.975048   0.000000
     8  C    2.393553   3.250275   0.000000
     9  H    2.869218   3.717150   1.094432   0.000000
    10  O    2.653331   3.588418   1.408903   2.070538   0.000000
    11  H    2.121452   3.043569   1.925967   2.449635   0.966088
    12  C    2.463249   2.725303   2.364539   3.333894   2.925093
    13  H    2.564406   2.843127   2.783202   3.839160   2.793558
    14  C    3.602633   4.297191   1.526359   2.185442   2.391430
    15  H    4.302429   5.073030   2.144539   2.758580   2.415275
    16  O    3.563091   4.003508   2.365525   3.271353   3.060809
    17  N    3.237142   3.053733   3.669384   4.508678   4.341757
    18  C    4.004351   3.769666   4.200473   4.813711   5.189350
    19  H    4.013418   3.972412   3.733628   4.179966   4.914922
    20  C    5.089346   4.669948   5.518154   6.091683   6.491256
    21  H    5.828660   5.433435   6.093086   6.528937   7.196846
    22  C    5.678845   5.108101   6.471124   7.167236   7.233016
    23  H    6.668528   6.150711   7.257742   7.979944   8.018061
    24  H    6.010788   5.306472   7.088842   7.706017   7.865319
    25  C    5.039537   4.490769   6.004428   6.845872   6.499803
    26  C    3.929691   3.544117   4.779305   5.686335   5.181447
    27  H    3.896026   3.588339   4.846685   5.831949   4.945468
    28  C    5.978512   5.370166   7.154392   8.048943   7.445044
    29  O    6.008964   5.462686   7.252295   8.207855   7.309436
    30  N    7.130941   6.441996   8.355804   9.198174   8.739922
    31  H    7.899509   7.210641   9.173270  10.048895   9.458297
    32  H    7.458132   6.772920   8.550282   9.340873   9.078754
    33  H    4.315560   4.778024   2.746119   2.682562   4.094318
    34  C    3.225476   2.781869   5.335756   5.991253   4.980246
    35  C    3.737890   2.807184   5.836588   6.427835   6.125482
    36  C    5.057073   4.117453   6.997028   7.574389   7.426908
    37  C    6.939234   6.023891   8.611661   9.048824   9.324793
    38  C    5.480690   4.550817   7.264966   7.716584   7.913139
    39  O    2.757117   1.788009   4.870854   5.352098   5.297332
    40  S    4.298256   3.558082   6.414925   7.121217   6.318965
    41  H    4.092863   3.786764   6.048996   6.715405   5.473284
    42  H    2.586685   2.356868   4.438542   5.200509   4.049846
    43  H    7.458893   6.527354   9.222136   9.563838   9.950679
    44  H    7.497684   6.575128   9.207670   9.736774   9.820335
    45  H    7.212462   6.361156   8.635687   9.052205   9.471465
    46  H    4.922813   4.033655   6.623894   6.960076   7.388241
    47  H    5.873975   4.963138   7.802317   8.456255   8.123588
    48  H    2.950040   2.473192   5.237491   5.713497   4.979417
                   11         12         13         14         15
    11  H    0.000000
    12  C    3.132666   0.000000
    13  H    2.870302   1.094868   0.000000
    14  C    3.178795   2.344017   2.927999   0.000000
    15  H    3.348875   3.060409   3.338650   1.091468   0.000000
    16  O    3.645832   1.409565   2.076799   1.436172   2.055528
    17  N    4.439253   1.439644   2.049359   3.518081   4.305276
    18  C    5.363207   2.450041   3.332854   3.882638   4.811496
    19  H    5.200865   2.575465   3.628961   3.318671   4.319970
    20  C    6.610940   3.687723   4.440349   5.182028   6.087955
    21  H    7.362308   4.522902   5.377266   5.688733   6.629079
    22  C    7.246574   4.345021   4.799445   6.212407   7.025437
    23  H    8.111429   5.094109   5.527009   6.811417   7.555467
    24  H    7.773191   5.074553   5.515862   7.001764   7.874382
    25  C    6.443571   3.706415   3.836910   5.855559   6.544224
    26  C    5.147598   2.455281   2.492604   4.692693   5.335583
    27  H    4.837865   2.634601   2.195570   4.873892   5.353139
    28  C    7.298792   4.849035   4.702860   7.073273   7.657824
    29  O    7.104891   5.017685   4.602836   7.256141   7.715657
    30  N    8.586730   6.060381   6.019562   8.241693   8.877826
    31  H    9.278269   6.868732   6.716181   9.067858   9.644663
    32  H    8.986661   6.274227   6.397533   8.341684   9.033499
    33  H    4.659863   3.393255   4.375654   2.162727   3.067911
    34  C    4.226421   4.428163   3.826060   6.298518   6.766474
    35  C    5.594856   4.340515   4.283250   6.519357   7.298925
    36  C    6.972847   5.297703   5.363798   7.504862   8.338639
    37  C    8.978482   6.947456   7.294142   8.939739   9.888216
    38  C    7.523915   5.683405   5.987239   7.714874   8.648615
    39  O    4.780977   3.690644   3.825311   5.664705   6.511213
    40  S    5.691691   4.951489   4.492896   7.148204   7.730893
    41  H    4.691068   5.252141   4.503074   7.016024   7.356157
    42  H    3.393883   3.475182   2.782443   5.306971   5.726791
    43  H    9.548355   7.737738   8.103887   9.658614  10.637452
    44  H    9.464621   7.377800   7.603547   9.489643  10.381076
    45  H    9.227246   6.952021   7.424839   8.809512   9.780692
    46  H    7.020607   5.292890   5.741054   7.131455   8.120202
    47  H    7.664637   5.961486   5.891644   8.248552   9.016069
    48  H    4.136140   4.694779   4.277355   6.383211   6.929198
                   16         17         18         19         20
    16  O    0.000000
    17  N    2.326626   0.000000
    18  C    2.860500   1.394743   0.000000
    19  H    2.620221   2.093224   1.080616   0.000000
    20  C    4.107681   2.392328   1.328557   2.112345   0.000000
    21  H    4.761185   3.356070   2.073150   2.417471   1.081562
    22  C    4.973481   2.905832   2.489766   3.484529   1.503142
    23  H    5.516116   3.687959   3.210283   4.117015   2.136268
    24  H    5.845202   3.662167   3.204200   4.133302   2.146051
    25  C    4.539873   2.387128   2.766488   3.842636   2.472159
    26  C    3.409746   1.363513   2.364624   3.311113   2.758711
    27  H    3.653938   2.090596   3.335409   4.175729   3.841536
    28  C    5.737875   3.695050   4.239125   5.312341   3.866919
    29  O    5.958839   4.134236   4.980417   6.010690   4.856001
    30  N    6.897908   4.787423   5.033255   6.107331   4.322084
    31  H    7.709012   5.663189   6.001096   7.077979   5.319049
    32  H    7.001900   4.903470   4.869710   5.904705   3.941189
    33  H    2.736751   3.957071   3.542717   2.538766   4.641761
    34  C    5.768752   4.598905   5.704262   6.254758   6.343535
    35  C    5.707489   3.701839   4.293796   5.041887   4.446354
    36  C    6.560465   4.323187   4.594145   5.452471   4.303103
    37  C    7.991613   5.740857   5.404395   6.165820   4.577654
    38  C    6.831063   4.608406   4.474578   5.229012   3.963548
    39  O    5.037660   3.265319   3.759437   4.301041   4.163060
    40  S    6.327654   4.575715   5.518412   6.299569   5.785336
    41  H    6.523352   5.513057   6.692334   7.250016   7.335607
    42  H    4.764461   3.830728   5.043241   5.540494   5.831396
    43  H    8.808678   6.611400   6.237784   6.904083   5.465224
    44  H    8.439085   6.128480   5.935553   6.803323   5.065843
    45  H    7.846713   5.669259   5.094360   5.801446   4.091379
    46  H    6.394333   4.336005   4.048535   4.626352   3.695776
    47  H    7.208819   4.951118   5.321762   6.264034   4.933697
    48  H    6.035942   4.931953   5.879589   6.306937   6.549189
                   21         22         23         24         25
    21  H    0.000000
    22  C    2.233864   0.000000
    23  H    2.560157   1.099021   0.000000
    24  H    2.600875   1.098711   1.751943   0.000000
    25  C    3.474188   1.509486   2.160754   2.153355   0.000000
    26  C    3.839004   2.498693   3.231876   3.217400   1.344505
    27  H    4.920981   3.481474   4.137636   4.122759   2.101453
    28  C    4.790154   2.600571   2.902207   2.882540   1.475894
    29  O    5.847582   3.733591   4.059780   4.042713   2.384011
    30  N    5.040877   2.840391   2.833979   2.769809   2.404848
    31  H    6.028446   3.836760   3.728872   3.741446   3.308219
    32  H    4.488251   2.448164   2.194111   2.294515   2.581866
    33  H    4.750504   6.010027   6.593074   6.655206   6.172915
    34  C    7.296949   6.136369   7.085545   6.233341   5.003365
    35  C    5.278082   4.064275   5.083093   3.828128   3.368669
    36  C    5.002595   3.596550   4.506555   3.016709   3.242579
    37  C    4.785412   3.879604   4.485110   2.814257   4.420025
    38  C    4.405404   3.452918   4.341066   2.620320   3.664397
    39  O    4.924469   4.210879   5.298257   4.093554   3.701351
    40  S    6.731533   5.209530   6.100062   5.111232   4.107453
    41  H    8.316244   7.043980   7.940458   7.155403   5.812206
    42  H    6.812072   5.758050   6.674534   6.036813   4.586472
    43  H    5.572355   4.913043   5.527968   3.851216   5.464091
    44  H    5.371942   4.075123   4.530423   3.045296   4.440734
    45  H    4.093639   3.503144   3.965141   2.421932   4.394758
    46  H    4.033348   3.619859   4.593303   2.930927   3.963851
    47  H    5.664276   3.943341   4.682090   3.359939   3.435715
    48  H    7.412471   6.504624   7.525461   6.507836   5.556736
                   26         27         28         29         30
    26  C    0.000000
    27  H    1.083903   0.000000
    28  C    2.402029   2.568586   0.000000
    29  O    2.772176   2.423390   1.217871   0.000000
    30  N    3.613714   3.927139   1.373482   2.252709   0.000000
    31  H    4.415112   4.549767   2.026476   2.445430   1.007152
    32  H    3.912639   4.449262   2.077759   3.144813   1.005249
    33  H    5.316054   5.876051   7.590341   8.082892   8.532078
    34  C    4.233216   3.642740   5.121038   4.650095   6.206140
    35  C    3.221701   3.310377   3.661908   3.829045   4.395948
    36  C    3.673642   3.991343   3.321172   3.787655   3.592087
    37  C    5.287855   5.937452   4.595302   5.465584   4.156288
    38  C    4.231286   4.813507   4.039625   4.776845   4.066216
    39  O    3.261364   3.485411   4.388152   4.644963   5.217892
    40  S    3.815292   3.381206   3.895207   3.500981   4.753809
    41  H    5.054026   4.309142   5.735621   5.067846   6.811004
    42  H    3.596692   2.950293   4.888758   4.446747   6.109478
    43  H    6.247185   6.869590   5.640242   6.446014   5.196863
    44  H    5.447081   5.990375   4.267633   5.073414   3.596239
    45  H    5.341278   6.138152   4.764215   5.791201   4.254656
    46  H    4.289702   4.955779   4.659521   5.406613   4.863611
    47  H    4.048266   4.216187   3.031167   3.362980   3.086400
    48  H    4.796330   4.388665   5.837733   5.523537   6.851725
                   31         32         33         34         35
    31  H    0.000000
    32  H    1.721271   0.000000
    33  H    9.471490   8.402520   0.000000
    34  C    6.643957   6.891949   7.318096   0.000000
    35  C    5.038579   4.847313   6.832379   2.722590   0.000000
    36  C    4.225134   3.916152   7.566176   4.094078   1.477143
    37  C    4.785415   3.923309   8.453025   6.547967   3.850017
    38  C    4.806334   4.064108   7.396533   5.155709   2.441050
    39  O    5.973144   5.535162   5.839854   2.845310   1.216661
    40  S    5.115736   5.484295   7.910493   1.796468   1.752594
    41  H    7.120014   7.584592   8.214916   1.087803   3.668357
    42  H    6.619825   6.748859   6.486112   1.087850   2.995547
    43  H    5.758434   4.978272   9.060621   7.056727   4.427632
    44  H    4.047928   3.442414   9.177279   6.707305   4.119751
    45  H    4.972148   3.775633   8.137633   7.214302   4.495570
    46  H    5.690265   4.791257   6.624208   5.185152   2.606605
    47  H    3.507287   3.574457   8.451812   4.415468   2.196933
    48  H    7.360231   7.450937   7.199379   1.087970   2.831836
                   36         37         38         39         40
    36  C    0.000000
    37  C    2.497630   0.000000
    38  C    1.329511   1.490829   0.000000
    39  O    2.379642   4.332326   2.842020   0.000000
    40  S    2.691040   5.170417   3.946435   2.628855   0.000000
    41  H    4.932861   7.409561   6.075807   3.916509   2.349808
    42  H    4.395144   6.802023   5.380839   2.887457   2.406819
    43  H    3.171220   1.092620   2.131979   4.832642   5.735164
    44  H    2.647396   1.089334   2.144281   4.846010   5.141689
    45  H    3.247518   1.092339   2.137635   4.808974   5.925394
    46  H    2.070540   2.217693   1.086807   2.507015   4.313148
    47  H    1.084160   2.765436   2.113625   3.303174   2.734391
    48  H    4.237545   6.547333   5.117801   2.649563   2.400170
                   41         42         43         44         45
    41  H    0.000000
    42  H    1.779363   0.000000
    43  H    7.898589   7.417054   0.000000
    44  H    7.468994   7.004992   1.773040   0.000000
    45  H    8.131657   7.329383   1.750974   1.775900   0.000000
    46  H    6.189685   5.320772   2.607902   3.104126   2.541740
    47  H    5.082863   4.791706   3.463986   2.463364   3.585136
    48  H    1.782355   1.778263   6.918701   6.846920   7.229353
                   46         47         48
    46  H    0.000000
    47  H    3.055606   0.000000
    48  H    4.979659   4.736250   0.000000
 Stoichiometry    C16H24N2O5S
 Framework group  C1[X(C16H24N2O5S)]
 Deg. of freedom   138
 Full point group                 C1      NOp   1
 Largest Abelian subgroup         C1      NOp   1
 Largest concise Abelian subgroup C1      NOp   1
                         Standard orientation:                         
 ---------------------------------------------------------------------
 Center     Atomic      Atomic             Coordinates (Angstroms)
 Number     Number       Type             X           Y           Z
 ---------------------------------------------------------------------
      1          6           0        4.804181   -1.862947    0.603021
      2          1           0        4.812311   -2.815330    0.074594
      3          1           0        5.815176   -1.645501    0.949633
      4          6           0        2.555937    0.466765    0.697020
      5          1           0        2.391466   -0.164705    1.577529
      6          8           0        2.026155    1.746352    0.879905
      7          1           0        1.080817    1.679415    1.109196
      8          6           0        4.045578    0.559103    0.388516
      9          1           0        4.653387    0.669196    1.291970
     10          8           0        4.282151    1.617535   -0.510796
     11          1           0        3.731246    2.357677   -0.224407
     12          6           0        2.036323   -0.256101   -0.554555
     13          1           0        1.870154    0.482186   -1.345792
     14          6           0        4.312166   -0.766113   -0.320362
     15          1           0        5.022594   -0.596109   -1.131344
     16          8           0        3.059677   -1.161213   -0.901531
     17          7           0        0.800652   -0.973264   -0.377441
     18          6           0        0.741061   -2.030085    0.530790
     19          1           0        1.670896   -2.248250    1.036302
     20          6           0       -0.359123   -2.746996    0.732527
     21          1           0       -0.318217   -3.560094    1.444548
     22          6           0       -1.646432   -2.494502   -0.001311
     23          1           0       -1.960332   -3.414432   -0.514186
     24          1           0       -2.449603   -2.262240    0.711527
     25          6           0       -1.474988   -1.362114   -0.984597
     26          6           0       -0.311945   -0.700686   -1.117033
     27          1           0       -0.237192    0.107777   -1.835118
     28          6           0       -2.597191   -0.906120   -1.827802
     29          8           0       -2.520940   -0.000574   -2.638593
     30          7           0       -3.791682   -1.545757   -1.603062
     31          1           0       -4.525507   -1.350389   -2.264640
     32          1           0       -3.823598   -2.426095   -1.118798
     33          1           0        4.154649   -1.960165    1.475972
     34          6           0       -0.335644    3.482165   -0.466408
     35          6           0       -1.701976    1.491322    0.791440
     36          6           0       -2.917491    0.697158    1.063061
     37          6           0       -4.173293   -0.924140    2.488722
     38          6           0       -2.979146   -0.113692    2.114879
     39          8           0       -0.653919    1.352654    1.393613
     40         16           0       -1.945775    2.685438   -0.468019
     41          1           0       -0.420497    4.352173   -1.113865
     42          1           0        0.426818    2.809402   -0.853008
     43          1           0       -4.581718   -0.579278    3.441653
     44          1           0       -4.952743   -0.858773    1.730544
     45          1           0       -3.900914   -1.972671    2.628713
     46          1           0       -2.098894   -0.184140    2.748395
     47          1           0       -3.752465    0.817236    0.382031
     48          1           0       -0.071339    3.793096    0.542128
 ---------------------------------------------------------------------
 Rotational constants (GHZ):           0.3263831           0.1594488           0.1372934
 Leave Link  202 at Sat Aug 13 20:33:45 2022, MaxMem=  2684354560 cpu:               0.4 elap:               0.1
 (Enter /storage/apps/GAUSSIAN/G16_RevA03/g16/l301.exe)
 Standard basis: def2TZVP (5D, 7F)
 Ernie: Thresh=  0.10000D-02 Tol=  0.10000D-05 Strict=F.
 There are  1014 symmetry adapted cartesian basis functions of A   symmetry.
 There are   894 symmetry adapted basis functions of A   symmetry.
   894 basis functions,  1434 primitive gaussians,  1014 cartesian basis functions
    95 alpha electrons       95 beta electrons
       nuclear repulsion energy      2470.5985911268 Hartrees.
 IExCor= 4336 DFT=T Ex+Corr=M062X ExCW=0 ScaHFX=  0.540000
 ScaDFX=  1.000000  1.000000  1.000000  1.000000 ScalE2=  1.000000  1.000000
 IRadAn=      5 IRanWt=     -1 IRanGd=            0 ICorTp=0 IEmpDi=131
 NAtoms=   48 NActive=   48 NUniq=   48 SFac= 1.00D+00 NAtFMM=   60 NAOKFM=F Big=F
 Integral buffers will be    131072 words long.
 Raffenetti 2 integral format.
 Two-electron integral symmetry is turned on.
 R6Disp:  Grimme-D3 Dispersion energy=       -0.0043491787 Hartrees.
 Nuclear repulsion after empirical dispersion term =     2470.5942419481 Hartrees.
 Leave Link  301 at Sat Aug 13 20:33:45 2022, MaxMem=  2684354560 cpu:               1.6 elap:               0.1
 (Enter /storage/apps/GAUSSIAN/G16_RevA03/g16/l302.exe)
 NPDir=0 NMtPBC=     1 NCelOv=     1 NCel=       1 NClECP=     1 NCelD=      1
         NCelK=      1 NCelE2=     1 NClLst=     1 CellRange=     0.0.
 One-electron integrals computed using PRISM.
 One-electron integral symmetry used in STVInt
   1 Symmetry operations used in ECPInt.
 ECPInt:  NShTT=   65703 NPrTT=  200010 LenC2=   56681 LenP2D=  120341.
 LDataN:  DoStor=T MaxTD1= 6 Len=  172
 NBasis=   894 RedAO= T EigKep=  3.19D-05  NBF=   894
 NBsUse=   894 1.00D-06 EigRej= -1.00D+00 NBFU=   894
 Precomputing XC quadrature grid using
 IXCGrd= 4 IRadAn=           5 IRanWt=          -1 IRanGd=           0 AccXCQ= 0.00D+00.
 Generated NRdTot=       0 NPtTot=           0 NUsed=           0 NTot=          32
 NSgBfM=   998   998   998   998   998 MxSgAt=    48 MxSgA2=    48.
 Leave Link  302 at Sat Aug 13 20:33:47 2022, MaxMem=  2684354560 cpu:              20.2 elap:               1.3
 (Enter /storage/apps/GAUSSIAN/G16_RevA03/g16/l303.exe)
 DipDrv:  MaxL=1.
 Leave Link  303 at Sat Aug 13 20:33:47 2022, MaxMem=  2684354560 cpu:               2.4 elap:               0.2
 (Enter /storage/apps/GAUSSIAN/G16_RevA03/g16/l401.exe)
 ExpMin= 9.52D-02 ExpMax= 6.07D+04 ExpMxC= 2.07D+03 IAcc=3 IRadAn=         5 AccDes= 0.00D+00
 Harris functional with IExCor= 1009 and IRadAn=       5 diagonalized for initial guess.
 HarFok:  IExCor= 1009 AccDes= 0.00D+00 IRadAn=         5 IDoV= 1 UseB2=F ITyADJ=14
 ICtDFT=  3500011 ScaDFX=  1.000000  1.000000  1.000000  1.000000
 FoFCou: FMM=F IPFlag=           0 FMFlag=      100000 FMFlg1=           0
         NFxFlg=           0 DoJE=T BraDBF=F KetDBF=T FulRan=T
         wScrn=  0.000000 ICntrl=       500 IOpCl=  0 I1Cent=   200000004 NGrid=           0
         NMat0=    1 NMatS0=      1 NMatT0=    0 NMatD0=    1 NMtDS0=    0 NMtDT0=    0
 Petite list used in FoFCou.
 Harris En= -1507.25870936128    
 JPrj=0 DoOrth=F DoCkMO=F.
 Leave Link  401 at Sat Aug 13 20:33:51 2022, MaxMem=  2684354560 cpu:              62.5 elap:               4.0
 (Enter /storage/apps/GAUSSIAN/G16_RevA03/g16/l502.exe)
 Integral symmetry usage will be decided dynamically.
 Closed shell SCF:
 Using DIIS extrapolation, IDIIS=  1040.
 NGot=  2684354560 LenX=  2682272944 LenY=  2681243734
 Requested convergence on RMS density matrix=1.00D-08 within 128 cycles.
 Requested convergence on MAX density matrix=1.00D-06.
 Requested convergence on             energy=1.00D-06.
 No special actions if energy rises.
 Fock matrices will be formed incrementally for  20 cycles.
 Integral accuracy reduced to 1.0D-05 until final iterations.

 Cycle   1  Pass 0  IDiag  1:
 FoFJK:  IHMeth= 1 ICntrl=       0 DoSepK=F KAlg= 0 I1Cent=           0 FoldK=F
 IRaf= 790000000 NMat=       1 IRICut=       1 DoRegI=T DoRafI=F ISym2E= 0 IDoP0=0 IntGTp=1.
 FoFCou: FMM=F IPFlag=           0 FMFlag=      100000 FMFlg1=           0
         NFxFlg=           0 DoJE=F BraDBF=F KetDBF=F FulRan=T
         wScrn=  0.000000 ICntrl=         0 IOpCl=  0 I1Cent=           0 NGrid=           0
         NMat0=    1 NMatS0=      1 NMatT0=    0 NMatD0=    1 NMtDS0=    0 NMtDT0=    0
 Symmetry not used in FoFCou.
 E= -1507.18973782386    
 DIIS: error= 1.35D-02 at cycle   1 NSaved=   1.
 NSaved= 1 IEnMin= 1 EnMin= -1507.18973782386     IErMin= 1 ErrMin= 1.35D-02
 ErrMax= 1.35D-02  0.00D+00 EMaxC= 1.00D-01 BMatC= 1.00D+00 BMatP= 1.00D+00
 IDIUse=3 WtCom= 8.65D-01 WtEn= 1.35D-01
 Coeff-Com:  0.100D+01
 Coeff-En:   0.100D+01
 Coeff:      0.100D+01
 Gap=     0.309 Goal=   None    Shift=    0.000
 GapD=    0.309 DampG=1.000 DampE=0.500 DampFc=0.5000 IDamp=-1.
 Damping current iteration by 5.00D-01
 RMSDP=4.43D-03 MaxDP=1.73D+00              OVMax= 2.57D-01

 Cycle   2  Pass 0  IDiag  1:
 RMSU=  2.21D-03    CP:  1.03D+00
 E= -1507.53474554916     Delta-E=       -0.345007725303 Rises=F Damp=T
 DIIS: error= 3.67D-03 at cycle   2 NSaved=   2.
 NSaved= 2 IEnMin= 2 EnMin= -1507.53474554916     IErMin= 2 ErrMin= 3.67D-03
 ErrMax= 3.67D-03  0.00D+00 EMaxC= 1.00D-01 BMatC= 8.61D-02 BMatP= 1.00D+00
 IDIUse=3 WtCom= 9.63D-01 WtEn= 3.67D-02
 Coeff-Com: -0.174D-01 0.102D+01
 Coeff-En:   0.134D-01 0.987D+00
 Coeff:     -0.163D-01 0.102D+01
 Gap=     0.304 Goal=   None    Shift=    0.000
 RMSDP=1.30D-03 MaxDP=4.92D-01 DE=-3.45D-01 OVMax= 1.71D-01

 Cycle   3  Pass 0  IDiag  1:
 RMSU=  1.03D-03    CP:  1.00D+00  6.42D-01
 E= -1507.89320679770     Delta-E=       -0.358461248541 Rises=F Damp=F
 DIIS: error= 5.96D-03 at cycle   3 NSaved=   3.
 NSaved= 3 IEnMin= 3 EnMin= -1507.89320679770     IErMin= 2 ErrMin= 3.67D-03
 ErrMax= 5.96D-03  0.00D+00 EMaxC= 1.00D-01 BMatC= 5.07D-02 BMatP= 8.61D-02
 IDIUse=3 WtCom= 9.40D-01 WtEn= 5.96D-02
 Coeff-Com: -0.837D-01 0.456D+00 0.627D+00
 Coeff-En:   0.000D+00 0.000D+00 0.100D+01
 Coeff:     -0.787D-01 0.429D+00 0.650D+00
 Gap=     0.214 Goal=   None    Shift=    0.000
 RMSDP=3.62D-04 MaxDP=6.20D-02 DE=-3.58D-01 OVMax= 6.90D-02

 Cycle   4  Pass 0  IDiag  1:
 RMSU=  3.05D-04    CP:  1.01D+00  7.21D-01  9.18D-01
 E= -1507.92517759536     Delta-E=       -0.031970797658 Rises=F Damp=F
 DIIS: error= 2.19D-03 at cycle   4 NSaved=   4.
 NSaved= 4 IEnMin= 4 EnMin= -1507.92517759536     IErMin= 4 ErrMin= 2.19D-03
 ErrMax= 2.19D-03  0.00D+00 EMaxC= 1.00D-01 BMatC= 1.10D-02 BMatP= 5.07D-02
 IDIUse=3 WtCom= 9.78D-01 WtEn= 2.19D-02
 Coeff-Com: -0.355D-01 0.958D-01 0.355D+00 0.585D+00
 Coeff-En:   0.000D+00 0.000D+00 0.155D+00 0.845D+00
 Coeff:     -0.347D-01 0.937D-01 0.351D+00 0.590D+00
 Gap=     0.213 Goal=   None    Shift=    0.000
 RMSDP=1.25D-04 MaxDP=1.48D-02 DE=-3.20D-02 OVMax= 1.92D-02

 Cycle   5  Pass 0  IDiag  1:
 RMSU=  7.88D-05    CP:  1.01D+00  7.06D-01  9.45D-01  7.17D-01
 E= -1507.93330296756     Delta-E=       -0.008125372197 Rises=F Damp=F
 DIIS: error= 4.23D-04 at cycle   5 NSaved=   5.
 NSaved= 5 IEnMin= 5 EnMin= -1507.93330296756     IErMin= 5 ErrMin= 4.23D-04
 ErrMax= 4.23D-04  0.00D+00 EMaxC= 1.00D-01 BMatC= 3.91D-04 BMatP= 1.10D-02
 IDIUse=3 WtCom= 9.96D-01 WtEn= 4.23D-03
 Coeff-Com: -0.968D-02 0.164D-01 0.122D+00 0.260D+00 0.611D+00
 Coeff-En:   0.000D+00 0.000D+00 0.000D+00 0.000D+00 0.100D+01
 Coeff:     -0.964D-02 0.164D-01 0.122D+00 0.259D+00 0.613D+00
 Gap=     0.213 Goal=   None    Shift=    0.000
 RMSDP=5.04D-05 MaxDP=1.84D-02 DE=-8.13D-03 OVMax= 3.94D-03

 Cycle   6  Pass 0  IDiag  1:
 RMSU=  3.15D-05    CP:  1.01D+00  6.90D-01  9.58D-01  7.36D-01  8.85D-01
 E= -1507.93361358949     Delta-E=       -0.000310621931 Rises=F Damp=F
 DIIS: error= 1.71D-04 at cycle   6 NSaved=   6.
 NSaved= 6 IEnMin= 6 EnMin= -1507.93361358949     IErMin= 6 ErrMin= 1.71D-04
 ErrMax= 1.71D-04  0.00D+00 EMaxC= 1.00D-01 BMatC= 5.10D-05 BMatP= 3.91D-04
 IDIUse=3 WtCom= 9.98D-01 WtEn= 1.71D-03
 Coeff-Com:  0.378D-03-0.458D-02 0.125D-01 0.409D-01 0.274D+00 0.677D+00
 Coeff-En:   0.000D+00 0.000D+00 0.000D+00 0.000D+00 0.000D+00 0.100D+01
 Coeff:      0.377D-03-0.457D-02 0.125D-01 0.409D-01 0.273D+00 0.678D+00
 Gap=     0.214 Goal=   None    Shift=    0.000
 RMSDP=1.82D-05 MaxDP=2.47D-03 DE=-3.11D-04 OVMax= 3.17D-03

 Cycle   7  Pass 0  IDiag  1:
 RMSU=  1.59D-05    CP:  1.01D+00  6.88D-01  9.62D-01  7.40D-01  9.52D-01
                    CP:  1.02D+00
 E= -1507.93367388588     Delta-E=       -0.000060296399 Rises=F Damp=F
 DIIS: error= 6.27D-05 at cycle   7 NSaved=   7.
 NSaved= 7 IEnMin= 7 EnMin= -1507.93367388588     IErMin= 7 ErrMin= 6.27D-05
 ErrMax= 6.27D-05  0.00D+00 EMaxC= 1.00D-01 BMatC= 8.70D-06 BMatP= 5.10D-05
 IDIUse=1 WtCom= 1.00D+00 WtEn= 0.00D+00
 Coeff-Com:  0.178D-02-0.482D-02-0.123D-01-0.247D-01 0.115D-01 0.288D+00
 Coeff-Com:  0.740D+00
 Coeff:      0.178D-02-0.482D-02-0.123D-01-0.247D-01 0.115D-01 0.288D+00
 Coeff:      0.740D+00
 Gap=     0.214 Goal=   None    Shift=    0.000
 RMSDP=1.73D-05 MaxDP=5.91D-03 DE=-6.03D-05 OVMax= 2.08D-03

 Cycle   8  Pass 0  IDiag  1:
 RMSU=  9.60D-06    CP:  1.00D+00  6.83D-01  9.63D-01  7.45D-01  1.01D+00
                    CP:  1.23D+00  1.25D+00
 E= -1507.93368150748     Delta-E=       -0.000007621595 Rises=F Damp=F
 DIIS: error= 3.01D-05 at cycle   8 NSaved=   8.
 NSaved= 8 IEnMin= 8 EnMin= -1507.93368150748     IErMin= 8 ErrMin= 3.01D-05
 ErrMax= 3.01D-05  0.00D+00 EMaxC= 1.00D-01 BMatC= 1.93D-06 BMatP= 8.70D-06
 IDIUse=1 WtCom= 1.00D+00 WtEn= 0.00D+00
 Coeff-Com:  0.880D-03-0.159D-02-0.809D-02-0.218D-01-0.471D-01 0.861D-02
 Coeff-Com:  0.358D+00 0.711D+00
 Coeff:      0.880D-03-0.159D-02-0.809D-02-0.218D-01-0.471D-01 0.861D-02
 Coeff:      0.358D+00 0.711D+00
 Gap=     0.214 Goal=   None    Shift=    0.000
 RMSDP=1.37D-05 MaxDP=1.58D-03 DE=-7.62D-06 OVMax= 7.06D-04

 Cycle   9  Pass 0  IDiag  1:
 RMSU=  8.92D-06    CP:  1.00D+00  6.81D-01  9.63D-01  7.44D-01  1.04D+00
                    CP:  1.33D+00  1.62D+00  1.70D+00
 E= -1507.93367101696     Delta-E=        0.000010490515 Rises=F Damp=F
 DIIS: error= 2.36D-05 at cycle   9 NSaved=   9.
 NSaved= 9 IEnMin= 8 EnMin= -1507.93368150748     IErMin= 9 ErrMin= 2.36D-05
 ErrMax= 2.36D-05  0.00D+00 EMaxC= 1.00D-01 BMatC= 3.35D-07 BMatP= 1.93D-06
 IDIUse=1 WtCom= 1.00D+00 WtEn= 0.00D+00
 Coeff-Com:  0.202D-03-0.235D-03-0.186D-02-0.707D-02-0.201D-01-0.255D-01
 Coeff-Com:  0.797D-01 0.307D+00 0.668D+00
 Coeff:      0.202D-03-0.235D-03-0.186D-02-0.707D-02-0.201D-01-0.255D-01
 Coeff:      0.797D-01 0.307D+00 0.668D+00
 Gap=     0.214 Goal=   None    Shift=    0.000
 RMSDP=1.72D-05 MaxDP=1.80D-03 DE= 1.05D-05 OVMax= 2.39D-04

 Cycle  10  Pass 0  IDiag  1:
 RMSU=  6.37D-06    CP:  1.00D+00  6.81D-01  9.63D-01  7.44D-01  1.06D+00
                    CP:  1.39D+00  1.93D+00  2.54D+00  2.41D+00
 E= -1507.93365619409     Delta-E=        0.000014822880 Rises=F Damp=F
 DIIS: error= 3.65D-05 at cycle  10 NSaved=  10.
 NSaved=10 IEnMin= 8 EnMin= -1507.93368150748     IErMin= 9 ErrMin= 2.36D-05
 ErrMax= 3.65D-05  0.00D+00 EMaxC= 1.00D-01 BMatC= 4.92D-07 BMatP= 3.35D-07
 IDIUse=1 WtCom= 1.00D+00 WtEn= 0.00D+00
 Coeff-Com:  0.218D-03-0.224D-03-0.208D-02-0.806D-02-0.238D-01-0.327D-01
 Coeff-Com:  0.866D-01 0.363D+00 0.848D+00-0.231D+00
 Coeff:      0.218D-03-0.224D-03-0.208D-02-0.806D-02-0.238D-01-0.327D-01
 Coeff:      0.866D-01 0.363D+00 0.848D+00-0.231D+00
 Gap=     0.214 Goal=   None    Shift=    0.000
 RMSDP=8.80D-06 MaxDP=1.10D-03 DE= 1.48D-05 OVMax= 2.12D-05

 Cycle  11  Pass 0  IDiag  1:
 RMSU=  1.39D-06    CP:  1.00D+00  6.81D-01  9.63D-01  7.43D-01  1.05D+00
                    CP:  1.37D+00  1.81D+00  2.22D+00  1.65D+00  3.94D-01
 E= -1507.93365888687     Delta-E=       -0.000002692781 Rises=F Damp=F
 DIIS: error= 2.95D-05 at cycle  11 NSaved=  11.
 NSaved=11 IEnMin= 8 EnMin= -1507.93368150748     IErMin= 9 ErrMin= 2.36D-05
 ErrMax= 2.95D-05  0.00D+00 EMaxC= 1.00D-01 BMatC= 3.21D-07 BMatP= 3.35D-07
 IDIUse=1 WtCom= 1.00D+00 WtEn= 0.00D+00
 Coeff-Com: -0.575D-04 0.258D-03 0.621D-03-0.983D-03-0.793D-02-0.327D-01
 Coeff-Com: -0.257D-01 0.117D+00 0.774D+00-0.191D+01 0.208D+01
 Coeff:     -0.575D-04 0.258D-03 0.621D-03-0.983D-03-0.793D-02-0.327D-01
 Coeff:     -0.257D-01 0.117D+00 0.774D+00-0.191D+01 0.208D+01
 Gap=     0.214 Goal=   None    Shift=    0.000
 RMSDP=1.66D-05 MaxDP=1.91D-03 DE=-2.69D-06 OVMax= 1.13D-04

 Cycle  12  Pass 0  IDiag  1:
 RMSU=  9.90D-06    CP:  1.00D+00  6.79D-01  9.63D-01  7.41D-01  1.04D+00
                    CP:  1.35D+00  1.60D+00  1.74D+00  8.31D-01 -8.35D-01
                    CP:  3.00D+00
 E= -1507.93365549519     Delta-E=        0.000003391678 Rises=F Damp=F
 DIIS: error= 1.94D-05 at cycle  12 NSaved=  12.
 NSaved=12 IEnMin= 8 EnMin= -1507.93368150748     IErMin=12 ErrMin= 1.94D-05
 ErrMax= 1.94D-05  0.00D+00 EMaxC= 1.00D-01 BMatC= 9.85D-08 BMatP= 3.21D-07
 IDIUse=1 WtCom= 1.00D+00 WtEn= 0.00D+00
 Coeff-Com: -0.521D-04 0.189D-03 0.615D-03-0.109D-03-0.370D-02-0.205D-01
 Coeff-Com: -0.246D-01 0.525D-01 0.482D+00-0.138D+01 0.147D+01 0.426D+00
 Coeff:     -0.521D-04 0.189D-03 0.615D-03-0.109D-03-0.370D-02-0.205D-01
 Coeff:     -0.246D-01 0.525D-01 0.482D+00-0.138D+01 0.147D+01 0.426D+00
 Gap=     0.214 Goal=   None    Shift=    0.000
 RMSDP=7.93D-06 MaxDP=1.42D-03 DE= 3.39D-06 OVMax= 2.39D-05

 Cycle  13  Pass 0  IDiag  1:
 RMSU=  4.56D-06    CP:  1.00D+00  6.79D-01  9.63D-01  7.39D-01  1.05D+00
                    CP:  1.34D+00  1.60D+00  1.86D+00  1.16D+00 -4.81D-01
                    CP:  3.00D+00  1.50D+00
 E= -1507.93364555572     Delta-E=        0.000009939470 Rises=F Damp=F
 DIIS: error= 1.75D-05 at cycle  13 NSaved=  13.
 NSaved=13 IEnMin= 8 EnMin= -1507.93368150748     IErMin=13 ErrMin= 1.75D-05
 ErrMax= 1.75D-05  0.00D+00 EMaxC= 1.00D-01 BMatC= 1.30D-07 BMatP= 9.85D-08
 IDIUse=1 WtCom= 1.00D+00 WtEn= 0.00D+00
 Coeff-Com: -0.103D-03 0.295D-03 0.114D-02 0.937D-03-0.200D-02-0.242D-01
 Coeff-Com: -0.459D-01 0.251D-01 0.556D+00-0.178D+01 0.200D+01 0.892D+00
 Coeff-Com: -0.621D+00
 Coeff:     -0.103D-03 0.295D-03 0.114D-02 0.937D-03-0.200D-02-0.242D-01
 Coeff:     -0.459D-01 0.251D-01 0.556D+00-0.178D+01 0.200D+01 0.892D+00
 Coeff:     -0.621D+00
 Gap=     0.214 Goal=   None    Shift=    0.000
 RMSDP=9.79D-06 MaxDP=2.76D-03 DE= 9.94D-06 OVMax= 2.42D-05

 Cycle  14  Pass 0  IDiag  1:
 RMSU=  5.84D-06    CP:  1.00D+00  6.81D-01  9.62D-01  7.41D-01  1.03D+00
                    CP:  1.31D+00  1.58D+00  1.74D+00  8.54D-01 -7.54D-01
                    CP:  3.00D+00  1.11D+00  2.71D-01
 E= -1507.93365495214     Delta-E=       -0.000009396425 Rises=F Damp=F
 DIIS: error= 1.64D-05 at cycle  14 NSaved=  14.
 NSaved=14 IEnMin= 8 EnMin= -1507.93368150748     IErMin=14 ErrMin= 1.64D-05
 ErrMax= 1.64D-05  0.00D+00 EMaxC= 1.00D-01 BMatC= 9.40D-08 BMatP= 9.85D-08
 IDIUse=1 WtCom= 1.00D+00 WtEn= 0.00D+00
 Coeff-Com: -0.842D-04 0.200D-03 0.102D-02 0.155D-02 0.163D-02-0.114D-01
 Coeff-Com: -0.388D-01-0.312D-01 0.255D+00-0.127D+01 0.139D+01 0.113D+01
 Coeff-Com: -0.146D+01 0.103D+01
 Coeff:     -0.842D-04 0.200D-03 0.102D-02 0.155D-02 0.163D-02-0.114D-01
 Coeff:     -0.388D-01-0.312D-01 0.255D+00-0.127D+01 0.139D+01 0.113D+01
 Coeff:     -0.146D+01 0.103D+01
 Gap=     0.214 Goal=   None    Shift=    0.000
 RMSDP=1.17D-05 MaxDP=2.21D-03 DE=-9.40D-06 OVMax= 2.53D-05

 Cycle  15  Pass 0  IDiag  1:
 RMSU=  6.27D-06    CP:  1.00D+00  6.82D-01  9.61D-01  7.41D-01  1.02D+00
                    CP:  1.30D+00  1.61D+00  1.73D+00  5.55D-01 -1.33D+00
                    CP:  3.00D+00  1.02D+00 -7.82D-01  2.08D+00
 E= -1507.93366209404     Delta-E=       -0.000007141895 Rises=F Damp=F
 DIIS: error= 1.06D-05 at cycle  15 NSaved=  15.
 NSaved=15 IEnMin= 8 EnMin= -1507.93368150748     IErMin=15 ErrMin= 1.06D-05
 ErrMax= 1.06D-05  0.00D+00 EMaxC= 1.00D-01 BMatC= 3.52D-08 BMatP= 9.40D-08
 IDIUse=1 WtCom= 1.00D+00 WtEn= 0.00D+00
 Coeff-Com: -0.383D-04 0.917D-04 0.516D-03 0.785D-03 0.946D-03-0.532D-02
 Coeff-Com: -0.183D-01-0.184D-01 0.111D+00-0.689D+00 0.693D+00 0.586D+00
 Coeff-Com: -0.855D+00 0.610D+00 0.583D+00
 Coeff:     -0.383D-04 0.917D-04 0.516D-03 0.785D-03 0.946D-03-0.532D-02
 Coeff:     -0.183D-01-0.184D-01 0.111D+00-0.689D+00 0.693D+00 0.586D+00
 Coeff:     -0.855D+00 0.610D+00 0.583D+00
 Gap=     0.214 Goal=   None    Shift=    0.000
 RMSDP=6.84D-06 MaxDP=6.90D-04 DE=-7.14D-06 OVMax= 1.81D-05

 Initial convergence to 1.0D-05 achieved.  Increase integral accuracy.
 Cycle  16  Pass 1  IDiag  1:
 E= -1507.93372574299     Delta-E=       -0.000063648950 Rises=F Damp=F
 DIIS: error= 2.73D-04 at cycle   1 NSaved=   1.
 NSaved= 1 IEnMin= 1 EnMin= -1507.93372574299     IErMin= 1 ErrMin= 2.73D-04
 ErrMax= 2.73D-04  0.00D+00 EMaxC= 1.00D-01 BMatC= 8.60D-05 BMatP= 8.60D-05
 IDIUse=3 WtCom= 9.97D-01 WtEn= 2.73D-03
 Coeff-Com:  0.100D+01
 Coeff-En:   0.100D+01
 Coeff:      0.100D+01
 Gap=     0.214 Goal=   None    Shift=    0.000
 RMSDP=6.84D-06 MaxDP=6.90D-04 DE=-6.36D-05 OVMax= 1.03D-03

 Cycle  17  Pass 1  IDiag  1:
 RMSU=  3.98D-04    CP:  9.96D-01
 E= -1507.93377962137     Delta-E=       -0.000053878385 Rises=F Damp=F
 DIIS: error= 7.57D-06 at cycle   2 NSaved=   2.
 NSaved= 2 IEnMin= 2 EnMin= -1507.93377962137     IErMin= 2 ErrMin= 7.57D-06
 ErrMax= 7.57D-06  0.00D+00 EMaxC= 1.00D-01 BMatC= 7.17D-08 BMatP= 8.60D-05
 IDIUse=1 WtCom= 1.00D+00 WtEn= 0.00D+00
 Coeff-Com: -0.165D-01 0.102D+01
 Coeff:     -0.165D-01 0.102D+01
 Gap=     0.214 Goal=   None    Shift=    0.000
 RMSDP=1.47D-05 MaxDP=9.68D-04 DE=-5.39D-05 OVMax= 8.94D-05

 Cycle  18  Pass 1  IDiag  1:
 RMSU=  4.88D-06    CP:  9.96D-01  1.03D+00
 E= -1507.93377968333     Delta-E=       -0.000000061961 Rises=F Damp=F
 DIIS: error= 3.99D-06 at cycle   3 NSaved=   3.
 NSaved= 3 IEnMin= 3 EnMin= -1507.93377968333     IErMin= 3 ErrMin= 3.99D-06
 ErrMax= 3.99D-06  0.00D+00 EMaxC= 1.00D-01 BMatC= 4.62D-08 BMatP= 7.17D-08
 IDIUse=1 WtCom= 1.00D+00 WtEn= 0.00D+00
 Coeff-Com: -0.850D-02 0.499D+00 0.510D+00
 Coeff:     -0.850D-02 0.499D+00 0.510D+00
 Gap=     0.214 Goal=   None    Shift=    0.000
 RMSDP=5.55D-07 MaxDP=1.61D-04 DE=-6.20D-08 OVMax= 4.67D-05

 Cycle  19  Pass 1  IDiag  1:
 RMSU=  4.97D-07    CP:  9.96D-01  1.04D+00  1.02D+00
 E= -1507.93377971598     Delta-E=       -0.000000032647 Rises=F Damp=F
 DIIS: error= 1.40D-06 at cycle   4 NSaved=   4.
 NSaved= 4 IEnMin= 4 EnMin= -1507.93377971598     IErMin= 4 ErrMin= 1.40D-06
 ErrMax= 1.40D-06  0.00D+00 EMaxC= 1.00D-01 BMatC= 4.05D-09 BMatP= 4.62D-08
 IDIUse=1 WtCom= 1.00D+00 WtEn= 0.00D+00
 Coeff-Com: -0.133D-03-0.342D-02 0.214D+00 0.789D+00
 Coeff:     -0.133D-03-0.342D-02 0.214D+00 0.789D+00
 Gap=     0.214 Goal=   None    Shift=    0.000
 RMSDP=2.94D-07 MaxDP=2.04D-05 DE=-3.26D-08 OVMax= 1.51D-05

 Cycle  20  Pass 1  IDiag  1:
 RMSU=  1.18D-07    CP:  9.96D-01  1.04D+00  1.06D+00  9.23D-01
 E= -1507.93377971880     Delta-E=       -0.000000002817 Rises=F Damp=F
 DIIS: error= 5.60D-07 at cycle   5 NSaved=   5.
 NSaved= 5 IEnMin= 5 EnMin= -1507.93377971880     IErMin= 5 ErrMin= 5.60D-07
 ErrMax= 5.60D-07  0.00D+00 EMaxC= 1.00D-01 BMatC= 5.61D-10 BMatP= 4.05D-09
 IDIUse=1 WtCom= 1.00D+00 WtEn= 0.00D+00
 Coeff-Com:  0.438D-03-0.314D-01 0.771D-01 0.406D+00 0.548D+00
 Coeff:      0.438D-03-0.314D-01 0.771D-01 0.406D+00 0.548D+00
 Gap=     0.214 Goal=   None    Shift=    0.000
 RMSDP=5.02D-08 MaxDP=3.21D-06 DE=-2.82D-09 OVMax= 5.78D-06

 Cycle  21  Pass 1  IDiag  1:
 RMSU=  3.86D-08    CP:  9.96D-01  1.04D+00  1.06D+00  9.39D-01  1.06D+00
 E= -1507.93377971930     Delta-E=       -0.000000000501 Rises=F Damp=F
 DIIS: error= 1.34D-07 at cycle   6 NSaved=   6.
 NSaved= 6 IEnMin= 6 EnMin= -1507.93377971930     IErMin= 6 ErrMin= 1.34D-07
 ErrMax= 1.34D-07  0.00D+00 EMaxC= 1.00D-01 BMatC= 3.68D-11 BMatP= 5.61D-10
 IDIUse=1 WtCom= 1.00D+00 WtEn= 0.00D+00
 Coeff-Com:  0.210D-03-0.136D-01 0.926D-02 0.914D-01 0.233D+00 0.680D+00
 Coeff:      0.210D-03-0.136D-01 0.926D-02 0.914D-01 0.233D+00 0.680D+00
 Gap=     0.214 Goal=   None    Shift=    0.000
 RMSDP=1.48D-08 MaxDP=3.54D-06 DE=-5.01D-10 OVMax= 1.78D-06

 Cycle  22  Pass 1  IDiag  1:
 RMSU=  1.18D-08    CP:  9.96D-01  1.04D+00  1.06D+00  9.53D-01  1.11D+00
                    CP:  1.01D+00
 E= -1507.93377971938     Delta-E=       -0.000000000082 Rises=F Damp=F
 DIIS: error= 5.02D-08 at cycle   7 NSaved=   7.
 NSaved= 7 IEnMin= 7 EnMin= -1507.93377971938     IErMin= 7 ErrMin= 5.02D-08
 ErrMax= 5.02D-08  0.00D+00 EMaxC= 1.00D-01 BMatC= 5.26D-12 BMatP= 3.68D-11
 IDIUse=1 WtCom= 1.00D+00 WtEn= 0.00D+00
 Coeff-Com:  0.122D-04-0.274D-03-0.971D-02-0.287D-01 0.738D-02 0.292D+00
 Coeff-Com:  0.739D+00
 Coeff:      0.122D-04-0.274D-03-0.971D-02-0.287D-01 0.738D-02 0.292D+00
 Coeff:      0.739D+00
 Gap=     0.214 Goal=   None    Shift=    0.000
 RMSDP=7.66D-09 MaxDP=1.08D-06 DE=-8.19D-11 OVMax= 1.12D-06

 Cycle  23  Pass 1  IDiag  1:
 RMSU=  4.57D-09    CP:  9.96D-01  1.04D+00  1.06D+00  9.58D-01  1.12D+00
                    CP:  1.11D+00  1.11D+00
 E= -1507.93377971933     Delta-E=        0.000000000054 Rises=F Damp=F
 DIIS: error= 2.17D-08 at cycle   8 NSaved=   8.
 NSaved= 8 IEnMin= 7 EnMin= -1507.93377971938     IErMin= 8 ErrMin= 2.17D-08
 ErrMax= 2.17D-08  0.00D+00 EMaxC= 1.00D-01 BMatC= 8.28D-13 BMatP= 5.26D-12
 IDIUse=1 WtCom= 1.00D+00 WtEn= 0.00D+00
 Coeff-Com: -0.142D-04 0.118D-02-0.595D-02-0.224D-01-0.197D-01 0.675D-01
 Coeff-Com:  0.364D+00 0.616D+00
 Coeff:     -0.142D-04 0.118D-02-0.595D-02-0.224D-01-0.197D-01 0.675D-01
 Coeff:      0.364D+00 0.616D+00
 Gap=     0.214 Goal=   None    Shift=    0.000
 RMSDP=3.21D-09 MaxDP=1.15D-06 DE= 5.37D-11 OVMax= 2.76D-07

 Cycle  24  Pass 1  IDiag  1:
 RMSU=  1.95D-09    CP:  9.96D-01  1.04D+00  1.06D+00  9.62D-01  1.13D+00
                    CP:  1.11D+00  1.18D+00  1.13D+00
 E= -1507.93377971933     Delta-E=       -0.000000000003 Rises=F Damp=F
 DIIS: error= 4.78D-09 at cycle   9 NSaved=   9.
 NSaved= 9 IEnMin= 7 EnMin= -1507.93377971938     IErMin= 9 ErrMin= 4.78D-09
 ErrMax= 4.78D-09  0.00D+00 EMaxC= 1.00D-01 BMatC= 5.88D-14 BMatP= 8.28D-13
 IDIUse=1 WtCom= 1.00D+00 WtEn= 0.00D+00
 Coeff-Com: -0.710D-05 0.490D-03-0.123D-02-0.439D-02-0.840D-02-0.113D-01
 Coeff-Com:  0.525D-01 0.198D+00 0.775D+00
 Coeff:     -0.710D-05 0.490D-03-0.123D-02-0.439D-02-0.840D-02-0.113D-01
 Coeff:      0.525D-01 0.198D+00 0.775D+00
 Gap=     0.214 Goal=   None    Shift=    0.000
 RMSDP=1.01D-09 MaxDP=2.91D-07 DE=-2.73D-12 OVMax= 1.21D-07

 SCF Done:  E(RM062X) =  -1507.93377972     A.U. after   24 cycles
            NFock= 24  Conv=0.10D-08     -V/T= 2.0037
 KE= 1.502329464540D+03 PE=-8.479823297489D+03 EE= 2.998965811281D+03
 Leave Link  502 at Sat Aug 13 20:44:06 2022, MaxMem=  2684354560 cpu:            9823.2 elap:             614.9
 (Enter /storage/apps/GAUSSIAN/G16_RevA03/g16/l601.exe)
 Copying SCF densities to generalized density rwf, IOpCl= 0 IROHF=0.

 **********************************************************************

            Population analysis using the SCF density.

 **********************************************************************

 Orbital symmetries:
       Occupied  (A) (A) (A) (A) (A) (A) (A) (A) (A) (A) (A) (A)
                 (A) (A) (A) (A) (A) (A) (A) (A) (A) (A) (A) (A)
                 (A) (A) (A) (A) (A) (A) (A) (A) (A) (A) (A) (A)
                 (A) (A) (A) (A) (A) (A) (A) (A) (A) (A) (A) (A)
                 (A) (A) (A) (A) (A) (A) (A) (A) (A) (A) (A) (A)
                 (A) (A) (A) (A) (A) (A) (A) (A) (A) (A) (A) (A)
                 (A) (A) (A) (A) (A) (A) (A) (A) (A) (A) (A) (A)
                 (A) (A) (A) (A) (A) (A) (A) (A) (A) (A) (A)
       Virtual   (A) (A) (A) (A) (A) (A) (A) (A) (A) (A) (A) (A)
                 (A) (A) (A) (A) (A) (A) (A) (A) (A) (A) (A) (A)
                 (A) (A) (A) (A) (A) (A) (A) (A) (A) (A) (A) (A)
                 (A) (A) (A) (A) (A) (A) (A) (A) (A) (A) (A) (A)
                 (A) (A) (A) (A) (A) (A) (A) (A) (A) (A) (A) (A)
                 (A) (A) (A) (A) (A) (A) (A) (A) (A) (A) (A) (A)
                 (A) (A) (A) (A) (A) (A) (A) (A) (A) (A) (A) (A)
                 (A) (A) (A) (A) (A) (A) (A) (A) (A) (A) (A) (A)
                 (A) (A) (A) (A) (A) (A) (A) (A) (A) (A) (A) (A)
                 (A) (A) (A) (A) (A) (A) (A) (A) (A) (A) (A) (A)
                 (A) (A) (A) (A) (A) (A) (A) (A) (A) (A) (A) (A)
                 (A) (A) (A) (A) (A) (A) (A) (A) (A) (A) (A) (A)
                 (A) (A) (A) (A) (A) (A) (A) (A) (A) (A) (A) (A)
                 (A) (A) (A) (A) (A) (A) (A) (A) (A) (A) (A) (A)
                 (A) (A) (A) (A) (A) (A) (A) (A) (A) (A) (A) (A)
                 (A) (A) (A) (A) (A) (A) (A) (A) (A) (A) (A) (A)
                 (A) (A) (A) (A) (A) (A) (A) (A) (A) (A) (A) (A)
                 (A) (A) (A) (A) (A) (A) (A) (A) (A) (A) (A) (A)
                 (A) (A) (A) (A) (A) (A) (A) (A) (A) (A) (A) (A)
                 (A) (A) (A) (A) (A) (A) (A) (A) (A) (A) (A) (A)
                 (A) (A) (A) (A) (A) (A) (A) (A) (A) (A) (A) (A)
                 (A) (A) (A) (A) (A) (A) (A) (A) (A) (A) (A) (A)
                 (A) (A) (A) (A) (A) (A) (A) (A) (A) (A) (A) (A)
                 (A) (A) (A) (A) (A) (A) (A) (A) (A) (A) (A) (A)
                 (A) (A) (A) (A) (A) (A) (A) (A) (A) (A) (A) (A)
                 (A) (A) (A) (A) (A) (A) (A) (A) (A) (A) (A) (A)
                 (A) (A) (A) (A) (A) (A) (A) (A) (A) (A) (A) (A)
                 (A) (A) (A) (A) (A) (A) (A) (A) (A) (A) (A) (A)
                 (A) (A) (A) (A) (A) (A) (A) (A) (A) (A) (A) (A)
                 (A) (A) (A) (A) (A) (A) (A) (A) (A) (A) (A) (A)
                 (A) (A) (A) (A) (A) (A) (A) (A) (A) (A) (A) (A)
                 (A) (A) (A) (A) (A) (A) (A) (A) (A) (A) (A) (A)
                 (A) (A) (A) (A) (A) (A) (A) (A) (A) (A) (A) (A)
                 (A) (A) (A) (A) (A) (A) (A) (A) (A) (A) (A) (A)
                 (A) (A) (A) (A) (A) (A) (A) (A) (A) (A) (A) (A)
                 (A) (A) (A) (A) (A) (A) (A) (A) (A) (A) (A) (A)
                 (A) (A) (A) (A) (A) (A) (A) (A) (A) (A) (A) (A)
                 (A) (A) (A) (A) (A) (A) (A) (A) (A) (A) (A) (A)
                 (A) (A) (A) (A) (A) (A) (A) (A) (A) (A) (A) (A)
                 (A) (A) (A) (A) (A) (A) (A) (A) (A) (A) (A) (A)
                 (A) (A) (A) (A) (A) (A) (A) (A) (A) (A) (A) (A)
                 (A) (A) (A) (A) (A) (A) (A) (A) (A) (A) (A) (A)
                 (A) (A) (A) (A) (A) (A) (A) (A) (A) (A) (A) (A)
                 (A) (A) (A) (A) (A) (A) (A) (A) (A) (A) (A) (A)
                 (A) (A) (A) (A) (A) (A) (A) (A) (A) (A) (A) (A)
                 (A) (A) (A) (A) (A) (A) (A) (A) (A) (A) (A) (A)
                 (A) (A) (A) (A) (A) (A) (A) (A) (A) (A) (A) (A)
                 (A) (A) (A) (A) (A) (A) (A) (A) (A) (A) (A) (A)
                 (A) (A) (A) (A) (A) (A) (A) (A) (A) (A) (A) (A)
                 (A) (A) (A) (A) (A) (A) (A) (A) (A) (A) (A) (A)
                 (A) (A) (A) (A) (A) (A) (A) (A) (A) (A) (A) (A)
                 (A) (A) (A) (A) (A) (A) (A) (A) (A) (A) (A) (A)
                 (A) (A) (A) (A) (A) (A) (A) (A) (A) (A) (A) (A)
                 (A) (A) (A) (A) (A) (A) (A) (A) (A) (A) (A) (A)
                 (A) (A) (A) (A) (A) (A) (A) (A) (A) (A) (A) (A)
                 (A) (A) (A) (A) (A) (A) (A) (A) (A) (A) (A) (A)
                 (A) (A) (A) (A) (A) (A) (A) (A) (A) (A) (A) (A)
                 (A) (A) (A) (A) (A) (A) (A) (A) (A) (A) (A) (A)
                 (A) (A) (A) (A) (A) (A) (A) (A) (A) (A) (A) (A)
                 (A) (A) (A) (A) (A) (A) (A) (A) (A) (A) (A) (A)
                 (A) (A) (A) (A) (A) (A) (A) (A) (A) (A) (A) (A)
                 (A) (A) (A) (A) (A) (A) (A) (A) (A) (A) (A) (A)
                 (A) (A) (A) (A) (A) (A) (A) (A) (A) (A) (A) (A)
                 (A) (A) (A) (A) (A) (A) (A) (A) (A) (A) (A) (A)
                 (A) (A) (A) (A) (A) (A) (A) (A) (A) (A) (A) (A)
                 (A) (A) (A) (A) (A) (A) (A) (A) (A) (A) (A) (A)
                 (A) (A) (A) (A) (A) (A) (A)
 The electronic state is 1-A.
 Alpha  occ. eigenvalues --  -89.91737 -19.63360 -19.63272 -19.62762 -19.62299
 Alpha  occ. eigenvalues --  -19.57744 -14.79046 -14.76087 -10.65940 -10.63434
 Alpha  occ. eigenvalues --  -10.62920 -10.59497 -10.59137 -10.59069 -10.58407
 Alpha  occ. eigenvalues --  -10.57608 -10.56776 -10.56684 -10.55254 -10.55246
 Alpha  occ. eigenvalues --  -10.54954 -10.53861 -10.53438 -10.53266  -8.27670
 Alpha  occ. eigenvalues --   -6.19607  -6.19371  -6.19178  -1.19256  -1.18580
 Alpha  occ. eigenvalues --   -1.15929  -1.15031  -1.13798  -1.08400  -1.00696
 Alpha  occ. eigenvalues --   -0.92548  -0.91834  -0.89984  -0.88523  -0.87534
 Alpha  occ. eigenvalues --   -0.85628  -0.82695  -0.78889  -0.76414  -0.75535
 Alpha  occ. eigenvalues --   -0.73470  -0.70802  -0.67685  -0.67199  -0.66362
 Alpha  occ. eigenvalues --   -0.63404  -0.63207  -0.61642  -0.60451  -0.58734
 Alpha  occ. eigenvalues --   -0.58117  -0.56951  -0.56526  -0.56007  -0.54948
 Alpha  occ. eigenvalues --   -0.53821  -0.52961  -0.52424  -0.51582  -0.51209
 Alpha  occ. eigenvalues --   -0.50559  -0.50379  -0.49904  -0.49315  -0.48850
 Alpha  occ. eigenvalues --   -0.48329  -0.48071  -0.47847  -0.47158  -0.46530
 Alpha  occ. eigenvalues --   -0.45871  -0.44744  -0.44306  -0.43870  -0.43595
 Alpha  occ. eigenvalues --   -0.43422  -0.43201  -0.41362  -0.41184  -0.37813
 Alpha  occ. eigenvalues --   -0.36229  -0.35660  -0.34356  -0.34300  -0.33738
 Alpha  occ. eigenvalues --   -0.33451  -0.32945  -0.32543  -0.30630  -0.24412
 Alpha virt. eigenvalues --   -0.03026   0.00296   0.04438   0.04794   0.06049
 Alpha virt. eigenvalues --    0.07198   0.07422   0.08147   0.08592   0.09196
 Alpha virt. eigenvalues --    0.09236   0.09614   0.10377   0.10873   0.11280
 Alpha virt. eigenvalues --    0.11735   0.12214   0.12628   0.13028   0.13055
 Alpha virt. eigenvalues --    0.13634   0.13880   0.13937   0.14175   0.14753
 Alpha virt. eigenvalues --    0.15262   0.16084   0.16294   0.17121   0.17281
 Alpha virt. eigenvalues --    0.17872   0.18255   0.18713   0.18951   0.19570
 Alpha virt. eigenvalues --    0.20334   0.20609   0.21159   0.21731   0.22346
 Alpha virt. eigenvalues --    0.22961   0.23332   0.23519   0.24241   0.24822
 Alpha virt. eigenvalues --    0.25033   0.25582   0.25850   0.26317   0.26864
 Alpha virt. eigenvalues --    0.27294   0.27573   0.28167   0.28827   0.29066
 Alpha virt. eigenvalues --    0.29301   0.30151   0.30248   0.30798   0.31097
 Alpha virt. eigenvalues --    0.31552   0.32006   0.32902   0.33313   0.33728
 Alpha virt. eigenvalues --    0.34160   0.34963   0.35151   0.35486   0.36088
 Alpha virt. eigenvalues --    0.36551   0.37132   0.37344   0.37767   0.38388
 Alpha virt. eigenvalues --    0.38482   0.39142   0.39934   0.40155   0.40249
 Alpha virt. eigenvalues --    0.40825   0.41073   0.41655   0.41803   0.42555
 Alpha virt. eigenvalues --    0.42630   0.43041   0.43547   0.43874   0.44152
 Alpha virt. eigenvalues --    0.44467   0.44787   0.45210   0.45490   0.45927
 Alpha virt. eigenvalues --    0.46716   0.46787   0.47311   0.47482   0.47651
 Alpha virt. eigenvalues --    0.47795   0.48007   0.48652   0.49217   0.49293
 Alpha virt. eigenvalues --    0.50112   0.50335   0.50637   0.50872   0.51333
 Alpha virt. eigenvalues --    0.51840   0.51965   0.52353   0.52526   0.52765
 Alpha virt. eigenvalues --    0.53185   0.53496   0.54253   0.54634   0.55015
 Alpha virt. eigenvalues --    0.55349   0.55713   0.56300   0.56926   0.57677
 Alpha virt. eigenvalues --    0.58032   0.58461   0.58680   0.59230   0.59763
 Alpha virt. eigenvalues --    0.60578   0.61279   0.61641   0.62206   0.62542
 Alpha virt. eigenvalues --    0.62952   0.63542   0.64701   0.65166   0.65585
 Alpha virt. eigenvalues --    0.65933   0.66086   0.66840   0.67447   0.67882
 Alpha virt. eigenvalues --    0.68439   0.68644   0.69419   0.70770   0.71073
 Alpha virt. eigenvalues --    0.71483   0.72571   0.72774   0.73588   0.74207
 Alpha virt. eigenvalues --    0.74736   0.75089   0.75271   0.76249   0.76375
 Alpha virt. eigenvalues --    0.76903   0.77649   0.79238   0.80421   0.81212
 Alpha virt. eigenvalues --    0.81556   0.81828   0.82469   0.83046   0.84029
 Alpha virt. eigenvalues --    0.84201   0.84802   0.85775   0.86669   0.87432
 Alpha virt. eigenvalues --    0.87665   0.87963   0.88440   0.89526   0.89911
 Alpha virt. eigenvalues --    0.90951   0.91418   0.91840   0.92548   0.93023
 Alpha virt. eigenvalues --    0.93241   0.93896   0.94823   0.95379   0.95830
 Alpha virt. eigenvalues --    0.96261   0.97102   0.98104   0.98660   0.99252
 Alpha virt. eigenvalues --    0.99919   1.00321   1.00970   1.01943   1.02913
 Alpha virt. eigenvalues --    1.03680   1.04526   1.05174   1.05987   1.06293
 Alpha virt. eigenvalues --    1.07090   1.07578   1.08756   1.09112   1.09695
 Alpha virt. eigenvalues --    1.10484   1.11281   1.11505   1.11838   1.12692
 Alpha virt. eigenvalues --    1.13179   1.13729   1.15071   1.15724   1.15929
 Alpha virt. eigenvalues --    1.16688   1.17914   1.18066   1.18920   1.20045
 Alpha virt. eigenvalues --    1.21102   1.21915   1.22908   1.22976   1.23526
 Alpha virt. eigenvalues --    1.24971   1.25677   1.26310   1.26826   1.28538
 Alpha virt. eigenvalues --    1.29230   1.30092   1.30530   1.31477   1.31762
 Alpha virt. eigenvalues --    1.32681   1.33871   1.34167   1.35289   1.36102
 Alpha virt. eigenvalues --    1.37123   1.37311   1.38246   1.38669   1.39162
 Alpha virt. eigenvalues --    1.40821   1.41793   1.42274   1.43298   1.44646
 Alpha virt. eigenvalues --    1.45826   1.47040   1.47846   1.48467   1.49685
 Alpha virt. eigenvalues --    1.50170   1.50995   1.51311   1.52076   1.52686
 Alpha virt. eigenvalues --    1.53441   1.53788   1.54884   1.55004   1.55210
 Alpha virt. eigenvalues --    1.55945   1.56543   1.57363   1.58036   1.58275
 Alpha virt. eigenvalues --    1.58649   1.59198   1.59830   1.60014   1.60210
 Alpha virt. eigenvalues --    1.61039   1.61373   1.61800   1.61893   1.62292
 Alpha virt. eigenvalues --    1.63009   1.63314   1.63837   1.64344   1.65313
 Alpha virt. eigenvalues --    1.65932   1.67175   1.67720   1.68326   1.68617
 Alpha virt. eigenvalues --    1.69168   1.69412   1.69961   1.70474   1.70617
 Alpha virt. eigenvalues --    1.71672   1.72539   1.73028   1.73672   1.73888
 Alpha virt. eigenvalues --    1.75068   1.75375   1.75987   1.76407   1.77400
 Alpha virt. eigenvalues --    1.78154   1.78250   1.79246   1.79673   1.80086
 Alpha virt. eigenvalues --    1.82097   1.82316   1.83613   1.84378   1.84637
 Alpha virt. eigenvalues --    1.84879   1.85601   1.86516   1.86969   1.87792
 Alpha virt. eigenvalues --    1.88236   1.88769   1.89621   1.90926   1.91863
 Alpha virt. eigenvalues --    1.92354   1.93436   1.93565   1.93761   1.95160
 Alpha virt. eigenvalues --    1.95644   1.96086   1.96821   1.97313   1.97930
 Alpha virt. eigenvalues --    1.98212   1.99360   2.00119   2.01317   2.01643
 Alpha virt. eigenvalues --    2.02794   2.03077   2.03514   2.04041   2.05192
 Alpha virt. eigenvalues --    2.05293   2.06120   2.06593   2.08103   2.08522
 Alpha virt. eigenvalues --    2.09513   2.10096   2.11212   2.11943   2.13155
 Alpha virt. eigenvalues --    2.13300   2.15092   2.15396   2.16554   2.16903
 Alpha virt. eigenvalues --    2.18073   2.19108   2.19680   2.20266   2.20566
 Alpha virt. eigenvalues --    2.20990   2.21639   2.22076   2.22609   2.23583
 Alpha virt. eigenvalues --    2.24226   2.24816   2.25305   2.26218   2.27059
 Alpha virt. eigenvalues --    2.28167   2.28891   2.29411   2.30228   2.31064
 Alpha virt. eigenvalues --    2.31225   2.31627   2.32470   2.32869   2.33862
 Alpha virt. eigenvalues --    2.34389   2.34757   2.35456   2.35911   2.36617
 Alpha virt. eigenvalues --    2.36979   2.37174   2.38333   2.38475   2.39469
 Alpha virt. eigenvalues --    2.40326   2.40607   2.40862   2.41676   2.43044
 Alpha virt. eigenvalues --    2.43508   2.44693   2.44976   2.45264   2.46562
 Alpha virt. eigenvalues --    2.47418   2.48585   2.49569   2.50324   2.50824
 Alpha virt. eigenvalues --    2.52257   2.52740   2.53242   2.54990   2.55364
 Alpha virt. eigenvalues --    2.55633   2.56943   2.57812   2.58470   2.58799
 Alpha virt. eigenvalues --    2.59121   2.59685   2.60537   2.61850   2.62276
 Alpha virt. eigenvalues --    2.62370   2.63380   2.63786   2.64129   2.64573
 Alpha virt. eigenvalues --    2.65372   2.65711   2.66180   2.67390   2.67695
 Alpha virt. eigenvalues --    2.67884   2.68023   2.69265   2.70771   2.71332
 Alpha virt. eigenvalues --    2.71829   2.72306   2.72684   2.73147   2.74051
 Alpha virt. eigenvalues --    2.75246   2.75968   2.76612   2.76955   2.78443
 Alpha virt. eigenvalues --    2.79710   2.80223   2.80768   2.81814   2.82697
 Alpha virt. eigenvalues --    2.83094   2.83760   2.83991   2.85435   2.86078
 Alpha virt. eigenvalues --    2.86278   2.87640   2.88364   2.88736   2.90070
 Alpha virt. eigenvalues --    2.90601   2.91067   2.91714   2.91829   2.92444
 Alpha virt. eigenvalues --    2.92911   2.94550   2.95071   2.95709   2.97038
 Alpha virt. eigenvalues --    2.97968   2.98357   2.99119   2.99916   3.00419
 Alpha virt. eigenvalues --    3.01231   3.02171   3.02992   3.03189   3.04067
 Alpha virt. eigenvalues --    3.05132   3.05411   3.06113   3.06228   3.06988
 Alpha virt. eigenvalues --    3.08015   3.08626   3.08703   3.09179   3.09525
 Alpha virt. eigenvalues --    3.10199   3.10899   3.11670   3.12146   3.12721
 Alpha virt. eigenvalues --    3.13020   3.13440   3.14277   3.14435   3.14661
 Alpha virt. eigenvalues --    3.15711   3.16257   3.16579   3.17712   3.17995
 Alpha virt. eigenvalues --    3.18512   3.18990   3.19327   3.19877   3.20836
 Alpha virt. eigenvalues --    3.21059   3.21376   3.22886   3.23755   3.24310
 Alpha virt. eigenvalues --    3.24433   3.25381   3.25648   3.26528   3.26964
 Alpha virt. eigenvalues --    3.27574   3.28984   3.29821   3.30277   3.30359
 Alpha virt. eigenvalues --    3.31465   3.32216   3.32686   3.33692   3.34113
 Alpha virt. eigenvalues --    3.34665   3.35180   3.35452   3.36029   3.36440
 Alpha virt. eigenvalues --    3.37619   3.37896   3.38038   3.38734   3.39142
[...]
      2        1          -0.000012938    0.000002192    0.000003298
      3        1          -0.000020281   -0.000006813   -0.000008079
      4        6          -0.000010422   -0.000059140   -0.000031376
      5        1          -0.000009253   -0.000015081    0.000019008
      6        8           0.000043869   -0.000124428   -0.000058609
      7        1          -0.000144575    0.000014941   -0.000000312
      8        6          -0.000011294    0.000019133    0.000017291
      9        1          -0.000017664    0.000005964    0.000015615
     10        8          -0.000067482    0.000086872    0.000022667
     11        1          -0.000013055   -0.000011845    0.000025470
     12        6           0.000016784   -0.000056620   -0.000053314
     13        1          -0.000000670    0.000010549   -0.000016633
     14        6           0.000061293    0.000053585    0.000027908
     15        1          -0.000017562    0.000010459   -0.000009651
     16        8           0.000006101   -0.000121319   -0.000031918
     17        7           0.000035401   -0.000019960   -0.000016499
     18        6           0.000009391   -0.000066406   -0.000111005
     19        1          -0.000036838    0.000044770   -0.000018930
     20        6           0.000070032   -0.000022392   -0.000118943
     21        1           0.000008618    0.000027155    0.000023583
     22        6           0.000083406    0.000034104    0.000234915
     23        1           0.000011986    0.000002316   -0.000072948
     24        1          -0.000021834   -0.000063202   -0.000107880
     25        6           0.000111238   -0.000044126    0.000025988
     26        6          -0.000031391    0.000006046    0.000022301
     27        1          -0.000009947    0.000030063    0.000009395
     28        6           0.000219413   -0.000001770    0.000274725
     29        8           0.000121348    0.000112992    0.000477458
     30        7          -0.000695138   -0.000406530   -0.000846438
     31        1           0.000124409   -0.000188643    0.000127259
     32        1           0.000239691    0.000555689    0.000347996
     33        1          -0.000028786    0.000001558    0.000010760
     34        6           0.000284402    0.000103842   -0.000221839
     35        6          -0.000150229    0.000253553   -0.000085446
     36        6          -0.000136974   -0.000680134    0.000320897
     37        6          -0.000009296    0.000037693    0.000075880
     38        6           0.000027756    0.000139933    0.000090792
     39        8          -0.000012357   -0.000246916    0.000118109
     40       16           0.000034269    0.000175428   -0.000292455
     41        1          -0.000085178   -0.000248709   -0.000109776
     42        1          -0.000143410    0.000065262    0.000138320
     43        1          -0.000080327   -0.000054963    0.000062330
     44        1           0.000015344    0.000021960   -0.000016265
     45        1          -0.000013175    0.000034846    0.000043257
     46        1           0.000047759    0.000030176   -0.000028845
     47        1          -0.000103706    0.000477226   -0.000206241
     48        1           0.000039008    0.000073401   -0.000113324
 -------------------------------------------------------------------
 Cartesian Forces:  Max     0.000846438 RMS     0.000168942
 Leave Link  716 at Sat Aug 13 20:47:21 2022, MaxMem=  2684354560 cpu:               0.4 elap:               0.0
 (Enter /storage/apps/GAUSSIAN/G16_RevA03/g16/l103.exe)

 GradGradGradGradGradGradGradGradGradGradGradGradGradGradGradGradGradGrad
 Berny optimization.
 Search for a local minimum.
 Step number   1 out of a maximum of    2
 All quantities printed in internal units (Hartrees-Bohrs-Radians)
 Second derivative matrix not updated -- first step.
 ITU=  0
     Eigenvalues ---    0.00039   0.00095   0.00105   0.00127   0.00188
     Eigenvalues ---    0.00236   0.00307   0.00395   0.00421   0.00459
     Eigenvalues ---    0.00518   0.00728   0.00841   0.00907   0.00940
     Eigenvalues ---    0.00996   0.01090   0.01177   0.01383   0.01530
     Eigenvalues ---    0.01701   0.01884   0.02370   0.02494   0.02650
     Eigenvalues ---    0.02936   0.03207   0.03349   0.03749   0.03898
     Eigenvalues ---    0.04348   0.04628   0.04911   0.05078   0.05236
     Eigenvalues ---    0.05317   0.05549   0.05738   0.05833   0.05902
     Eigenvalues ---    0.06072   0.06183   0.06308   0.06392   0.06660
     Eigenvalues ---    0.06949   0.07348   0.07632   0.07811   0.08078
     Eigenvalues ---    0.08485   0.08801   0.09023   0.09676   0.10298
     Eigenvalues ---    0.10528   0.11540   0.12119   0.12182   0.12497
     Eigenvalues ---    0.12938   0.13120   0.13207   0.13509   0.13662
     Eigenvalues ---    0.14043   0.14087   0.15381   0.15974   0.16569
     Eigenvalues ---    0.16961   0.18108   0.18894   0.19643   0.19858
     Eigenvalues ---    0.19940   0.20317   0.21723   0.21856   0.22223
     Eigenvalues ---    0.24213   0.26799   0.27412   0.27737   0.31886
     Eigenvalues ---    0.32954   0.34202   0.34767   0.35346   0.37085
     Eigenvalues ---    0.38071   0.38071   0.38071   0.38071   0.40207
     Eigenvalues ---    0.43200   0.45136   0.48089   0.56616   0.56790
     Eigenvalues ---    0.61525   0.66435   0.69409   0.70055   0.74240
     Eigenvalues ---    0.79023   0.82495   0.87483   0.89159   0.91139
     Eigenvalues ---    0.91270   0.91931   0.93823   0.94425   0.94921
     Eigenvalues ---    0.95546   0.97114   0.99594   1.01418   1.02950
     Eigenvalues ---    1.05417   1.06767   1.09658   1.11348   1.14073
     Eigenvalues ---    1.19522   1.20008   1.24343   1.25934   1.29939
     Eigenvalues ---    1.34146   1.42419   1.51713   1.63584   1.70023
     Eigenvalues ---    1.79491   2.17808   2.27079
 Quadratic step=4.979D-01 exceeds max=3.000D-01 adjusted using Lamda=-3.203D-04.
 Angle between NR and scaled steps=   9.57 degrees.
 Angle between quadratic step and forces=  79.04 degrees.
 Linear search not attempted -- first point.
 Variable       Old X    -DE/DX   Delta X   Delta X   Delta X     New X
                                 (Linear)    (Quad)   (Total)
    X1        7.00645   0.00027   0.00000   0.00187   0.00187   7.00832
    Y1       -6.86157   0.00001   0.00000  -0.01708  -0.01708  -6.87865
    Z1       -0.81816   0.00004   0.00000   0.03527   0.03527  -0.78289
    X2        7.34274  -0.00001   0.00000   0.00057   0.00057   7.34331
    Y2       -7.05980   0.00000   0.00000  -0.04135  -0.04135  -7.10116
    Z2       -2.83907   0.00000   0.00000   0.03758   0.03758  -2.80149
    X3        8.38680  -0.00002   0.00000  -0.00126  -0.00126   8.38555
    Y3       -8.00538  -0.00001   0.00000  -0.00854  -0.00854  -8.01393
    Z3        0.19881  -0.00001   0.00000   0.04897   0.04897   0.24778
    X4        3.62156  -0.00001   0.00000   0.00100   0.00100   3.62256
    Y4       -2.79611  -0.00006   0.00000   0.00100   0.00100  -2.79511
    Z4        2.26057  -0.00003   0.00000  -0.01165  -0.01165   2.24892
    X5        2.43616  -0.00001   0.00000   0.00824   0.00824   2.44440
    Y5       -4.47259  -0.00002   0.00000  -0.00560  -0.00560  -4.47819
    Z5        1.98959   0.00002   0.00000  -0.00372  -0.00372   1.98587
    X6        2.80064   0.00004   0.00000  -0.01063  -0.01063   2.79001
    Y6       -1.35509  -0.00012   0.00000   0.01101   0.01101  -1.34408
    Z6        4.31443  -0.00006   0.00000  -0.02351  -0.02351   4.29092
    X7        1.02542  -0.00014   0.00000  -0.01266  -0.01266   1.01275
    Y7       -0.91501   0.00001   0.00000   0.00099   0.00099  -0.91402
    Z7        4.09088  -0.00000   0.00000  -0.03017  -0.03017   4.06071
    X8        6.36824  -0.00001   0.00000   0.00360   0.00360   6.37184
    Y8       -3.57484   0.00002   0.00000   0.01802   0.01802  -3.55682
    Z8        2.63995   0.00002   0.00000  -0.00071  -0.00071   2.63924
    X9        6.55693  -0.00002   0.00000   0.00879   0.00879   6.56571
    Y9       -5.23805   0.00001   0.00000   0.03234   0.03234  -5.20571
    Z9        3.85464   0.00002   0.00000   0.01824   0.01824   3.87288
   X10        7.76195  -0.00007   0.00000  -0.00687  -0.00687   7.75507
   Y10       -1.52361   0.00009   0.00000   0.03619   0.03619  -1.48742
   Z10        3.60878   0.00002   0.00000  -0.02365  -0.02365   3.58513
   X11        6.71968  -0.00001   0.00000  -0.01195  -0.01195   6.70774
   Y11       -0.72640  -0.00001   0.00000   0.04430   0.04430  -0.68210
   Z11        4.87807   0.00003   0.00000  -0.03277  -0.03277   4.84530
   X12        3.79305   0.00002   0.00000   0.00458   0.00458   3.79763
   Y12       -1.32122  -0.00006   0.00000  -0.01294  -0.01294  -1.33416
   Z12       -0.23329  -0.00005   0.00000  -0.01869  -0.01869  -0.25198
   X13        4.37136  -0.00000   0.00000   0.00620   0.00620   4.37756
   Y13        0.62220   0.00001   0.00000  -0.01211  -0.01211   0.61009
   Z13        0.17835  -0.00002   0.00000  -0.02532  -0.02532   0.15303
   X14        7.23146   0.00006   0.00000   0.00463   0.00463   7.23609
   Y14       -4.10838   0.00005   0.00000  -0.00878  -0.00878  -4.11716
   Z14       -0.06005   0.00003   0.00000   0.00486   0.00486  -0.05518
   X15        9.17183  -0.00002   0.00000   0.00482   0.00482   9.17665
   Y15       -3.44564   0.00001   0.00000  -0.01222  -0.01222  -3.45785
   Z15       -0.28353  -0.00001   0.00000  -0.00132  -0.00132  -0.28485
   X16        5.63925   0.00001   0.00000   0.00489   0.00489   5.64414
   Y16       -2.60383  -0.00012   0.00000  -0.02313  -0.02313  -2.62696
   Z16       -1.66218  -0.00003   0.00000  -0.00977  -0.00977  -1.67196
   X17        1.47807   0.00004   0.00000   0.00438   0.00438   1.48245
   Y17       -1.18417  -0.00002   0.00000  -0.01109  -0.01109  -1.19527
   Z17       -1.65576  -0.00002   0.00000  -0.01755  -0.01755  -1.67331
   X18        0.36730   0.00001   0.00000   0.00966   0.00966   0.37696
   Y18       -3.39960  -0.00007   0.00000  -0.00632  -0.00632  -3.40593
   Z18       -2.55290  -0.00011   0.00000  -0.03628  -0.03628  -2.58918
   X19        1.39447  -0.00004   0.00000   0.01183   0.01183   1.40630
   Y19       -5.11126   0.00004   0.00000  -0.00806  -0.00806  -5.11932
   Z19       -2.12256  -0.00002   0.00000  -0.04919  -0.04919  -2.17175
   X20       -1.74758   0.00007   0.00000   0.01110   0.01110  -1.73647
   Y20       -3.41367  -0.00002   0.00000   0.00083   0.00083  -3.41284
   Z20       -3.90577  -0.00012   0.00000  -0.03864  -0.03864  -3.94441
   X21       -2.47177   0.00001   0.00000   0.01470   0.01470  -2.45707
   Y21       -5.21163   0.00003   0.00000   0.00474   0.00474  -5.20689
   Z21       -4.55403   0.00002   0.00000  -0.05357  -0.05357  -4.60760
   X22       -3.14688   0.00008   0.00000   0.00598   0.00598  -3.14090
   Y22       -1.04498   0.00003   0.00000   0.00380   0.00380  -1.04119
   Z22       -4.61278   0.00023   0.00000  -0.01896  -0.01896  -4.63174
   X23       -3.34854   0.00001   0.00000   0.01316   0.01316  -3.33538
   Y23       -0.95404   0.00000   0.00000   0.02500   0.02500  -0.92904
   Z23       -6.67781  -0.00007   0.00000  -0.01895  -0.01895  -6.69676
   X24       -5.08126  -0.00002   0.00000   0.00283   0.00283  -5.07842
   Y24       -1.10472  -0.00006   0.00000  -0.01286  -0.01286  -1.11759
   Z24       -3.86078  -0.00011   0.00000  -0.02814  -0.02814  -3.88892
   X25       -1.77060   0.00011   0.00000  -0.00666  -0.00666  -1.77725
   Y25        1.24945  -0.00004   0.00000  -0.00198  -0.00198   1.24748
   Z25       -3.62372   0.00003   0.00000   0.01268   0.01268  -3.61104
   X26        0.37456  -0.00003   0.00000  -0.00503  -0.00503   0.36953
   Y26        1.06026   0.00001   0.00000  -0.00887  -0.00887   1.05139
   Z26       -2.27543   0.00002   0.00000   0.00823   0.00823  -2.26720
   X27        1.29360  -0.00001   0.00000  -0.01293  -0.01293   1.28067
   Y27        2.76178   0.00003   0.00000  -0.01264  -0.01264   2.74914
   Z27       -1.60042   0.00001   0.00000   0.02829   0.02829  -1.57213
   X28       -2.76366   0.00022   0.00000  -0.02126  -0.02126  -2.78492
   Y28        3.82142  -0.00000   0.00000  -0.00068  -0.00068   3.82074
   Z28       -4.04508   0.00027   0.00000   0.05451   0.05451  -3.99057
   X29       -1.74062   0.00012   0.00000  -0.05159  -0.05159  -1.79221
   Y29        5.74266   0.00011   0.00000  -0.01031  -0.01031   5.73235
   Z29       -3.29752   0.00048   0.00000   0.12184   0.12184  -3.17568
   X30       -5.04149  -0.00070   0.00000  -0.00028  -0.00028  -5.04177
   Y30        3.93197  -0.00041   0.00000   0.00829   0.00829   3.94027
   Z30       -5.28442  -0.00085   0.00000   0.01445   0.01445  -5.26996
   X31       -5.60724   0.00012   0.00000  -0.00441  -0.00441  -5.61166
   Y31        5.66626  -0.00019   0.00000   0.01575   0.01575   5.68201
   Z31       -5.82710   0.00013   0.00000   0.04451   0.04451  -5.78259
   X32       -5.68783   0.00024   0.00000   0.03190   0.03190  -5.65593
   Y32        2.44553   0.00056   0.00000   0.02737   0.02737   2.47289
   Z32       -6.27505   0.00035   0.00000  -0.03255  -0.03255  -6.30760
   X33        5.12167  -0.00003   0.00000   0.00030   0.00030   5.12197
   Y33       -7.59219   0.00000   0.00000  -0.00907  -0.00907  -7.60126
   Z33       -0.39929   0.00001   0.00000   0.04389   0.04389  -0.35539
   X34        0.44960   0.00028   0.00000  -0.00008  -0.00008   0.44952
   Y34        4.21689   0.00010   0.00000  -0.00058  -0.00058   4.21631
   Z34        5.07467  -0.00022   0.00000  -0.00500  -0.00500   5.06967
   X35       -3.28806  -0.00015   0.00000   0.00033   0.00033  -3.28773
   Y35        1.75399   0.00025   0.00000   0.00122   0.00122   1.75521
   Z35        2.53802  -0.00009   0.00000   0.00334   0.00334   2.54136
   X36       -5.66970  -0.00014   0.00000   0.00830   0.00830  -5.66140
   Y36        1.66942  -0.00068   0.00000  -0.00142  -0.00142   1.66799
   Z36        1.08457   0.00032   0.00000  -0.00975  -0.00975   1.07482
   X37       -9.31687  -0.00001   0.00000   0.00275   0.00275  -9.31412
   Y37       -0.76397   0.00004   0.00000   0.00043   0.00043  -0.76353
   Z37       -0.66290   0.00008   0.00000  -0.00110  -0.00110  -0.66400
   X38       -6.87379   0.00003   0.00000  -0.00760  -0.00760  -6.88139
   Y38       -0.50462   0.00014   0.00000   0.00309   0.00309  -0.50153
   Z38        0.71589   0.00009   0.00000   0.01706   0.01706   0.73295
   X39       -2.14178  -0.00001   0.00000  -0.03553  -0.03553  -2.17731
   Y39       -0.11649  -0.00025   0.00000   0.00120   0.00120  -0.11529
   Z39        3.22610   0.00012   0.00000   0.06397   0.06397   3.29007
   X40       -2.33029   0.00003   0.00000   0.04749   0.04749  -2.28280
   Y40        4.84774   0.00018   0.00000   0.00429   0.00429   4.85204
   Z40        3.23100  -0.00029   0.00000  -0.07451  -0.07451   3.15648
   X41        1.05201  -0.00009   0.00000   0.00258   0.00258   1.05459
   Y41        6.01903  -0.00025   0.00000   0.00275   0.00275   6.02178
   Z41        5.85894  -0.00011   0.00000  -0.01710  -0.01710   5.84185
   X42        1.94291  -0.00014   0.00000   0.01623   0.01623   1.95914
   Y42        3.43891   0.00007   0.00000  -0.03627  -0.03627   3.40264
   Z42        3.89533   0.00014   0.00000   0.04064   0.04064   3.93597
   X43      -10.80368  -0.00008   0.00000  -0.01376  -0.01376 -10.81744
   Y43       -1.38765  -0.00005   0.00000   0.02500   0.02500  -1.36266
   Z43        0.62691   0.00006   0.00000  -0.00788  -0.00788   0.61903
   X44       -9.89107   0.00002   0.00000   0.02174   0.02174  -9.86934
   Y44        1.01743   0.00002   0.00000  -0.00734  -0.00734   1.01010
   Z44       -1.51994  -0.00002   0.00000  -0.03020  -0.03020  -1.55013
   X45       -9.17590  -0.00001   0.00000   0.00780   0.00780  -9.16810
   Y45       -2.20303   0.00003   0.00000  -0.01882  -0.01882  -2.22185
   Z45       -2.13607   0.00004   0.00000   0.01813   0.01813  -2.11794
   X46       -6.02043   0.00005   0.00000  -0.02613  -0.02613  -6.04656
   Y46       -2.20693   0.00003   0.00000   0.00786   0.00786  -2.19907
   Z46        1.48522  -0.00003   0.00000   0.04803   0.04803   1.53325
   X47       -6.39663  -0.00010   0.00000   0.03075   0.03075  -6.36588
   Y47        3.44562   0.00048   0.00000  -0.00599  -0.00599   3.43962
   Z47        0.36753  -0.00021   0.00000  -0.04798  -0.04798   0.31956
   X48        0.01152   0.00004   0.00000  -0.05029  -0.05029  -0.03877
   Y48        2.90063   0.00007   0.00000   0.02687   0.02687   2.92750
   Z48        6.59208  -0.00011   0.00000   0.00414   0.00414   6.59622
         Item               Value     Threshold  Converged?
 Maximum Force            0.000846     0.000450     NO 
 RMS     Force            0.000169     0.000300     YES
 Maximum Displacement     0.121836     0.001800     NO 
 RMS     Displacement     0.025012     0.001200     NO 
 Predicted change in Energy=-7.229519D-05
 GradGradGradGradGradGradGradGradGradGradGradGradGradGradGradGradGradGrad

 Leave Link  103 at Sat Aug 13 20:47:21 2022, MaxMem=  2684354560 cpu:               0.9 elap:               0.1
 (Enter /storage/apps/GAUSSIAN/G16_RevA03/g16/l9999.exe)

 Test job not archived.
 1\1\GINC-T039\Force\RM062X\def2TZVP\C16H24N2O5S1\LV87696\13-Aug-2022\0
 \\#P M062X/Def2TZVP scf=(direct,conver=8) EmpiricalDispersion=GD3 Forc
 e Charge Prop=(Field,Read)\\Gaussian run\\0,1\C,3.707653,-3.630988,-0.
 432951\H,3.885613,-3.735887,-1.502372\H,4.438105,-4.236267,0.105205\C,
 1.916448,-1.479637,1.196241\H,1.28916,-2.366794,1.052845\O,1.482037,-0
 .717082,2.283097\H,0.542627,-0.484202,2.164802\C,3.36993,-1.891726,1.3
 97001\H,3.469776,-2.771859,2.03979\O,4.107446,-0.806261,1.909683\H,3.5
 55902,-0.384393,2.581362\C,2.007195,-0.699159,-0.123453\H,2.313222,0.3
 29254,0.094378\C,3.826722,-2.17406,-0.031775\H,4.853523,-1.823353,-0.1
 50037\O,2.984162,-1.377885,-0.879588\N,0.782162,-0.626637,-0.876188\C,
 0.194366,-1.798992,-1.350937\H,0.73792,-2.704763,-1.123211\C,-0.924778
 ,-1.806436,-2.066845\H,-1.308005,-2.757874,-2.409888\C,-1.665259,-0.55
 2981,-2.440977\H,-1.771971,-0.504858,-3.533746\H,-2.688885,-0.584595,-
 2.043036\C,-0.936961,0.661183,-1.917589\C,0.198211,0.561066,-1.204108\
 H,0.684544,1.461473,-0.846906\C,-1.462467,2.022208,-2.140566\O,-0.9210
 94,3.038884,-1.744971\N,-2.667839,2.080711,-2.796392\H,-2.967224,2.998
 454,-3.083569\H,-3.009868,1.294117,-3.320616\H,2.710269,-4.017615,-0.2
 11294\C,0.237918,2.23148,2.685398\C,-1.739964,0.928173,1.34306\C,-3.00
 0276,0.883418,0.573929\C,-4.930276,-0.404273,-0.350791\C,-3.637455,-0.
 267034,0.378832\O,-1.133381,-0.061644,1.707179\S,-1.233136,2.565316,1.
 709769\H,0.556702,3.185131,3.100418\H,1.028144,1.819793,2.061319\H,-5.
 717062,-0.734315,0.331747\H,-5.234131,0.538402,-0.804316\H,-4.855675,-
 1.165795,-1.130357\H,-3.185877,-1.167859,0.785945\H,-3.384949,1.823342
 ,0.194491\H,0.006097,1.534946,3.488379\\Version=ES64L-G16RevA.03\State
 =1-A\HF=-1507.9337797\RMSD=1.008e-09\RMSF=1.689e-04\Dipole=-1.5714276,
 -1.14552,-0.1838897\Quadrupole=3.735451,-2.9990451,-0.7364058,-1.98879
 6,8.1536749,4.4813647\PG=C01 [X(C16H24N2O5S1)]\\@


 THE VALUE OF PHILOSOPHY IS, IN FACT, TO BE SOUGHT LARGELY IN ITS
 VERY UNCERTAINTY.  THE MAN WHO HAS NO TINCTURE OF PHILOSOPHY GOES
 THROUGH LIFE IMPRISONED IN THE PREJUDICES DERIVED FROM COMMON SENSE,
 FROM THE HABITUAL BELIEFS OF HIS AGE OR HIS NATION, AND FROM
 CONVICTIONS WHICH HAVE GROWN UP IN HIS MIND WITHOUT THE CO-OPERATION
 OR CONSENT OF HIS DELIBERATE REASON.  TO SUCH A MAN THE WORLD TENDS
 TO BE DEFINITE, FINITE, OBVIOUS; COMMON OBJECTS ROUSE NO QUESTIONS,
 AND UNFAMILIAR POSSIBILITIES ARE CONTEMPTUOUSLY REJECTED.

                             -- BERTRAND RUSSELL
 Job cpu time:       0 days  3 hours 37 minutes  1.0 seconds.
 Elapsed time:       0 days  0 hours 13 minutes 35.6 seconds.
 File lengths (MBytes):  RWF=    435 Int=      0 D2E=      0 Chk=     48 Scr=      1
 Normal termination of Gaussian 16 at Sat Aug 13 20:47:21 2022.
