 Entering Gaussian System, Link 0=g16
 Initial command:
 /storage/apps/GAUSSIAN/G16_RevA03/g16/l1.exe "/scratch/tmp/1019215/Gau-129920.inp" -scrdir="/scratch/tmp/1019215/"
 Entering Link 1 = /storage/apps/GAUSSIAN/G16_RevA03/g16/l1.exe PID=    129922.
  
 Copyright (c) 1988,1990,1992,1993,1995,1998,2003,2009,2016,
            Gaussian, Inc.  All Rights Reserved.
  
 This is part of the Gaussian(R) 16 program.  It is based on
 the Gaussian(R) 09 system (copyright 2009, Gaussian, Inc.),
 the Gaussian(R) 03 system (copyright 2003, Gaussian, Inc.),
 the Gaussian(R) 98 system (copyright 1998, Gaussian, Inc.),
 the Gaussian(R) 94 system (copyright 1995, Gaussian, Inc.),
 the Gaussian 92(TM) system (copyright 1992, Gaussian, Inc.),
 the Gaussian 90(TM) system (copyright 1990, Gaussian, Inc.),
 the Gaussian 88(TM) system (copyright 1988, Gaussian, Inc.),
 the Gaussian 86(TM) system (copyright 1986, Carnegie Mellon
 University), and the Gaussian 82(TM) system (copyright 1983,
 Carnegie Mellon University). Gaussian is a federally registered
 trademark of Gaussian, Inc.
  
 This software contains proprietary and confidential information,
 including trade secrets, belonging to Gaussian, Inc.
  
 This software is provided under written license and may be
 used, copied, transmitted, or stored only in accord with that
 written license.
  
 The following legend is applicable only to US Government
 contracts under FAR:
  
                    RESTRICTED RIGHTS LEGEND
  
 Use, reproduction and disclosure by the US Government is
 subject to restrictions as set forth in subparagraphs (a)
 and (c) of the Commercial Computer Software - Restricted
 Rights clause in FAR 52.227-19.
  
 Gaussian, Inc.
 340 Quinnipiac St., Bldg. 40, Wallingford CT 06492
  
  
 ---------------------------------------------------------------
 Warning -- This program may not be used in any manner that
 competes with the business of Gaussian, Inc. or will provide
 assistance to any competitor of Gaussian, Inc.  The licensee
 of this program is prohibited from giving any competitor of
 Gaussian, Inc. access to this program.  By using this program,
 the user acknowledges that Gaussian, Inc. is engaged in the
 business of creating and licensing software in the field of
 computational chemistry and represents and warrants to the
 licensee that it is not a competitor of Gaussian, Inc. and that
 it will not use this program in any manner prohibited above.
 ---------------------------------------------------------------
  

 Cite this work as:
 Gaussian 16, Revision A.03,
 M. J. Frisch, G. W. Trucks, H. B. Schlegel, G. E. Scuseria, 
 M. A. Robb, J. R. Cheeseman, G. Scalmani, V. Barone, 
 G. A. Petersson, H. Nakatsuji, X. Li, M. Caricato, A. V. Marenich, 
 J. Bloino, B. G. Janesko, R. Gomperts, B. Mennucci, H. P. Hratchian, 
 J. V. Ortiz, A. F. Izmaylov, J. L. Sonnenberg, D. Williams-Young, 
 F. Ding, F. Lipparini, F. Egidi, J. Goings, B. Peng, A. Petrone, 
 T. Henderson, D. Ranasinghe, V. G. Zakrzewski, J. Gao, N. Rega, 
 G. Zheng, W. Liang, M. Hada, M. Ehara, K. Toyota, R. Fukuda, 
 J. Hasegawa, M. Ishida, T. Nakajima, Y. Honda, O. Kitao, H. Nakai, 
 T. Vreven, K. Throssell, J. A. Montgomery, Jr., J. E. Peralta, 
 F. Ogliaro, M. J. Bearpark, J. J. Heyd, E. N. Brothers, K. N. Kudin, 
 V. N. Staroverov, T. A. Keith, R. Kobayashi, J. Normand, 
 K. Raghavachari, A. P. Rendell, J. C. Burant, S. S. Iyengar, 
 J. Tomasi, M. Cossi, J. M. Millam, M. Klene, C. Adamo, R. Cammi, 
 J. W. Ochterski, R. L. Martin, K. Morokuma, O. Farkas, 
 J. B. Foresman, and D. J. Fox, Gaussian, Inc., Wallingford CT, 2016.
 
 ******************************************
 Gaussian 16:  ES64L-G16RevA.03 25-Dec-2016
                13-Aug-2022 
 ******************************************
 %NProcShared=16
 Will use up to   16 processors via shared memory.
 %mem=20GB
 ----------------------------------------------------------------------
 #P M062X/Def2TZVP scf=(direct,conver=8) EmpiricalDispersion=GD3 Force 
 Charge Prop=(Field,Read)
 ----------------------------------------------------------------------
 1/10=7,18=10,28=-2,30=1,38=1,125=101/1,3;
 2/12=2,17=6,18=5,29=2,40=1/2;
 3/5=44,7=101,11=2,25=1,30=1,71=1,74=-55,124=31/1,2,3;
 4//1;
 5/5=2,6=8,38=5/2;
 6/7=2,8=2,9=2,10=2,14=2,15=1,28=1/1,2;
 7/7=1,16=-2,29=1/1,2,3,16;
 1/10=7,18=10,28=-2,30=1/3;
 99/12=1/99;
 Leave Link    1 at Sat Aug 13 20:21:42 2022, MaxMem=  2684354560 cpu:               0.7 elap:               0.1
 (Enter /storage/apps/GAUSSIAN/G16_RevA03/g16/l101.exe)
 ------------
 Gaussian run
 ------------
 Symbolic Z-matrix:
 Charge =  0 Multiplicity = 1
 C                     3.61439  -3.6201   -0.444 
 H                     3.76475  -3.71857  -1.51826 
 H                     4.3402   -4.25033   0.07126 
 C                     1.89904  -1.45563   1.22474 
 H                     1.25256  -2.33035   1.09019 
 O                     1.50136  -0.69447   2.32709 
 H                     0.56932  -0.43587   2.2048 
 C                     3.34814  -1.8916    1.40308 
 H                     3.44104  -2.77764   2.03896 
 O                     4.10693  -0.82111   1.91512 
 H                     3.56536  -0.39226   2.59042 
 C                     1.97727  -0.66995  -0.0962 
 H                     2.27583   0.36076   0.12104 
 C                     3.78209  -2.17067  -0.03131 
 H                     4.81752  -1.85032  -0.15883 
 O                     2.95651  -1.33864  -0.85919 
 N                     0.75184  -0.60647  -0.85123 
 C                     0.17903  -1.78477  -1.32611 
 H                     0.73387  -2.68382  -1.09942 
 C                    -0.93734  -1.80697  -2.0464 
 H                    -1.30493  -2.76239  -2.3954 
 C                    -1.69568  -0.56316  -2.4128 
 H                    -1.835    -0.51725  -3.50083 
 H                    -2.70793  -0.60883  -1.98943 
 C                    -0.9638    0.66127  -1.92207 
 C                     0.17407   0.57588  -1.21154 
 H                     0.66794   1.48296  -0.8826 
 C                    -1.48358   2.01904  -2.18816 
 O                    -0.86186   3.0436   -1.97229 
 N                    -2.76145   2.06462  -2.67857 
 H                    -3.12751   2.96657  -2.93564 
 H                    -3.2767    1.24085  -2.92541 
 H                     2.61294  -3.98367  -0.20239 
 C                     0.21295   2.20266   2.79992 
 C                    -1.67444   0.91875   1.30384 
 C                    -2.94096   0.87521   0.54867 
 C                    -4.84407  -0.42496  -0.41158 
 C                    -3.5299   -0.28598   0.27945 
 O                    -1.03175  -0.0699    1.60103 
 S                    -1.22643   2.54662   1.78024 
 H                     0.47863   3.14055   3.28194 
 H                     1.04453   1.8518    2.19375 
 H                    -5.60015  -0.78656   0.28932 
 H                    -5.18211   0.52734  -0.81983 
 H                    -4.78983  -1.16108  -1.21704 
 H                    -3.02493  -1.19367   0.59967 
 H                    -3.37826   1.82265   0.25326 
 H                    -0.03356   1.4573    3.55309 
 
 ITRead=  0  0  0  0  0  0  0  0  0  0  0  0  0  0  0  0  0  0  0  0
 ITRead=  0  0  0  0  0  0  0  0  0  0  0  0  0  0  0  0  0  0  0  0
 ITRead=  0  0  0  0  0  0  0  0
 MicOpt= -1 -1 -1 -1 -1 -1 -1 -1 -1 -1 -1 -1 -1 -1 -1 -1 -1 -1 -1 -1
 MicOpt= -1 -1 -1 -1 -1 -1 -1 -1 -1 -1 -1 -1 -1 -1 -1 -1 -1 -1 -1 -1
 MicOpt= -1 -1 -1 -1 -1 -1 -1 -1
 NAtoms=     48 NQM=       48 NQMF=       0 NMMI=      0 NMMIF=      0
                NMic=       0 NMicF=      0.
                    Isotopes and Nuclear Properties:
 (Nuclear quadrupole moments (NQMom) in fm**2, nuclear magnetic moments (NMagM)
  in nuclear magnetons)

  Atom         1           2           3           4           5           6           7           8           9          10
 IAtWgt=          12           1           1          12           1          16           1          12           1          16
 AtmWgt=  12.0000000   1.0078250   1.0078250  12.0000000   1.0078250  15.9949146   1.0078250  12.0000000   1.0078250  15.9949146
 NucSpn=           0           1           1           0           1           0           1           0           1           0
 AtZEff=  -0.0000000  -0.0000000  -0.0000000  -0.0000000  -0.0000000  -0.0000000  -0.0000000  -0.0000000  -0.0000000  -0.0000000
 NQMom=    0.0000000   0.0000000   0.0000000   0.0000000   0.0000000   0.0000000   0.0000000   0.0000000   0.0000000   0.0000000
 NMagM=    0.0000000   2.7928460   2.7928460   0.0000000   2.7928460   0.0000000   2.7928460   0.0000000   2.7928460   0.0000000
 AtZNuc=   6.0000000   1.0000000   1.0000000   6.0000000   1.0000000   8.0000000   1.0000000   6.0000000   1.0000000   8.0000000

  Atom        11          12          13          14          15          16          17          18          19          20
 IAtWgt=           1          12           1          12           1          16          14          12           1          12
 AtmWgt=   1.0078250  12.0000000   1.0078250  12.0000000   1.0078250  15.9949146  14.0030740  12.0000000   1.0078250  12.0000000
 NucSpn=           1           0           1           0           1           0           2           0           1           0
 AtZEff=  -0.0000000  -0.0000000  -0.0000000  -0.0000000  -0.0000000  -0.0000000  -0.0000000  -0.0000000  -0.0000000  -0.0000000
 NQMom=    0.0000000   0.0000000   0.0000000   0.0000000   0.0000000   0.0000000   2.0440000   0.0000000   0.0000000   0.0000000
 NMagM=    2.7928460   0.0000000   2.7928460   0.0000000   2.7928460   0.0000000   0.4037610   0.0000000   2.7928460   0.0000000
 AtZNuc=   1.0000000   6.0000000   1.0000000   6.0000000   1.0000000   8.0000000   7.0000000   6.0000000   1.0000000   6.0000000

  Atom        21          22          23          24          25          26          27          28          29          30
 IAtWgt=           1          12           1           1          12          12           1          12          16          14
 AtmWgt=   1.0078250  12.0000000   1.0078250   1.0078250  12.0000000  12.0000000   1.0078250  12.0000000  15.9949146  14.0030740
 NucSpn=           1           0           1           1           0           0           1           0           0           2
 AtZEff=  -0.0000000  -0.0000000  -0.0000000  -0.0000000  -0.0000000  -0.0000000  -0.0000000  -0.0000000  -0.0000000  -0.0000000
 NQMom=    0.0000000   0.0000000   0.0000000   0.0000000   0.0000000   0.0000000   0.0000000   0.0000000   0.0000000   2.0440000
 NMagM=    2.7928460   0.0000000   2.7928460   2.7928460   0.0000000   0.0000000   2.7928460   0.0000000   0.0000000   0.4037610
 AtZNuc=   1.0000000   6.0000000   1.0000000   1.0000000   6.0000000   6.0000000   1.0000000   6.0000000   8.0000000   7.0000000

  Atom        31          32          33          34          35          36          37          38          39          40
 IAtWgt=           1           1           1          12          12          12          12          12          16          32
 AtmWgt=   1.0078250   1.0078250   1.0078250  12.0000000  12.0000000  12.0000000  12.0000000  12.0000000  15.9949146  31.9720718
 NucSpn=           1           1           1           0           0           0           0           0           0           0
 AtZEff=  -0.0000000  -0.0000000  -0.0000000  -0.0000000  -0.0000000  -0.0000000  -0.0000000  -0.0000000  -0.0000000  -0.0000000
 NQMom=    0.0000000   0.0000000   0.0000000   0.0000000   0.0000000   0.0000000   0.0000000   0.0000000   0.0000000   0.0000000
 NMagM=    2.7928460   2.7928460   2.7928460   0.0000000   0.0000000   0.0000000   0.0000000   0.0000000   0.0000000   0.0000000
 AtZNuc=   1.0000000   1.0000000   1.0000000   6.0000000   6.0000000   6.0000000   6.0000000   6.0000000   8.0000000  16.0000000

  Atom        41          42          43          44          45          46          47          48
 IAtWgt=           1           1           1           1           1           1           1           1
 AtmWgt=   1.0078250   1.0078250   1.0078250   1.0078250   1.0078250   1.0078250   1.0078250   1.0078250
 NucSpn=           1           1           1           1           1           1           1           1
 AtZEff=  -0.0000000  -0.0000000  -0.0000000  -0.0000000  -0.0000000  -0.0000000  -0.0000000  -0.0000000
 NQMom=    0.0000000   0.0000000   0.0000000   0.0000000   0.0000000   0.0000000   0.0000000   0.0000000
 NMagM=    2.7928460   2.7928460   2.7928460   2.7928460   2.7928460   2.7928460   2.7928460   2.7928460
 AtZNuc=   1.0000000   1.0000000   1.0000000   1.0000000   1.0000000   1.0000000   1.0000000   1.0000000
 Background charge distribution read from input stream:
 Leave Link  101 at Sat Aug 13 20:21:42 2022, MaxMem=  2684354560 cpu:               2.2 elap:               0.2
 (Enter /storage/apps/GAUSSIAN/G16_RevA03/g16/l103.exe)

 GradGradGradGradGradGradGradGradGradGradGradGradGradGradGradGradGradGrad
 Berny optimization.
 Initialization pass.
 Trust Radius=3.00D-01 FncErr=1.00D-07 GrdErr=1.00D-07 EigMax=2.50D+02 EigMin=1.00D-04
 Number of steps in this run=      2 maximum allowed number of steps=      2.
 GradGradGradGradGradGradGradGradGradGradGradGradGradGradGradGradGradGrad

 Leave Link  103 at Sat Aug 13 20:21:42 2022, MaxMem=  2684354560 cpu:               0.4 elap:               0.1
 (Enter /storage/apps/GAUSSIAN/G16_RevA03/g16/l202.exe)
 ---------------------------------------------------------------------------------------------------
                            Z-MATRIX (ANGSTROMS AND DEGREES)
   CD    Cent   Atom    N1       Length/X        N2       Alpha/Y        N3        Beta/Z          J
 ---------------------------------------------------------------------------------------------------
      1      1  C        0   3.614385         -3.620096         -0.443999
      2      2  H        0   3.764745         -3.718572         -1.518256
      3      3  H        0   4.340197         -4.250335          0.071261
      4      4  C        0   1.899038         -1.455629          1.224741
      5      5  H        0   1.252562         -2.330351          1.090192
      6      6  O        0   1.501356         -0.694470          2.327093
      7      7  H        0   0.569315         -0.435867          2.204797
      8      8  C        0   3.348144         -1.891600          1.403082
      9      9  H        0   3.441036         -2.777642          2.038957
     10     10  O        0   4.106932         -0.821110          1.915121
     11     11  H        0   3.565358         -0.392257          2.590420
     12     12  C        0   1.977269         -0.669954         -0.096203
     13     13  H        0   2.275830          0.360760          0.121035
     14     14  C        0   3.782093         -2.170668         -0.031314
     15     15  H        0   4.817518         -1.850324         -0.158825
     16     16  O        0   2.956506         -1.338640         -0.859192
     17     17  N        0   0.751835         -0.606474         -0.851227
     18     18  C        0   0.179034         -1.784770         -1.326107
     19     19  H        0   0.733869         -2.683819         -1.099423
     20     20  C        0  -0.937338         -1.806973         -2.046403
     21     21  H        0  -1.304929         -2.762388         -2.395397
     22     22  C        0  -1.695683         -0.563155         -2.412802
     23     23  H        0  -1.835000         -0.517250         -3.500830
     24     24  H        0  -2.707925         -0.608833         -1.989426
     25     25  C        0  -0.963801          0.661270         -1.922067
     26     26  C        0   0.174072          0.575875         -1.211536
     27     27  H        0   0.667944          1.482958         -0.882603
     28     28  C        0  -1.483578          2.019038         -2.188159
     29     29  O        0  -0.861863          3.043605         -1.972287
     30     30  N        0  -2.761445          2.064623         -2.678567
     31     31  H        0  -3.127509          2.966568         -2.935638
     32     32  H        0  -3.276697          1.240848         -2.925406
     33     33  H        0   2.612935         -3.983669         -0.202394
     34     34  C        0   0.212952          2.202663          2.799917
     35     35  C        0  -1.674443          0.918747          1.303840
     36     36  C        0  -2.940956          0.875207          0.548672
     37     37  C        0  -4.844070         -0.424961         -0.411581
     38     38  C        0  -3.529897         -0.285976          0.279451
     39     39  O        0  -1.031748         -0.069904          1.601026
     40     40  S        0  -1.226427          2.546622          1.780240
     41     41  H        0   0.478632          3.140552          3.281935
     42     42  H        0   1.044530          1.851802          2.193746
     43     43  H        0  -5.600154         -0.786564          0.289324
     44     44  H        0  -5.182110          0.527335         -0.819828
     45     45  H        0  -4.789831         -1.161078         -1.217043
     46     46  H        0  -3.024933         -1.193670          0.599672
     47     47  H        0  -3.378261          1.822645          0.253260
     48     48  H        0  -0.033555          1.457298          3.553091
 ---------------------------------------------------------------------------------------------------
                         Z-Matrix orientation:                         
 ---------------------------------------------------------------------
 Center     Atomic      Atomic             Coordinates (Angstroms)
 Number     Number       Type             X           Y           Z
 ---------------------------------------------------------------------
      1          6           0        3.614385   -3.620096   -0.443999
      2          1           0        3.764745   -3.718572   -1.518256
      3          1           0        4.340197   -4.250335    0.071261
      4          6           0        1.899038   -1.455629    1.224741
      5          1           0        1.252562   -2.330351    1.090192
      6          8           0        1.501356   -0.694470    2.327093
      7          1           0        0.569315   -0.435867    2.204797
      8          6           0        3.348144   -1.891600    1.403082
      9          1           0        3.441036   -2.777642    2.038957
     10          8           0        4.106932   -0.821110    1.915121
     11          1           0        3.565358   -0.392257    2.590420
     12          6           0        1.977269   -0.669954   -0.096203
     13          1           0        2.275830    0.360760    0.121035
     14          6           0        3.782093   -2.170668   -0.031314
     15          1           0        4.817518   -1.850324   -0.158825
     16          8           0        2.956506   -1.338640   -0.859192
     17          7           0        0.751835   -0.606474   -0.851227
     18          6           0        0.179034   -1.784770   -1.326107
     19          1           0        0.733869   -2.683819   -1.099423
     20          6           0       -0.937338   -1.806973   -2.046403
     21          1           0       -1.304929   -2.762388   -2.395397
     22          6           0       -1.695683   -0.563155   -2.412802
     23          1           0       -1.835000   -0.517250   -3.500830
     24          1           0       -2.707925   -0.608833   -1.989426
     25          6           0       -0.963801    0.661270   -1.922067
     26          6           0        0.174072    0.575875   -1.211536
     27          1           0        0.667944    1.482958   -0.882603
     28          6           0       -1.483578    2.019038   -2.188159
     29          8           0       -0.861863    3.043605   -1.972287
     30          7           0       -2.761445    2.064623   -2.678567
     31          1           0       -3.127509    2.966568   -2.935638
     32          1           0       -3.276697    1.240848   -2.925406
     33          1           0        2.612935   -3.983669   -0.202394
     34          6           0        0.212952    2.202663    2.799917
     35          6           0       -1.674443    0.918747    1.303840
     36          6           0       -2.940956    0.875207    0.548672
     37          6           0       -4.844070   -0.424961   -0.411581
     38          6           0       -3.529897   -0.285976    0.279451
     39          8           0       -1.031748   -0.069904    1.601026
     40         16           0       -1.226427    2.546622    1.780240
     41          1           0        0.478632    3.140552    3.281935
     42          1           0        1.044530    1.851802    2.193746
     43          1           0       -5.600154   -0.786564    0.289324
     44          1           0       -5.182110    0.527335   -0.819828
     45          1           0       -4.789831   -1.161078   -1.217043
     46          1           0       -3.024933   -1.193670    0.599672
     47          1           0       -3.378261    1.822645    0.253260
     48          1           0       -0.033555    1.457298    3.553091
 ---------------------------------------------------------------------
                    Distance matrix (angstroms):
                    1          2          3          4          5
     1  C    0.000000
     2  H    1.089189   0.000000
     3  H    1.090641   1.772140   0.000000
     4  C    3.226767   4.015695   3.885892   0.000000
     5  H    3.097643   3.878430   3.775983   1.095980   0.000000
     6  O    4.550069   5.390253   5.078580   1.397388   2.065897
     7  H    5.140806   5.903224   5.772495   1.941285   2.301791
     8  C    2.543677   3.470677   2.884709   1.523740   2.163762
     9  H    2.627708   3.693765   2.617087   2.188247   2.426859
    10  O    3.693558   4.505603   3.900489   2.398757   3.332528
    11  H    4.430468   5.290118   4.672398   2.402595   3.369854
    12  C    3.391821   3.809380   4.293088   1.538928   2.165560
    13  H    4.237713   4.641669   5.052354   2.158566   3.037832
    14  C    1.516337   2.146463   2.155694   2.373784   2.771606
    15  H    2.158922   2.539042   2.457810   3.253854   3.807805
    16  O    2.410442   2.598402   3.355341   2.339808   2.772546
    17  N    4.176355   4.382660   5.196638   2.519282   2.644161
    18  C    3.993516   4.078460   5.034573   3.094119   2.699745
    19  H    3.098962   3.229914   4.102447   2.875380   2.277805
    20  C    5.154929   5.103208   6.189256   4.343829   3.861064
    21  H    5.361275   5.233093   6.337652   5.007836   4.344738
    22  C    6.435674   6.369705   7.496513   5.191363   4.907759
    23  H    6.976221   6.748052   8.051634   6.095459   5.822187
    24  H    7.171308   7.196383   8.196523   5.680849   5.304067
    25  C    6.440075   6.457958   7.498641   4.751790   4.789130
    26  C    5.480058   5.606183   6.503420   3.610812   3.860990
    27  H    5.908896   6.086883   6.875023   3.819919   4.333016
    28  C    7.799433   7.804731   8.850219   5.929864   6.095181
    29  O    8.171742   8.206015   9.189074   6.171440   6.536740
    30  N    8.829526   8.796751   9.893107   7.024820   7.044969
    31  H    9.749130   9.705835  10.811649   7.882306   7.965531
    32  H    8.790516   8.726845   9.856479   7.161211   7.027992
    33  H    1.092456   1.768738   1.769020   2.989540   2.500971
    34  C    7.483132   8.143886   8.131476   4.325178   4.955014
    35  C    7.185245   7.684642   8.025868   4.291117   4.378315
    36  C    8.010346   8.386979   8.917079   5.414370   5.306076
    37  C    9.041869   9.283550   9.960792   7.014936   6.561612
    38  C    7.917102   8.259919   8.814639   5.633382   5.263904
    39  O    6.194557   6.785945   6.976674   3.263638   3.254020
    40  S    8.149179   8.662825   8.950225   5.108339   5.514202
    41  H    8.331980   8.993773   8.935621   5.232063   5.944198
    42  H    6.595720   7.225482   7.252754   3.550810   4.330302
    43  H    9.668216   9.978244  10.528810   7.586866   7.069964
    44  H    9.732459   9.927827  10.690861   7.632501   7.295173
    45  H    8.790632   8.933772   9.724230   7.126713   6.572750
    46  H    7.145442   7.547216   7.991718   4.970395   4.453046
    47  H    8.888571   9.212268   9.822871   6.288143   6.276333
    48  H    7.420521   8.181398   7.989363   4.200152   4.697473
                    6          7          8          9         10
     6  O    0.000000
     7  H    0.974952   0.000000
     8  C    2.386953   3.237869   0.000000
     9  H    2.860942   3.709204   1.094548   0.000000
    10  O    2.640982   3.570302   1.408507   2.070452   0.000000
    11  H    2.102565   3.021073   1.924833   2.451454   0.966047
    12  C    2.469708   2.707717   2.370564   3.338244   2.933213
    13  H    2.565153   2.808714   2.804751   3.858199   2.822852
    14  C    3.597639   4.281550   1.524363   2.184207   2.390698
    15  H    4.302641   5.063065   2.144835   2.754064   2.421872
    16  O    3.561577   3.987695   2.361573   3.271814   3.047643
    17  N    3.266687   3.066220   3.670733   4.505434   4.353783
    18  C    4.035240   3.799887   4.183676   4.790627   5.182913
    19  H    4.035785   3.999779   3.704669   4.145719   4.892312
    20  C    5.129557   4.714089   5.501951   6.066508   6.489242
    21  H    5.869705   5.485187   6.069415   6.495222   7.185914
    22  C    5.718820   5.144768   6.462656   7.148985   7.243466
    23  H    6.717690   6.192054   7.266510   7.977165   8.045583
    24  H    6.029736   5.325573   7.059077   7.664289   7.857024
    25  C    5.096115   4.537087   6.013870   6.849702   6.529456
    26  C    3.987149   3.584853   4.795768   5.699547   5.214877
    27  H    3.967104   3.636434   4.878060   5.863298   4.996261
    28  C    6.054788   5.434978   7.178833   8.070221   7.493807
    29  O    6.167875   5.621657   7.312559   8.275985   7.398438
    30  N    7.130266   6.418228   8.344977   9.174603   8.752373
    31  H    7.907334   7.187986   9.184790  10.044318   9.498079
    32  H    7.359619   6.627380   8.510967   9.269363   9.066441
    33  H    4.295666   4.749511   2.737670   2.676548   4.088726
    34  C    3.205765   2.728187   5.342618   5.983563   5.008907
    35  C    3.706105   2.771489   5.756238   6.353882   6.068366
    36  C    5.035951   4.096787   6.923728   7.502938   7.376815
    37  C    6.916459   6.012511   8.518005   8.954509   9.256939
    38  C    5.447312   4.531331   7.151785   7.609085   7.828342
    39  O    2.708112   1.749820   4.747759   5.246849   5.202788
    40  S    4.271361   3.507161   6.384885   7.085191   6.309083
    41  H    4.082289   3.736204   6.089888   6.733933   5.543240
    42  H    2.590361   2.336532   4.465965   5.215261   4.074358
    43  H    7.388669   6.469496   9.084800   9.421716   9.842354
    44  H    7.487632   6.569247   9.140996   9.667170   9.776735
    45  H    7.235859   6.399638   8.580522   8.997888   9.438137
    46  H    4.870367   4.008654   6.461322   6.810966   7.261729
    47  H    5.869183   4.949013   7.769313   8.417492   8.110446
    48  H    2.913611   2.401129   5.222408   5.683318   5.001772
                   11         12         13         14         15
    11  H    0.000000
    12  C    3.133223   0.000000
    13  H    2.885789   1.094853   0.000000
    14  C    3.175407   2.348136   2.949604   0.000000
    15  H    3.354432   3.076395   3.380443   1.091322   0.000000
    16  O    3.628521   1.410035   2.076566   1.435007   2.053217
    17  N    4.450476   1.440757   2.050218   3.507339   4.307710
    18  C    5.361480   2.447269   3.330777   3.848044   4.783553
    19  H    5.184933   2.570631   3.624448   3.270451   4.272660
    20  C    6.616330   3.686601   4.440867   5.144501   6.056666
    21  H    7.361765   4.520774   5.376646   5.640639   6.581677
    22  C    7.262230   4.343802   4.800715   6.185597   7.011348
    23  H    8.141426   5.113531   5.548669   6.806105   7.563206
    24  H    7.770198   5.053620   5.498361   6.956570   7.843768
    25  C    6.479640   3.708885   3.841846   5.841090   6.545287
    26  C    5.185843   2.459182   2.497880   4.685535   5.343803
    27  H    4.896257   2.639657   2.202706   4.875613   5.371554
    28  C    7.358051   4.856379   4.713323   7.066322   7.667723
    29  O    7.226599   5.036952   4.628690   7.247230   7.713271
    30  N    8.592259   6.049953   6.009581   8.231861   8.894751
    31  H    9.306637   6.880802   6.732723   9.086743   9.697247
    32  H    8.938964   6.265757   6.394209   8.357076   9.095363
    33  H    4.648135   3.375804   4.369475   2.164064   3.068101
    34  C    4.244541   4.444351   3.850257   6.315114   6.810498
    35  C    5.552435   4.221267   4.161134   6.410999   7.207822
    36  C    6.935944   5.195414   5.259504   7.403589   8.253665
    37  C    8.929253   6.833019   7.182897   8.809244   9.769433
    38  C    7.462876   5.533302   5.843786   7.557370   8.504035
    39  O    4.713406   3.506398   3.649098   5.500073   6.362459
    40  S    5.679314   4.912338   4.449355   7.114761   7.721553
    41  H    4.742026   5.308266   4.576948   7.078102   7.454771
    42  H    3.398194   3.531731   2.834685   5.350272   5.785825
    43  H    9.458178   7.588120   7.960892   9.489210  10.481427
    44  H    9.433644   7.294782   7.518899   9.394568  10.299648
    45  H    9.213959   6.876854   7.350511   8.712239   9.689997
    46  H    6.930893   5.077455   5.544676   6.905670   7.906361
    47  H    7.653885   5.917506   5.841518   8.203548   8.990623
    48  H    4.159298   4.678243   4.279563   6.369401   6.946337
                   16         17         18         19         20
    16  O    0.000000
    17  N    2.323081   0.000000
    18  C    2.851560   1.393554   0.000000
    19  H    2.609087   2.092197   1.080517   0.000000
    20  C    4.097661   2.392269   1.328761   2.111531   0.000000
    21  H    4.748348   3.355995   2.073949   2.417110   1.081544
    22  C    4.965677   2.903573   2.487532   3.482083   1.502138
    23  H    5.532763   3.704062   3.223718   4.130359   2.141154
    24  H    5.822012   3.642175   3.187060   4.116263   2.138636
    25  C    4.527488   2.386898   2.764842   3.840371   2.471514
    26  C    3.395799   1.364398   2.363429   3.309312   2.758659
    27  H    3.633109   2.091351   3.333733   4.172935   3.841225
    28  C    5.723155   3.698347   4.239855   5.312182   3.867407
    29  O    5.918023   4.145344   4.981387   6.009296   4.851731
    30  N    6.898354   4.776721   5.029254   6.103984   4.326229
    31  H    7.737033   5.671041   6.008247   7.085817   5.326752
    32  H    7.055198   4.893249   4.863558   5.901005   3.941378
    33  H    2.746926   3.910259   3.467241   2.454620   4.554428
    34  C    5.784202   4.638157   5.738018   6.273270   6.394307
    35  C    5.587503   3.585727   4.202500   4.955212   4.381438
    36  C    6.454708   4.218033   4.508283   5.374683   4.235917
    37  C    7.866648   5.616083   5.283655   6.057142   4.454790
    38  C    6.669185   4.440088   4.310495   5.082386   3.800578
    39  O    4.854743   3.079386   3.602064   4.152394   4.041047
    40  S    6.289578   4.558525   5.512320   6.284324   5.803495
    41  H    6.584220   5.585506   6.751489   7.292787   7.407710
    42  H    4.811965   3.924366   5.134501   5.613674   5.940816
    43  H    8.651029   6.456087   6.083177   6.756333   5.314011
    44  H    8.349879   6.041375   5.860377   6.737098   4.997156
    45  H    7.756631   5.581350   5.009042   5.730954   3.993335
    46  H    6.158483   4.088262   3.784631   4.385893   3.425771
    47  H    7.166627   4.917134   5.306806   6.248806   4.941729
    48  H    6.018802   4.926866   5.861977   6.275641   6.544205
                   21         22         23         24         25
    21  H    0.000000
    22  C    2.233745   0.000000
    23  H    2.558047   1.097871   0.000000
    24  H    2.602116   1.098166   1.747778   0.000000
    25  C    3.473017   1.508539   2.154156   2.158626   0.000000
    26  C    3.838355   2.497281   3.236072   3.211628   1.344210
    27  H    4.919729   3.480635   4.137714   4.122759   2.101963
    28  C    4.789248   2.600610   2.877388   2.905895   1.478008
    29  O    5.838226   3.728006   3.995388   4.092498   2.385044
    30  N    5.049917   2.848104   2.863649   2.761367   2.402752
    31  H    6.036108   3.844792   3.758591   3.722212   3.320144
    32  H    4.493849   2.452916   2.345317   2.149623   2.586907
    33  H    4.653004   5.928744   6.532983   6.549393   6.109482
    34  C    7.344861   6.202022   7.161805   6.274858   5.104681
    35  C    5.231792   4.001239   5.017242   3.774545   3.313274
    36  C    4.957441   3.519932   4.422730   2.949342   3.171666
    37  C    4.682372   3.733139   4.313523   2.662052   4.303249
    38  C    4.270587   3.269464   4.149300   2.434682   3.511240
    39  O    4.826541   4.098161   5.184040   3.998920   3.598808
    40  S    6.754827   5.241423   6.135746   5.134405   4.163004
    41  H    8.381998   7.132680   8.046012   7.211053   5.942145
    42  H    6.918883   5.878866   6.806783   6.134702   4.731879
    43  H    5.436963   4.753556   5.349223   3.686364   5.336876
    44  H    5.323272   3.985211   4.413850   2.963179   4.361995
    45  H    4.012138   3.370624   3.789621   2.288205   4.296105
    46  H    3.793380   3.352530   4.322916   2.673192   3.748098
    47  H    5.686529   3.953606   4.685078   3.375067   3.451153
    48  H    7.403151   6.514352   7.543331   6.491583   5.610381
                   26         27         28         29         30
    26  C    0.000000
    27  H    1.083931   0.000000
    28  C    2.405060   2.573112   0.000000
    29  O    2.782372   2.441995   1.217731   0.000000
    30  N    3.603583   3.914656   1.369497   2.250700   0.000000
    31  H    4.425876   4.563060   2.039374   2.463155   1.006774
    32  H    3.909904   4.448804   2.089112   3.160663   1.002507
    33  H    5.268383   5.842062   7.533736   8.036748   8.461515
    34  C    4.328938   3.779675   5.271891   4.963501   6.235373
    35  C    3.140332   3.253559   3.666214   3.988523   4.284177
    36  C    3.590450   3.929640   3.304927   3.921710   3.444126
    37  C    5.179126   5.851864   4.519100   5.506789   3.959114
    38  C    4.084754   4.701209   3.948368   4.824400   3.855607
    39  O    3.127545   3.386554   4.350374   4.742506   5.085565
    40  S    3.846552   3.436678   4.011566   3.802809   4.740207
    41  H    5.182818   4.486294   5.918614   5.423391   6.869011
    42  H    3.739202   3.121183   5.061659   4.733979   6.186289
    43  H    6.119682   6.768545   5.563769   6.498960   4.999591
    44  H    5.370705   5.927924   4.216236   5.130722   3.417277
    45  H    5.259027   6.073721   4.689084   5.803334   4.081121
    46  H    4.079877   4.795708   4.524298   5.408174   4.629552
    47  H    4.039695   4.216319   3.096598   3.574362   3.005765
    48  H    4.849916   4.490895   5.948115   5.807949   6.829626
                   31         32         33         34         35
    31  H    0.000000
    32  H    1.732187   0.000000
    33  H    9.419613   8.330554   0.000000
    34  C    6.681229   6.773630   7.283165   0.000000
    35  C    4.927286   4.534037   6.684612   2.729276   0.000000
    36  C    4.068047   3.509364   7.417444   4.096020   1.475205
    37  C    4.562884   3.398661   8.265294   6.541529   3.846395
    38  C    4.591052   3.558990   7.186062   5.153154   2.437917
    39  O    5.847538   5.219814   5.643899   2.855027   1.216062
    40  S    5.101958   5.296391   7.830469   1.797181   1.754324
    41  H    7.189766   7.499497   8.212815   1.087457   3.672194
    42  H    6.705162   6.726960   6.500316   1.087230   3.009209
    43  H    5.531759   4.454586   8.827123   7.002197   4.398697
    44  H    3.827257   2.927996   9.027353   6.709394   4.119089
    45  H    4.770151   3.313205   7.987332   7.244209   4.515104
    46  H    5.460450   4.291438   6.341369   5.182669   2.604224
    47  H    3.397132   3.233067   8.355557   4.418901   2.196303
    48  H    7.345342   7.248155   7.121215   1.087936   2.835786
                   36         37         38         39         40
    36  C    0.000000
    37  C    2.496871   0.000000
    38  C    1.329540   1.491272   0.000000
    39  O    2.376081   4.325558   2.834430   0.000000
    40  S    2.692582   5.169306   3.947398   2.629872   0.000000
    41  H    4.929107   7.395005   6.068304   3.926032   2.348418
    42  H    4.420872   6.829860   5.400000   2.890537   2.410603
    43  H    3.146439   1.092560   2.129941   4.806714   5.697583
    44  H    2.648882   1.089864   2.144690   4.841770   5.146387
    45  H    3.268416   1.092510   2.143066   4.822381   5.952192
    46  H    2.071209   2.218740   1.086940   2.497668   4.314875
    47  H    1.084501   2.764479   2.114228   3.302172   2.736092
    48  H    4.221178   6.511726   5.097071   2.671946   2.398452
                   41         42         43         44         45
    41  H    0.000000
    42  H    1.779121   0.000000
    43  H    7.831322   7.398623   0.000000
    44  H    7.463067   7.043216   1.769551   0.000000
    45  H    8.154847   7.399371   1.751007   1.778314   0.000000
    46  H    6.185061   5.326960   2.625607   3.103265   2.533058
    47  H    5.077930   4.829846   3.427256   2.466418   3.613437
    48  H    1.780226   1.779247   6.831846   6.818715   7.227187
                   46         47         48
    46  H    0.000000
    47  H    3.056632   0.000000
    48  H    4.969774   4.712687   0.000000
 Stoichiometry    C16H24N2O5S
 Framework group  C1[X(C16H24N2O5S)]
 Deg. of freedom   138
 Full point group                 C1      NOp   1
 Largest Abelian subgroup         C1      NOp   1
 Largest concise Abelian subgroup C1      NOp   1
                         Standard orientation:                         
 ---------------------------------------------------------------------
 Center     Atomic      Atomic             Coordinates (Angstroms)
 Number     Number       Type             X           Y           Z
 ---------------------------------------------------------------------
      1          6           0        4.694069   -1.948763    0.587760
      2          1           0        4.656131   -2.902193    0.062531
      3          1           0        5.713725   -1.780291    0.936209
      4          6           0        2.548863    0.459876    0.680365
      5          1           0        2.361538   -0.159830    1.564700
      6          8           0        2.075034    1.761807    0.862450
      7          1           0        1.124500    1.718490    1.074914
      8          6           0        4.039876    0.499578    0.368778
      9          1           0        4.651703    0.587929    1.272048
     10          8           0        4.310036    1.551030   -0.528638
     11          1           0        3.778567    2.305648   -0.243439
     12          6           0        1.995242   -0.250063   -0.567748
     13          1           0        1.826051    0.493561   -1.353305
     14          6           0        4.258839   -0.831721   -0.340717
     15          1           0        4.984749   -0.692201   -1.143571
     16          8           0        2.998366   -1.169311   -0.937781
     17          7           0        0.753908   -0.956277   -0.377665
     18          6           0        0.701650   -2.017415    0.524138
     19          1           0        1.638655   -2.247583    1.010513
     20          6           0       -0.399069   -2.729964    0.739307
     21          1           0       -0.350307   -3.552055    1.440397
     22          6           0       -1.697853   -2.455720    0.036194
     23          1           0       -2.055662   -3.368750   -0.457435
     24          1           0       -2.470472   -2.199016    0.773168
     25          6           0       -1.525617   -1.344587   -0.969494
     26          6           0       -0.359012   -0.694522   -1.122297
     27          1           0       -0.280183    0.095363   -1.860385
     28          6           0       -2.649746   -0.906994   -1.823516
     29          8           0       -2.536238   -0.142230   -2.764324
     30          7           0       -3.875813   -1.401457   -1.466043
     31          1           0       -4.656520   -1.180751   -2.062179
     32          1           0       -3.994958   -2.079910   -0.737672
     33          1           0        4.040030   -2.010959    1.460586
     34          6           0       -0.272419    3.566886   -0.365591
     35          6           0       -1.618861    1.478189    0.762853
     36          6           0       -2.846915    0.713041    1.050359
     37          6           0       -4.093160   -0.929366    2.458811
     38          6           0       -2.880152   -0.165475    2.047746
     39          8           0       -0.550726    1.268421    1.304972
     40         16           0       -1.879997    2.764225   -0.401438
     41          1           0       -0.375107    4.485036   -0.939193
     42          1           0        0.488545    2.934471   -0.816206
     43          1           0       -4.444178   -0.580333    3.432797
     44          1           0       -4.902607   -0.808951    1.739018
     45          1           0       -3.869576   -1.992745    2.572012
     46          1           0       -1.963858   -0.324469    2.610387
     47          1           0       -3.717794    0.919122    0.437788
     48          1           0        0.004149    3.801328    0.660155
 ---------------------------------------------------------------------
 Rotational constants (GHZ):           0.3266142           0.1620733           0.1384646
 Leave Link  202 at Sat Aug 13 20:21:43 2022, MaxMem=  2684354560 cpu:               0.5 elap:               0.1
 (Enter /storage/apps/GAUSSIAN/G16_RevA03/g16/l301.exe)
 Standard basis: def2TZVP (5D, 7F)
 Ernie: Thresh=  0.10000D-02 Tol=  0.10000D-05 Strict=F.
 There are  1014 symmetry adapted cartesian basis functions of A   symmetry.
 There are   894 symmetry adapted basis functions of A   symmetry.
   894 basis functions,  1434 primitive gaussians,  1014 cartesian basis functions
    95 alpha electrons       95 beta electrons
       nuclear repulsion energy      2479.4983218070 Hartrees.
 IExCor= 4336 DFT=T Ex+Corr=M062X ExCW=0 ScaHFX=  0.540000
 ScaDFX=  1.000000  1.000000  1.000000  1.000000 ScalE2=  1.000000  1.000000
 IRadAn=      5 IRanWt=     -1 IRanGd=            0 ICorTp=0 IEmpDi=131
 NAtoms=   48 NActive=   48 NUniq=   48 SFac= 1.00D+00 NAtFMM=   60 NAOKFM=F Big=F
 Integral buffers will be    131072 words long.
 Raffenetti 2 integral format.
 Two-electron integral symmetry is turned on.
 R6Disp:  Grimme-D3 Dispersion energy=       -0.0043197101 Hartrees.
 Nuclear repulsion after empirical dispersion term =     2479.4940020969 Hartrees.
 Leave Link  301 at Sat Aug 13 20:21:43 2022, MaxMem=  2684354560 cpu:               1.6 elap:               0.1
 (Enter /storage/apps/GAUSSIAN/G16_RevA03/g16/l302.exe)
 NPDir=0 NMtPBC=     1 NCelOv=     1 NCel=       1 NClECP=     1 NCelD=      1
         NCelK=      1 NCelE2=     1 NClLst=     1 CellRange=     0.0.
 One-electron integrals computed using PRISM.
 One-electron integral symmetry used in STVInt
   1 Symmetry operations used in ECPInt.
 ECPInt:  NShTT=   65703 NPrTT=  200010 LenC2=   56804 LenP2D=  120851.
 LDataN:  DoStor=T MaxTD1= 6 Len=  172
 NBasis=   894 RedAO= T EigKep=  2.94D-05  NBF=   894
 NBsUse=   894 1.00D-06 EigRej= -1.00D+00 NBFU=   894
 Precomputing XC quadrature grid using
 IXCGrd= 4 IRadAn=           5 IRanWt=          -1 IRanGd=           0 AccXCQ= 0.00D+00.
 Generated NRdTot=       0 NPtTot=           0 NUsed=           0 NTot=          32
 NSgBfM=   996   996   996   996   996 MxSgAt=    48 MxSgA2=    48.
 Leave Link  302 at Sat Aug 13 20:21:44 2022, MaxMem=  2684354560 cpu:              19.2 elap:               1.2
 (Enter /storage/apps/GAUSSIAN/G16_RevA03/g16/l303.exe)
 DipDrv:  MaxL=1.
 Leave Link  303 at Sat Aug 13 20:21:44 2022, MaxMem=  2684354560 cpu:               2.4 elap:               0.2
 (Enter /storage/apps/GAUSSIAN/G16_RevA03/g16/l401.exe)
 ExpMin= 9.52D-02 ExpMax= 6.07D+04 ExpMxC= 2.07D+03 IAcc=3 IRadAn=         5 AccDes= 0.00D+00
 Harris functional with IExCor= 1009 and IRadAn=       5 diagonalized for initial guess.
 HarFok:  IExCor= 1009 AccDes= 0.00D+00 IRadAn=         5 IDoV= 1 UseB2=F ITyADJ=14
 ICtDFT=  3500011 ScaDFX=  1.000000  1.000000  1.000000  1.000000
 FoFCou: FMM=F IPFlag=           0 FMFlag=      100000 FMFlg1=           0
         NFxFlg=           0 DoJE=T BraDBF=F KetDBF=T FulRan=T
         wScrn=  0.000000 ICntrl=       500 IOpCl=  0 I1Cent=   200000004 NGrid=           0
         NMat0=    1 NMatS0=      1 NMatT0=    0 NMatD0=    1 NMtDS0=    0 NMtDT0=    0
 Petite list used in FoFCou.
 Harris En= -1507.25535022889    
 JPrj=0 DoOrth=F DoCkMO=F.
 Leave Link  401 at Sat Aug 13 20:21:48 2022, MaxMem=  2684354560 cpu:              60.8 elap:               3.9
 (Enter /storage/apps/GAUSSIAN/G16_RevA03/g16/l502.exe)
 Integral symmetry usage will be decided dynamically.
 Closed shell SCF:
 Using DIIS extrapolation, IDIIS=  1040.
 NGot=  2684354560 LenX=  2682272944 LenY=  2681243734
 Requested convergence on RMS density matrix=1.00D-08 within 128 cycles.
 Requested convergence on MAX density matrix=1.00D-06.
 Requested convergence on             energy=1.00D-06.
 No special actions if energy rises.
 Fock matrices will be formed incrementally for  20 cycles.
 Integral accuracy reduced to 1.0D-05 until final iterations.

 Cycle   1  Pass 0  IDiag  1:
 FoFJK:  IHMeth= 1 ICntrl=       0 DoSepK=F KAlg= 0 I1Cent=           0 FoldK=F
 IRaf= 790000000 NMat=       1 IRICut=       1 DoRegI=T DoRafI=F ISym2E= 0 IDoP0=0 IntGTp=1.
 FoFCou: FMM=F IPFlag=           0 FMFlag=      100000 FMFlg1=           0
         NFxFlg=           0 DoJE=F BraDBF=F KetDBF=F FulRan=T
         wScrn=  0.000000 ICntrl=         0 IOpCl=  0 I1Cent=           0 NGrid=           0
         NMat0=    1 NMatS0=      1 NMatT0=    0 NMatD0=    1 NMtDS0=    0 NMtDT0=    0
 Symmetry not used in FoFCou.
 E= -1507.18662760693    
 DIIS: error= 1.43D-02 at cycle   1 NSaved=   1.
 NSaved= 1 IEnMin= 1 EnMin= -1507.18662760693     IErMin= 1 ErrMin= 1.43D-02
 ErrMax= 1.43D-02  0.00D+00 EMaxC= 1.00D-01 BMatC= 1.00D+00 BMatP= 1.00D+00
 IDIUse=3 WtCom= 8.57D-01 WtEn= 1.43D-01
 Coeff-Com:  0.100D+01
 Coeff-En:   0.100D+01
 Coeff:      0.100D+01
 Gap=     0.300 Goal=   None    Shift=    0.000
 GapD=    0.300 DampG=1.000 DampE=0.500 DampFc=0.5000 IDamp=-1.
 Damping current iteration by 5.00D-01
 RMSDP=4.43D-03 MaxDP=1.73D+00              OVMax= 2.43D-01

 Cycle   2  Pass 0  IDiag  1:
 RMSU=  2.21D-03    CP:  1.02D+00
 E= -1507.53165026463     Delta-E=       -0.345022657698 Rises=F Damp=T
 DIIS: error= 3.43D-03 at cycle   2 NSaved=   2.
 NSaved= 2 IEnMin= 2 EnMin= -1507.53165026463     IErMin= 2 ErrMin= 3.43D-03
 ErrMax= 3.43D-03  0.00D+00 EMaxC= 1.00D-01 BMatC= 8.64D-02 BMatP= 1.00D+00
 IDIUse=3 WtCom= 9.66D-01 WtEn= 3.43D-02
 Coeff-Com: -0.169D-01 0.102D+01
 Coeff-En:   0.151D-01 0.985D+00
 Coeff:     -0.158D-01 0.102D+01
 Gap=     0.317 Goal=   None    Shift=    0.000
 RMSDP=1.33D-03 MaxDP=4.99D-01 DE=-3.45D-01 OVMax= 1.71D-01

 Cycle   3  Pass 0  IDiag  1:
 RMSU=  1.06D-03    CP:  1.00D+00  6.37D-01
 E= -1507.89071096583     Delta-E=       -0.359060701206 Rises=F Damp=F
 DIIS: error= 3.84D-03 at cycle   3 NSaved=   3.
 NSaved= 3 IEnMin= 3 EnMin= -1507.89071096583     IErMin= 2 ErrMin= 3.43D-03
 ErrMax= 3.84D-03  0.00D+00 EMaxC= 1.00D-01 BMatC= 5.13D-02 BMatP= 8.64D-02
 IDIUse=3 WtCom= 9.62D-01 WtEn= 3.84D-02
 Coeff-Com: -0.836D-01 0.458D+00 0.626D+00
 Coeff-En:   0.000D+00 0.000D+00 0.100D+01
 Coeff:     -0.804D-01 0.440D+00 0.640D+00
 Gap=     0.209 Goal=   None    Shift=    0.000
 RMSDP=3.69D-04 MaxDP=7.25D-02 DE=-3.59D-01 OVMax= 6.76D-02

 Cycle   4  Pass 0  IDiag  1:
 RMSU=  3.07D-04    CP:  1.00D+00  7.20D-01  9.15D-01
 E= -1507.92371841807     Delta-E=       -0.033007452235 Rises=F Damp=F
 DIIS: error= 1.98D-03 at cycle   4 NSaved=   4.
 NSaved= 4 IEnMin= 4 EnMin= -1507.92371841807     IErMin= 4 ErrMin= 1.98D-03
 ErrMax= 1.98D-03  0.00D+00 EMaxC= 1.00D-01 BMatC= 1.01D-02 BMatP= 5.13D-02
 IDIUse=3 WtCom= 9.80D-01 WtEn= 1.98D-02
 Coeff-Com: -0.372D-01 0.996D-01 0.346D+00 0.592D+00
 Coeff-En:   0.000D+00 0.000D+00 0.134D+00 0.866D+00
 Coeff:     -0.364D-01 0.977D-01 0.342D+00 0.597D+00
 Gap=     0.209 Goal=   None    Shift=    0.000
 RMSDP=1.27D-04 MaxDP=1.79D-02 DE=-3.30D-02 OVMax= 1.72D-02

 Cycle   5  Pass 0  IDiag  1:
 RMSU=  7.99D-05    CP:  1.00D+00  7.04D-01  9.43D-01  7.20D-01
 E= -1507.93119939536     Delta-E=       -0.007480977295 Rises=F Damp=F
 DIIS: error= 2.83D-04 at cycle   5 NSaved=   5.
 NSaved= 5 IEnMin= 5 EnMin= -1507.93119939536     IErMin= 5 ErrMin= 2.83D-04
 ErrMax= 2.83D-04  0.00D+00 EMaxC= 1.00D-01 BMatC= 4.07D-04 BMatP= 1.01D-02
 IDIUse=3 WtCom= 9.97D-01 WtEn= 2.83D-03
 Coeff-Com: -0.107D-01 0.185D-01 0.120D+00 0.266D+00 0.606D+00
 Coeff-En:   0.000D+00 0.000D+00 0.000D+00 0.000D+00 0.100D+01
 Coeff:     -0.106D-01 0.184D-01 0.119D+00 0.265D+00 0.608D+00
 Gap=     0.208 Goal=   None    Shift=    0.000
 RMSDP=4.77D-05 MaxDP=1.59D-02 DE=-7.48D-03 OVMax= 3.94D-03

 Cycle   6  Pass 0  IDiag  1:
 RMSU=  3.16D-05    CP:  1.00D+00  6.90D-01  9.55D-01  7.34D-01  8.90D-01
 E= -1507.93152378614     Delta-E=       -0.000324390778 Rises=F Damp=F
 DIIS: error= 1.72D-04 at cycle   6 NSaved=   6.
 NSaved= 6 IEnMin= 6 EnMin= -1507.93152378614     IErMin= 6 ErrMin= 1.72D-04
 ErrMax= 1.72D-04  0.00D+00 EMaxC= 1.00D-01 BMatC= 5.28D-05 BMatP= 4.07D-04
 IDIUse=3 WtCom= 9.98D-01 WtEn= 1.72D-03
 Coeff-Com:  0.143D-03-0.415D-02 0.128D-01 0.436D-01 0.274D+00 0.673D+00
 Coeff-En:   0.000D+00 0.000D+00 0.000D+00 0.000D+00 0.000D+00 0.100D+01
 Coeff:      0.143D-03-0.414D-02 0.127D-01 0.435D-01 0.274D+00 0.674D+00
 Gap=     0.209 Goal=   None    Shift=    0.000
 RMSDP=1.97D-05 MaxDP=3.84D-03 DE=-3.24D-04 OVMax= 3.29D-03

 Cycle   7  Pass 0  IDiag  1:
 RMSU=  1.62D-05    CP:  1.00D+00  6.86D-01  9.60D-01  7.38D-01  9.68D-01
                    CP:  1.01D+00
 E= -1507.93158648416     Delta-E=       -0.000062698021 Rises=F Damp=F
 DIIS: error= 7.52D-05 at cycle   7 NSaved=   7.
 NSaved= 7 IEnMin= 7 EnMin= -1507.93158648416     IErMin= 7 ErrMin= 7.52D-05
 ErrMax= 7.52D-05  0.00D+00 EMaxC= 1.00D-01 BMatC= 8.94D-06 BMatP= 5.28D-05
 IDIUse=1 WtCom= 1.00D+00 WtEn= 0.00D+00
 Coeff-Com:  0.183D-02-0.496D-02-0.119D-01-0.244D-01 0.133D-01 0.288D+00
 Coeff-Com:  0.738D+00
 Coeff:      0.183D-02-0.496D-02-0.119D-01-0.244D-01 0.133D-01 0.288D+00
 Coeff:      0.738D+00
 Gap=     0.209 Goal=   None    Shift=    0.000
 RMSDP=1.83D-05 MaxDP=6.46D-03 DE=-6.27D-05 OVMax= 1.98D-03

 Cycle   8  Pass 0  IDiag  1:
 RMSU=  1.05D-05    CP:  1.00D+00  6.81D-01  9.61D-01  7.42D-01  1.03D+00
                    CP:  1.22D+00  1.26D+00
 E= -1507.93159383544     Delta-E=       -0.000007351274 Rises=F Damp=F
 DIIS: error= 3.05D-05 at cycle   8 NSaved=   8.
 NSaved= 8 IEnMin= 8 EnMin= -1507.93159383544     IErMin= 8 ErrMin= 3.05D-05
 ErrMax= 3.05D-05  0.00D+00 EMaxC= 1.00D-01 BMatC= 2.01D-06 BMatP= 8.94D-06
 IDIUse=1 WtCom= 1.00D+00 WtEn= 0.00D+00
 Coeff-Com:  0.955D-03-0.176D-02-0.791D-02-0.222D-01-0.466D-01 0.986D-02
 Coeff-Com:  0.358D+00 0.709D+00
 Coeff:      0.955D-03-0.176D-02-0.791D-02-0.222D-01-0.466D-01 0.986D-02
 Coeff:      0.358D+00 0.709D+00
 Gap=     0.209 Goal=   None    Shift=    0.000
 RMSDP=1.72D-05 MaxDP=3.75D-03 DE=-7.35D-06 OVMax= 7.11D-04

 Cycle   9  Pass 0  IDiag  1:
 RMSU=  8.74D-06    CP:  1.00D+00  6.78D-01  9.62D-01  7.43D-01  1.06D+00
                    CP:  1.38D+00  1.69D+00  1.91D+00
 E= -1507.93158415877     Delta-E=        0.000009676668 Rises=F Damp=F
 DIIS: error= 2.61D-05 at cycle   9 NSaved=   9.
 NSaved= 9 IEnMin= 8 EnMin= -1507.93159383544     IErMin= 9 ErrMin= 2.61D-05
 ErrMax= 2.61D-05  0.00D+00 EMaxC= 1.00D-01 BMatC= 4.59D-07 BMatP= 2.01D-06
 IDIUse=1 WtCom= 1.00D+00 WtEn= 0.00D+00
 Coeff-Com:  0.329D-03-0.507D-03-0.264D-02-0.921D-02-0.229D-01-0.183D-01
 Coeff-Com:  0.119D+00 0.353D+00 0.581D+00
 Coeff:      0.329D-03-0.507D-03-0.264D-02-0.921D-02-0.229D-01-0.183D-01
 Coeff:      0.119D+00 0.353D+00 0.581D+00
 Gap=     0.209 Goal=   None    Shift=    0.000
 RMSDP=1.83D-05 MaxDP=2.59D-03 DE= 9.68D-06 OVMax= 1.91D-04

 Cycle  10  Pass 0  IDiag  1:
 RMSU=  5.39D-06    CP:  1.00D+00  6.76D-01  9.63D-01  7.44D-01  1.09D+00
                    CP:  1.52D+00  2.10D+00  2.90D+00  2.21D+00
 E= -1507.93157251881     Delta-E=        0.000011639956 Rises=F Damp=F
 DIIS: error= 3.91D-05 at cycle  10 NSaved=  10.
 NSaved=10 IEnMin= 8 EnMin= -1507.93159383544     IErMin= 9 ErrMin= 2.61D-05
 ErrMax= 3.91D-05  0.00D+00 EMaxC= 1.00D-01 BMatC= 7.69D-07 BMatP= 4.59D-07
 IDIUse=1 WtCom= 1.00D+00 WtEn= 0.00D+00
 Coeff-Com:  0.333D-03-0.428D-03-0.277D-02-0.105D-01-0.287D-01-0.336D-01
 Coeff-Com:  0.119D+00 0.442D+00 0.100D+01-0.487D+00
 Coeff:      0.333D-03-0.428D-03-0.277D-02-0.105D-01-0.287D-01-0.336D-01
 Coeff:      0.119D+00 0.442D+00 0.100D+01-0.487D+00
 Gap=     0.209 Goal=   None    Shift=    0.000
 RMSDP=1.86D-05 MaxDP=1.83D-03 DE= 1.16D-05 OVMax= 4.30D-05

 Problem detected with inexpensive integrals.
 Switching to full accuracy and repeating last cycle.
 Cycle  11  Pass 1  IDiag  1:
 E= -1507.93155471268     Delta-E=        0.000017806130 Rises=F Damp=F
 DIIS: error= 2.89D-04 at cycle   1 NSaved=   1.
 NSaved= 1 IEnMin= 1 EnMin= -1507.93155471268     IErMin= 1 ErrMin= 2.89D-04
 ErrMax= 2.89D-04  0.00D+00 EMaxC= 1.00D-01 BMatC= 8.71D-05 BMatP= 8.71D-05
 IDIUse=3 WtCom= 9.97D-01 WtEn= 2.89D-03
 Coeff-Com:  0.100D+01
 Coeff-En:   0.100D+01
 Coeff:      0.100D+01
 Gap=     0.209 Goal=   None    Shift=    0.000
 RMSDP=4.15D-04 MaxDP=3.33D-02 DE= 1.78D-05 OVMax= 8.87D-04

 Cycle  12  Pass 1  IDiag  1:
 RMSU=  4.14D-04    CP:  9.95D-01
 E= -1507.93160889574     Delta-E=       -0.000054183059 Rises=F Damp=F
 DIIS: error= 7.32D-06 at cycle   2 NSaved=   2.
 NSaved= 2 IEnMin= 2 EnMin= -1507.93160889574     IErMin= 2 ErrMin= 7.32D-06
 ErrMax= 7.32D-06  0.00D+00 EMaxC= 1.00D-01 BMatC= 9.44D-08 BMatP= 8.71D-05
 IDIUse=1 WtCom= 1.00D+00 WtEn= 0.00D+00
 Coeff-Com: -0.160D-01 0.102D+01
 Coeff:     -0.160D-01 0.102D+01
 Gap=     0.209 Goal=   None    Shift=    0.000
 RMSDP=1.53D-05 MaxDP=1.25D-03 DE=-5.42D-05 OVMax= 1.14D-04

 Cycle  13  Pass 1  IDiag  1:
 RMSU=  5.16D-06    CP:  9.95D-01  1.03D+00
 E= -1507.93160895193     Delta-E=       -0.000000056192 Rises=F Damp=F
 DIIS: error= 5.73D-06 at cycle   3 NSaved=   3.
 NSaved= 3 IEnMin= 3 EnMin= -1507.93160895193     IErMin= 3 ErrMin= 5.73D-06
 ErrMax= 5.73D-06  0.00D+00 EMaxC= 1.00D-01 BMatC= 8.52D-08 BMatP= 9.44D-08
 IDIUse=1 WtCom= 1.00D+00 WtEn= 0.00D+00
 Coeff-Com: -0.903D-02 0.532D+00 0.477D+00
 Coeff:     -0.903D-02 0.532D+00 0.477D+00
 Gap=     0.209 Goal=   None    Shift=    0.000
 RMSDP=6.21D-07 MaxDP=1.77D-04 DE=-5.62D-08 OVMax= 5.50D-05

 Cycle  14  Pass 1  IDiag  1:
 RMSU=  5.70D-07    CP:  9.95D-01  1.04D+00  1.00D+00
 E= -1507.93160901566     Delta-E=       -0.000000063730 Rises=F Damp=F
 DIIS: error= 1.01D-06 at cycle   4 NSaved=   4.
 NSaved= 4 IEnMin= 4 EnMin= -1507.93160901566     IErMin= 4 ErrMin= 1.01D-06
 ErrMax= 1.01D-06  0.00D+00 EMaxC= 1.00D-01 BMatC= 4.00D-09 BMatP= 8.52D-08
 IDIUse=1 WtCom= 1.00D+00 WtEn= 0.00D+00
 Coeff-Com: -0.568D-03 0.222D-01 0.165D+00 0.813D+00
 Coeff:     -0.568D-03 0.222D-01 0.165D+00 0.813D+00
 Gap=     0.209 Goal=   None    Shift=    0.000
 RMSDP=3.37D-07 MaxDP=2.95D-05 DE=-6.37D-08 OVMax= 2.49D-05

 Cycle  15  Pass 1  IDiag  1:
 RMSU=  1.57D-07    CP:  9.95D-01  1.04D+00  1.04D+00  9.67D-01
 E= -1507.93160901868     Delta-E=       -0.000000003019 Rises=F Damp=F
 DIIS: error= 9.47D-07 at cycle   5 NSaved=   5.
 NSaved= 5 IEnMin= 5 EnMin= -1507.93160901868     IErMin= 5 ErrMin= 9.47D-07
 ErrMax= 9.47D-07  0.00D+00 EMaxC= 1.00D-01 BMatC= 1.23D-09 BMatP= 4.00D-09
 IDIUse=1 WtCom= 1.00D+00 WtEn= 0.00D+00
 Coeff-Com:  0.585D-03-0.409D-01 0.419D-01 0.459D+00 0.539D+00
 Coeff:      0.585D-03-0.409D-01 0.419D-01 0.459D+00 0.539D+00
 Gap=     0.209 Goal=   None    Shift=    0.000
 RMSDP=8.28D-08 MaxDP=1.47D-05 DE=-3.02D-09 OVMax= 9.15D-06

 Cycle  16  Pass 1  IDiag  1:
 RMSU=  5.73D-08    CP:  9.95D-01  1.04D+00  1.04D+00  1.03D+00  1.02D+00
 E= -1507.93160901980     Delta-E=       -0.000000001115 Rises=F Damp=F
 DIIS: error= 1.33D-07 at cycle   6 NSaved=   6.
 NSaved= 6 IEnMin= 6 EnMin= -1507.93160901980     IErMin= 6 ErrMin= 1.33D-07
 ErrMax= 1.33D-07  0.00D+00 EMaxC= 1.00D-01 BMatC= 4.99D-11 BMatP= 1.23D-09
 IDIUse=1 WtCom= 1.00D+00 WtEn= 0.00D+00
 Coeff-Com:  0.258D-03-0.162D-01-0.475D-02 0.747D-01 0.162D+00 0.784D+00
 Coeff:      0.258D-03-0.162D-01-0.475D-02 0.747D-01 0.162D+00 0.784D+00
 Gap=     0.209 Goal=   None    Shift=    0.000
 RMSDP=2.67D-08 MaxDP=7.47D-06 DE=-1.12D-09 OVMax= 4.29D-06

 Cycle  17  Pass 1  IDiag  1:
 RMSU=  1.65D-08    CP:  9.95D-01  1.04D+00  1.04D+00  1.05D+00  1.10D+00
                    CP:  1.16D+00
 E= -1507.93160901989     Delta-E=       -0.000000000095 Rises=F Damp=F
 DIIS: error= 8.18D-08 at cycle   7 NSaved=   7.
 NSaved= 7 IEnMin= 7 EnMin= -1507.93160901989     IErMin= 7 ErrMin= 8.18D-08
 ErrMax= 8.18D-08  0.00D+00 EMaxC= 1.00D-01 BMatC= 1.69D-11 BMatP= 4.99D-11
 IDIUse=1 WtCom= 1.00D+00 WtEn= 0.00D+00
 Coeff-Com: -0.115D-04 0.171D-02-0.125D-01-0.665D-01-0.536D-01 0.379D+00
 Coeff-Com:  0.752D+00
 Coeff:     -0.115D-04 0.171D-02-0.125D-01-0.665D-01-0.536D-01 0.379D+00
 Coeff:      0.752D+00
 Gap=     0.209 Goal=   None    Shift=    0.000
 RMSDP=1.22D-08 MaxDP=1.79D-06 DE=-9.46D-11 OVMax= 2.77D-06

 Cycle  18  Pass 1  IDiag  1:
 RMSU=  7.72D-09    CP:  9.95D-01  1.04D+00  1.04D+00  1.06D+00  1.12D+00
                    CP:  1.26D+00  1.06D+00
 E= -1507.93160901988     Delta-E=        0.000000000009 Rises=F Damp=F
 DIIS: error= 3.08D-08 at cycle   8 NSaved=   8.
 NSaved= 8 IEnMin= 7 EnMin= -1507.93160901989     IErMin= 8 ErrMin= 3.08D-08
 ErrMax= 3.08D-08  0.00D+00 EMaxC= 1.00D-01 BMatC= 2.11D-12 BMatP= 1.69D-11
 IDIUse=1 WtCom= 1.00D+00 WtEn= 0.00D+00
 Coeff-Com: -0.374D-04 0.279D-02-0.532D-02-0.390D-01-0.460D-01 0.746D-01
 Coeff-Com:  0.344D+00 0.669D+00
 Coeff:     -0.374D-04 0.279D-02-0.532D-02-0.390D-01-0.460D-01 0.746D-01
 Coeff:      0.344D+00 0.669D+00
 Gap=     0.209 Goal=   None    Shift=    0.000
 RMSDP=5.60D-09 MaxDP=2.05D-06 DE= 8.64D-12 OVMax= 6.45D-07

 Cycle  19  Pass 1  IDiag  1:
 RMSU=  3.00D-09    CP:  9.95D-01  1.04D+00  1.04D+00  1.06D+00  1.12D+00
                    CP:  1.29D+00  1.20D+00  1.06D+00
 E= -1507.93160901990     Delta-E=       -0.000000000019 Rises=F Damp=F
 DIIS: error= 7.29D-09 at cycle   9 NSaved=   9.
 NSaved= 9 IEnMin= 9 EnMin= -1507.93160901990     IErMin= 9 ErrMin= 7.29D-09
 ErrMax= 7.29D-09  0.00D+00 EMaxC= 1.00D-01 BMatC= 2.24D-13 BMatP= 2.11D-12
 IDIUse=1 WtCom= 1.00D+00 WtEn= 0.00D+00
 Coeff-Com: -0.123D-04 0.792D-03-0.235D-03-0.411D-02-0.984D-02-0.288D-01
 Coeff-Com:  0.249D-01 0.256D+00 0.761D+00
 Coeff:     -0.123D-04 0.792D-03-0.235D-03-0.411D-02-0.984D-02-0.288D-01
 Coeff:      0.249D-01 0.256D+00 0.761D+00
 Gap=     0.209 Goal=   None    Shift=    0.000
 RMSDP=1.40D-09 MaxDP=1.30D-07 DE=-1.86D-11 OVMax= 2.71D-07

 SCF Done:  E(RM062X) =  -1507.93160902     A.U. after   19 cycles
            NFock= 19  Conv=0.14D-08     -V/T= 2.0037
 KE= 1.502359875375D+03 PE=-8.497479911141D+03 EE= 3.007694424649D+03
 Leave Link  502 at Sat Aug 13 20:30:34 2022, MaxMem=  2684354560 cpu:            8398.0 elap:             525.7
 (Enter /storage/apps/GAUSSIAN/G16_RevA03/g16/l601.exe)
 Copying SCF densities to generalized density rwf, IOpCl= 0 IROHF=0.

 **********************************************************************

            Population analysis using the SCF density.

 **********************************************************************

 Orbital symmetries:
       Occupied  (A) (A) (A) (A) (A) (A) (A) (A) (A) (A) (A) (A)
                 (A) (A) (A) (A) (A) (A) (A) (A) (A) (A) (A) (A)
                 (A) (A) (A) (A) (A) (A) (A) (A) (A) (A) (A) (A)
                 (A) (A) (A) (A) (A) (A) (A) (A) (A) (A) (A) (A)
                 (A) (A) (A) (A) (A) (A) (A) (A) (A) (A) (A) (A)
                 (A) (A) (A) (A) (A) (A) (A) (A) (A) (A) (A) (A)
                 (A) (A) (A) (A) (A) (A) (A) (A) (A) (A) (A) (A)
                 (A) (A) (A) (A) (A) (A) (A) (A) (A) (A) (A)
       Virtual   (A) (A) (A) (A) (A) (A) (A) (A) (A) (A) (A) (A)
                 (A) (A) (A) (A) (A) (A) (A) (A) (A) (A) (A) (A)
                 (A) (A) (A) (A) (A) (A) (A) (A) (A) (A) (A) (A)
                 (A) (A) (A) (A) (A) (A) (A) (A) (A) (A) (A) (A)
                 (A) (A) (A) (A) (A) (A) (A) (A) (A) (A) (A) (A)
                 (A) (A) (A) (A) (A) (A) (A) (A) (A) (A) (A) (A)
                 (A) (A) (A) (A) (A) (A) (A) (A) (A) (A) (A) (A)
                 (A) (A) (A) (A) (A) (A) (A) (A) (A) (A) (A) (A)
                 (A) (A) (A) (A) (A) (A) (A) (A) (A) (A) (A) (A)
                 (A) (A) (A) (A) (A) (A) (A) (A) (A) (A) (A) (A)
                 (A) (A) (A) (A) (A) (A) (A) (A) (A) (A) (A) (A)
                 (A) (A) (A) (A) (A) (A) (A) (A) (A) (A) (A) (A)
                 (A) (A) (A) (A) (A) (A) (A) (A) (A) (A) (A) (A)
                 (A) (A) (A) (A) (A) (A) (A) (A) (A) (A) (A) (A)
                 (A) (A) (A) (A) (A) (A) (A) (A) (A) (A) (A) (A)
                 (A) (A) (A) (A) (A) (A) (A) (A) (A) (A) (A) (A)
                 (A) (A) (A) (A) (A) (A) (A) (A) (A) (A) (A) (A)
                 (A) (A) (A) (A) (A) (A) (A) (A) (A) (A) (A) (A)
                 (A) (A) (A) (A) (A) (A) (A) (A) (A) (A) (A) (A)
                 (A) (A) (A) (A) (A) (A) (A) (A) (A) (A) (A) (A)
                 (A) (A) (A) (A) (A) (A) (A) (A) (A) (A) (A) (A)
                 (A) (A) (A) (A) (A) (A) (A) (A) (A) (A) (A) (A)
                 (A) (A) (A) (A) (A) (A) (A) (A) (A) (A) (A) (A)
                 (A) (A) (A) (A) (A) (A) (A) (A) (A) (A) (A) (A)
                 (A) (A) (A) (A) (A) (A) (A) (A) (A) (A) (A) (A)
                 (A) (A) (A) (A) (A) (A) (A) (A) (A) (A) (A) (A)
                 (A) (A) (A) (A) (A) (A) (A) (A) (A) (A) (A) (A)
                 (A) (A) (A) (A) (A) (A) (A) (A) (A) (A) (A) (A)
                 (A) (A) (A) (A) (A) (A) (A) (A) (A) (A) (A) (A)
                 (A) (A) (A) (A) (A) (A) (A) (A) (A) (A) (A) (A)
                 (A) (A) (A) (A) (A) (A) (A) (A) (A) (A) (A) (A)
                 (A) (A) (A) (A) (A) (A) (A) (A) (A) (A) (A) (A)
                 (A) (A) (A) (A) (A) (A) (A) (A) (A) (A) (A) (A)
                 (A) (A) (A) (A) (A) (A) (A) (A) (A) (A) (A) (A)
                 (A) (A) (A) (A) (A) (A) (A) (A) (A) (A) (A) (A)
                 (A) (A) (A) (A) (A) (A) (A) (A) (A) (A) (A) (A)
                 (A) (A) (A) (A) (A) (A) (A) (A) (A) (A) (A) (A)
                 (A) (A) (A) (A) (A) (A) (A) (A) (A) (A) (A) (A)
                 (A) (A) (A) (A) (A) (A) (A) (A) (A) (A) (A) (A)
                 (A) (A) (A) (A) (A) (A) (A) (A) (A) (A) (A) (A)
                 (A) (A) (A) (A) (A) (A) (A) (A) (A) (A) (A) (A)
                 (A) (A) (A) (A) (A) (A) (A) (A) (A) (A) (A) (A)
                 (A) (A) (A) (A) (A) (A) (A) (A) (A) (A) (A) (A)
                 (A) (A) (A) (A) (A) (A) (A) (A) (A) (A) (A) (A)
                 (A) (A) (A) (A) (A) (A) (A) (A) (A) (A) (A) (A)
                 (A) (A) (A) (A) (A) (A) (A) (A) (A) (A) (A) (A)
                 (A) (A) (A) (A) (A) (A) (A) (A) (A) (A) (A) (A)
                 (A) (A) (A) (A) (A) (A) (A) (A) (A) (A) (A) (A)
                 (A) (A) (A) (A) (A) (A) (A) (A) (A) (A) (A) (A)
                 (A) (A) (A) (A) (A) (A) (A) (A) (A) (A) (A) (A)
                 (A) (A) (A) (A) (A) (A) (A) (A) (A) (A) (A) (A)
                 (A) (A) (A) (A) (A) (A) (A) (A) (A) (A) (A) (A)
                 (A) (A) (A) (A) (A) (A) (A) (A) (A) (A) (A) (A)
                 (A) (A) (A) (A) (A) (A) (A) (A) (A) (A) (A) (A)
                 (A) (A) (A) (A) (A) (A) (A) (A) (A) (A) (A) (A)
                 (A) (A) (A) (A) (A) (A) (A) (A) (A) (A) (A) (A)
                 (A) (A) (A) (A) (A) (A) (A) (A) (A) (A) (A) (A)
                 (A) (A) (A) (A) (A) (A) (A) (A) (A) (A) (A) (A)
                 (A) (A) (A) (A) (A) (A) (A) (A) (A) (A) (A) (A)
                 (A) (A) (A) (A) (A) (A) (A) (A) (A) (A) (A) (A)
                 (A) (A) (A) (A) (A) (A) (A) (A) (A) (A) (A) (A)
                 (A) (A) (A) (A) (A) (A) (A) (A) (A) (A) (A) (A)
                 (A) (A) (A) (A) (A) (A) (A) (A) (A) (A) (A) (A)
                 (A) (A) (A) (A) (A) (A) (A) (A) (A) (A) (A) (A)
                 (A) (A) (A) (A) (A) (A) (A) (A) (A) (A) (A) (A)
                 (A) (A) (A) (A) (A) (A) (A) (A) (A) (A) (A) (A)
                 (A) (A) (A) (A) (A) (A) (A)
 The electronic state is 1-A.
 Alpha  occ. eigenvalues --  -89.92187 -19.63688 -19.63221 -19.62630 -19.62169
 Alpha  occ. eigenvalues --  -19.57591 -14.78864 -14.76130 -10.66331 -10.63417
 Alpha  occ. eigenvalues --  -10.62871 -10.59434 -10.59028 -10.58954 -10.58260
 Alpha  occ. eigenvalues --  -10.57519 -10.57084 -10.57074 -10.55563 -10.55397
 Alpha  occ. eigenvalues --  -10.55175 -10.53765 -10.53388 -10.53214  -8.28119
 Alpha  occ. eigenvalues --   -6.20057  -6.19822  -6.19628  -1.19333  -1.18904
 Alpha  occ. eigenvalues --   -1.15877  -1.14903  -1.13684  -1.08240  -1.00705
 Alpha  occ. eigenvalues --   -0.92946  -0.91779  -0.90381  -0.88463  -0.87435
 Alpha  occ. eigenvalues --   -0.85497  -0.83120  -0.78835  -0.76819  -0.75485
 Alpha  occ. eigenvalues --   -0.73419  -0.70715  -0.67634  -0.67596  -0.66528
 Alpha  occ. eigenvalues --   -0.63666  -0.63239  -0.61836  -0.60500  -0.58757
 Alpha  occ. eigenvalues --   -0.58116  -0.57300  -0.56521  -0.56112  -0.55054
 Alpha  occ. eigenvalues --   -0.54243  -0.52981  -0.52408  -0.51894  -0.51249
 Alpha  occ. eigenvalues --   -0.50649  -0.50336  -0.50056  -0.49211  -0.49023
 Alpha  occ. eigenvalues --   -0.48611  -0.48430  -0.47752  -0.47132  -0.46793
 Alpha  occ. eigenvalues --   -0.45979  -0.44673  -0.44177  -0.43967  -0.43748
 Alpha  occ. eigenvalues --   -0.43390  -0.43161  -0.41551  -0.41324  -0.37773
 Alpha  occ. eigenvalues --   -0.36101  -0.35560  -0.34614  -0.34551  -0.33622
 Alpha  occ. eigenvalues --   -0.33371  -0.32859  -0.32372  -0.31168  -0.24314
 Alpha virt. eigenvalues --   -0.03366   0.00471   0.04225   0.04490   0.06106
 Alpha virt. eigenvalues --    0.07121   0.07419   0.07826   0.08624   0.09099
 Alpha virt. eigenvalues --    0.09363   0.09615   0.10431   0.10548   0.10949
 Alpha virt. eigenvalues --    0.11769   0.12116   0.12397   0.12695   0.12885
 Alpha virt. eigenvalues --    0.13585   0.13865   0.13918   0.14055   0.14601
 Alpha virt. eigenvalues --    0.15416   0.15676   0.16299   0.17117   0.17432
 Alpha virt. eigenvalues --    0.18058   0.18578   0.18695   0.19001   0.19489
 Alpha virt. eigenvalues --    0.20401   0.20689   0.21346   0.22044   0.22830
 Alpha virt. eigenvalues --    0.22929   0.23306   0.23531   0.24294   0.24786
 Alpha virt. eigenvalues --    0.24853   0.25562   0.25668   0.26226   0.27103
 Alpha virt. eigenvalues --    0.27477   0.27754   0.28152   0.28520   0.29047
 Alpha virt. eigenvalues --    0.29573   0.30057   0.30228   0.30379   0.31075
 Alpha virt. eigenvalues --    0.31368   0.31816   0.33201   0.33463   0.33920
 Alpha virt. eigenvalues --    0.34301   0.35191   0.35555   0.35722   0.36270
 Alpha virt. eigenvalues --    0.36828   0.37086   0.37317   0.37854   0.38251
 Alpha virt. eigenvalues --    0.38546   0.39109   0.39958   0.40119   0.40264
 Alpha virt. eigenvalues --    0.40829   0.41235   0.41641   0.42142   0.42432
 Alpha virt. eigenvalues --    0.42486   0.42990   0.43691   0.43814   0.43924
 Alpha virt. eigenvalues --    0.44579   0.45050   0.45326   0.45591   0.45960
 Alpha virt. eigenvalues --    0.46326   0.46694   0.47138   0.47558   0.47624
 Alpha virt. eigenvalues --    0.47759   0.48009   0.48881   0.49057   0.49455
 Alpha virt. eigenvalues --    0.50076   0.50522   0.50712   0.51176   0.51318
 Alpha virt. eigenvalues --    0.51859   0.52039   0.52347   0.52523   0.52894
 Alpha virt. eigenvalues --    0.53264   0.53288   0.54254   0.54411   0.54957
 Alpha virt. eigenvalues --    0.55420   0.55961   0.56128   0.56880   0.57607
 Alpha virt. eigenvalues --    0.58366   0.58557   0.58664   0.59341   0.60231
 Alpha virt. eigenvalues --    0.60459   0.61076   0.61664   0.62118   0.62437
 Alpha virt. eigenvalues --    0.63114   0.63714   0.64585   0.65527   0.65796
 Alpha virt. eigenvalues --    0.66268   0.66357   0.66734   0.67524   0.67907
 Alpha virt. eigenvalues --    0.68517   0.68981   0.69345   0.70128   0.71325
 Alpha virt. eigenvalues --    0.71639   0.72833   0.73099   0.73633   0.73933
 Alpha virt. eigenvalues --    0.74332   0.75180   0.76176   0.76505   0.76851
 Alpha virt. eigenvalues --    0.77248   0.78146   0.79493   0.80310   0.80929
 Alpha virt. eigenvalues --    0.81634   0.82201   0.82580   0.83839   0.84875
 Alpha virt. eigenvalues --    0.85096   0.85461   0.86507   0.86860   0.87055
 Alpha virt. eigenvalues --    0.88096   0.88413   0.88834   0.89485   0.90329
 Alpha virt. eigenvalues --    0.91028   0.91379   0.91591   0.92766   0.93006
 Alpha virt. eigenvalues --    0.93686   0.94387   0.95327   0.95810   0.96268
 Alpha virt. eigenvalues --    0.97124   0.97656   0.98447   0.98700   0.99442
 Alpha virt. eigenvalues --    0.99884   1.00568   1.00889   1.02126   1.03161
 Alpha virt. eigenvalues --    1.03753   1.04821   1.05157   1.06233   1.06638
 Alpha virt. eigenvalues --    1.07424   1.07754   1.08570   1.08911   1.09749
 Alpha virt. eigenvalues --    1.10861   1.11554   1.11732   1.12137   1.12656
 Alpha virt. eigenvalues --    1.13735   1.14225   1.14719   1.16103   1.16263
 Alpha virt. eigenvalues --    1.17158   1.18076   1.18898   1.19357   1.20598
 Alpha virt. eigenvalues --    1.20916   1.21017   1.22498   1.22938   1.23229
 Alpha virt. eigenvalues --    1.24438   1.25160   1.25900   1.26909   1.28919
 Alpha virt. eigenvalues --    1.29128   1.29955   1.30860   1.31022   1.31466
 Alpha virt. eigenvalues --    1.33180   1.33904   1.34085   1.35417   1.36273
 Alpha virt. eigenvalues --    1.37492   1.37937   1.38353   1.39102   1.40228
 Alpha virt. eigenvalues --    1.41389   1.42090   1.42411   1.43375   1.44844
 Alpha virt. eigenvalues --    1.45418   1.46486   1.48327   1.48801   1.49806
 Alpha virt. eigenvalues --    1.50463   1.50791   1.51180   1.51894   1.52791
 Alpha virt. eigenvalues --    1.53247   1.53631   1.54105   1.54929   1.55101
 Alpha virt. eigenvalues --    1.56221   1.56433   1.57154   1.57452   1.58518
 Alpha virt. eigenvalues --    1.58942   1.58951   1.59815   1.59966   1.60099
 Alpha virt. eigenvalues --    1.60684   1.61220   1.61719   1.61974   1.62311
 Alpha virt. eigenvalues --    1.62937   1.63475   1.64092   1.64520   1.65811
 Alpha virt. eigenvalues --    1.66017   1.67095   1.67847   1.68066   1.68730
 Alpha virt. eigenvalues --    1.68944   1.69368   1.70147   1.70565   1.71455
 Alpha virt. eigenvalues --    1.71971   1.72877   1.73232   1.74215   1.74490
 Alpha virt. eigenvalues --    1.75634   1.76092   1.76619   1.77217   1.77975
 Alpha virt. eigenvalues --    1.78397   1.78694   1.79439   1.79656   1.80710
 Alpha virt. eigenvalues --    1.82250   1.83571   1.83724   1.84441   1.84880
 Alpha virt. eigenvalues --    1.85285   1.85616   1.86565   1.87304   1.87468
 Alpha virt. eigenvalues --    1.88362   1.88651   1.89434   1.90906   1.91316
 Alpha virt. eigenvalues --    1.92983   1.93135   1.93516   1.93967   1.94232
 Alpha virt. eigenvalues --    1.95965   1.96153   1.96921   1.97132   1.97470
 Alpha virt. eigenvalues --    1.98518   1.99206   1.99948   2.01583   2.02433
 Alpha virt. eigenvalues --    2.02729   2.03099   2.04034   2.04117   2.04496
 Alpha virt. eigenvalues --    2.05329   2.06710   2.06858   2.07623   2.08645
 Alpha virt. eigenvalues --    2.09182   2.10267   2.11258   2.12239   2.12484
 Alpha virt. eigenvalues --    2.13021   2.15137   2.16416   2.16854   2.17148
 Alpha virt. eigenvalues --    2.18391   2.19382   2.19836   2.20248   2.20866
 Alpha virt. eigenvalues --    2.21066   2.21722   2.22370   2.22752   2.23639
 Alpha virt. eigenvalues --    2.24393   2.24781   2.26031   2.26621   2.26945
 Alpha virt. eigenvalues --    2.28125   2.28669   2.28982   2.30155   2.30918
 Alpha virt. eigenvalues --    2.31212   2.31642   2.32638   2.32982   2.34066
 Alpha virt. eigenvalues --    2.34500   2.34911   2.35553   2.36132   2.36711
 Alpha virt. eigenvalues --    2.37091   2.37395   2.38437   2.38776   2.39472
 Alpha virt. eigenvalues --    2.40342   2.40868   2.41289   2.42441   2.43169
 Alpha virt. eigenvalues --    2.43639   2.44645   2.45185   2.45817   2.46724
 Alpha virt. eigenvalues --    2.47890   2.48418   2.50124   2.50585   2.51233
 Alpha virt. eigenvalues --    2.52769   2.53026   2.53889   2.54832   2.55357
 Alpha virt. eigenvalues --    2.55845   2.57165   2.58012   2.58585   2.59067
 Alpha virt. eigenvalues --    2.59373   2.60207   2.60599   2.61597   2.62332
 Alpha virt. eigenvalues --    2.62969   2.63382   2.64042   2.64199   2.64474
 Alpha virt. eigenvalues --    2.65260   2.66506   2.67016   2.67332   2.68027
 Alpha virt. eigenvalues --    2.68142   2.69243   2.69855   2.70200   2.71751
 Alpha virt. eigenvalues --    2.71970   2.72343   2.72554   2.73319   2.73983
 Alpha virt. eigenvalues --    2.74868   2.75683   2.76948   2.77520   2.79024
 Alpha virt. eigenvalues --    2.80133   2.80532   2.81420   2.82495   2.82666
 Alpha virt. eigenvalues --    2.83606   2.83968   2.84615   2.85254   2.86253
 Alpha virt. eigenvalues --    2.86746   2.87493   2.88281   2.89144   2.90114
 Alpha virt. eigenvalues --    2.90450   2.91124   2.91811   2.92241   2.92792
 Alpha virt. eigenvalues --    2.93543   2.93979   2.94999   2.96108   2.97586
 Alpha virt. eigenvalues --    2.97965   2.98064   2.98544   3.00314   3.00907
 Alpha virt. eigenvalues --    3.02157   3.02958   3.03369   3.03987   3.04097
 Alpha virt. eigenvalues --    3.05603   3.05895   3.06445   3.06902   3.07117
 Alpha virt. eigenvalues --    3.08414   3.08549   3.09027   3.09339   3.09707
 Alpha virt. eigenvalues --    3.10727   3.11609   3.11744   3.12529   3.12893
 Alpha virt. eigenvalues --    3.13578   3.14012   3.14268   3.14865   3.15392
 Alpha virt. eigenvalues --    3.15846   3.16535   3.16879   3.17743   3.17803
 Alpha virt. eigenvalues --    3.18365   3.19002   3.19136   3.20128   3.20732
 Alpha virt. eigenvalues --    3.21441   3.21949   3.22974   3.23483   3.24485
 Alpha virt. eigenvalues --    3.24761   3.25101   3.25926   3.27182   3.27261
 Alpha virt. eigenvalues --    3.27885   3.28978   3.29665   3.30457   3.31506
 Alpha virt. eigenvalues --    3.31904   3.32257   3.32520   3.33575   3.34570
 Alpha virt. eigenvalues --    3.35016   3.35306   3.35897   3.36412   3.36823
 Alpha virt. eigenvalues --    3.37208   3.37948   3.38326   3.39000   3.39864
 Alpha virt. eigenvalues --    3.40164   3.41450   3.41625   3.42317   3.42679
 Alpha virt. eigenvalues --    3.44121   3.44719   3.44999   3.45541   3.46227
 Alpha virt. eigenvalues --    3.47196   3.47561   3.48334   3.49428   3.50098
 Alpha virt. eigenvalues --    3.50762   3.51235   3.52484   3.53146   3.54506
 Alpha virt. eigenvalues --    3.54867   3.55669   3.55871   3.56505   3.56897
 Alpha virt. eigenvalues --    3.58551   3.59291   3.59805   3.60376   3.61188
 Alpha virt. eigenvalues --    3.62301   3.62499   3.63060   3.64813   3.65696
 Alpha virt. eigenvalues --    3.66086   3.66434   3.67553   3.68420   3.68877
 Alpha virt. eigenvalues --    3.69856   3.70923   3.71622   3.73463   3.74681
 Alpha virt. eigenvalues --    3.75265   3.75922   3.77096   3.77793   3.78511
 Alpha virt. eigenvalues --    3.79959   3.80790   3.81951   3.82090   3.82581
 Alpha virt. eigenvalues --    3.85060   3.85865   3.86836   3.87588   3.89054
 Alpha virt. eigenvalues --    3.90668   3.91210   3.92749   3.93932   3.95124
 Alpha virt. eigenvalues --    3.95579   3.96598   3.97817   3.98902   4.00485
 Alpha virt. eigenvalues --    4.02043   4.02518   4.03665   4.05797   4.07256
 Alpha virt. eigenvalues --    4.08144   4.09948   4.11469   4.13031   4.14040
 Alpha virt. eigenvalues --    4.14545   4.16092   4.16642   4.18231   4.18634
 Alpha virt. eigenvalues --    4.19171   4.19950   4.20840   4.21987   4.24309
 Alpha virt. eigenvalues --    4.25442   4.26757   4.29365   4.30527   4.33208
 Alpha virt. eigenvalues --    4.33410   4.34903   4.36524   4.37494   4.38500
 Alpha virt. eigenvalues --    4.38905   4.40280   4.41539   4.42092   4.43042
 Alpha virt. eigenvalues --    4.44663   4.46944   4.47626   4.48978   4.49874
 Alpha virt. eigenvalues --    4.52615   4.53087   4.53920   4.56766   4.59198
 Alpha virt. eigenvalues --    4.61867   4.64338   4.65528   4.66644   4.67661
 Alpha virt. eigenvalues --    4.69099   4.69681   4.71115   4.72933   4.74321
 Alpha virt. eigenvalues --    4.75561   4.76734   4.79678   4.82405   4.84667
 Alpha virt. eigenvalues --    4.86431   4.88017   4.89805   4.90356   4.92837
 Alpha virt. eigenvalues --    4.94033   4.95172   4.98254   4.99495   5.00863
 Alpha virt. eigenvalues --    5.02899   5.04419   5.04923   5.07359   5.09007
 Alpha virt. eigenvalues --    5.12927   5.13931   5.14655   5.19071   5.21026
 Alpha virt. eigenvalues --    5.22072   5.24461   5.25647   5.26510   5.30313
 Alpha virt. eigenvalues --    5.30730   5.31349   5.31581   5.31991   5.38718
 Alpha virt. eigenvalues --    5.40253   5.42488   5.44358   5.47097   5.49121
 Alpha virt. eigenvalues --    5.49898   5.50875   5.53625   5.55257   5.56086
 Alpha virt. eigenvalues --    5.64550   5.69223   5.75990   5.77255   5.79602
 Alpha virt. eigenvalues --    5.79967   5.82137   5.82789   5.83902   5.88862
 Alpha virt. eigenvalues --    5.89611   5.92123   5.93913   5.96672   5.98048
 Alpha virt. eigenvalues --    5.99941   6.06514   6.07414   6.16256   6.18598
 Alpha virt. eigenvalues --    6.21680   6.25469   6.28467   6.29900   6.38771
 Alpha virt. eigenvalues --    6.39000   6.43602   6.44638   6.48657   6.54255
 Alpha virt. eigenvalues --    6.58669   6.62286   6.72631   6.76430   6.77414
 Alpha virt. eigenvalues --    6.77677   6.82787   6.84116   6.85456   6.86374
 Alpha virt. eigenvalues --    6.87140   6.98332   7.00487   7.04638   7.09146
 Alpha virt. eigenvalues --    7.11514   7.14628   7.15032   7.18224   7.22862
 Alpha virt. eigenvalues --    7.31532   7.35925   9.02097   9.39448   9.55120
 Alpha virt. eigenvalues --   19.98613  22.33281  22.46040  22.49711  22.52066
 Alpha virt. eigenvalues --   22.59468  22.66570  22.75274  22.77736  22.84846
 Alpha virt. eigenvalues --   22.91636  23.00548  23.01908  23.08651  23.09983
 Alpha virt. eigenvalues --   23.28547  23.51777  32.19072  33.24026  44.17475
 Alpha virt. eigenvalues --   44.19115  44.26136  44.29135  44.54457
          Condensed to atoms (all electrons):
               1          2          3          4          5          6
     1  C    5.155325   0.425701   0.409875   0.012474  -0.008002  -0.000243
     2  H    0.425701   0.498834  -0.015703  -0.002340   0.000463  -0.000006
     3  H    0.409875  -0.015703   0.521051  -0.000888   0.000343  -0.000012
     4  C    0.012474  -0.002340  -0.000888   5.631974   0.540954   0.186093
     5  H   -0.008002   0.000463   0.000343   0.540954   0.522477  -0.037344
     6  O   -0.000243  -0.000006  -0.000012   0.186093  -0.037344   8.146637
     7  H    0.000037  -0.000003  -0.000002  -0.055681  -0.008659   0.322163
     8  C   -0.012079   0.010948  -0.001126  -0.016082  -0.098575  -0.052766
     9  H    0.005035  -0.000350  -0.001714  -0.071330   0.002093   0.001141
    10  O    0.005497  -0.000185  -0.000035   0.056989   0.005700  -0.020864
[...]
 (Enter /storage/apps/GAUSSIAN/G16_RevA03/g16/l716.exe)
 Dipole        =-1.02091356D+00-5.76878824D-01 1.84852444D+00
 ***** Axes restored to original set *****
 -------------------------------------------------------------------
 Center     Atomic                   Forces (Hartrees/Bohr)
 Number     Number              X              Y              Z
 -------------------------------------------------------------------
      1        6           0.000314647   -0.000051626   -0.000042464
      2        1           0.000022661   -0.000001989   -0.000005927
      3        1           0.000008816   -0.000013187   -0.000000761
      4        6           0.000196338   -0.000107557   -0.000200301
      5        1          -0.000012907   -0.000012800    0.000005621
      6        8          -0.000092304   -0.000081661   -0.000413879
      7        1           0.000015069   -0.000036817    0.000028952
      8        6           0.000207094   -0.000018241   -0.000065768
      9        1           0.000005671    0.000000052    0.000006183
     10        8           0.000263115    0.000046888   -0.000093096
     11        1           0.000006004   -0.000018237    0.000018321
     12        6           0.000214118   -0.000131784   -0.000199850
     13        1           0.000043747   -0.000008959   -0.000030315
     14        6           0.000284332    0.000010637   -0.000049632
     15        1           0.000007259   -0.000000073   -0.000009854
     16        8           0.000423315   -0.000098551   -0.000187166
     17        7           0.000320486   -0.000121407   -0.000137369
     18        6          -0.000087340   -0.000161435    0.000083387
     19        1          -0.000039242   -0.000011541    0.000026522
     20        6           0.000224652   -0.000087048   -0.000144431
     21        1          -0.000003335    0.000009393    0.000036914
     22        6           0.000513392    0.000054481   -0.000706097
     23        1           0.000091990   -0.000015631   -0.000177788
     24        1          -0.000006153   -0.000009259    0.000008548
     25        6           0.000658506    0.000055349   -0.000579444
     26        6           0.000274310   -0.000052518   -0.000284458
     27        1           0.000024041   -0.000007160    0.000032292
     28        6           0.000496268   -0.000141615   -0.000078807
     29        8          -0.000290976    0.000098979    0.001584215
     30        7          -0.000198139    0.001563708   -0.000639477
     31        1           0.000676798   -0.000915433    0.000148134
     32        1           0.000147632   -0.000583377   -0.000694052
     33        1          -0.000019763    0.000004066    0.000007331
     34        6           0.000239456    0.000079660   -0.000742984
     35        6          -0.000602146    0.000022237    0.000606588
     36        6          -0.000962548   -0.000416168    0.000461647
     37        6          -0.000427453   -0.000031756   -0.000065386
     38        6          -0.000798489    0.000582148    0.001225533
     39        8          -0.001384731    0.000092650    0.001284225
     40       16          -0.000375369    0.000393719   -0.000445980
     41        1           0.000050905   -0.000001920   -0.000094845
     42        1          -0.000040796   -0.000028856   -0.000074417
     43        1          -0.000231933   -0.000188406    0.000102141
     44        1          -0.000063829   -0.000009862    0.000076135
     45        1          -0.000110016    0.000294593    0.000363974
     46        1          -0.000028204    0.000025870    0.000102395
     47        1           0.000015381    0.000010136    0.000002560
     48        1           0.000029667    0.000020308   -0.000047070
 -------------------------------------------------------------------
 Cartesian Forces:  Max     0.001584215 RMS     0.000378494
 Leave Link  716 at Sat Aug 13 20:33:45 2022, MaxMem=  2684354560 cpu:               0.8 elap:               0.1
 (Enter /storage/apps/GAUSSIAN/G16_RevA03/g16/l103.exe)

 GradGradGradGradGradGradGradGradGradGradGradGradGradGradGradGradGradGrad
 Berny optimization.
 Search for a local minimum.
 Step number   1 out of a maximum of    2
 All quantities printed in internal units (Hartrees-Bohrs-Radians)
 Second derivative matrix not updated -- first step.
 ITU=  0
     Eigenvalues ---    0.00036   0.00090   0.00103   0.00124   0.00186
     Eigenvalues ---    0.00238   0.00310   0.00387   0.00421   0.00454
     Eigenvalues ---    0.00550   0.00730   0.00834   0.00911   0.00915
     Eigenvalues ---    0.01020   0.01067   0.01181   0.01384   0.01520
     Eigenvalues ---    0.01693   0.01891   0.02346   0.02497   0.02630
     Eigenvalues ---    0.02952   0.03209   0.03372   0.03766   0.03876
     Eigenvalues ---    0.04378   0.04627   0.04928   0.05101   0.05257
     Eigenvalues ---    0.05350   0.05542   0.05737   0.05844   0.05881
     Eigenvalues ---    0.06089   0.06162   0.06342   0.06403   0.06688
     Eigenvalues ---    0.06964   0.07475   0.07683   0.07906   0.08154
     Eigenvalues ---    0.08567   0.08719   0.09042   0.09737   0.10294
     Eigenvalues ---    0.10516   0.11637   0.12133   0.12348   0.12530
     Eigenvalues ---    0.12992   0.13124   0.13215   0.13654   0.13723
     Eigenvalues ---    0.14004   0.14126   0.15408   0.16039   0.16593
     Eigenvalues ---    0.16896   0.18545   0.19040   0.19700   0.19869
     Eigenvalues ---    0.20008   0.21071   0.21857   0.21896   0.22237
     Eigenvalues ---    0.25266   0.27374   0.27433   0.27577   0.31591
     Eigenvalues ---    0.33011   0.34212   0.34911   0.35314   0.36795
     Eigenvalues ---    0.38133   0.38133   0.38133   0.38133   0.40164
     Eigenvalues ---    0.42823   0.45180   0.48000   0.56153   0.56590
     Eigenvalues ---    0.61644   0.66432   0.69494   0.69861   0.74184
     Eigenvalues ---    0.78883   0.82420   0.87564   0.89186   0.91116
     Eigenvalues ---    0.91329   0.91968   0.93888   0.94482   0.94841
     Eigenvalues ---    0.95723   0.97221   0.99751   1.01583   1.02959
     Eigenvalues ---    1.05566   1.06830   1.09854   1.11458   1.14108
     Eigenvalues ---    1.19519   1.19882   1.25651   1.27105   1.30097
     Eigenvalues ---    1.33568   1.44429   1.51926   1.63591   1.70047
     Eigenvalues ---    1.79382   2.18346   2.27753
 Quadratic step=2.346D+00 exceeds max=3.000D-01 adjusted using Lamda=-4.896D-03.
 Angle between NR and scaled steps=  43.85 degrees.
 Angle between quadratic step and forces=  53.96 degrees.
 Linear search not attempted -- first point.
 Variable       Old X    -DE/DX   Delta X   Delta X   Delta X     New X
                                 (Linear)    (Quad)   (Total)
    X1        6.83020   0.00031   0.00000  -0.00080  -0.00080   6.82940
    Y1       -6.84099  -0.00005   0.00000  -0.00024  -0.00024  -6.84123
    Z1       -0.83904  -0.00004   0.00000   0.01032   0.01032  -0.82871
    X2        7.11434   0.00002   0.00000  -0.00426  -0.00426   7.11008
    Y2       -7.02708  -0.00000   0.00000  -0.01070  -0.01070  -7.03778
    Z2       -2.86909  -0.00001   0.00000   0.01153   0.01153  -2.85756
    X3        8.20178   0.00001   0.00000  -0.00779  -0.00779   8.19399
    Y3       -8.03197  -0.00001   0.00000  -0.00150  -0.00150  -8.03347
    Z3        0.13466  -0.00000   0.00000   0.01831   0.01831   0.15298
    X4        3.58866   0.00020   0.00000   0.00253   0.00253   3.59119
    Y4       -2.75074  -0.00011   0.00000  -0.00039  -0.00039  -2.75113
    Z4        2.31443  -0.00020   0.00000  -0.01470  -0.01470   2.29973
    X5        2.36700  -0.00001   0.00000   0.00442   0.00442   2.37142
    Y5       -4.40373  -0.00001   0.00000  -0.00318  -0.00318  -4.40691
    Z5        2.06016   0.00001   0.00000  -0.00807  -0.00807   2.05209
    X6        2.83715  -0.00009   0.00000  -0.00408  -0.00408   2.83307
    Y6       -1.31236  -0.00008   0.00000   0.00240   0.00240  -1.30996
    Z6        4.39757  -0.00041   0.00000  -0.01939  -0.01939   4.37817
    X7        1.07585   0.00002   0.00000  -0.00906  -0.00906   1.06679
    Y7       -0.82367  -0.00004   0.00000  -0.01019  -0.01019  -0.83385
    Z7        4.16646   0.00003   0.00000  -0.00977  -0.00977   4.15670
    X8        6.32708   0.00021   0.00000   0.00358   0.00358   6.33066
    Y8       -3.57461  -0.00002   0.00000   0.00815   0.00815  -3.56645
    Z8        2.65144  -0.00007   0.00000  -0.00535  -0.00535   2.64610
    X9        6.50262   0.00001   0.00000   0.00107   0.00107   6.50368
    Y9       -5.24898   0.00000   0.00000   0.01294   0.01294  -5.23605
    Z9        3.85307   0.00001   0.00000   0.00266   0.00266   3.85573
   X10        7.76098   0.00026   0.00000  -0.00208  -0.00208   7.75890
   Y10       -1.55167   0.00005   0.00000   0.01369   0.01369  -1.53798
   Z10        3.61905  -0.00009   0.00000  -0.00799  -0.00799   3.61106
   X11        6.73755   0.00001   0.00000  -0.00384  -0.00384   6.73371
   Y11       -0.74126  -0.00002   0.00000   0.00680   0.00680  -0.73446
   Z11        4.89518   0.00002   0.00000  -0.00410  -0.00410   4.89109
   X12        3.73650   0.00021   0.00000   0.00779   0.00779   3.74428
   Y12       -1.26603  -0.00013   0.00000  -0.00444  -0.00444  -1.27047
   Z12       -0.18180  -0.00020   0.00000  -0.01666  -0.01666  -0.19845
   X13        4.30070   0.00004   0.00000  -0.00011  -0.00011   4.30059
   Y13        0.68174  -0.00001   0.00000  -0.00337  -0.00337   0.67837
   Z13        0.22872  -0.00003   0.00000  -0.01019  -0.01019   0.21854
   X14        7.14712   0.00028   0.00000   0.00924   0.00924   7.15636
   Y14       -4.10197   0.00001   0.00000   0.00119   0.00119  -4.10078
   Z14       -0.05917  -0.00005   0.00000  -0.00164  -0.00164  -0.06082
   X15        9.10379   0.00001   0.00000   0.01060   0.01060   9.11439
   Y15       -3.49661  -0.00000   0.00000  -0.00342  -0.00342  -3.50003
   Z15       -0.30014  -0.00001   0.00000   0.00474   0.00474  -0.29539
   X16        5.58699   0.00042   0.00000   0.01645   0.01645   5.60344
   Y16       -2.52966  -0.00010   0.00000  -0.00024  -0.00024  -2.52990
   Z16       -1.62364  -0.00019   0.00000  -0.01055  -0.01055  -1.63419
   X17        1.42076   0.00032   0.00000   0.01037   0.01037   1.43113
   Y17       -1.14607  -0.00012   0.00000  -0.00574  -0.00574  -1.15181
   Z17       -1.60859  -0.00014   0.00000  -0.02050  -0.02050  -1.62908
   X18        0.33833  -0.00009   0.00000   0.00195   0.00195   0.34027
   Y18       -3.37273  -0.00016   0.00000  -0.00493  -0.00493  -3.37765
   Z18       -2.50598   0.00008   0.00000  -0.01279  -0.01279  -2.51877
   X19        1.38681  -0.00004   0.00000  -0.01022  -0.01022   1.37659
   Y19       -5.07168  -0.00001   0.00000  -0.00819  -0.00819  -5.07987
   Z19       -2.07761   0.00003   0.00000   0.00275   0.00275  -2.07485
   X20       -1.77131   0.00022   0.00000   0.00217   0.00217  -1.76915
   Y20       -3.41468  -0.00009   0.00000  -0.00127  -0.00127  -3.41595
   Z20       -3.86714  -0.00014   0.00000  -0.01346  -0.01346  -3.88060
   X21       -2.46596  -0.00000   0.00000  -0.01174  -0.01174  -2.47769
   Y21       -5.22016   0.00001   0.00000  -0.00177  -0.00177  -5.22193
   Z21       -4.52664   0.00004   0.00000   0.00339   0.00339  -4.52326
   X22       -3.20438   0.00051   0.00000   0.00996   0.00996  -3.19442
   Y22       -1.06421   0.00005   0.00000   0.00193   0.00193  -1.06228
   Z22       -4.55953  -0.00071   0.00000  -0.02065  -0.02065  -4.58018
   X23       -3.46765   0.00009   0.00000   0.00322   0.00322  -3.46443
   Y23       -0.97746  -0.00002   0.00000   0.00292   0.00292  -0.97454
   Z23       -6.61561  -0.00018   0.00000  -0.01897  -0.01897  -6.63458
   X24       -5.11724  -0.00001   0.00000   0.01144   0.01144  -5.10580
   Y24       -1.15053  -0.00001   0.00000   0.00493   0.00493  -1.14559
   Z24       -3.75947   0.00001   0.00000  -0.01312  -0.01312  -3.77259
   X25       -1.82132   0.00066   0.00000   0.01012   0.01012  -1.81120
   Y25        1.24962   0.00006   0.00000  -0.00077  -0.00077   1.24885
   Z25       -3.63218  -0.00058   0.00000  -0.01373  -0.01373  -3.64591
   X26        0.32895   0.00027   0.00000   0.00913   0.00913   0.33808
   Y26        1.08825  -0.00005   0.00000  -0.00454  -0.00454   1.08371
   Z26       -2.28947  -0.00028   0.00000  -0.01344  -0.01344  -2.30291
   X27        1.26223   0.00002   0.00000  -0.00035  -0.00035   1.26188
   Y27        2.80238  -0.00001   0.00000  -0.00599  -0.00599   2.79639
   Z27       -1.66788   0.00003   0.00000   0.00525   0.00525  -1.66263
   X28       -2.80356   0.00050   0.00000  -0.00835  -0.00835  -2.81191
   Y28        3.81543  -0.00014   0.00000   0.00050   0.00050   3.81593
   Z28       -4.13502  -0.00008   0.00000   0.03004   0.03004  -4.10498
   X29       -1.62869  -0.00029   0.00000  -0.04634  -0.04634  -1.67503
   Y29        5.75158   0.00010   0.00000   0.00366   0.00366   5.75524
   Z29       -3.72708   0.00158   0.00000   0.12491   0.12491  -3.60217
   X30       -5.21837  -0.00020   0.00000   0.00690   0.00690  -5.21148
   Y30        3.90157   0.00156   0.00000  -0.00231  -0.00231   3.89926
   Z30       -5.06176  -0.00064   0.00000  -0.01172  -0.01172  -5.07348
   X31       -5.91014   0.00068   0.00000  -0.00604  -0.00604  -5.91618
   Y31        5.60600  -0.00092   0.00000   0.00195   0.00195   5.60795
   Z31       -5.54755   0.00015   0.00000   0.03059   0.03059  -5.51696
   X32       -6.19206   0.00015   0.00000   0.03362   0.03362  -6.15844
   Y32        2.34486  -0.00058   0.00000  -0.00214  -0.00214   2.34273
   Z32       -5.52822  -0.00069   0.00000  -0.07315  -0.07315  -5.60136
   X33        4.93773  -0.00002   0.00000  -0.00447  -0.00447   4.93326
   Y33       -7.52804   0.00000   0.00000   0.01163   0.01163  -7.51641
   Z33       -0.38247   0.00001   0.00000   0.01634   0.01634  -0.36613
   X34        0.40242   0.00024   0.00000   0.01722   0.01722   0.41964
   Y34        4.16243   0.00008   0.00000   0.00393   0.00393   4.16636
   Z34        5.29108  -0.00074   0.00000  -0.02886  -0.02886   5.26221
   X35       -3.16424  -0.00060   0.00000  -0.02988  -0.02988  -3.19412
   Y35        1.73618   0.00002   0.00000  -0.00569  -0.00569   1.73049
   Z35        2.46390   0.00061   0.00000   0.04447   0.04447   2.50837
   X36       -5.55760  -0.00096   0.00000  -0.01168  -0.01168  -5.56929
   Y36        1.65390  -0.00042   0.00000  -0.00000  -0.00000   1.65390
   Z36        1.03684   0.00046   0.00000   0.01616   0.01616   1.05300
   X37       -9.15397  -0.00043   0.00000   0.00867   0.00867  -9.14530
   Y37       -0.80306  -0.00003   0.00000  -0.00076  -0.00076  -0.80382
   Z37       -0.77778  -0.00007   0.00000  -0.01970  -0.01970  -0.79748
   X38       -6.67054  -0.00080   0.00000  -0.01619  -0.01619  -6.68673
   Y38       -0.54042   0.00058   0.00000   0.00171   0.00171  -0.53871
   Z38        0.52809   0.00123   0.00000   0.02483   0.02483   0.55292
   X39       -1.94972  -0.00138   0.00000  -0.09384  -0.09384  -2.04356
   Y39       -0.13210   0.00009   0.00000  -0.01783  -0.01783  -0.14993
   Z39        3.02550   0.00128   0.00000   0.14117   0.14117   3.16667
   X40       -2.31761  -0.00038   0.00000   0.05164   0.05164  -2.26598
   Y40        4.81242   0.00039   0.00000   0.00778   0.00778   4.82020
   Z40        3.36417  -0.00045   0.00000  -0.07966  -0.07966   3.28450
   X41        0.90448   0.00005   0.00000   0.01312   0.01312   0.91760
   Y41        5.93478  -0.00000   0.00000   0.00493   0.00493   5.93972
   Z41        6.20196  -0.00009   0.00000  -0.02784  -0.02784   6.17412
   X42        1.97388  -0.00004   0.00000   0.03330   0.03330   2.00717
   Y42        3.49940  -0.00003   0.00000  -0.01411  -0.01411   3.48528
   Z42        4.14558  -0.00007   0.00000   0.00480   0.00480   4.15037
   X43      -10.58276  -0.00023   0.00000  -0.01282  -0.01282 -10.59557
   Y43       -1.48639  -0.00019   0.00000  -0.00555  -0.00555  -1.49194
   Z43        0.54674   0.00010   0.00000  -0.04518  -0.04518   0.50156
   X44       -9.79277  -0.00006   0.00000   0.02212   0.02212  -9.77065
   Y44        0.99652  -0.00001   0.00000  -0.00027  -0.00027   0.99625
   Z44       -1.54925   0.00008   0.00000  -0.02920  -0.02920  -1.57845
   X45       -9.05147  -0.00011   0.00000   0.03979   0.03979  -9.01168
   Y45       -2.19412   0.00029   0.00000   0.00200   0.00200  -2.19212
   Z45       -2.29988   0.00036   0.00000  -0.01848  -0.01848  -2.31836
   X46       -5.71629  -0.00003   0.00000  -0.02675  -0.02675  -5.74305
   Y46       -2.25571   0.00003   0.00000   0.00409   0.00409  -2.25162
   Z46        1.13322   0.00010   0.00000   0.04925   0.04925   1.18246
   X47       -6.38399   0.00002   0.00000   0.01601   0.01601  -6.36798
   Y47        3.44430   0.00001   0.00000   0.00067   0.00067   3.44497
   Z47        0.47859   0.00000   0.00000  -0.02166  -0.02166   0.45694
   X48       -0.06341   0.00003   0.00000  -0.01388  -0.01388  -0.07729
   Y48        2.75389   0.00002   0.00000   0.01666   0.01666   2.77055
   Z48        6.71437  -0.00005   0.00000  -0.02518  -0.02518   6.68919
         Item               Value     Threshold  Converged?
 Maximum Force            0.001584     0.000450     NO 
 RMS     Force            0.000378     0.000300     NO 
 Maximum Displacement     0.141168     0.001800     NO 
 RMS     Displacement     0.025020     0.001200     NO 
 Predicted change in Energy=-6.218466D-04
 GradGradGradGradGradGradGradGradGradGradGradGradGradGradGradGradGradGrad

 Leave Link  103 at Sat Aug 13 20:33:46 2022, MaxMem=  2684354560 cpu:               1.3 elap:               0.1
 (Enter /storage/apps/GAUSSIAN/G16_RevA03/g16/l9999.exe)

 Test job not archived.
 1\1\GINC-T065\Force\RM062X\def2TZVP\C16H24N2O5S1\LV87696\13-Aug-2022\0
 \\#P M062X/Def2TZVP scf=(direct,conver=8) EmpiricalDispersion=GD3 Forc
 e Charge Prop=(Field,Read)\\Gaussian run\\0,1\C,3.614385,-3.620096,-0.
 443999\H,3.764745,-3.718572,-1.518256\H,4.340197,-4.250335,0.071261\C,
 1.899038,-1.455629,1.224741\H,1.252562,-2.330351,1.090192\O,1.501356,-
 0.69447,2.327093\H,0.569315,-0.435867,2.204797\C,3.348144,-1.8916,1.40
 3082\H,3.441036,-2.777642,2.038957\O,4.106932,-0.82111,1.915121\H,3.56
 5358,-0.392257,2.59042\C,1.977269,-0.669954,-0.096203\H,2.27583,0.3607
 6,0.121035\C,3.782093,-2.170668,-0.031314\H,4.817518,-1.850324,-0.1588
 25\O,2.956506,-1.33864,-0.859192\N,0.751835,-0.606474,-0.851227\C,0.17
 9034,-1.78477,-1.326107\H,0.733869,-2.683819,-1.099423\C,-0.937338,-1.
 806973,-2.046403\H,-1.304929,-2.762388,-2.395397\C,-1.695683,-0.563155
 ,-2.412802\H,-1.835,-0.51725,-3.50083\H,-2.707925,-0.608833,-1.989426\
 C,-0.963801,0.66127,-1.922067\C,0.174072,0.575875,-1.211536\H,0.667944
 ,1.482958,-0.882603\C,-1.483578,2.019038,-2.188159\O,-0.861863,3.04360
 5,-1.972287\N,-2.761445,2.064623,-2.678567\H,-3.127509,2.966568,-2.935
 638\H,-3.276697,1.240848,-2.925406\H,2.612935,-3.983669,-0.202394\C,0.
 212952,2.202663,2.799917\C,-1.674443,0.918747,1.30384\C,-2.940956,0.87
 5207,0.548672\C,-4.84407,-0.424961,-0.411581\C,-3.529897,-0.285976,0.2
 79451\O,-1.031748,-0.069904,1.601026\S,-1.226427,2.546622,1.78024\H,0.
 478632,3.140552,3.281935\H,1.04453,1.851802,2.193746\H,-5.600154,-0.78
 6564,0.289324\H,-5.18211,0.527335,-0.819828\H,-4.789831,-1.161078,-1.2
 17043\H,-3.024933,-1.19367,0.599672\H,-3.378261,1.822645,0.25326\H,-0.
 033555,1.457298,3.553091\\Version=ES64L-G16RevA.03\State=1-A\HF=-1507.
 931609\RMSD=1.402e-09\RMSF=3.785e-04\Dipole=-1.8402632,-1.1676561,0.20
 51996\Quadrupole=5.6552546,-2.9530711,-2.7021835,-2.5680747,7.6160986,
 6.6455553\PG=C01 [X(C16H24N2O5S1)]\\@


 DO YOU KNOW THAT THE LETTERS IN "EPISCOPAL", WHEN
 REARRANGED, SPELL "PEPSI COLA"?
 Job cpu time:       0 days  3 hours 12 minutes 20.8 seconds.
 Elapsed time:       0 days  0 hours 12 minutes  3.3 seconds.
 File lengths (MBytes):  RWF=    435 Int=      0 D2E=      0 Chk=     48 Scr=      1
 Normal termination of Gaussian 16 at Sat Aug 13 20:33:46 2022.
