 Entering Gaussian System, Link 0=g16
 Initial command:
 /storage/apps/GAUSSIAN/G16_RevA03/g16/l1.exe "/scratch/tmp/1019210/Gau-103510.inp" -scrdir="/scratch/tmp/1019210/"
 Entering Link 1 = /storage/apps/GAUSSIAN/G16_RevA03/g16/l1.exe PID=    103515.
  
 Copyright (c) 1988,1990,1992,1993,1995,1998,2003,2009,2016,
            Gaussian, Inc.  All Rights Reserved.
  
 This is part of the Gaussian(R) 16 program.  It is based on
 the Gaussian(R) 09 system (copyright 2009, Gaussian, Inc.),
 the Gaussian(R) 03 system (copyright 2003, Gaussian, Inc.),
 the Gaussian(R) 98 system (copyright 1998, Gaussian, Inc.),
 the Gaussian(R) 94 system (copyright 1995, Gaussian, Inc.),
 the Gaussian 92(TM) system (copyright 1992, Gaussian, Inc.),
 the Gaussian 90(TM) system (copyright 1990, Gaussian, Inc.),
 the Gaussian 88(TM) system (copyright 1988, Gaussian, Inc.),
 the Gaussian 86(TM) system (copyright 1986, Carnegie Mellon
 University), and the Gaussian 82(TM) system (copyright 1983,
 Carnegie Mellon University). Gaussian is a federally registered
 trademark of Gaussian, Inc.
  
 This software contains proprietary and confidential information,
 including trade secrets, belonging to Gaussian, Inc.
  
 This software is provided under written license and may be
 used, copied, transmitted, or stored only in accord with that
 written license.
  
 The following legend is applicable only to US Government
 contracts under FAR:
  
                    RESTRICTED RIGHTS LEGEND
  
 Use, reproduction and disclosure by the US Government is
 subject to restrictions as set forth in subparagraphs (a)
 and (c) of the Commercial Computer Software - Restricted
 Rights clause in FAR 52.227-19.
  
 Gaussian, Inc.
 340 Quinnipiac St., Bldg. 40, Wallingford CT 06492
  
  
 ---------------------------------------------------------------
 Warning -- This program may not be used in any manner that
 competes with the business of Gaussian, Inc. or will provide
 assistance to any competitor of Gaussian, Inc.  The licensee
 of this program is prohibited from giving any competitor of
 Gaussian, Inc. access to this program.  By using this program,
 the user acknowledges that Gaussian, Inc. is engaged in the
 business of creating and licensing software in the field of
 computational chemistry and represents and warrants to the
 licensee that it is not a competitor of Gaussian, Inc. and that
 it will not use this program in any manner prohibited above.
 ---------------------------------------------------------------
  

 Cite this work as:
 Gaussian 16, Revision A.03,
 M. J. Frisch, G. W. Trucks, H. B. Schlegel, G. E. Scuseria, 
 M. A. Robb, J. R. Cheeseman, G. Scalmani, V. Barone, 
 G. A. Petersson, H. Nakatsuji, X. Li, M. Caricato, A. V. Marenich, 
 J. Bloino, B. G. Janesko, R. Gomperts, B. Mennucci, H. P. Hratchian, 
 J. V. Ortiz, A. F. Izmaylov, J. L. Sonnenberg, D. Williams-Young, 
 F. Ding, F. Lipparini, F. Egidi, J. Goings, B. Peng, A. Petrone, 
 T. Henderson, D. Ranasinghe, V. G. Zakrzewski, J. Gao, N. Rega, 
 G. Zheng, W. Liang, M. Hada, M. Ehara, K. Toyota, R. Fukuda, 
 J. Hasegawa, M. Ishida, T. Nakajima, Y. Honda, O. Kitao, H. Nakai, 
 T. Vreven, K. Throssell, J. A. Montgomery, Jr., J. E. Peralta, 
 F. Ogliaro, M. J. Bearpark, J. J. Heyd, E. N. Brothers, K. N. Kudin, 
 V. N. Staroverov, T. A. Keith, R. Kobayashi, J. Normand, 
 K. Raghavachari, A. P. Rendell, J. C. Burant, S. S. Iyengar, 
 J. Tomasi, M. Cossi, J. M. Millam, M. Klene, C. Adamo, R. Cammi, 
 J. W. Ochterski, R. L. Martin, K. Morokuma, O. Farkas, 
 J. B. Foresman, and D. J. Fox, Gaussian, Inc., Wallingford CT, 2016.
 
 ******************************************
 Gaussian 16:  ES64L-G16RevA.03 25-Dec-2016
                13-Aug-2022 
 ******************************************
 %NProcShared=16
 Will use up to   16 processors via shared memory.
 %mem=20GB
 ----------------------------------------------------------------------
 #P M062X/Def2TZVP scf=(direct,conver=8) EmpiricalDispersion=GD3 Force 
 Charge Prop=(Field,Read)
 ----------------------------------------------------------------------
 1/10=7,18=10,28=-2,30=1,38=1,125=101/1,3;
 2/12=2,17=6,18=5,29=2,40=1/2;
 3/5=44,7=101,11=2,25=1,30=1,71=1,74=-55,124=31/1,2,3;
 4//1;
 5/5=2,6=8,38=5/2;
 6/7=2,8=2,9=2,10=2,14=2,15=1,28=1/1,2;
 7/7=1,16=-2,29=1/1,2,3,16;
 1/10=7,18=10,28=-2,30=1/3;
 99/12=1/99;
 Leave Link    1 at Sat Aug 13 20:21:42 2022, MaxMem=  2684354560 cpu:               0.7 elap:               0.1
 (Enter /storage/apps/GAUSSIAN/G16_RevA03/g16/l101.exe)
 ------------
 Gaussian run
 ------------
 Symbolic Z-matrix:
 Charge =  0 Multiplicity = 1
 C                     3.61142  -3.61954  -0.44368 
 H                     3.76091  -3.71761  -1.51811 
 H                     4.3379   -4.24967   0.07075 
 C                     1.89672  -1.45456   1.22658 
 H                     1.24896  -2.32839   1.09206 
 O                     1.50146  -0.69372   2.33008 
 H                     0.57043  -0.4322    2.20681 
 C                     3.34558  -1.89144   1.40386 
 H                     3.43844  -2.77754   2.03966 
 O                     4.10456  -0.821     1.91571 
 H                     3.56281  -0.39195   2.59075 
 C                     1.97478  -0.66862  -0.09446 
 H                     2.2738    0.36204   0.12256 
 C                     3.779    -2.17022  -0.03064 
 H                     4.81433  -1.8497   -0.15845 
 O                     2.95306  -1.33808  -0.85788 
 N                     0.74969  -0.6051   -0.84989 
 C                     0.17954  -1.78336  -1.32775 
 H                     0.73901  -2.68112  -1.10736 
 C                    -0.93893  -1.80621  -2.04473 
 H                    -1.30363  -2.76103  -2.39832 
 C                    -1.70292  -0.56348  -2.40226 
 H                    -1.85098  -0.51452  -3.48943 
 H                    -2.71172  -0.61317  -1.97237 
 C                    -0.96947   0.66147  -1.91554 
 C                     0.17064   0.57698  -1.2086 
 H                     0.66608   1.48426  -0.88255 
 C                    -1.48693   2.01905  -2.18707 
 O                    -0.85937   3.04287  -1.98457 
 N                    -2.7651    2.06498  -2.67522 
 H                    -3.14641   2.96783  -2.89809 
 H                    -3.30797   1.24071  -2.85566 
 H                     2.61032  -3.9836   -0.20128 
 C                     0.21051   2.20189   2.80705 
 C                    -1.66649   0.91783   1.29721 
 C                    -2.93264   0.87384   0.54198 
 C                    -4.83627  -0.42564  -0.41645 
 C                    -3.5183   -0.28713   0.26777 
 O                    -1.02188  -0.07035   1.59128 
 S                    -1.22528   2.54493   1.78198 
 H                     0.47081   3.13896   3.29357 
 H                     1.04613   1.85568   2.20382 
 H                    -5.59185  -0.77581   0.29255 
 H                    -5.17205   0.52482  -0.83104 
 H                    -4.79306  -1.1698   -1.21365 
 H                    -3.00886  -1.19566   0.57999 
 H                    -3.37409   1.82181   0.25412 
 H                    -0.0374    1.45341   3.5567 
 
 ITRead=  0  0  0  0  0  0  0  0  0  0  0  0  0  0  0  0  0  0  0  0
 ITRead=  0  0  0  0  0  0  0  0  0  0  0  0  0  0  0  0  0  0  0  0
 ITRead=  0  0  0  0  0  0  0  0
 MicOpt= -1 -1 -1 -1 -1 -1 -1 -1 -1 -1 -1 -1 -1 -1 -1 -1 -1 -1 -1 -1
 MicOpt= -1 -1 -1 -1 -1 -1 -1 -1 -1 -1 -1 -1 -1 -1 -1 -1 -1 -1 -1 -1
 MicOpt= -1 -1 -1 -1 -1 -1 -1 -1
 NAtoms=     48 NQM=       48 NQMF=       0 NMMI=      0 NMMIF=      0
                NMic=       0 NMicF=      0.
                    Isotopes and Nuclear Properties:
 (Nuclear quadrupole moments (NQMom) in fm**2, nuclear magnetic moments (NMagM)
  in nuclear magnetons)

  Atom         1           2           3           4           5           6           7           8           9          10
 IAtWgt=          12           1           1          12           1          16           1          12           1          16
 AtmWgt=  12.0000000   1.0078250   1.0078250  12.0000000   1.0078250  15.9949146   1.0078250  12.0000000   1.0078250  15.9949146
 NucSpn=           0           1           1           0           1           0           1           0           1           0
 AtZEff=  -0.0000000  -0.0000000  -0.0000000  -0.0000000  -0.0000000  -0.0000000  -0.0000000  -0.0000000  -0.0000000  -0.0000000
 NQMom=    0.0000000   0.0000000   0.0000000   0.0000000   0.0000000   0.0000000   0.0000000   0.0000000   0.0000000   0.0000000
 NMagM=    0.0000000   2.7928460   2.7928460   0.0000000   2.7928460   0.0000000   2.7928460   0.0000000   2.7928460   0.0000000
 AtZNuc=   6.0000000   1.0000000   1.0000000   6.0000000   1.0000000   8.0000000   1.0000000   6.0000000   1.0000000   8.0000000

  Atom        11          12          13          14          15          16          17          18          19          20
 IAtWgt=           1          12           1          12           1          16          14          12           1          12
 AtmWgt=   1.0078250  12.0000000   1.0078250  12.0000000   1.0078250  15.9949146  14.0030740  12.0000000   1.0078250  12.0000000
 NucSpn=           1           0           1           0           1           0           2           0           1           0
 AtZEff=  -0.0000000  -0.0000000  -0.0000000  -0.0000000  -0.0000000  -0.0000000  -0.0000000  -0.0000000  -0.0000000  -0.0000000
 NQMom=    0.0000000   0.0000000   0.0000000   0.0000000   0.0000000   0.0000000   2.0440000   0.0000000   0.0000000   0.0000000
 NMagM=    2.7928460   0.0000000   2.7928460   0.0000000   2.7928460   0.0000000   0.4037610   0.0000000   2.7928460   0.0000000
 AtZNuc=   1.0000000   6.0000000   1.0000000   6.0000000   1.0000000   8.0000000   7.0000000   6.0000000   1.0000000   6.0000000

  Atom        21          22          23          24          25          26          27          28          29          30
 IAtWgt=           1          12           1           1          12          12           1          12          16          14
 AtmWgt=   1.0078250  12.0000000   1.0078250   1.0078250  12.0000000  12.0000000   1.0078250  12.0000000  15.9949146  14.0030740
 NucSpn=           1           0           1           1           0           0           1           0           0           2
 AtZEff=  -0.0000000  -0.0000000  -0.0000000  -0.0000000  -0.0000000  -0.0000000  -0.0000000  -0.0000000  -0.0000000  -0.0000000
 NQMom=    0.0000000   0.0000000   0.0000000   0.0000000   0.0000000   0.0000000   0.0000000   0.0000000   0.0000000   2.0440000
 NMagM=    2.7928460   0.0000000   2.7928460   2.7928460   0.0000000   0.0000000   2.7928460   0.0000000   0.0000000   0.4037610
 AtZNuc=   1.0000000   6.0000000   1.0000000   1.0000000   6.0000000   6.0000000   1.0000000   6.0000000   8.0000000   7.0000000

  Atom        31          32          33          34          35          36          37          38          39          40
 IAtWgt=           1           1           1          12          12          12          12          12          16          32
 AtmWgt=   1.0078250   1.0078250   1.0078250  12.0000000  12.0000000  12.0000000  12.0000000  12.0000000  15.9949146  31.9720718
 NucSpn=           1           1           1           0           0           0           0           0           0           0
 AtZEff=  -0.0000000  -0.0000000  -0.0000000  -0.0000000  -0.0000000  -0.0000000  -0.0000000  -0.0000000  -0.0000000  -0.0000000
 NQMom=    0.0000000   0.0000000   0.0000000   0.0000000   0.0000000   0.0000000   0.0000000   0.0000000   0.0000000   0.0000000
 NMagM=    2.7928460   2.7928460   2.7928460   0.0000000   0.0000000   0.0000000   0.0000000   0.0000000   0.0000000   0.0000000
 AtZNuc=   1.0000000   1.0000000   1.0000000   6.0000000   6.0000000   6.0000000   6.0000000   6.0000000   8.0000000  16.0000000

  Atom        41          42          43          44          45          46          47          48
 IAtWgt=           1           1           1           1           1           1           1           1
 AtmWgt=   1.0078250   1.0078250   1.0078250   1.0078250   1.0078250   1.0078250   1.0078250   1.0078250
 NucSpn=           1           1           1           1           1           1           1           1
 AtZEff=  -0.0000000  -0.0000000  -0.0000000  -0.0000000  -0.0000000  -0.0000000  -0.0000000  -0.0000000
 NQMom=    0.0000000   0.0000000   0.0000000   0.0000000   0.0000000   0.0000000   0.0000000   0.0000000
 NMagM=    2.7928460   2.7928460   2.7928460   2.7928460   2.7928460   2.7928460   2.7928460   2.7928460
 AtZNuc=   1.0000000   1.0000000   1.0000000   1.0000000   1.0000000   1.0000000   1.0000000   1.0000000
 Background charge distribution read from input stream:
 Leave Link  101 at Sat Aug 13 20:21:42 2022, MaxMem=  2684354560 cpu:               2.2 elap:               0.2
 (Enter /storage/apps/GAUSSIAN/G16_RevA03/g16/l103.exe)

 GradGradGradGradGradGradGradGradGradGradGradGradGradGradGradGradGradGrad
 Berny optimization.
 Initialization pass.
 Trust Radius=3.00D-01 FncErr=1.00D-07 GrdErr=1.00D-07 EigMax=2.50D+02 EigMin=1.00D-04
 Number of steps in this run=      2 maximum allowed number of steps=      2.
 GradGradGradGradGradGradGradGradGradGradGradGradGradGradGradGradGradGrad

 Leave Link  103 at Sat Aug 13 20:21:42 2022, MaxMem=  2684354560 cpu:               0.5 elap:               0.1
 (Enter /storage/apps/GAUSSIAN/G16_RevA03/g16/l202.exe)
 ---------------------------------------------------------------------------------------------------
                            Z-MATRIX (ANGSTROMS AND DEGREES)
   CD    Cent   Atom    N1       Length/X        N2       Alpha/Y        N3        Beta/Z          J
 ---------------------------------------------------------------------------------------------------
      1      1  C        0   3.611416         -3.619542         -0.443683
      2      2  H        0   3.760909         -3.717606         -1.518105
      3      3  H        0   4.337899         -4.249667          0.070750
      4      4  C        0   1.896716         -1.454555          1.226578
      5      5  H        0   1.248960         -2.328386          1.092058
      6      6  O        0   1.501464         -0.693723          2.330079
      7      7  H        0   0.570434         -0.432203          2.206814
      8      8  C        0   3.345578         -1.891442          1.403859
      9      9  H        0   3.438436         -2.777538          2.039665
     10     10  O        0   4.104559         -0.820997          1.915709
     11     11  H        0   3.562807         -0.391952          2.590749
     12     12  C        0   1.974775         -0.668618         -0.094461
     13     13  H        0   2.273797          0.362038          0.122562
     14     14  C        0   3.779004         -2.170220         -0.030638
     15     15  H        0   4.814329         -1.849699         -0.158446
     16     16  O        0   2.953061         -1.338083         -0.857878
     17     17  N        0   0.749692         -0.605100         -0.849887
     18     18  C        0   0.179541         -1.783364         -1.327747
     19     19  H        0   0.739011         -2.681118         -1.107357
     20     20  C        0  -0.938928         -1.806209         -2.044733
     21     21  H        0  -1.303632         -2.761029         -2.398315
     22     22  C        0  -1.702923         -0.563477         -2.402264
     23     23  H        0  -1.850976         -0.514522         -3.489431
     24     24  H        0  -2.711721         -0.613171         -1.972371
     25     25  C        0  -0.969465          0.661468         -1.915541
     26     26  C        0   0.170641          0.576983         -1.208603
     27     27  H        0   0.666080          1.484259         -0.882552
     28     28  C        0  -1.486931          2.019045         -2.187066
     29     29  O        0  -0.859373          3.042871         -1.984573
     30     30  N        0  -2.765101          2.064981         -2.675218
     31     31  H        0  -3.146411          2.967830         -2.898086
     32     32  H        0  -3.307966          1.240712         -2.855657
     33     33  H        0   2.610316         -3.983599         -0.201284
     34     34  C        0   0.210513          2.201888          2.807049
     35     35  C        0  -1.666489          0.917830          1.297206
     36     36  C        0  -2.932643          0.873837          0.541975
     37     37  C        0  -4.836267         -0.425638         -0.416445
     38     38  C        0  -3.518301         -0.287129          0.267770
     39     39  O        0  -1.021881         -0.070350          1.591276
     40     40  S        0  -1.225279          2.544933          1.781984
     41     41  H        0   0.470809          3.138964          3.293573
     42     42  H        0   1.046134          1.855678          2.203817
     43     43  H        0  -5.591846         -0.775805          0.292545
     44     44  H        0  -5.172049          0.524821         -0.831041
     45     45  H        0  -4.793056         -1.169795         -1.213652
     46     46  H        0  -3.008861         -1.195657          0.579992
     47     47  H        0  -3.374088          1.821814          0.254122
     48     48  H        0  -0.037396          1.453411          3.556700
 ---------------------------------------------------------------------------------------------------
                         Z-Matrix orientation:                         
 ---------------------------------------------------------------------
 Center     Atomic      Atomic             Coordinates (Angstroms)
 Number     Number       Type             X           Y           Z
 ---------------------------------------------------------------------
      1          6           0        3.611416   -3.619542   -0.443683
      2          1           0        3.760909   -3.717606   -1.518105
      3          1           0        4.337899   -4.249667    0.070750
      4          6           0        1.896716   -1.454555    1.226578
      5          1           0        1.248960   -2.328386    1.092058
      6          8           0        1.501464   -0.693723    2.330079
      7          1           0        0.570434   -0.432203    2.206814
      8          6           0        3.345578   -1.891442    1.403859
      9          1           0        3.438436   -2.777538    2.039665
     10          8           0        4.104559   -0.820997    1.915709
     11          1           0        3.562807   -0.391952    2.590749
     12          6           0        1.974775   -0.668618   -0.094461
     13          1           0        2.273797    0.362038    0.122562
     14          6           0        3.779004   -2.170220   -0.030638
     15          1           0        4.814329   -1.849699   -0.158446
     16          8           0        2.953061   -1.338083   -0.857878
     17          7           0        0.749692   -0.605100   -0.849887
     18          6           0        0.179541   -1.783364   -1.327747
     19          1           0        0.739011   -2.681118   -1.107357
     20          6           0       -0.938928   -1.806209   -2.044733
     21          1           0       -1.303632   -2.761029   -2.398315
     22          6           0       -1.702923   -0.563477   -2.402264
     23          1           0       -1.850976   -0.514522   -3.489431
     24          1           0       -2.711721   -0.613171   -1.972371
     25          6           0       -0.969465    0.661468   -1.915541
     26          6           0        0.170641    0.576983   -1.208603
     27          1           0        0.666080    1.484259   -0.882552
     28          6           0       -1.486931    2.019045   -2.187066
     29          8           0       -0.859373    3.042871   -1.984573
     30          7           0       -2.765101    2.064981   -2.675218
     31          1           0       -3.146411    2.967830   -2.898086
     32          1           0       -3.307966    1.240712   -2.855657
     33          1           0        2.610316   -3.983599   -0.201284
     34          6           0        0.210513    2.201888    2.807049
     35          6           0       -1.666489    0.917830    1.297206
     36          6           0       -2.932643    0.873837    0.541975
     37          6           0       -4.836267   -0.425638   -0.416445
     38          6           0       -3.518301   -0.287129    0.267770
     39          8           0       -1.021881   -0.070350    1.591276
     40         16           0       -1.225279    2.544933    1.781984
     41          1           0        0.470809    3.138964    3.293573
     42          1           0        1.046134    1.855678    2.203817
     43          1           0       -5.591846   -0.775805    0.292545
     44          1           0       -5.172049    0.524821   -0.831041
     45          1           0       -4.793056   -1.169795   -1.213652
     46          1           0       -3.008861   -1.195657    0.579992
     47          1           0       -3.374088    1.821814    0.254122
     48          1           0       -0.037396    1.453411    3.556700
 ---------------------------------------------------------------------
                    Distance matrix (angstroms):
                    1          2          3          4          5
     1  C    0.000000
     2  H    1.089196   0.000000
     3  H    1.090631   1.772136   0.000000
     4  C    3.227559   4.016205   3.886896   0.000000
     5  H    3.099481   3.879790   3.778351   1.096022   0.000000
     6  O    4.550392   5.390499   5.078845   1.397428   2.066054
     7  H    5.141190   5.903222   5.773179   1.940384   2.301866
     8  C    2.543700   3.470627   2.884979   1.523647   2.164243
     9  H    2.627910   3.693974   2.617790   2.188217   2.427654
    10  O    3.693477   4.505499   3.900526   2.398097   3.332427
    11  H    4.430291   5.289792   4.672593   2.401239   3.368937
    12  C    3.392418   3.809641   4.293665   1.539134   2.165517
    13  H    4.238259   4.641852   5.052823   2.158947   3.037860
    14  C    1.516320   2.146460   2.155631   2.373979   2.772469
    15  H    2.158866   2.539182   2.457511   3.253751   3.808511
    16  O    2.410403   2.598201   3.355212   2.339741   2.772528
    17  N    4.176281   4.381967   5.196698   2.519711   2.643886
    18  C    3.991351   4.074767   5.032930   3.095381   2.701141
    19  H    3.093835   3.221007   4.098814   2.879582   2.285146
    20  C    5.153365   5.100906   6.187945   4.343502   3.859920
    21  H    5.358668   5.228708   6.335550   5.008887   4.345758
    22  C    6.435664   6.370536   7.496354   5.188441   4.902938
    23  H    6.982511   6.755674   8.057814   6.096687   5.821490
    24  H    7.166395   7.192970   8.191190   5.672644   5.293362
    25  C    6.440333   6.458381   7.498847   4.750311   4.786051
    26  C    5.480407   5.606185   6.503794   3.610622   3.859661
    27  H    5.909010   6.086156   6.875242   3.820932   4.333024
    28  C    7.799115   7.803621   8.850035   5.930255   6.094088
    29  O    8.170070   8.201747   9.187878   6.175302   6.539199
    30  N    8.829129   8.795796   9.892812   7.024506   7.043204
    31  H    9.751194   9.711358  10.813008   7.874228   7.955529
    32  H    8.793039   8.737446   9.857351   7.142676   7.006318
    33  H    1.092472   1.768795   1.768993   2.990665   2.503149
    34  C    7.484814   8.145715   8.132971   4.325592   4.954084
    35  C    7.174589   7.672672   8.016227   4.281312   4.368048
    36  C    7.999168   8.374301   8.906915   5.404887   5.295529
    37  C    9.031341   9.271577   9.951175   7.006515   6.551795
    38  C    7.902152   8.242841   8.801159   5.621797   5.250996
    39  O    6.181041   6.770953   6.964620   3.250729   3.241090
    40  S    8.145426   8.658640   8.946723   5.104041   5.508820
    41  H    8.337140   8.999420   8.940517   5.235083   5.945091
    42  H    6.600603   7.230782   7.256785   3.554733   4.333998
    43  H    9.660689   9.970289  10.522203   7.577050   7.060195
    44  H    9.719828   9.913021  10.679329   7.623593   7.284810
    45  H    8.788018   8.930529   9.721607   7.126630   6.569976
    46  H    7.123987   7.522767   7.972527   4.954774   4.435575
    47  H    8.882148   9.205115   9.816886   6.281850   6.268881
    48  H    7.419686   8.180476   7.988752   4.198395   4.693736
                    6          7          8          9         10
     6  O    0.000000
     7  H    0.974887   0.000000
     8  C    2.386037   3.236594   0.000000
     9  H    2.859805   3.708635   1.094549   0.000000
    10  O    2.638940   3.567344   1.408508   2.070540   0.000000
    11  H    2.099559   3.017171   1.924673   2.451567   0.966051
    12  C    2.470435   2.706276   2.370519   3.338314   2.932573
    13  H    2.565981   2.806487   2.805104   3.858576   2.822523
    14  C    3.597251   4.280399   1.524256   2.184256   2.390535
    15  H    4.301641   5.061067   2.144707   2.754207   2.421595
    16  O    3.561657   3.986210   2.361298   3.271601   3.047312
    17  N    3.268822   3.066830   3.670514   4.505368   4.353190
    18  C    4.039120   3.804150   4.182959   4.790432   5.181884
    19  H    4.043147   4.008711   3.704590   4.147281   4.891410
    20  C    5.131483   4.716113   5.500640   6.065237   6.487874
    21  H    5.873672   5.490243   6.068596   6.494855   7.184919
    22  C    5.716654   5.140913   6.460451   7.146074   7.241412
    23  H    6.718457   6.190090   7.269413   7.979350   8.048470
    24  H    6.022333   5.317037   7.051509   7.655413   7.849970
    25  C    5.095814   4.534448   6.012933   6.848358   6.528545
    26  C    3.988490   3.583764   4.795655   5.699346   5.214536
    27  H    3.970198   3.636778   4.878805   5.864147   4.996760
    28  C    6.057575   5.435766   7.179122   8.070422   7.494222
    29  O    6.176723   5.629228   7.315089   8.279059   7.401506
    30  N    7.132112   6.418408   8.344612   9.174093   8.752012
    31  H    7.895785   7.171831   9.179607  10.037472   9.492334
    32  H    7.332429   6.593121   8.498442   9.253348   9.053292
    33  H    4.296584   4.751049   2.737556   2.676232   4.088578
    34  C    3.206028   2.725484   5.343494   5.983565   5.009582
    35  C    3.701332   2.766550   5.746669   6.345648   6.058965
    36  C    5.031487   4.092552   6.914165   7.494415   7.367620
    37  C    6.912460   6.009488   8.509094   8.946207   9.248439
    38  C    5.442102   4.527548   7.139843   7.598548   7.817206
    39  O    2.702165   1.745076   4.735631   5.236826   5.191254
    40  S    4.269008   3.502628   6.380998   7.081337   6.305120
    41  H    4.084123   3.734194   6.094284   6.736772   5.548328
    42  H    2.592820   2.336814   4.468589   5.216967   4.074501
    43  H    7.380605   6.461902   9.075087   9.413042   9.831428
    44  H    7.484204   6.566625   9.131433   9.658519   9.767872
    45  H    7.239175   6.403956   8.579598   8.995908   9.438332
    46  H    4.863926   4.005092   6.445290   6.797105   7.247431
    47  H    5.865879   4.944983   7.762994   8.411462   8.104041
    48  H    2.912537   2.397330   5.221808   5.681878   5.002157
                   11         12         13         14         15
    11  H    0.000000
    12  C    3.131891   0.000000
    13  H    2.884787   1.094881   0.000000
    14  C    3.175004   2.348217   2.949822   0.000000
    15  H    3.354014   3.076055   3.380096   1.091314   0.000000
    16  O    3.627669   1.409976   2.076794   1.434908   2.053113
    17  N    4.449385   1.440670   2.050344   3.506779   4.306784
    18  C    5.360702   2.446736   3.330474   3.845554   4.780473
    19  H    5.185566   2.569675   3.623405   3.265256   4.266135
    20  C    6.614638   3.686101   4.440728   5.142759   6.054745
    21  H    7.361081   4.520385   5.376464   5.638097   6.578524
    22  C    7.258616   4.343095   4.800586   6.185285   7.011680
    23  H    8.142030   5.117220   5.552351   6.811847   7.569970
    24  H    7.761488   5.049046   5.495013   6.951564   7.839691
    25  C    6.477487   3.708640   3.842170   5.841171   6.545656
    26  C    5.184660   2.459214   2.498293   4.685617   5.343730
    27  H    4.896429   2.639820   2.203268   4.875579   5.370994
    28  C    7.358008   4.856535   4.714141   7.066130   7.667357
    29  O    7.230993   5.037864   4.630728   7.246290   7.711218
    30  N    8.591237   6.049735   6.009832   8.231406   8.894190
    31  H    9.296723   6.878271   6.730016   9.087529   9.699876
    32  H    8.918321   6.259161   6.387326   8.357053   9.099300
    33  H    4.647861   3.377043   4.370662   2.164092   3.068067
    34  C    4.244133   4.446480   3.853396   6.316797   6.812095
    35  C    5.543854   4.208605   4.149042   6.399423   7.195772
    36  C    6.927522   5.183336   5.248320   7.391913   8.241590
    37  C    8.921255   6.822976   7.173839   8.798597   9.758510
    38  C    7.453141   5.518209   5.830172   7.542264   8.488581
    39  O    4.703375   3.489926   3.633947   5.485304   6.347358
    40  S    5.674959   4.907983   4.445475   7.110634   7.717184
    41  H    4.745712   5.313979   4.584473   7.083923   7.461190
    42  H    3.396351   3.537870   2.840729   5.354365   5.788730
    43  H    9.446521   7.577270   7.949335   9.479540  10.471157
    44  H    9.425860   7.283127   7.508427   9.382177  10.286811
    45  H    9.214063   6.878030   7.353393   8.710946   9.689044
    46  H    6.919242   5.056608   5.526494   6.884603   7.885136
    47  H    7.647294   5.910507   5.834969   8.196594   8.983340
    48  H    4.159313   4.677907   4.280889   6.369035   6.946372
                   16         17         18         19         20
    16  O    0.000000
    17  N    2.322103   0.000000
    18  C    2.848063   1.393459   0.000000
    19  H    2.601538   2.091950   1.080528   0.000000
    20  C    4.095772   2.392020   1.328745   2.111781   0.000000
    21  H    4.745225   3.355860   2.074065   2.417716   1.081532
    22  C    4.966219   2.902917   2.487244   3.481986   1.501965
    23  H    5.539142   3.706598   3.225808   4.132366   2.141831
    24  H    5.818707   3.638876   3.185010   4.114876   2.138076
    25  C    4.528031   2.386486   2.764583   3.839913   2.471245
    26  C    3.395931   1.364294   2.363369   3.308854   2.758598
    27  H    3.632699   2.091286   3.333508   4.172076   3.841080
    28  C    5.722812   3.698198   4.239560   5.311508   3.866928
    29  O    5.915814   4.145394   4.980292   6.007361   4.850106
    30  N    6.897894   4.776498   5.029548   6.104297   4.326492
    31  H    7.739954   5.669265   6.008474   7.086172   5.328475
    32  H    7.059870   4.888223   4.862330   5.900451   3.943814
    33  H    2.747243   3.911120   3.466788   2.453407   4.553731
    34  C    5.786593   4.641452   5.742798   6.280576   6.397331
    35  C    5.574385   3.573130   4.194598   4.951846   4.372447
    36  C    6.441560   4.205250   4.499141   5.370200   4.224761
    37  C    7.855002   5.605624   5.275625   6.053782   4.443709
    38  C    6.652076   4.423350   4.296327   5.074137   3.782650
    39  O    4.837940   3.063283   3.591452   4.147224   4.029969
    40  S    6.285317   4.555213   5.511633   6.286361   5.801568
    41  H    6.590908   5.591427   6.758014   7.301607   7.412126
    42  H    4.817723   3.932991   5.144468   5.625008   5.949795
    43  H    8.640316   6.445882   6.078604   6.757936   5.307942
    44  H    8.335979   6.028606   5.849269   6.730158   4.982576
    45  H    7.756109   5.583302   5.011607   5.735779   3.993748
    46  H    6.134515   4.064484   3.761752   4.370387   3.398026
    47  H    7.159211   4.910632   5.303574   6.248808   4.937336
    48  H    6.018619   4.926965   5.863582   6.280969   6.543236
                   21         22         23         24         25
    21  H    0.000000
    22  C    2.233536   0.000000
    23  H    2.556739   1.098293   0.000000
    24  H    2.603351   1.097703   1.747022   0.000000
    25  C    3.472495   1.508426   2.153403   2.159488   0.000000
    26  C    3.838127   2.497142   3.237359   3.210579   1.344151
    27  H    4.919326   3.480650   4.138419   4.122676   2.102156
    28  C    4.788249   2.600458   2.871871   2.911145   1.478010
    29  O    5.835564   3.727169   3.987846   4.098535   2.384946
    30  N    5.050044   2.848073   2.855241   2.769358   2.402346
    31  H    6.038661   3.847028   3.762262   3.724174   3.320210
    32  H    4.498938   2.456995   2.367559   2.138360   2.586103
    33  H    4.651947   5.928371   6.538313   6.543746   6.109841
    34  C    7.349762   6.200437   7.160606   6.269519   5.105693
    35  C    5.227097   3.985182   4.999756   3.758538   3.297470
    36  C    4.950882   3.499518   4.398838   2.929494   3.152547
    37  C    4.675614   3.712186   4.285219   2.640032   4.287336
    38  C    4.258280   3.240532   4.116824   2.403145   3.487585
    39  O    4.820371   4.081097   5.167037   3.981180   3.582746
    40  S    6.755314   5.234337   6.126955   5.126238   4.157472
    41  H    8.387857   7.132723   8.046601   7.206745   5.945355
    42  H    6.929286   5.884353   6.813528   6.136549   4.738975
    43  H    5.437888   4.736117   5.325948   3.667617   5.320508
    44  H    5.312044   3.960804   4.379132   2.941237   4.342410
    45  H    4.013917   3.365909   3.776822   2.284172   4.297211
    46  H    3.772069   3.316470   4.285423   2.634794   3.719642
    47  H    5.685478   3.941927   4.668246   3.365286   3.440356
    48  H    7.404530   6.507770   7.537227   6.480232   5.607259
                   26         27         28         29         30
    26  C    0.000000
    27  H    1.083937   0.000000
    28  C    2.405094   2.573560   0.000000
    29  O    2.782744   2.443507   1.217806   0.000000
    30  N    3.603287   3.914574   1.368985   2.250569   0.000000
    31  H    4.424176   4.560532   2.039514   2.463875   1.005089
    32  H    3.905641   4.443591   2.090212   3.162621   1.003334
    33  H    5.269309   5.843086   7.534089   8.036799   8.461724
    34  C    4.332132   3.786250   5.277872   4.981119   6.239253
    35  C    3.125748   3.242386   3.658561   3.992156   4.278207
    36  C    3.575335   3.918252   3.293820   3.922576   3.434709
    37  C    5.167387   5.843012   4.508839   5.505022   3.949046
    38  C    4.066283   4.687227   3.933335   4.819943   3.841993
    39  O    3.111346   3.374292   4.342547   4.743970   5.079510
    40  S    3.842529   3.435407   4.012278   3.816907   4.740048
    41  H    5.188780   4.496243   5.926582   5.444028   6.873938
    42  H    3.747821   3.131783   5.071781   4.752157   6.194700
    43  H    6.106532   6.756506   5.550674   6.493370   4.986800
    44  H    5.356268   5.916665   4.201381   5.125464   3.400953
    45  H    5.262086   6.079128   4.695391   5.815044   4.088099
    46  H    4.055929   4.777675   4.506350   5.400223   4.613846
    47  H    4.031659   4.210573   3.091870   3.581414   3.001837
    48  H    4.849693   4.494751   5.950793   5.823035   6.830168
                   31         32         33         34         35
    31  H    0.000000
    32  H    1.735176   0.000000
    33  H    9.419926   8.328576   0.000000
    34  C    6.663645   6.735710   7.284873   0.000000
    35  C    4.898280   4.477161   6.675368   2.729756   0.000000
    36  C    4.032930   3.437931   7.407531   4.095572   1.474942
    37  C    4.530980   3.325986   8.255724   6.539480   3.845647
    38  C    4.555843   3.483437   7.172437   5.152397   2.437390
    39  O    5.822245   5.169166   5.632020   2.856565   1.215934
    40  S    5.076677   5.248456   7.827316   1.797202   1.754178
    41  H    7.172880   7.462944   8.217203   1.087461   3.672460
    42  H    6.696546   6.703331   6.506023   1.087204   3.009954
    43  H    5.493185   4.381053   8.820956   6.989761   4.391602
    44  H    3.787371   2.843655   9.015966   6.709711   4.119811
    45  H    4.761166   3.272952   7.984504   7.250516   4.520841
    46  H    5.426838   4.222445   6.321247   5.183383   2.604455
    47  H    3.361786   3.164297   8.350048   4.417155   2.195702
    48  H    7.322821   7.201402   7.119965   1.087958   2.836566
                   36         37         38         39         40
    36  C    0.000000
    37  C    2.496195   0.000000
    38  C    1.328919   1.491432   0.000000
    39  O    2.375612   4.325126   2.833862   0.000000
    40  S    2.691705   5.166877   3.946057   2.630104   0.000000
    41  H    4.928040   7.391595   6.066844   3.927548   2.348295
    42  H    4.422262   6.831751   5.401293   2.891622   2.410878
    43  H    3.139251   1.093702   2.130495   4.803015   5.684421
    44  H    2.649891   1.089959   2.145118   4.842080   5.146430
    45  H    3.274110   1.091410   2.144460   4.826817   5.958362
    46  H    2.071246   2.219286   1.087398   2.497419   4.314854
    47  H    1.084617   2.763814   2.113912   3.301688   2.733979
    48  H    4.219826   6.507370   5.095414   2.674687   2.398354
                   41         42         43         44         45
    41  H    0.000000
    42  H    1.779154   0.000000
    43  H    7.815841   7.391917   0.000000
    44  H    7.462441   7.046087   1.769266   0.000000
    45  H    8.160193   7.411391   1.749835   1.778131   0.000000
    46  H    6.185512   5.328268   2.632625   3.103295   2.530055
    47  H    5.075074   4.831234   3.415780   2.468286   3.621817
    48  H    1.780055   1.779367   6.817333   6.817566   7.228677
                   46         47         48
    46  H    0.000000
    47  H    3.056912   0.000000
    48  H    4.970710   4.709167   0.000000
 Stoichiometry    C16H24N2O5S
 Framework group  C1[X(C16H24N2O5S)]
 Deg. of freedom   138
 Full point group                 C1      NOp   1
 Largest Abelian subgroup         C1      NOp   1
 Largest concise Abelian subgroup C1      NOp   1
                         Standard orientation:                         
 ---------------------------------------------------------------------
 Center     Atomic      Atomic             Coordinates (Angstroms)
 Number     Number       Type             X           Y           Z
 ---------------------------------------------------------------------
      1          6           0        4.690216   -1.953893    0.581273
      2          1           0        4.650131   -2.906207    0.054170
      3          1           0        5.710630   -1.787571    0.928504
      4          6           0        2.547704    0.457941    0.680433
      5          1           0        2.359001   -0.163032    1.563636
      6          8           0        2.077574    1.760887    0.865131
      7          1           0        1.126509    1.718699    1.075128
      8          6           0        4.038518    0.495649    0.368098
      9          1           0        4.651059    0.581553    1.271122
     10          8           0        4.309044    1.548545   -0.527513
     11          1           0        3.778116    2.302883   -0.240557
     12          6           0        1.992295   -0.248937   -0.568877
     13          1           0        1.823530    0.496259   -1.353075
     14          6           0        4.255252   -0.834350   -0.344283
     15          1           0        4.980463   -0.693954   -1.147604
     16          8           0        2.993831   -1.169100   -0.940706
     17          7           0        0.750721   -0.954805   -0.379729
     18          6           0        0.699929   -2.020051    0.517154
     19          1           0        1.639266   -2.256298    0.996083
     20          6           0       -0.402086   -2.729816    0.734780
     21          1           0       -0.352180   -3.556742    1.430060
     22          6           0       -1.703786   -2.446532    0.041073
     23          1           0       -2.071507   -3.356623   -0.451637
     24          1           0       -2.469531   -2.186982    0.783514
     25          6           0       -1.531036   -1.336497   -0.965570
     26          6           0       -0.363201   -0.689490   -1.121404
     27          1           0       -0.283562    0.099616   -1.860247
     28          6           0       -2.654419   -0.900758   -1.821521
     29          8           0       -2.538233   -0.145455   -2.769714
     30          7           0       -3.880608   -1.392861   -1.463167
     31          1           0       -4.668366   -1.141958   -2.034734
     32          1           0       -4.010234   -2.018724   -0.689751
     33          1           0        4.037447   -2.016886    1.455013
     34          6           0       -0.269961    3.572951   -0.353116
     35          6           0       -1.610986    1.472113    0.760300
     36          6           0       -2.838959    0.707133    1.047256
     37          6           0       -4.085930   -0.935246    2.453898
     38          6           0       -2.870445   -0.177260    2.038661
     39          8           0       -0.541810    1.258098    1.298404
     40         16           0       -1.875780    2.766925   -0.393166
     41          1           0       -0.375701    4.495338   -0.919324
     42          1           0        0.492112    2.946072   -0.809492
     43          1           0       -4.439123   -0.575049    3.424308
     44          1           0       -4.894273   -0.818859    1.732062
     45          1           0       -3.867379   -1.997088    2.580011
     46          1           0       -1.951208   -0.345043    2.594797
     47          1           0       -3.712440    0.921567    0.441085
     48          1           0        0.007056    3.800334    0.674120
 ---------------------------------------------------------------------
 Rotational constants (GHZ):           0.3271808           0.1623308           0.1386198
 Leave Link  202 at Sat Aug 13 20:21:43 2022, MaxMem=  2684354560 cpu:               0.4 elap:               0.1
 (Enter /storage/apps/GAUSSIAN/G16_RevA03/g16/l301.exe)
 Standard basis: def2TZVP (5D, 7F)
 Ernie: Thresh=  0.10000D-02 Tol=  0.10000D-05 Strict=F.
 There are  1014 symmetry adapted cartesian basis functions of A   symmetry.
 There are   894 symmetry adapted basis functions of A   symmetry.
   894 basis functions,  1434 primitive gaussians,  1014 cartesian basis functions
    95 alpha electrons       95 beta electrons
       nuclear repulsion energy      2481.1483118709 Hartrees.
 IExCor= 4336 DFT=T Ex+Corr=M062X ExCW=0 ScaHFX=  0.540000
 ScaDFX=  1.000000  1.000000  1.000000  1.000000 ScalE2=  1.000000  1.000000
 IRadAn=      5 IRanWt=     -1 IRanGd=            0 ICorTp=0 IEmpDi=131
 NAtoms=   48 NActive=   48 NUniq=   48 SFac= 1.00D+00 NAtFMM=   60 NAOKFM=F Big=F
 Integral buffers will be    131072 words long.
 Raffenetti 2 integral format.
 Two-electron integral symmetry is turned on.
 R6Disp:  Grimme-D3 Dispersion energy=       -0.0043154045 Hartrees.
 Nuclear repulsion after empirical dispersion term =     2481.1439964664 Hartrees.
 Leave Link  301 at Sat Aug 13 20:21:43 2022, MaxMem=  2684354560 cpu:               1.6 elap:               0.1
 (Enter /storage/apps/GAUSSIAN/G16_RevA03/g16/l302.exe)
 NPDir=0 NMtPBC=     1 NCelOv=     1 NCel=       1 NClECP=     1 NCelD=      1
         NCelK=      1 NCelE2=     1 NClLst=     1 CellRange=     0.0.
 One-electron integrals computed using PRISM.
 One-electron integral symmetry used in STVInt
   1 Symmetry operations used in ECPInt.
 ECPInt:  NShTT=   65703 NPrTT=  200010 LenC2=   56813 LenP2D=  120898.
 LDataN:  DoStor=T MaxTD1= 6 Len=  172
 NBasis=   894 RedAO= T EigKep=  2.89D-05  NBF=   894
 NBsUse=   894 1.00D-06 EigRej= -1.00D+00 NBFU=   894
 Precomputing XC quadrature grid using
 IXCGrd= 4 IRadAn=           5 IRanWt=          -1 IRanGd=           0 AccXCQ= 0.00D+00.
 Generated NRdTot=       0 NPtTot=           0 NUsed=           0 NTot=          32
 NSgBfM=   998   997   998   998   998 MxSgAt=    48 MxSgA2=    48.
 Leave Link  302 at Sat Aug 13 20:21:44 2022, MaxMem=  2684354560 cpu:              19.0 elap:               1.2
 (Enter /storage/apps/GAUSSIAN/G16_RevA03/g16/l303.exe)
 DipDrv:  MaxL=1.
 Leave Link  303 at Sat Aug 13 20:21:44 2022, MaxMem=  2684354560 cpu:               2.1 elap:               0.2
 (Enter /storage/apps/GAUSSIAN/G16_RevA03/g16/l401.exe)
 ExpMin= 9.52D-02 ExpMax= 6.07D+04 ExpMxC= 2.07D+03 IAcc=3 IRadAn=         5 AccDes= 0.00D+00
 Harris functional with IExCor= 1009 and IRadAn=       5 diagonalized for initial guess.
 HarFok:  IExCor= 1009 AccDes= 0.00D+00 IRadAn=         5 IDoV= 1 UseB2=F ITyADJ=14
 ICtDFT=  3500011 ScaDFX=  1.000000  1.000000  1.000000  1.000000
 FoFCou: FMM=F IPFlag=           0 FMFlag=      100000 FMFlg1=           0
         NFxFlg=           0 DoJE=T BraDBF=F KetDBF=T FulRan=T
         wScrn=  0.000000 ICntrl=       500 IOpCl=  0 I1Cent=   200000004 NGrid=           0
         NMat0=    1 NMatS0=      1 NMatT0=    0 NMatD0=    1 NMtDS0=    0 NMtDT0=    0
 Petite list used in FoFCou.
 Harris En= -1507.25478472744    
 JPrj=0 DoOrth=F DoCkMO=F.
 Leave Link  401 at Sat Aug 13 20:21:48 2022, MaxMem=  2684354560 cpu:              60.3 elap:               3.9
 (Enter /storage/apps/GAUSSIAN/G16_RevA03/g16/l502.exe)
 Integral symmetry usage will be decided dynamically.
 Closed shell SCF:
 Using DIIS extrapolation, IDIIS=  1040.
 NGot=  2684354560 LenX=  2682272944 LenY=  2681243734
 Requested convergence on RMS density matrix=1.00D-08 within 128 cycles.
 Requested convergence on MAX density matrix=1.00D-06.
 Requested convergence on             energy=1.00D-06.
 No special actions if energy rises.
 Fock matrices will be formed incrementally for  20 cycles.
 Integral accuracy reduced to 1.0D-05 until final iterations.

 Cycle   1  Pass 0  IDiag  1:
 FoFJK:  IHMeth= 1 ICntrl=       0 DoSepK=F KAlg= 0 I1Cent=           0 FoldK=F
 IRaf= 790000000 NMat=       1 IRICut=       1 DoRegI=T DoRafI=F ISym2E= 0 IDoP0=0 IntGTp=1.
 FoFCou: FMM=F IPFlag=           0 FMFlag=      100000 FMFlg1=           0
         NFxFlg=           0 DoJE=F BraDBF=F KetDBF=F FulRan=T
         wScrn=  0.000000 ICntrl=         0 IOpCl=  0 I1Cent=           0 NGrid=           0
         NMat0=    1 NMatS0=      1 NMatT0=    0 NMatD0=    1 NMtDS0=    0 NMtDT0=    0
 Symmetry not used in FoFCou.
 E= -1507.18626628570    
 DIIS: error= 1.38D-02 at cycle   1 NSaved=   1.
 NSaved= 1 IEnMin= 1 EnMin= -1507.18626628570     IErMin= 1 ErrMin= 1.38D-02
 ErrMax= 1.38D-02  0.00D+00 EMaxC= 1.00D-01 BMatC= 1.00D+00 BMatP= 1.00D+00
 IDIUse=3 WtCom= 8.62D-01 WtEn= 1.38D-01
 Coeff-Com:  0.100D+01
 Coeff-En:   0.100D+01
 Coeff:      0.100D+01
 Gap=     0.300 Goal=   None    Shift=    0.000
 GapD=    0.300 DampG=1.000 DampE=0.500 DampFc=0.5000 IDamp=-1.
 Damping current iteration by 5.00D-01
 RMSDP=4.48D-03 MaxDP=1.77D+00              OVMax= 2.29D-01

 Cycle   2  Pass 0  IDiag  1:
 RMSU=  2.24D-03    CP:  1.02D+00
 E= -1507.53122249021     Delta-E=       -0.344956204516 Rises=F Damp=T
 DIIS: error= 3.39D-03 at cycle   2 NSaved=   2.
 NSaved= 2 IEnMin= 2 EnMin= -1507.53122249021     IErMin= 2 ErrMin= 3.39D-03
 ErrMax= 3.39D-03  0.00D+00 EMaxC= 1.00D-01 BMatC= 8.64D-02 BMatP= 1.00D+00
 IDIUse=3 WtCom= 9.66D-01 WtEn= 3.39D-02
 Coeff-Com: -0.169D-01 0.102D+01
 Coeff-En:   0.152D-01 0.985D+00
 Coeff:     -0.158D-01 0.102D+01
 Gap=     0.318 Goal=   None    Shift=    0.000
 RMSDP=1.36D-03 MaxDP=5.19D-01 DE=-3.45D-01 OVMax= 1.70D-01

 Cycle   3  Pass 0  IDiag  1:
 RMSU=  1.07D-03    CP:  1.00D+00  6.27D-01
 E= -1507.89022098129     Delta-E=       -0.358998491081 Rises=F Damp=F
 DIIS: error= 3.92D-03 at cycle   3 NSaved=   3.
 NSaved= 3 IEnMin= 3 EnMin= -1507.89022098129     IErMin= 2 ErrMin= 3.39D-03
 ErrMax= 3.92D-03  0.00D+00 EMaxC= 1.00D-01 BMatC= 5.14D-02 BMatP= 8.64D-02
 IDIUse=3 WtCom= 9.61D-01 WtEn= 3.92D-02
 Coeff-Com: -0.837D-01 0.458D+00 0.626D+00
 Coeff-En:   0.000D+00 0.000D+00 0.100D+01
 Coeff:     -0.804D-01 0.440D+00 0.641D+00
 Gap=     0.209 Goal=   None    Shift=    0.000
 RMSDP=3.73D-04 MaxDP=7.52D-02 DE=-3.59D-01 OVMax= 6.78D-02

 Cycle   4  Pass 0  IDiag  1:
 RMSU=  3.09D-04    CP:  1.00D+00  7.11D-01  9.16D-01
 E= -1507.92326750901     Delta-E=       -0.033046527712 Rises=F Damp=F
 DIIS: error= 2.01D-03 at cycle   4 NSaved=   4.
 NSaved= 4 IEnMin= 4 EnMin= -1507.92326750901     IErMin= 4 ErrMin= 2.01D-03
 ErrMax= 2.01D-03  0.00D+00 EMaxC= 1.00D-01 BMatC= 1.02D-02 BMatP= 5.14D-02
 IDIUse=3 WtCom= 9.80D-01 WtEn= 2.01D-02
 Coeff-Com: -0.372D-01 0.996D-01 0.346D+00 0.592D+00
 Coeff-En:   0.000D+00 0.000D+00 0.134D+00 0.866D+00
 Coeff:     -0.364D-01 0.976D-01 0.342D+00 0.597D+00
 Gap=     0.208 Goal=   None    Shift=    0.000
 RMSDP=1.27D-04 MaxDP=1.87D-02 DE=-3.30D-02 OVMax= 1.72D-02

 Cycle   5  Pass 0  IDiag  1:
 RMSU=  7.96D-05    CP:  1.00D+00  6.94D-01  9.44D-01  7.19D-01
 E= -1507.93076490129     Delta-E=       -0.007497392284 Rises=F Damp=F
 DIIS: error= 2.90D-04 at cycle   5 NSaved=   5.
 NSaved= 5 IEnMin= 5 EnMin= -1507.93076490129     IErMin= 5 ErrMin= 2.90D-04
 ErrMax= 2.90D-04  0.00D+00 EMaxC= 1.00D-01 BMatC= 4.09D-04 BMatP= 1.02D-02
 IDIUse=3 WtCom= 9.97D-01 WtEn= 2.90D-03
 Coeff-Com: -0.107D-01 0.186D-01 0.120D+00 0.266D+00 0.606D+00
 Coeff-En:   0.000D+00 0.000D+00 0.000D+00 0.000D+00 0.100D+01
 Coeff:     -0.107D-01 0.185D-01 0.120D+00 0.266D+00 0.607D+00
 Gap=     0.208 Goal=   None    Shift=    0.000
 RMSDP=4.83D-05 MaxDP=1.63D-02 DE=-7.50D-03 OVMax= 4.03D-03

 Cycle   6  Pass 0  IDiag  1:
 RMSU=  3.18D-05    CP:  1.00D+00  6.80D-01  9.56D-01  7.34D-01  8.90D-01
 E= -1507.93109106482     Delta-E=       -0.000326163530 Rises=F Damp=F
 DIIS: error= 1.68D-04 at cycle   6 NSaved=   6.
 NSaved= 6 IEnMin= 6 EnMin= -1507.93109106482     IErMin= 6 ErrMin= 1.68D-04
 ErrMax= 1.68D-04  0.00D+00 EMaxC= 1.00D-01 BMatC= 5.31D-05 BMatP= 4.09D-04
 IDIUse=3 WtCom= 9.98D-01 WtEn= 1.68D-03
 Coeff-Com:  0.135D-03-0.413D-02 0.128D-01 0.438D-01 0.274D+00 0.673D+00
 Coeff-En:   0.000D+00 0.000D+00 0.000D+00 0.000D+00 0.000D+00 0.100D+01
 Coeff:      0.135D-03-0.413D-02 0.128D-01 0.438D-01 0.274D+00 0.674D+00
 Gap=     0.209 Goal=   None    Shift=    0.000
 RMSDP=2.01D-05 MaxDP=3.96D-03 DE=-3.26D-04 OVMax= 3.31D-03

 Cycle   7  Pass 0  IDiag  1:
 RMSU=  1.65D-05    CP:  1.00D+00  6.76D-01  9.61D-01  7.38D-01  9.70D-01
                    CP:  1.01D+00
 E= -1507.93115402959     Delta-E=       -0.000062964768 Rises=F Damp=F
 DIIS: error= 7.43D-05 at cycle   7 NSaved=   7.
 NSaved= 7 IEnMin= 7 EnMin= -1507.93115402959     IErMin= 7 ErrMin= 7.43D-05
 ErrMax= 7.43D-05  0.00D+00 EMaxC= 1.00D-01 BMatC= 8.97D-06 BMatP= 5.31D-05
 IDIUse=1 WtCom= 1.00D+00 WtEn= 0.00D+00
 Coeff-Com:  0.183D-02-0.496D-02-0.119D-01-0.244D-01 0.136D-01 0.289D+00
 Coeff-Com:  0.737D+00
 Coeff:      0.183D-02-0.496D-02-0.119D-01-0.244D-01 0.136D-01 0.289D+00
 Coeff:      0.737D+00
 Gap=     0.209 Goal=   None    Shift=    0.000
 RMSDP=1.81D-05 MaxDP=6.20D-03 DE=-6.30D-05 OVMax= 1.97D-03

 Cycle   8  Pass 0  IDiag  1:
 RMSU=  1.06D-05    CP:  1.00D+00  6.71D-01  9.62D-01  7.42D-01  1.03D+00
                    CP:  1.22D+00  1.26D+00
 E= -1507.93116117991     Delta-E=       -0.000007150323 Rises=F Damp=F
 DIIS: error= 2.96D-05 at cycle   8 NSaved=   8.
 NSaved= 8 IEnMin= 8 EnMin= -1507.93116117991     IErMin= 8 ErrMin= 2.96D-05
 ErrMax= 2.96D-05  0.00D+00 EMaxC= 1.00D-01 BMatC= 2.03D-06 BMatP= 8.97D-06
 IDIUse=1 WtCom= 1.00D+00 WtEn= 0.00D+00
 Coeff-Com:  0.955D-03-0.176D-02-0.793D-02-0.222D-01-0.463D-01 0.104D-01
 Coeff-Com:  0.358D+00 0.709D+00
 Coeff:      0.955D-03-0.176D-02-0.793D-02-0.222D-01-0.463D-01 0.104D-01
 Coeff:      0.358D+00 0.709D+00
 Gap=     0.209 Goal=   None    Shift=    0.000
 RMSDP=1.76D-05 MaxDP=3.55D-03 DE=-7.15D-06 OVMax= 7.10D-04

 Cycle   9  Pass 0  IDiag  1:
 RMSU=  9.00D-06    CP:  1.00D+00  6.69D-01  9.63D-01  7.43D-01  1.07D+00
                    CP:  1.37D+00  1.70D+00  1.96D+00
 E= -1507.93115147763     Delta-E=        0.000009702285 Rises=F Damp=F
 DIIS: error= 2.72D-05 at cycle   9 NSaved=   9.
 NSaved= 9 IEnMin= 8 EnMin= -1507.93116117991     IErMin= 9 ErrMin= 2.72D-05
 ErrMax= 2.72D-05  0.00D+00 EMaxC= 1.00D-01 BMatC= 4.93D-07 BMatP= 2.03D-06
 IDIUse=1 WtCom= 1.00D+00 WtEn= 0.00D+00
 Coeff-Com:  0.354D-03-0.562D-03-0.285D-02-0.969D-02-0.235D-01-0.163D-01
 Coeff-Com:  0.128D+00 0.364D+00 0.560D+00
 Coeff:      0.354D-03-0.562D-03-0.285D-02-0.969D-02-0.235D-01-0.163D-01
 Coeff:      0.128D+00 0.364D+00 0.560D+00
 Gap=     0.209 Goal=   None    Shift=    0.000
 RMSDP=1.83D-05 MaxDP=2.24D-03 DE= 9.70D-06 OVMax= 1.82D-04

 Cycle  10  Pass 0  IDiag  1:
 RMSU=  5.09D-06    CP:  1.00D+00  6.67D-01  9.64D-01  7.45D-01  1.10D+00
                    CP:  1.50D+00  2.11D+00  2.98D+00  2.18D+00
 E= -1507.93114135300     Delta-E=        0.000010124630 Rises=F Damp=F
 DIIS: error= 3.94D-05 at cycle  10 NSaved=  10.
 NSaved=10 IEnMin= 8 EnMin= -1507.93116117991     IErMin= 9 ErrMin= 2.72D-05
 ErrMax= 3.94D-05  0.00D+00 EMaxC= 1.00D-01 BMatC= 8.36D-07 BMatP= 4.93D-07
 IDIUse=1 WtCom= 1.00D+00 WtEn= 0.00D+00
 Coeff-Com:  0.348D-03-0.453D-03-0.290D-02-0.109D-01-0.295D-01-0.339D-01
 Coeff-Com:  0.124D+00 0.457D+00 0.105D+01-0.552D+00
 Coeff:      0.348D-03-0.453D-03-0.290D-02-0.109D-01-0.295D-01-0.339D-01
 Coeff:      0.124D+00 0.457D+00 0.105D+01-0.552D+00
 Gap=     0.209 Goal=   None    Shift=    0.000
 RMSDP=2.09D-05 MaxDP=1.92D-03 DE= 1.01D-05 OVMax= 4.79D-05

 Problem detected with inexpensive integrals.
 Switching to full accuracy and repeating last cycle.
 Cycle  11  Pass 1  IDiag  1:
 E= -1507.93111689909     Delta-E=        0.000024453904 Rises=F Damp=F
 DIIS: error= 2.94D-04 at cycle   1 NSaved=   1.
 NSaved= 1 IEnMin= 1 EnMin= -1507.93111689909     IErMin= 1 ErrMin= 2.94D-04
 ErrMax= 2.94D-04  0.00D+00 EMaxC= 1.00D-01 BMatC= 8.75D-05 BMatP= 8.75D-05
 IDIUse=3 WtCom= 9.97D-01 WtEn= 2.94D-03
 Coeff-Com:  0.100D+01
 Coeff-En:   0.100D+01
 Coeff:      0.100D+01
 Gap=     0.209 Goal=   None    Shift=    0.000
 RMSDP=4.16D-04 MaxDP=3.19D-02 DE= 2.45D-05 OVMax= 8.85D-04

 Cycle  12  Pass 1  IDiag  1:
 RMSU=  4.15D-04    CP:  9.95D-01
 E= -1507.93117148265     Delta-E=       -0.000054583561 Rises=F Damp=F
 DIIS: error= 7.68D-06 at cycle   2 NSaved=   2.
 NSaved= 2 IEnMin= 2 EnMin= -1507.93117148265     IErMin= 2 ErrMin= 7.68D-06
 ErrMax= 7.68D-06  0.00D+00 EMaxC= 1.00D-01 BMatC= 9.20D-08 BMatP= 8.75D-05
 IDIUse=1 WtCom= 1.00D+00 WtEn= 0.00D+00
 Coeff-Com: -0.160D-01 0.102D+01
 Coeff:     -0.160D-01 0.102D+01
 Gap=     0.209 Goal=   None    Shift=    0.000
 RMSDP=1.53D-05 MaxDP=1.23D-03 DE=-5.46D-05 OVMax= 1.14D-04

 Cycle  13  Pass 1  IDiag  1:
 RMSU=  5.11D-06    CP:  9.95D-01  1.03D+00
 E= -1507.93117153688     Delta-E=       -0.000000054225 Rises=F Damp=F
 DIIS: error= 5.18D-06 at cycle   3 NSaved=   3.
 NSaved= 3 IEnMin= 3 EnMin= -1507.93117153688     IErMin= 3 ErrMin= 5.18D-06
 ErrMax= 5.18D-06  0.00D+00 EMaxC= 1.00D-01 BMatC= 8.63D-08 BMatP= 9.20D-08
 IDIUse=1 WtCom= 1.00D+00 WtEn= 0.00D+00
 Coeff-Com: -0.914D-02 0.539D+00 0.470D+00
 Coeff:     -0.914D-02 0.539D+00 0.470D+00
 Gap=     0.209 Goal=   None    Shift=    0.000
 RMSDP=6.46D-07 MaxDP=1.98D-04 DE=-5.42D-08 OVMax= 4.98D-05

 Cycle  14  Pass 1  IDiag  1:
 RMSU=  5.95D-07    CP:  9.95D-01  1.04D+00  1.00D+00
 E= -1507.93117159950     Delta-E=       -0.000000062624 Rises=F Damp=F
 DIIS: error= 1.08D-06 at cycle   4 NSaved=   4.
 NSaved= 4 IEnMin= 4 EnMin= -1507.93117159950     IErMin= 4 ErrMin= 1.08D-06
 ErrMax= 1.08D-06  0.00D+00 EMaxC= 1.00D-01 BMatC= 3.84D-09 BMatP= 8.63D-08
 IDIUse=1 WtCom= 1.00D+00 WtEn= 0.00D+00
 Coeff-Com: -0.506D-03 0.187D-01 0.160D+00 0.821D+00
 Coeff:     -0.506D-03 0.187D-01 0.160D+00 0.821D+00
 Gap=     0.209 Goal=   None    Shift=    0.000
 RMSDP=3.34D-07 MaxDP=2.40D-05 DE=-6.26D-08 OVMax= 2.59D-05

 Cycle  15  Pass 1  IDiag  1:
 RMSU=  1.55D-07    CP:  9.95D-01  1.04D+00  1.04D+00  9.99D-01
 E= -1507.93117160253     Delta-E=       -0.000000003024 Rises=F Damp=F
 DIIS: error= 8.83D-07 at cycle   5 NSaved=   5.
 NSaved= 5 IEnMin= 5 EnMin= -1507.93117160253     IErMin= 5 ErrMin= 8.83D-07
 ErrMax= 8.83D-07  0.00D+00 EMaxC= 1.00D-01 BMatC= 1.12D-09 BMatP= 3.84D-09
 IDIUse=1 WtCom= 1.00D+00 WtEn= 0.00D+00
 Coeff-Com:  0.583D-03-0.407D-01 0.403D-01 0.455D+00 0.544D+00
 Coeff:      0.583D-03-0.407D-01 0.403D-01 0.455D+00 0.544D+00
 Gap=     0.209 Goal=   None    Shift=    0.000
 RMSDP=8.35D-08 MaxDP=1.73D-05 DE=-3.02D-09 OVMax= 9.19D-06

 Cycle  16  Pass 1  IDiag  1:
 RMSU=  5.65D-08    CP:  9.95D-01  1.04D+00  1.05D+00  1.07D+00  1.03D+00
 E= -1507.93117160356     Delta-E=       -0.000000001034 Rises=F Damp=F
 DIIS: error= 1.37D-07 at cycle   6 NSaved=   6.
 NSaved= 6 IEnMin= 6 EnMin= -1507.93117160356     IErMin= 6 ErrMin= 1.37D-07
 ErrMax= 1.37D-07  0.00D+00 EMaxC= 1.00D-01 BMatC= 4.94D-11 BMatP= 1.12D-09
 IDIUse=1 WtCom= 1.00D+00 WtEn= 0.00D+00
 Coeff-Com:  0.245D-03-0.152D-01-0.693D-02 0.613D-01 0.156D+00 0.805D+00
 Coeff:      0.245D-03-0.152D-01-0.693D-02 0.613D-01 0.156D+00 0.805D+00
 Gap=     0.209 Goal=   None    Shift=    0.000
 RMSDP=3.10D-08 MaxDP=1.02D-05 DE=-1.03D-09 OVMax= 4.65D-06

 Cycle  17  Pass 1  IDiag  1:
 RMSU=  1.76D-08    CP:  9.95D-01  1.04D+00  1.05D+00  1.10D+00  1.11D+00
                    CP:  1.18D+00
 E= -1507.93117160364     Delta-E=       -0.000000000076 Rises=F Damp=F
 DIIS: error= 8.33D-08 at cycle   7 NSaved=   7.
 NSaved= 7 IEnMin= 7 EnMin= -1507.93117160364     IErMin= 7 ErrMin= 8.33D-08
 ErrMax= 8.33D-08  0.00D+00 EMaxC= 1.00D-01 BMatC= 1.85D-11 BMatP= 4.94D-11
 IDIUse=1 WtCom= 1.00D+00 WtEn= 0.00D+00
 Coeff-Com: -0.130D-04 0.184D-02-0.133D-01-0.698D-01-0.537D-01 0.407D+00
 Coeff-Com:  0.728D+00
 Coeff:     -0.130D-04 0.184D-02-0.133D-01-0.698D-01-0.537D-01 0.407D+00
 Coeff:      0.728D+00
 Gap=     0.209 Goal=   None    Shift=    0.000
 RMSDP=1.25D-08 MaxDP=1.97D-06 DE=-7.64D-11 OVMax= 2.75D-06

 Cycle  18  Pass 1  IDiag  1:
 RMSU=  8.06D-09    CP:  9.95D-01  1.04D+00  1.05D+00  1.11D+00  1.13D+00
                    CP:  1.28D+00  1.02D+00
 E= -1507.93117160366     Delta-E=       -0.000000000020 Rises=F Damp=F
 DIIS: error= 3.21D-08 at cycle   8 NSaved=   8.
 NSaved= 8 IEnMin= 8 EnMin= -1507.93117160366     IErMin= 8 ErrMin= 3.21D-08
 ErrMax= 3.21D-08  0.00D+00 EMaxC= 1.00D-01 BMatC= 2.23D-12 BMatP= 1.85D-11
 IDIUse=1 WtCom= 1.00D+00 WtEn= 0.00D+00
 Coeff-Com: -0.378D-04 0.283D-02-0.556D-02-0.400D-01-0.471D-01 0.812D-01
 Coeff-Com:  0.334D+00 0.674D+00
 Coeff:     -0.378D-04 0.283D-02-0.556D-02-0.400D-01-0.471D-01 0.812D-01
 Coeff:      0.334D+00 0.674D+00
 Gap=     0.209 Goal=   None    Shift=    0.000
 RMSDP=6.02D-09 MaxDP=2.31D-06 DE=-2.05D-11 OVMax= 6.79D-07

 Cycle  19  Pass 1  IDiag  1:
 RMSU=  3.05D-09    CP:  9.95D-01  1.04D+00  1.05D+00  1.11D+00  1.14D+00
                    CP:  1.31D+00  1.17D+00  1.07D+00
 E= -1507.93117160367     Delta-E=       -0.000000000012 Rises=F Damp=F
 DIIS: error= 9.38D-09 at cycle   9 NSaved=   9.
 NSaved= 9 IEnMin= 9 EnMin= -1507.93117160367     IErMin= 9 ErrMin= 9.38D-09
 ErrMax= 9.38D-09  0.00D+00 EMaxC= 1.00D-01 BMatC= 2.27D-13 BMatP= 2.23D-12
 IDIUse=1 WtCom= 1.00D+00 WtEn= 0.00D+00
 Coeff-Com: -0.125D-04 0.807D-03-0.242D-03-0.432D-02-0.103D-01-0.279D-01
 Coeff-Com:  0.284D-01 0.260D+00 0.753D+00
 Coeff:     -0.125D-04 0.807D-03-0.242D-03-0.432D-02-0.103D-01-0.279D-01
 Coeff:      0.284D-01 0.260D+00 0.753D+00
 Gap=     0.209 Goal=   None    Shift=    0.000
 RMSDP=1.42D-09 MaxDP=1.24D-07 DE=-1.23D-11 OVMax= 2.57D-07

 SCF Done:  E(RM062X) =  -1507.93117160     A.U. after   19 cycles
            NFock= 19  Conv=0.14D-08     -V/T= 2.0037
 KE= 1.502369439448D+03 PE=-8.500751936282D+03 EE= 3.009307328764D+03
 Leave Link  502 at Sat Aug 13 20:30:38 2022, MaxMem=  2684354560 cpu:            8464.8 elap:             529.9
 (Enter /storage/apps/GAUSSIAN/G16_RevA03/g16/l601.exe)
 Copying SCF densities to generalized density rwf, IOpCl= 0 IROHF=0.

 **********************************************************************

            Population analysis using the SCF density.

 **********************************************************************

 Orbital symmetries:
       Occupied  (A) (A) (A) (A) (A) (A) (A) (A) (A) (A) (A) (A)
                 (A) (A) (A) (A) (A) (A) (A) (A) (A) (A) (A) (A)
                 (A) (A) (A) (A) (A) (A) (A) (A) (A) (A) (A) (A)
                 (A) (A) (A) (A) (A) (A) (A) (A) (A) (A) (A) (A)
                 (A) (A) (A) (A) (A) (A) (A) (A) (A) (A) (A) (A)
                 (A) (A) (A) (A) (A) (A) (A) (A) (A) (A) (A) (A)
                 (A) (A) (A) (A) (A) (A) (A) (A) (A) (A) (A) (A)
                 (A) (A) (A) (A) (A) (A) (A) (A) (A) (A) (A)
       Virtual   (A) (A) (A) (A) (A) (A) (A) (A) (A) (A) (A) (A)
                 (A) (A) (A) (A) (A) (A) (A) (A) (A) (A) (A) (A)
                 (A) (A) (A) (A) (A) (A) (A) (A) (A) (A) (A) (A)
                 (A) (A) (A) (A) (A) (A) (A) (A) (A) (A) (A) (A)
                 (A) (A) (A) (A) (A) (A) (A) (A) (A) (A) (A) (A)
                 (A) (A) (A) (A) (A) (A) (A) (A) (A) (A) (A) (A)
                 (A) (A) (A) (A) (A) (A) (A) (A) (A) (A) (A) (A)
                 (A) (A) (A) (A) (A) (A) (A) (A) (A) (A) (A) (A)
                 (A) (A) (A) (A) (A) (A) (A) (A) (A) (A) (A) (A)
                 (A) (A) (A) (A) (A) (A) (A) (A) (A) (A) (A) (A)
                 (A) (A) (A) (A) (A) (A) (A) (A) (A) (A) (A) (A)
                 (A) (A) (A) (A) (A) (A) (A) (A) (A) (A) (A) (A)
                 (A) (A) (A) (A) (A) (A) (A) (A) (A) (A) (A) (A)
                 (A) (A) (A) (A) (A) (A) (A) (A) (A) (A) (A) (A)
                 (A) (A) (A) (A) (A) (A) (A) (A) (A) (A) (A) (A)
                 (A) (A) (A) (A) (A) (A) (A) (A) (A) (A) (A) (A)
                 (A) (A) (A) (A) (A) (A) (A) (A) (A) (A) (A) (A)
                 (A) (A) (A) (A) (A) (A) (A) (A) (A) (A) (A) (A)
                 (A) (A) (A) (A) (A) (A) (A) (A) (A) (A) (A) (A)
                 (A) (A) (A) (A) (A) (A) (A) (A) (A) (A) (A) (A)
                 (A) (A) (A) (A) (A) (A) (A) (A) (A) (A) (A) (A)
                 (A) (A) (A) (A) (A) (A) (A) (A) (A) (A) (A) (A)
                 (A) (A) (A) (A) (A) (A) (A) (A) (A) (A) (A) (A)
                 (A) (A) (A) (A) (A) (A) (A) (A) (A) (A) (A) (A)
                 (A) (A) (A) (A) (A) (A) (A) (A) (A) (A) (A) (A)
                 (A) (A) (A) (A) (A) (A) (A) (A) (A) (A) (A) (A)
                 (A) (A) (A) (A) (A) (A) (A) (A) (A) (A) (A) (A)
                 (A) (A) (A) (A) (A) (A) (A) (A) (A) (A) (A) (A)
                 (A) (A) (A) (A) (A) (A) (A) (A) (A) (A) (A) (A)
                 (A) (A) (A) (A) (A) (A) (A) (A) (A) (A) (A) (A)
                 (A) (A) (A) (A) (A) (A) (A) (A) (A) (A) (A) (A)
                 (A) (A) (A) (A) (A) (A) (A) (A) (A) (A) (A) (A)
                 (A) (A) (A) (A) (A) (A) (A) (A) (A) (A) (A) (A)
                 (A) (A) (A) (A) (A) (A) (A) (A) (A) (A) (A) (A)
                 (A) (A) (A) (A) (A) (A) (A) (A) (A) (A) (A) (A)
                 (A) (A) (A) (A) (A) (A) (A) (A) (A) (A) (A) (A)
                 (A) (A) (A) (A) (A) (A) (A) (A) (A) (A) (A) (A)
                 (A) (A) (A) (A) (A) (A) (A) (A) (A) (A) (A) (A)
                 (A) (A) (A) (A) (A) (A) (A) (A) (A) (A) (A) (A)
                 (A) (A) (A) (A) (A) (A) (A) (A) (A) (A) (A) (A)
                 (A) (A) (A) (A) (A) (A) (A) (A) (A) (A) (A) (A)
                 (A) (A) (A) (A) (A) (A) (A) (A) (A) (A) (A) (A)
                 (A) (A) (A) (A) (A) (A) (A) (A) (A) (A) (A) (A)
                 (A) (A) (A) (A) (A) (A) (A) (A) (A) (A) (A) (A)
                 (A) (A) (A) (A) (A) (A) (A) (A) (A) (A) (A) (A)
                 (A) (A) (A) (A) (A) (A) (A) (A) (A) (A) (A) (A)
                 (A) (A) (A) (A) (A) (A) (A) (A) (A) (A) (A) (A)
                 (A) (A) (A) (A) (A) (A) (A) (A) (A) (A) (A) (A)
                 (A) (A) (A) (A) (A) (A) (A) (A) (A) (A) (A) (A)
                 (A) (A) (A) (A) (A) (A) (A) (A) (A) (A) (A) (A)
                 (A) (A) (A) (A) (A) (A) (A) (A) (A) (A) (A) (A)
                 (A) (A) (A) (A) (A) (A) (A) (A) (A) (A) (A) (A)
                 (A) (A) (A) (A) (A) (A) (A) (A) (A) (A) (A) (A)
                 (A) (A) (A) (A) (A) (A) (A) (A) (A) (A) (A) (A)
                 (A) (A) (A) (A) (A) (A) (A) (A) (A) (A) (A) (A)
                 (A) (A) (A) (A) (A) (A) (A) (A) (A) (A) (A) (A)
                 (A) (A) (A) (A) (A) (A) (A) (A) (A) (A) (A) (A)
                 (A) (A) (A) (A) (A) (A) (A) (A) (A) (A) (A) (A)
                 (A) (A) (A) (A) (A) (A) (A) (A) (A) (A) (A) (A)
                 (A) (A) (A) (A) (A) (A) (A) (A) (A) (A) (A) (A)
                 (A) (A) (A) (A) (A) (A) (A) (A) (A) (A) (A) (A)
                 (A) (A) (A) (A) (A) (A) (A) (A) (A) (A) (A) (A)
                 (A) (A) (A) (A) (A) (A) (A) (A) (A) (A) (A) (A)
                 (A) (A) (A) (A) (A) (A) (A) (A) (A) (A) (A) (A)
                 (A) (A) (A) (A) (A) (A) (A) (A) (A) (A) (A) (A)
                 (A) (A) (A) (A) (A) (A) (A) (A) (A) (A) (A) (A)
                 (A) (A) (A) (A) (A) (A) (A)
 The electronic state is 1-A.
 Alpha  occ. eigenvalues --  -89.92241 -19.63740 -19.63220 -19.62618 -19.62158
 Alpha  occ. eigenvalues --  -19.57567 -14.78857 -14.76129 -10.66381 -10.63406
 Alpha  occ. eigenvalues --  -10.62871 -10.59428 -10.59022 -10.58947 -10.58252
 Alpha  occ. eigenvalues --  -10.57508 -10.57144 -10.57122 -10.55621 -10.55492
 Alpha  occ. eigenvalues --  -10.55156 -10.53756 -10.53383 -10.53211  -8.28173
 Alpha  occ. eigenvalues --   -6.20111  -6.19876  -6.19682  -1.19377  -1.18933
 Alpha  occ. eigenvalues --   -1.15880  -1.14883  -1.13673  -1.08239  -1.00705
 Alpha  occ. eigenvalues --   -0.93036  -0.91778  -0.90442  -0.88457  -0.87434
 Alpha  occ. eigenvalues --   -0.85492  -0.83198  -0.78833  -0.76887  -0.75483
 Alpha  occ. eigenvalues --   -0.73421  -0.70713  -0.67697  -0.67605  -0.66542
 Alpha  occ. eigenvalues --   -0.63709  -0.63256  -0.61882  -0.60530  -0.58767
 Alpha  occ. eigenvalues --   -0.58119  -0.57355  -0.56521  -0.56144  -0.55081
 Alpha  occ. eigenvalues --   -0.54293  -0.52979  -0.52437  -0.51933  -0.51283
 Alpha  occ. eigenvalues --   -0.50665  -0.50332  -0.50080  -0.49210  -0.49057
 Alpha  occ. eigenvalues --   -0.48653  -0.48495  -0.47739  -0.47134  -0.46844
 Alpha  occ. eigenvalues --   -0.45999  -0.44668  -0.44175  -0.44036  -0.43747
 Alpha  occ. eigenvalues --   -0.43388  -0.43153  -0.41594  -0.41324  -0.37775
 Alpha  occ. eigenvalues --   -0.36105  -0.35554  -0.34664  -0.34604  -0.33580
 Alpha  occ. eigenvalues --   -0.33363  -0.32854  -0.32355  -0.31225  -0.24311
 Alpha virt. eigenvalues --   -0.03410   0.00491   0.04194   0.04442   0.06102
 Alpha virt. eigenvalues --    0.07073   0.07398   0.07762   0.08621   0.09109
 Alpha virt. eigenvalues --    0.09364   0.09640   0.10434   0.10535   0.10914
 Alpha virt. eigenvalues --    0.11821   0.12093   0.12365   0.12659   0.12886
 Alpha virt. eigenvalues --    0.13546   0.13847   0.13927   0.14002   0.14579
 Alpha virt. eigenvalues --    0.15382   0.15647   0.16290   0.17109   0.17462
 Alpha virt. eigenvalues --    0.18049   0.18655   0.18679   0.19013   0.19470
 Alpha virt. eigenvalues --    0.20411   0.20708   0.21341   0.22080   0.22853
 Alpha virt. eigenvalues --    0.22993   0.23331   0.23552   0.24269   0.24771
 Alpha virt. eigenvalues --    0.24833   0.25556   0.25647   0.26241   0.27118
 Alpha virt. eigenvalues --    0.27461   0.27806   0.28184   0.28490   0.29075
 Alpha virt. eigenvalues --    0.29641   0.30047   0.30268   0.30394   0.31048
 Alpha virt. eigenvalues --    0.31346   0.31836   0.33222   0.33498   0.33918
 Alpha virt. eigenvalues --    0.34304   0.35212   0.35569   0.35729   0.36297
 Alpha virt. eigenvalues --    0.36833   0.37113   0.37348   0.37905   0.38254
 Alpha virt. eigenvalues --    0.38554   0.39136   0.39950   0.40130   0.40291
 Alpha virt. eigenvalues --    0.40824   0.41228   0.41630   0.42120   0.42378
 Alpha virt. eigenvalues --    0.42599   0.43006   0.43689   0.43807   0.43929
 Alpha virt. eigenvalues --    0.44582   0.45072   0.45373   0.45615   0.46020
 Alpha virt. eigenvalues --    0.46307   0.46651   0.47098   0.47541   0.47602
 Alpha virt. eigenvalues --    0.47796   0.48045   0.48827   0.49040   0.49477
 Alpha virt. eigenvalues --    0.50036   0.50528   0.50702   0.51153   0.51360
 Alpha virt. eigenvalues --    0.51863   0.52078   0.52350   0.52542   0.52928
 Alpha virt. eigenvalues --    0.53277   0.53350   0.54188   0.54414   0.54953
 Alpha virt. eigenvalues --    0.55438   0.56054   0.56134   0.56865   0.57599
 Alpha virt. eigenvalues --    0.58323   0.58565   0.58773   0.59357   0.60156
 Alpha virt. eigenvalues --    0.60556   0.60979   0.61582   0.62144   0.62469
 Alpha virt. eigenvalues --    0.63125   0.63565   0.64719   0.65501   0.65749
 Alpha virt. eigenvalues --    0.66403   0.66517   0.66767   0.67508   0.67913
 Alpha virt. eigenvalues --    0.68494   0.69077   0.69441   0.70123   0.71300
 Alpha virt. eigenvalues --    0.71634   0.72868   0.73150   0.73682   0.74030
 Alpha virt. eigenvalues --    0.74322   0.75201   0.76223   0.76565   0.76878
 Alpha virt. eigenvalues --    0.77439   0.78080   0.79588   0.80327   0.81034
 Alpha virt. eigenvalues --    0.81622   0.82367   0.82472   0.83881   0.84875
 Alpha virt. eigenvalues --    0.85323   0.85705   0.86342   0.86937   0.87144
 Alpha virt. eigenvalues --    0.88235   0.88444   0.88730   0.89487   0.90548
 Alpha virt. eigenvalues --    0.91013   0.91394   0.91905   0.92848   0.93000
 Alpha virt. eigenvalues --    0.93623   0.94543   0.95360   0.95975   0.96291
 Alpha virt. eigenvalues --    0.96857   0.97734   0.98430   0.98869   0.99468
 Alpha virt. eigenvalues --    0.99919   1.00503   1.00867   1.02079   1.03110
 Alpha virt. eigenvalues --    1.03680   1.04745   1.05162   1.06028   1.06472
 Alpha virt. eigenvalues --    1.07518   1.07831   1.08380   1.08806   1.09427
 Alpha virt. eigenvalues --    1.10835   1.11483   1.11750   1.12115   1.12667
 Alpha virt. eigenvalues --    1.13362   1.14344   1.14906   1.16226   1.16410
 Alpha virt. eigenvalues --    1.17220   1.18267   1.18971   1.19369   1.20423
 Alpha virt. eigenvalues --    1.20771   1.21027   1.22428   1.22964   1.23319
 Alpha virt. eigenvalues --    1.24245   1.25186   1.25870   1.26932   1.28956
 Alpha virt. eigenvalues --    1.29122   1.29945   1.30864   1.30969   1.31556
 Alpha virt. eigenvalues --    1.33279   1.33873   1.34073   1.35320   1.36381
 Alpha virt. eigenvalues --    1.37338   1.37924   1.38506   1.39095   1.40418
 Alpha virt. eigenvalues --    1.41411   1.42109   1.42389   1.43224   1.44843
 Alpha virt. eigenvalues --    1.45407   1.46413   1.48354   1.48803   1.49777
 Alpha virt. eigenvalues --    1.50470   1.50713   1.51192   1.51840   1.52757
 Alpha virt. eigenvalues --    1.53277   1.53674   1.54115   1.54891   1.55122
 Alpha virt. eigenvalues --    1.56253   1.56446   1.57140   1.57380   1.58571
 Alpha virt. eigenvalues --    1.58905   1.58987   1.59711   1.59915   1.60047
 Alpha virt. eigenvalues --    1.60635   1.61249   1.61735   1.61937   1.62332
 Alpha virt. eigenvalues --    1.62938   1.63483   1.64306   1.64600   1.65834
 Alpha virt. eigenvalues --    1.66024   1.67092   1.67800   1.67870   1.68735
 Alpha virt. eigenvalues --    1.68941   1.69328   1.70100   1.70430   1.71390
 Alpha virt. eigenvalues --    1.72037   1.72950   1.73330   1.74189   1.74566
 Alpha virt. eigenvalues --    1.75679   1.76179   1.76846   1.77383   1.78015
 Alpha virt. eigenvalues --    1.78437   1.78718   1.79408   1.79770   1.80800
 Alpha virt. eigenvalues --    1.82285   1.83697   1.83818   1.84473   1.84858
 Alpha virt. eigenvalues --    1.85259   1.85386   1.86631   1.87187   1.87571
 Alpha virt. eigenvalues --    1.88282   1.88542   1.89532   1.90877   1.91481
 Alpha virt. eigenvalues --    1.92912   1.93157   1.93562   1.94029   1.94166
 Alpha virt. eigenvalues --    1.95938   1.96203   1.97049   1.97132   1.97708
 Alpha virt. eigenvalues --    1.98563   1.99203   1.99951   2.01400   2.02452
 Alpha virt. eigenvalues --    2.02660   2.03230   2.04014   2.04246   2.04889
 Alpha virt. eigenvalues --    2.05485   2.06742   2.06972   2.07654   2.08537
 Alpha virt. eigenvalues --    2.09308   2.10306   2.11234   2.12209   2.12434
 Alpha virt. eigenvalues --    2.13116   2.15160   2.16533   2.16938   2.17204
 Alpha virt. eigenvalues --    2.18437   2.19430   2.19783   2.20297   2.20858
 Alpha virt. eigenvalues --    2.21102   2.21803   2.22403   2.22795   2.23657
 Alpha virt. eigenvalues --    2.24598   2.24729   2.26122   2.26550   2.26949
 Alpha virt. eigenvalues --    2.28231   2.28648   2.28974   2.30170   2.30863
 Alpha virt. eigenvalues --    2.31273   2.31770   2.32711   2.33054   2.34095
 Alpha virt. eigenvalues --    2.34516   2.34939   2.35565   2.36083   2.36710
 Alpha virt. eigenvalues --    2.37085   2.37384   2.38468   2.38787   2.39517
 Alpha virt. eigenvalues --    2.40334   2.40890   2.41403   2.42502   2.43196
 Alpha virt. eigenvalues --    2.43614   2.44608   2.45253   2.45938   2.46814
 Alpha virt. eigenvalues --    2.48015   2.48386   2.50159   2.50496   2.51247
 Alpha virt. eigenvalues --    2.52724   2.53202   2.53948   2.54920   2.55375
 Alpha virt. eigenvalues --    2.55839   2.57214   2.57978   2.58647   2.59047
 Alpha virt. eigenvalues --    2.59404   2.60334   2.60593   2.61581   2.62432
 Alpha virt. eigenvalues --    2.62795   2.63394   2.64018   2.64284   2.64381
 Alpha virt. eigenvalues --    2.65243   2.66368   2.66876   2.67290   2.67981
 Alpha virt. eigenvalues --    2.68194   2.69249   2.69778   2.70174   2.71760
 Alpha virt. eigenvalues --    2.72137   2.72320   2.72599   2.73235   2.73979
 Alpha virt. eigenvalues --    2.74836   2.75694   2.76995   2.77572   2.79084
 Alpha virt. eigenvalues --    2.79923   2.80582   2.81391   2.82519   2.82672
 Alpha virt. eigenvalues --    2.83497   2.83890   2.84765   2.85207   2.86268
 Alpha virt. eigenvalues --    2.86811   2.87420   2.88244   2.89140   2.89998
 Alpha virt. eigenvalues --    2.90389   2.91212   2.91856   2.92121   2.92863
 Alpha virt. eigenvalues --    2.93661   2.94023   2.95017   2.96028   2.97584
 Alpha virt. eigenvalues --    2.97904   2.98173   2.98616   3.00330   3.01035
 Alpha virt. eigenvalues --    3.01999   3.03033   3.03412   3.04085   3.04312
 Alpha virt. eigenvalues --    3.05603   3.05996   3.06477   3.06879   3.07126
 Alpha virt. eigenvalues --    3.08332   3.08539   3.09118   3.09380   3.09638
 Alpha virt. eigenvalues --    3.10772   3.11729   3.12033   3.12493   3.12912
 Alpha virt. eigenvalues --    3.13655   3.14095   3.14271   3.14933   3.15312
 Alpha virt. eigenvalues --    3.15951   3.16688   3.16988   3.17704   3.17918
 Alpha virt. eigenvalues --    3.18368   3.19086   3.19274   3.20117   3.20774
 Alpha virt. eigenvalues --    3.21451   3.21888   3.23184   3.23524   3.24444
 Alpha virt. eigenvalues --    3.24768   3.25051   3.26011   3.27272   3.27279
 Alpha virt. eigenvalues --    3.27930   3.28796   3.29699   3.30582   3.31623
 Alpha virt. eigenvalues --    3.31917   3.32292   3.32726   3.33511   3.34481
 Alpha virt. eigenvalues --    3.34977   3.35322   3.35991   3.36369   3.36840
 Alpha virt. eigenvalues --    3.37461   3.37878   3.38356   3.39065   3.39900
 Alpha virt. eigenvalues --    3.40238   3.41441   3.41692   3.42497   3.42697
 Alpha virt. eigenvalues --    3.44298   3.45021   3.45098   3.45615   3.46254
 Alpha virt. eigenvalues --    3.47251   3.47551   3.48525   3.49468   3.50075
 Alpha virt. eigenvalues --    3.50870   3.51537   3.52487   3.53226   3.54601
 Alpha virt. eigenvalues --    3.55099   3.55755   3.55923   3.56542   3.56952
 Alpha virt. eigenvalues --    3.58543   3.59345   3.59871   3.60533   3.61644
 Alpha virt. eigenvalues --    3.62138   3.62520   3.63062   3.64845   3.65574
 Alpha virt. eigenvalues --    3.65916   3.66398   3.67727   3.68446   3.69102
 Alpha virt. eigenvalues --    3.69768   3.71116   3.71599   3.73576   3.74756
 Alpha virt. eigenvalues --    3.75279   3.76192   3.77167   3.77935   3.78670
 Alpha virt. eigenvalues --    3.80051   3.80826   3.82013   3.82049   3.82652
 Alpha virt. eigenvalues --    3.85061   3.86078   3.86970   3.87718   3.89088
 Alpha virt. eigenvalues --    3.90799   3.91377   3.92851   3.93967   3.95187
 Alpha virt. eigenvalues --    3.95743   3.96751   3.97813   3.99238   4.00563
 Alpha virt. eigenvalues --    4.02211   4.02676   4.03834   4.05764   4.07358
 Alpha virt. eigenvalues --    4.08875   4.10258   4.11766   4.12710   4.14124
 Alpha virt. eigenvalues --    4.14671   4.16187   4.16781   4.18124   4.18703
 Alpha virt. eigenvalues --    4.19138   4.19913   4.20775   4.22022   4.24035
 Alpha virt. eigenvalues --    4.25483   4.26590   4.29564   4.30635   4.32827
 Alpha virt. eigenvalues --    4.33384   4.34066   4.36235   4.37559   4.38517
 Alpha virt. eigenvalues --    4.38857   4.40367   4.41789   4.42344   4.43197
 Alpha virt. eigenvalues --    4.44662   4.46756   4.47643   4.48977   4.50146
 Alpha virt. eigenvalues --    4.52622   4.53138   4.53970   4.56813   4.59194
 Alpha virt. eigenvalues --    4.61656   4.64270   4.65528   4.66747   4.67484
 Alpha virt. eigenvalues --    4.69060   4.69589   4.71182   4.72822   4.74377
 Alpha virt. eigenvalues --    4.75504   4.76765   4.79794   4.82371   4.84712
 Alpha virt. eigenvalues --    4.86483   4.88073   4.89814   4.90478   4.92840
 Alpha virt. eigenvalues --    4.94227   4.95181   4.98466   4.99543   5.01095
 Alpha virt. eigenvalues --    5.02769   5.04394   5.04489   5.07323   5.08953
 Alpha virt. eigenvalues --    5.12836   5.14064   5.14620   5.19086   5.21003
 Alpha virt. eigenvalues --    5.22112   5.24508   5.25714   5.26626   5.30377
 Alpha virt. eigenvalues --    5.31014   5.31342   5.31484   5.31856   5.38717
 Alpha virt. eigenvalues --    5.40277   5.42545   5.44408   5.47088   5.49115
 Alpha virt. eigenvalues --    5.49933   5.50879   5.53635   5.55227   5.56123
 Alpha virt. eigenvalues --    5.64567   5.69190   5.76024   5.77261   5.79620
 Alpha virt. eigenvalues --    5.80107   5.82200   5.82930   5.83977   5.88978
 Alpha virt. eigenvalues --    5.89630   5.92171   5.93918   5.96741   5.98254
 Alpha virt. eigenvalues --    5.99943   6.06717   6.07467   6.16258   6.18647
 Alpha virt. eigenvalues --    6.21733   6.25485   6.28464   6.29973   6.38786
 Alpha virt. eigenvalues --    6.39072   6.43610   6.44759   6.48685   6.54302
 Alpha virt. eigenvalues --    6.58955   6.62342   6.72684   6.76457   6.77432
 Alpha virt. eigenvalues --    6.77706   6.82793   6.84153   6.85457   6.86319
 Alpha virt. eigenvalues --    6.87149   6.98331   7.00494   7.04703   7.09163
 Alpha virt. eigenvalues --    7.11556   7.14835   7.15171   7.18243   7.22869
 Alpha virt. eigenvalues --    7.31637   7.36004   9.02035   9.39391   9.55139
 Alpha virt. eigenvalues --   19.98663  22.33209  22.46163  22.49836  22.52112
 Alpha virt. eigenvalues --   22.59733  22.66626  22.75288  22.77766  22.84871
 Alpha virt. eigenvalues --   22.91790  23.00668  23.02021  23.08695  23.10032
 Alpha virt. eigenvalues --   23.28680  23.52153  32.19609  33.24104  44.17482
 Alpha virt. eigenvalues --   44.19148  44.26218  44.29278  44.54508
          Condensed to atoms (all electrons):
               1          2          3          4          5          6
     1  C    5.156017   0.425821   0.409861   0.012345  -0.008016  -0.000244
     2  H    0.425821   0.498669  -0.015629  -0.002352   0.000459  -0.000006
     3  H    0.409861  -0.015629   0.520828  -0.000863   0.000343  -0.000012
     4  C    0.012345  -0.002352  -0.000863   5.631459   0.540611   0.185074
     5  H   -0.008016   0.000459   0.000343   0.540611   0.521969  -0.037275
     6  O   -0.000244  -0.000006  -0.000012   0.185074  -0.037275   8.147919
     7  H    0.000036  -0.000003  -0.000002  -0.055998  -0.008659   0.322379
     8  C   -0.011978   0.010971  -0.001151  -0.014294  -0.098366  -0.052495
     9  H    0.005035  -0.000351  -0.001705  -0.071524   0.002116   0.001121
    10  O    0.005495  -0.000185  -0.000035   0.057008   0.005694  -0.021069
[...]
 Dipole        =-1.03146599D+00-5.22308001D-01 1.89571631D+00
 ***** Axes restored to original set *****
 -------------------------------------------------------------------
 Center     Atomic                   Forces (Hartrees/Bohr)
 Number     Number              X              Y              Z
 -------------------------------------------------------------------
      1        6           0.000291576   -0.000055924   -0.000039221
      2        1           0.000024794   -0.000002877   -0.000005710
      3        1           0.000010880   -0.000016978   -0.000000425
      4        6           0.000232100   -0.000107549   -0.000201101
      5        1          -0.000003532   -0.000015658    0.000002608
      6        8          -0.000022759   -0.000095866   -0.000426440
      7        1          -0.000006533   -0.000042398    0.000027428
      8        6           0.000252841   -0.000022435   -0.000065476
      9        1           0.000013936   -0.000001972    0.000004290
     10        8           0.000344165    0.000013743   -0.000080523
     11        1           0.000015706   -0.000019460    0.000020314
     12        6           0.000254838   -0.000141517   -0.000198063
     13        1           0.000047562   -0.000013359   -0.000032291
     14        6           0.000322201    0.000001591   -0.000047773
     15        1           0.000019545   -0.000005080   -0.000008754
     16        8           0.000504166   -0.000056219   -0.000187972
     17        7           0.000284522   -0.000142454   -0.000167938
     18        6          -0.000088099   -0.000171577    0.000190790
     19        1          -0.000062911   -0.000018142    0.000046710
     20        6           0.000149129   -0.000109299   -0.000194726
     21        1           0.000003068   -0.000011184    0.000046341
     22        6           0.000962251    0.000129351   -0.001561306
     23        1           0.000129914   -0.000038831    0.000184682
     24        1          -0.000153771   -0.000042416    0.000015539
     25        6           0.000732792    0.000018155   -0.000875861
     26        6           0.000384826   -0.000092459   -0.000366274
     27        1           0.000028965   -0.000002778    0.000010917
     28        6           0.000320485    0.000003656   -0.000147450
     29        8          -0.000316228    0.000126085    0.001676424
     30        7           0.000407231   -0.000481046   -0.000267724
     31        1           0.000033270    0.000181097   -0.000327710
     32        1           0.000400204    0.000235218   -0.000579522
     33        1          -0.000016929    0.000006566    0.000007848
     34        6           0.000249553    0.000062507   -0.000739728
     35        6          -0.000802274    0.000083658    0.000734402
     36        6          -0.000907541    0.000225836    0.000783550
     37        6          -0.001165359    0.000002621    0.000868755
     38        6          -0.001199386   -0.000233388    0.001379586
     39        8          -0.001499767    0.000051136    0.001399146
     40       16          -0.000295556    0.000477082   -0.000437588
     41        1           0.000059396   -0.000000972   -0.000105713
     42        1          -0.000037281   -0.000036530   -0.000095961
     43        1           0.000252358    0.000098597   -0.000243554
     44        1          -0.000095739    0.000024149    0.000095847
     45        1           0.000098770   -0.000028738   -0.000176213
     46        1          -0.000194458    0.000292974    0.000095280
     47        1           0.000004652   -0.000046918    0.000047487
     48        1           0.000032426    0.000020003   -0.000056927
 -------------------------------------------------------------------
 Cartesian Forces:  Max     0.001676424 RMS     0.000412843
 Leave Link  716 at Sat Aug 13 20:33:50 2022, MaxMem=  2684354560 cpu:               0.8 elap:               0.1
 (Enter /storage/apps/GAUSSIAN/G16_RevA03/g16/l103.exe)

 GradGradGradGradGradGradGradGradGradGradGradGradGradGradGradGradGradGrad
 Berny optimization.
 Search for a local minimum.
 Step number   1 out of a maximum of    2
 All quantities printed in internal units (Hartrees-Bohrs-Radians)
 Second derivative matrix not updated -- first step.
 ITU=  0
     Eigenvalues ---    0.00036   0.00091   0.00103   0.00125   0.00186
     Eigenvalues ---    0.00240   0.00311   0.00387   0.00422   0.00454
     Eigenvalues ---    0.00557   0.00730   0.00834   0.00903   0.00916
     Eigenvalues ---    0.01027   0.01069   0.01184   0.01386   0.01518
     Eigenvalues ---    0.01696   0.01893   0.02347   0.02498   0.02631
     Eigenvalues ---    0.02953   0.03208   0.03374   0.03765   0.03869
     Eigenvalues ---    0.04377   0.04626   0.04929   0.05104   0.05259
     Eigenvalues ---    0.05358   0.05539   0.05739   0.05848   0.05879
     Eigenvalues ---    0.06091   0.06161   0.06347   0.06400   0.06690
     Eigenvalues ---    0.06964   0.07501   0.07694   0.07924   0.08161
     Eigenvalues ---    0.08601   0.08693   0.09056   0.09779   0.10292
     Eigenvalues ---    0.10521   0.11649   0.12135   0.12387   0.12535
     Eigenvalues ---    0.12993   0.13119   0.13216   0.13655   0.13739
     Eigenvalues ---    0.13996   0.14118   0.15399   0.16035   0.16600
     Eigenvalues ---    0.16872   0.18584   0.19089   0.19716   0.19868
     Eigenvalues ---    0.20022   0.21138   0.21875   0.21940   0.22250
     Eigenvalues ---    0.25450   0.27338   0.27497   0.27921   0.31405
     Eigenvalues ---    0.33005   0.34251   0.35004   0.35312   0.36714
     Eigenvalues ---    0.38149   0.38149   0.38149   0.38149   0.40187
     Eigenvalues ---    0.42789   0.45190   0.47992   0.56062   0.56590
     Eigenvalues ---    0.61643   0.66462   0.69496   0.69842   0.74166
     Eigenvalues ---    0.78878   0.82420   0.87564   0.89137   0.91056
     Eigenvalues ---    0.91305   0.91901   0.93895   0.94494   0.94896
     Eigenvalues ---    0.95764   0.97228   0.99801   1.01612   1.02962
     Eigenvalues ---    1.05591   1.06841   1.09895   1.11467   1.14127
     Eigenvalues ---    1.19496   1.19890   1.25675   1.27384   1.30194
     Eigenvalues ---    1.33542   1.44827   1.52016   1.63863   1.70085
     Eigenvalues ---    1.79414   2.18480   2.27780
 Quadratic step=2.572D+00 exceeds max=3.000D-01 adjusted using Lamda=-5.770D-03.
 Angle between NR and scaled steps=  46.55 degrees.
 Angle between quadratic step and forces=  51.42 degrees.
 Linear search not attempted -- first point.
 Variable       Old X    -DE/DX   Delta X   Delta X   Delta X     New X
                                 (Linear)    (Quad)   (Total)
    X1        6.82459   0.00029   0.00000  -0.00266  -0.00266   6.82193
    Y1       -6.83994  -0.00006   0.00000   0.00102   0.00102  -6.83892
    Z1       -0.83844  -0.00004   0.00000   0.00862   0.00862  -0.82982
    X2        7.10709   0.00002   0.00000  -0.00733  -0.00733   7.09976
    Y2       -7.02526  -0.00000   0.00000  -0.00767  -0.00767  -7.03293
    Z2       -2.86880  -0.00001   0.00000   0.00952   0.00952  -2.85929
    X3        8.19744   0.00001   0.00000  -0.00942  -0.00942   8.18803
    Y3       -8.03071  -0.00002   0.00000  -0.00134  -0.00134  -8.03205
    Z3        0.13370  -0.00000   0.00000   0.01489   0.01489   0.14859
    X4        3.58427   0.00023   0.00000   0.00316   0.00316   3.58744
    Y4       -2.74871  -0.00011   0.00000  -0.00009  -0.00009  -2.74880
    Z4        2.31790  -0.00020   0.00000  -0.01262  -0.01262   2.30527
    X5        2.36019  -0.00000   0.00000   0.00420   0.00420   2.36439
    Y5       -4.40001  -0.00002   0.00000  -0.00235  -0.00235  -4.40236
    Z5        2.06369   0.00000   0.00000  -0.00525  -0.00525   2.05844
    X6        2.83736  -0.00002   0.00000  -0.00126  -0.00126   2.83609
    Y6       -1.31095  -0.00010   0.00000   0.00236   0.00236  -1.30858
    Z6        4.40321  -0.00043   0.00000  -0.01631  -0.01631   4.38690
    X7        1.07796  -0.00001   0.00000  -0.00651  -0.00651   1.07146
    Y7       -0.81675  -0.00004   0.00000  -0.00978  -0.00978  -0.82652
    Z7        4.17027   0.00003   0.00000  -0.00462  -0.00462   4.16566
    X8        6.32223   0.00025   0.00000   0.00422   0.00422   6.32645
    Y8       -3.57431  -0.00002   0.00000   0.00702   0.00702  -3.56729
    Z8        2.65291  -0.00007   0.00000  -0.00468  -0.00468   2.64823
    X9        6.49770   0.00001   0.00000   0.00119   0.00119   6.49890
    Y9       -5.24879  -0.00000   0.00000   0.01089   0.01089  -5.23789
    Z9        3.85441   0.00000   0.00000   0.00212   0.00212   3.85653
   X10        7.75649   0.00034   0.00000   0.00051   0.00051   7.75700
   Y10       -1.55146   0.00001   0.00000   0.01070   0.01070  -1.54076
   Z10        3.62017  -0.00008   0.00000  -0.00620  -0.00620   3.61397
   X11        6.73273   0.00002   0.00000  -0.00028  -0.00028   6.73245
   Y11       -0.74068  -0.00002   0.00000   0.00391   0.00391  -0.73677
   Z11        4.89581   0.00002   0.00000  -0.00153  -0.00153   4.89427
   X12        3.73178   0.00025   0.00000   0.00695   0.00695   3.73874
   Y12       -1.26350  -0.00014   0.00000  -0.00382  -0.00382  -1.26732
   Z12       -0.17851  -0.00020   0.00000  -0.01480  -0.01480  -0.19330
   X13        4.29685   0.00005   0.00000  -0.00171  -0.00171   4.29514
   Y13        0.68415  -0.00001   0.00000  -0.00254  -0.00254   0.68161
   Z13        0.23161  -0.00003   0.00000  -0.00798  -0.00798   0.22363
   X14        7.14128   0.00032   0.00000   0.00889   0.00889   7.15017
   Y14       -4.10112   0.00000   0.00000   0.00168   0.00168  -4.09944
   Z14       -0.05790  -0.00005   0.00000  -0.00148  -0.00148  -0.05937
   X15        9.09776   0.00002   0.00000   0.01030   0.01030   9.10806
   Y15       -3.49542  -0.00001   0.00000  -0.00324  -0.00324  -3.49867
   Z15       -0.29942  -0.00001   0.00000   0.00478   0.00478  -0.29464
   X16        5.58048   0.00050   0.00000   0.01634   0.01634   5.59682
   Y16       -2.52861  -0.00006   0.00000   0.00175   0.00175  -2.52687
   Z16       -1.62115  -0.00019   0.00000  -0.00904  -0.00904  -1.63019
   X17        1.41671   0.00028   0.00000   0.00981   0.00981   1.42653
   Y17       -1.14347  -0.00014   0.00000  -0.00566  -0.00566  -1.14913
   Z17       -1.60605  -0.00017   0.00000  -0.01994  -0.01994  -1.62599
   X18        0.33928  -0.00009   0.00000  -0.00010  -0.00010   0.33919
   Y18       -3.37007  -0.00017   0.00000  -0.00532  -0.00532  -3.37539
   Z18       -2.50908   0.00019   0.00000  -0.00955  -0.00955  -2.51863
   X19        1.39653  -0.00006   0.00000  -0.01490  -0.01490   1.38163
   Y19       -5.06658  -0.00002   0.00000  -0.00906  -0.00906  -5.07564
   Z19       -2.09260   0.00005   0.00000   0.01098   0.01098  -2.08162
   X20       -1.77432   0.00015   0.00000   0.00252   0.00252  -1.77179
   Y20       -3.41324  -0.00011   0.00000  -0.00180  -0.00180  -3.41504
   Z20       -3.86399  -0.00019   0.00000  -0.01425  -0.01425  -3.87824
   X21       -2.46351   0.00000   0.00000  -0.01265  -0.01265  -2.47616
   Y21       -5.21759  -0.00001   0.00000  -0.00295  -0.00295  -5.22054
   Z21       -4.53216   0.00005   0.00000   0.00551   0.00551  -4.52665
   X22       -3.21806   0.00096   0.00000   0.01450   0.01450  -3.20355
   Y22       -1.06482   0.00013   0.00000   0.00187   0.00187  -1.06295
   Z22       -4.53962  -0.00156   0.00000  -0.02898  -0.02898  -4.56860
   X23       -3.49784   0.00013   0.00000   0.00958   0.00958  -3.48826
   Y23       -0.97231  -0.00004   0.00000   0.00099   0.00099  -0.97132
   Z23       -6.59407   0.00018   0.00000  -0.02621  -0.02621  -6.62027
   X24       -5.12441  -0.00015   0.00000   0.01440   0.01440  -5.11001
   Y24       -1.15873  -0.00004   0.00000   0.00718   0.00718  -1.15154
   Z24       -3.72724   0.00002   0.00000  -0.02317  -0.02317  -3.75041
   X25       -1.83202   0.00073   0.00000   0.01378   0.01378  -1.81824
   Y25        1.24999   0.00002   0.00000  -0.00088  -0.00088   1.24912
   Z25       -3.61985  -0.00088   0.00000  -0.02114  -0.02114  -3.64099
   X26        0.32246   0.00038   0.00000   0.01084   0.01084   0.33330
   Y26        1.09034  -0.00009   0.00000  -0.00460  -0.00460   1.08574
   Z26       -2.28393  -0.00037   0.00000  -0.01737  -0.01737  -2.30130
   X27        1.25871   0.00003   0.00000   0.00035   0.00035   1.25906
   Y27        2.80484  -0.00000   0.00000  -0.00572  -0.00572   2.79913
   Z27       -1.66778   0.00001   0.00000   0.00234   0.00234  -1.66545
   X28       -2.80989   0.00032   0.00000  -0.00698  -0.00698  -2.81687
   Y28        3.81544   0.00000   0.00000   0.00051   0.00051   3.81595
   Z28       -4.13296  -0.00015   0.00000   0.02556   0.02556  -4.10740
   X29       -1.62398  -0.00032   0.00000  -0.04422  -0.04422  -1.66820
   Y29        5.75019   0.00013   0.00000   0.00521   0.00521   5.75541
   Z29       -3.75030   0.00168   0.00000   0.11746   0.11746  -3.63284
   X30       -5.22528   0.00041   0.00000   0.00495   0.00495  -5.22034
   Y30        3.90225  -0.00048   0.00000  -0.00335  -0.00335   3.89890
   Z30       -5.05543  -0.00027   0.00000  -0.00677  -0.00677  -5.06220
   X31       -5.94586   0.00003   0.00000  -0.01190  -0.01190  -5.95776
   Y31        5.60839   0.00018   0.00000   0.00026   0.00026   5.60865
   Z31       -5.47659  -0.00033   0.00000   0.03372   0.03372  -5.44286
   X32       -6.25115   0.00040   0.00000   0.02652   0.02652  -6.22463
   Y32        2.34461   0.00024   0.00000  -0.00483  -0.00483   2.33978
   Z32       -5.39641  -0.00058   0.00000  -0.06176  -0.06176  -5.45817
   X33        4.93278  -0.00002   0.00000  -0.00633  -0.00633   4.92645
   Y33       -7.52791   0.00001   0.00000   0.01324   0.01324  -7.51467
   Z33       -0.38037   0.00001   0.00000   0.01516   0.01516  -0.36521
   X34        0.39781   0.00025   0.00000   0.02017   0.02017   0.41798
   Y34        4.16097   0.00006   0.00000   0.00375   0.00375   4.16472
   Z34        5.30455  -0.00074   0.00000  -0.03084  -0.03084   5.27371
   X35       -3.14921  -0.00080   0.00000  -0.03406  -0.03406  -3.18327
   Y35        1.73445   0.00008   0.00000  -0.00477  -0.00477   1.72968
   Z35        2.45136   0.00073   0.00000   0.04875   0.04875   2.50011
   X36       -5.54189  -0.00091   0.00000  -0.01757  -0.01757  -5.55946
   Y36        1.65131   0.00023   0.00000   0.00165   0.00165   1.65296
   Z36        1.02418   0.00078   0.00000   0.02340   0.02340   1.04759
   X37       -9.13922  -0.00117   0.00000   0.00846   0.00846  -9.13076
   Y37       -0.80434   0.00000   0.00000  -0.00241  -0.00241  -0.80675
   Z37       -0.78697   0.00087   0.00000  -0.02154  -0.02154  -0.80851
   X38       -6.64863  -0.00120   0.00000  -0.01938  -0.01938  -6.66800
   Y38       -0.54260  -0.00023   0.00000   0.00167   0.00167  -0.54093
   Z38        0.50601   0.00138   0.00000   0.02829   0.02829   0.53430
   X39       -1.93108  -0.00150   0.00000  -0.09613  -0.09613  -2.02721
   Y39       -0.13294   0.00005   0.00000  -0.01786  -0.01786  -0.15080
   Z39        3.00708   0.00140   0.00000   0.13976   0.13976   3.14684
   X40       -2.31544  -0.00030   0.00000   0.05136   0.05136  -2.26408
   Y40        4.80923   0.00048   0.00000   0.00908   0.00908   4.81830
   Z40        3.36746  -0.00044   0.00000  -0.07649  -0.07649   3.29098
   X41        0.88970   0.00006   0.00000   0.01687   0.01687   0.90657
   Y41        5.93178  -0.00000   0.00000   0.00399   0.00399   5.93578
   Z41        6.22395  -0.00011   0.00000  -0.02874  -0.02874   6.19521
   X42        1.97691  -0.00004   0.00000   0.03466   0.03466   2.01157
   Y42        3.50672  -0.00004   0.00000  -0.01243  -0.01243   3.49429
   Z42        4.16461  -0.00010   0.00000  -0.00033  -0.00033   4.16428
   X43      -10.56706   0.00025   0.00000  -0.01248  -0.01248 -10.57954
   Y43       -1.46606   0.00010   0.00000  -0.01202  -0.01202  -1.47807
   Z43        0.55283  -0.00024   0.00000  -0.05165  -0.05165   0.50118
   X44       -9.77376  -0.00010   0.00000   0.02087   0.02087  -9.75289
   Y44        0.99177   0.00002   0.00000  -0.00082  -0.00082   0.99095
   Z44       -1.57044   0.00010   0.00000  -0.02774  -0.02774  -1.59818
   X45       -9.05756   0.00010   0.00000   0.04751   0.04751  -9.01005
   Y45       -2.21059  -0.00003   0.00000   0.00412   0.00412  -2.20647
   Z45       -2.29347  -0.00018   0.00000  -0.02636  -0.02636  -2.31983
   X46       -5.68592  -0.00019   0.00000  -0.02716  -0.02716  -5.71308
   Y46       -2.25946   0.00029   0.00000   0.00535   0.00535  -2.25411
   Z46        1.09603   0.00010   0.00000   0.05000   0.05000   1.14602
   X47       -6.37610   0.00000   0.00000   0.00928   0.00928  -6.36683
   Y47        3.44273  -0.00005   0.00000   0.00248   0.00248   3.44521
   Z47        0.48022   0.00005   0.00000  -0.01314  -0.01314   0.46708
   X48       -0.07067   0.00003   0.00000  -0.00797  -0.00797  -0.07863
   Y48        2.74655   0.00002   0.00000   0.01481   0.01481   2.76135
   Z48        6.72119  -0.00006   0.00000  -0.02782  -0.02782   6.69337
         Item               Value     Threshold  Converged?
 Maximum Force            0.001676     0.000450     NO 
 RMS     Force            0.000413     0.000300     NO 
 Maximum Displacement     0.139761     0.001800     NO 
 RMS     Displacement     0.025001     0.001200     NO 
 Predicted change in Energy=-7.231463D-04
 GradGradGradGradGradGradGradGradGradGradGradGradGradGradGradGradGradGrad

 Leave Link  103 at Sat Aug 13 20:33:50 2022, MaxMem=  2684354560 cpu:               1.3 elap:               0.1
 (Enter /storage/apps/GAUSSIAN/G16_RevA03/g16/l9999.exe)

 Test job not archived.
 1\1\GINC-T054\Force\RM062X\def2TZVP\C16H24N2O5S1\LV87696\13-Aug-2022\0
 \\#P M062X/Def2TZVP scf=(direct,conver=8) EmpiricalDispersion=GD3 Forc
 e Charge Prop=(Field,Read)\\Gaussian run\\0,1\C,3.611416,-3.619542,-0.
 443683\H,3.760909,-3.717606,-1.518105\H,4.337899,-4.249667,0.07075\C,1
 .896716,-1.454555,1.226578\H,1.24896,-2.328386,1.092058\O,1.501464,-0.
 693723,2.330079\H,0.570434,-0.432203,2.206814\C,3.345578,-1.891442,1.4
 03859\H,3.438436,-2.777538,2.039665\O,4.104559,-0.820997,1.915709\H,3.
 562807,-0.391952,2.590749\C,1.974775,-0.668618,-0.094461\H,2.273797,0.
 362038,0.122562\C,3.779004,-2.17022,-0.030638\H,4.814329,-1.849699,-0.
 158446\O,2.953061,-1.338083,-0.857878\N,0.749692,-0.6051,-0.849887\C,0
 .179541,-1.783364,-1.327747\H,0.739011,-2.681118,-1.107357\C,-0.938928
 ,-1.806209,-2.044733\H,-1.303632,-2.761029,-2.398315\C,-1.702923,-0.56
 3477,-2.402264\H,-1.850976,-0.514522,-3.489431\H,-2.711721,-0.613171,-
 1.972371\C,-0.969465,0.661468,-1.915541\C,0.170641,0.576983,-1.208603\
 H,0.66608,1.484259,-0.882552\C,-1.486931,2.019045,-2.187066\O,-0.85937
 3,3.042871,-1.984573\N,-2.765101,2.064981,-2.675218\H,-3.146411,2.9678
 3,-2.898086\H,-3.307966,1.240712,-2.855657\H,2.610316,-3.983599,-0.201
 284\C,0.210513,2.201888,2.807049\C,-1.666489,0.91783,1.297206\C,-2.932
 643,0.873837,0.541975\C,-4.836267,-0.425638,-0.416445\C,-3.518301,-0.2
 87129,0.26777\O,-1.021881,-0.07035,1.591276\S,-1.225279,2.544933,1.781
 984\H,0.470809,3.138964,3.293573\H,1.046134,1.855678,2.203817\H,-5.591
 846,-0.775805,0.292545\H,-5.172049,0.524821,-0.831041\H,-4.793056,-1.1
 69795,-1.213652\H,-3.008861,-1.195657,0.579992\H,-3.374088,1.821814,0.
 254122\H,-0.037396,1.453411,3.5567\\Version=ES64L-G16RevA.03\State=1-A
 \HF=-1507.9311716\RMSD=1.418e-09\RMSF=4.128e-04\Dipole=-1.8690727,-1.1
 667882,0.2750285\Quadrupole=6.0833312,-2.8315608,-3.2517705,-2.6631762
 ,7.3335508,6.9677692\PG=C01 [X(C16H24N2O5S1)]\\@


 ...THOSE SCIENCES ARE VAIN AND FULL OF ERRORS WHICH 
 ARE NOT BORN FROM EXPERIMENT, THE MOTHER OF CERTAINTY...

                          -- LEONARDO DA VINCI, 1452-1519
 Job cpu time:       0 days  3 hours 13 minutes 35.0 seconds.
 Elapsed time:       0 days  0 hours 12 minutes  7.7 seconds.
 File lengths (MBytes):  RWF=    435 Int=      0 D2E=      0 Chk=     48 Scr=      1
 Normal termination of Gaussian 16 at Sat Aug 13 20:33:50 2022.
