 Entering Gaussian System, Link 0=g16
 Initial command:
 /storage/apps/GAUSSIAN/G16_RevA03/g16/l1.exe "/scratch/tmp/1019205/Gau-176121.inp" -scrdir="/scratch/tmp/1019205/"
 Entering Link 1 = /storage/apps/GAUSSIAN/G16_RevA03/g16/l1.exe PID=    176124.
  
 Copyright (c) 1988,1990,1992,1993,1995,1998,2003,2009,2016,
            Gaussian, Inc.  All Rights Reserved.
  
 This is part of the Gaussian(R) 16 program.  It is based on
 the Gaussian(R) 09 system (copyright 2009, Gaussian, Inc.),
 the Gaussian(R) 03 system (copyright 2003, Gaussian, Inc.),
 the Gaussian(R) 98 system (copyright 1998, Gaussian, Inc.),
 the Gaussian(R) 94 system (copyright 1995, Gaussian, Inc.),
 the Gaussian 92(TM) system (copyright 1992, Gaussian, Inc.),
 the Gaussian 90(TM) system (copyright 1990, Gaussian, Inc.),
 the Gaussian 88(TM) system (copyright 1988, Gaussian, Inc.),
 the Gaussian 86(TM) system (copyright 1986, Carnegie Mellon
 University), and the Gaussian 82(TM) system (copyright 1983,
 Carnegie Mellon University). Gaussian is a federally registered
 trademark of Gaussian, Inc.
  
 This software contains proprietary and confidential information,
 including trade secrets, belonging to Gaussian, Inc.
  
 This software is provided under written license and may be
 used, copied, transmitted, or stored only in accord with that
 written license.
  
 The following legend is applicable only to US Government
 contracts under FAR:
  
                    RESTRICTED RIGHTS LEGEND
  
 Use, reproduction and disclosure by the US Government is
 subject to restrictions as set forth in subparagraphs (a)
 and (c) of the Commercial Computer Software - Restricted
 Rights clause in FAR 52.227-19.
  
 Gaussian, Inc.
 340 Quinnipiac St., Bldg. 40, Wallingford CT 06492
  
  
 ---------------------------------------------------------------
 Warning -- This program may not be used in any manner that
 competes with the business of Gaussian, Inc. or will provide
 assistance to any competitor of Gaussian, Inc.  The licensee
 of this program is prohibited from giving any competitor of
 Gaussian, Inc. access to this program.  By using this program,
 the user acknowledges that Gaussian, Inc. is engaged in the
 business of creating and licensing software in the field of
 computational chemistry and represents and warrants to the
 licensee that it is not a competitor of Gaussian, Inc. and that
 it will not use this program in any manner prohibited above.
 ---------------------------------------------------------------
  

 Cite this work as:
 Gaussian 16, Revision A.03,
 M. J. Frisch, G. W. Trucks, H. B. Schlegel, G. E. Scuseria, 
 M. A. Robb, J. R. Cheeseman, G. Scalmani, V. Barone, 
 G. A. Petersson, H. Nakatsuji, X. Li, M. Caricato, A. V. Marenich, 
 J. Bloino, B. G. Janesko, R. Gomperts, B. Mennucci, H. P. Hratchian, 
 J. V. Ortiz, A. F. Izmaylov, J. L. Sonnenberg, D. Williams-Young, 
 F. Ding, F. Lipparini, F. Egidi, J. Goings, B. Peng, A. Petrone, 
 T. Henderson, D. Ranasinghe, V. G. Zakrzewski, J. Gao, N. Rega, 
 G. Zheng, W. Liang, M. Hada, M. Ehara, K. Toyota, R. Fukuda, 
 J. Hasegawa, M. Ishida, T. Nakajima, Y. Honda, O. Kitao, H. Nakai, 
 T. Vreven, K. Throssell, J. A. Montgomery, Jr., J. E. Peralta, 
 F. Ogliaro, M. J. Bearpark, J. J. Heyd, E. N. Brothers, K. N. Kudin, 
 V. N. Staroverov, T. A. Keith, R. Kobayashi, J. Normand, 
 K. Raghavachari, A. P. Rendell, J. C. Burant, S. S. Iyengar, 
 J. Tomasi, M. Cossi, J. M. Millam, M. Klene, C. Adamo, R. Cammi, 
 J. W. Ochterski, R. L. Martin, K. Morokuma, O. Farkas, 
 J. B. Foresman, and D. J. Fox, Gaussian, Inc., Wallingford CT, 2016.
 
 ******************************************
 Gaussian 16:  ES64L-G16RevA.03 25-Dec-2016
                13-Aug-2022 
 ******************************************
 %NProcShared=16
 Will use up to   16 processors via shared memory.
 %mem=20GB
 ----------------------------------------------------------------------
 #P M062X/Def2TZVP scf=(direct,conver=8) EmpiricalDispersion=GD3 Force 
 Charge Prop=(Field,Read)
 ----------------------------------------------------------------------
 1/10=7,18=10,28=-2,30=1,38=1,125=101/1,3;
 2/12=2,17=6,18=5,29=2,40=1/2;
 3/5=44,7=101,11=2,25=1,30=1,71=1,74=-55,124=31/1,2,3;
 4//1;
 5/5=2,6=8,38=5/2;
 6/7=2,8=2,9=2,10=2,14=2,15=1,28=1/1,2;
 7/7=1,16=-2,29=1/1,2,3,16;
 1/10=7,18=10,28=-2,30=1/3;
 99/12=1/99;
 Leave Link    1 at Sat Aug 13 20:21:42 2022, MaxMem=  2684354560 cpu:               0.8 elap:               0.1
 (Enter /storage/apps/GAUSSIAN/G16_RevA03/g16/l101.exe)
 ------------
 Gaussian run
 ------------
 Symbolic Z-matrix:
 Charge =  0 Multiplicity = 1
 C                     3.60889  -3.61903  -0.44346 
 H                     3.75783  -3.71667  -1.518 
 H                     4.33613  -4.2488    0.07032 
 C                     1.89426  -1.45353   1.22826 
 H                     1.24531  -2.32652   1.09359 
 O                     1.50126  -0.69297   2.33274 
 H                     0.57117  -0.42883   2.20865 
 C                     3.34288  -1.89125   1.40452 
 H                     3.43588  -2.77734   2.04031 
 O                     4.10189  -0.82068   1.91609 
 H                     3.5599   -0.39148   2.59085 
 C                     1.97235  -0.66736  -0.0928 
 H                     2.27211   0.36316   0.12401 
 C                     3.77588  -2.16976  -0.03008 
 H                     4.81104  -1.84878  -0.15812 
 O                     2.94932  -1.33785  -0.85678 
 N                     0.74754  -0.60368  -0.84841 
 C                     0.18047  -1.78189  -1.32992 
 H                     0.7455   -2.67805  -1.1174 
 C                    -0.94062  -1.80539  -2.04271 
 H                    -1.30184  -2.7595   -2.40181 
 C                    -1.71076  -0.56372  -2.38969 
 H                    -1.87011  -0.51164  -3.47442 
 H                    -2.71588  -0.61862  -1.95198 
 C                    -0.97556   0.66175  -1.9077 
 C                     0.16724   0.57811  -1.20508 
 H                     0.66481   1.48556  -0.88275 
 C                    -1.4902    2.01904  -2.18542 
 O                    -0.85688   3.04178  -1.99589 
 N                    -2.7687    2.06509  -2.67229 
 H                    -3.15987   2.96976  -2.87094 
 H                    -3.33323   1.2448   -2.79445 
 H                     2.60819  -3.98384  -0.20048 
 C                     0.20814   2.20138   2.81335 
 C                    -1.65826   0.91678   1.29019 
 C                    -2.92321   0.87247   0.53372 
 C                    -4.82871  -0.42621  -0.42098 
 C                    -3.5056   -0.28868   0.25405 
 O                    -1.01212  -0.07085   1.58228 
 S                    -1.22451   2.54317   1.78353 
 H                     0.46369   3.1379    3.30345 
 H                     1.04718   1.8592    2.21257 
 H                    -5.5803   -0.75934   0.29837 
 H                    -5.1612    0.52203  -0.84371 
 H                    -4.79769  -1.18017  -1.20916 
 H                    -2.99228  -1.19706   0.55867 
 H                    -3.36931   1.82068   0.25409 
 H                    -0.04074   1.4503    3.56009 
 
 ITRead=  0  0  0  0  0  0  0  0  0  0  0  0  0  0  0  0  0  0  0  0
 ITRead=  0  0  0  0  0  0  0  0  0  0  0  0  0  0  0  0  0  0  0  0
 ITRead=  0  0  0  0  0  0  0  0
 MicOpt= -1 -1 -1 -1 -1 -1 -1 -1 -1 -1 -1 -1 -1 -1 -1 -1 -1 -1 -1 -1
 MicOpt= -1 -1 -1 -1 -1 -1 -1 -1 -1 -1 -1 -1 -1 -1 -1 -1 -1 -1 -1 -1
 MicOpt= -1 -1 -1 -1 -1 -1 -1 -1
 NAtoms=     48 NQM=       48 NQMF=       0 NMMI=      0 NMMIF=      0
                NMic=       0 NMicF=      0.
                    Isotopes and Nuclear Properties:
 (Nuclear quadrupole moments (NQMom) in fm**2, nuclear magnetic moments (NMagM)
  in nuclear magnetons)

  Atom         1           2           3           4           5           6           7           8           9          10
 IAtWgt=          12           1           1          12           1          16           1          12           1          16
 AtmWgt=  12.0000000   1.0078250   1.0078250  12.0000000   1.0078250  15.9949146   1.0078250  12.0000000   1.0078250  15.9949146
 NucSpn=           0           1           1           0           1           0           1           0           1           0
 AtZEff=  -0.0000000  -0.0000000  -0.0000000  -0.0000000  -0.0000000  -0.0000000  -0.0000000  -0.0000000  -0.0000000  -0.0000000
 NQMom=    0.0000000   0.0000000   0.0000000   0.0000000   0.0000000   0.0000000   0.0000000   0.0000000   0.0000000   0.0000000
 NMagM=    0.0000000   2.7928460   2.7928460   0.0000000   2.7928460   0.0000000   2.7928460   0.0000000   2.7928460   0.0000000
 AtZNuc=   6.0000000   1.0000000   1.0000000   6.0000000   1.0000000   8.0000000   1.0000000   6.0000000   1.0000000   8.0000000

  Atom        11          12          13          14          15          16          17          18          19          20
 IAtWgt=           1          12           1          12           1          16          14          12           1          12
 AtmWgt=   1.0078250  12.0000000   1.0078250  12.0000000   1.0078250  15.9949146  14.0030740  12.0000000   1.0078250  12.0000000
 NucSpn=           1           0           1           0           1           0           2           0           1           0
 AtZEff=  -0.0000000  -0.0000000  -0.0000000  -0.0000000  -0.0000000  -0.0000000  -0.0000000  -0.0000000  -0.0000000  -0.0000000
 NQMom=    0.0000000   0.0000000   0.0000000   0.0000000   0.0000000   0.0000000   2.0440000   0.0000000   0.0000000   0.0000000
 NMagM=    2.7928460   0.0000000   2.7928460   0.0000000   2.7928460   0.0000000   0.4037610   0.0000000   2.7928460   0.0000000
 AtZNuc=   1.0000000   6.0000000   1.0000000   6.0000000   1.0000000   8.0000000   7.0000000   6.0000000   1.0000000   6.0000000

  Atom        21          22          23          24          25          26          27          28          29          30
 IAtWgt=           1          12           1           1          12          12           1          12          16          14
 AtmWgt=   1.0078250  12.0000000   1.0078250   1.0078250  12.0000000  12.0000000   1.0078250  12.0000000  15.9949146  14.0030740
 NucSpn=           1           0           1           1           0           0           1           0           0           2
 AtZEff=  -0.0000000  -0.0000000  -0.0000000  -0.0000000  -0.0000000  -0.0000000  -0.0000000  -0.0000000  -0.0000000  -0.0000000
 NQMom=    0.0000000   0.0000000   0.0000000   0.0000000   0.0000000   0.0000000   0.0000000   0.0000000   0.0000000   2.0440000
 NMagM=    2.7928460   0.0000000   2.7928460   2.7928460   0.0000000   0.0000000   2.7928460   0.0000000   0.0000000   0.4037610
 AtZNuc=   1.0000000   6.0000000   1.0000000   1.0000000   6.0000000   6.0000000   1.0000000   6.0000000   8.0000000   7.0000000

  Atom        31          32          33          34          35          36          37          38          39          40
 IAtWgt=           1           1           1          12          12          12          12          12          16          32
 AtmWgt=   1.0078250   1.0078250   1.0078250  12.0000000  12.0000000  12.0000000  12.0000000  12.0000000  15.9949146  31.9720718
 NucSpn=           1           1           1           0           0           0           0           0           0           0
 AtZEff=  -0.0000000  -0.0000000  -0.0000000  -0.0000000  -0.0000000  -0.0000000  -0.0000000  -0.0000000  -0.0000000  -0.0000000
 NQMom=    0.0000000   0.0000000   0.0000000   0.0000000   0.0000000   0.0000000   0.0000000   0.0000000   0.0000000   0.0000000
 NMagM=    2.7928460   2.7928460   2.7928460   0.0000000   0.0000000   0.0000000   0.0000000   0.0000000   0.0000000   0.0000000
 AtZNuc=   1.0000000   1.0000000   1.0000000   6.0000000   6.0000000   6.0000000   6.0000000   6.0000000   8.0000000  16.0000000

  Atom        41          42          43          44          45          46          47          48
 IAtWgt=           1           1           1           1           1           1           1           1
 AtmWgt=   1.0078250   1.0078250   1.0078250   1.0078250   1.0078250   1.0078250   1.0078250   1.0078250
 NucSpn=           1           1           1           1           1           1           1           1
 AtZEff=  -0.0000000  -0.0000000  -0.0000000  -0.0000000  -0.0000000  -0.0000000  -0.0000000  -0.0000000
 NQMom=    0.0000000   0.0000000   0.0000000   0.0000000   0.0000000   0.0000000   0.0000000   0.0000000
 NMagM=    2.7928460   2.7928460   2.7928460   2.7928460   2.7928460   2.7928460   2.7928460   2.7928460
 AtZNuc=   1.0000000   1.0000000   1.0000000   1.0000000   1.0000000   1.0000000   1.0000000   1.0000000
 Background charge distribution read from input stream:
 Leave Link  101 at Sat Aug 13 20:21:42 2022, MaxMem=  2684354560 cpu:               2.3 elap:               0.2
 (Enter /storage/apps/GAUSSIAN/G16_RevA03/g16/l103.exe)

 GradGradGradGradGradGradGradGradGradGradGradGradGradGradGradGradGradGrad
 Berny optimization.
 Initialization pass.
 Trust Radius=3.00D-01 FncErr=1.00D-07 GrdErr=1.00D-07 EigMax=2.50D+02 EigMin=1.00D-04
 Number of steps in this run=      2 maximum allowed number of steps=      2.
 GradGradGradGradGradGradGradGradGradGradGradGradGradGradGradGradGradGrad

 Leave Link  103 at Sat Aug 13 20:21:42 2022, MaxMem=  2684354560 cpu:               0.4 elap:               0.1
 (Enter /storage/apps/GAUSSIAN/G16_RevA03/g16/l202.exe)
 ---------------------------------------------------------------------------------------------------
                            Z-MATRIX (ANGSTROMS AND DEGREES)
   CD    Cent   Atom    N1       Length/X        N2       Alpha/Y        N3        Beta/Z          J
 ---------------------------------------------------------------------------------------------------
      1      1  C        0   3.608887         -3.619030         -0.443458
      2      2  H        0   3.757826         -3.716672         -1.518003
      3      3  H        0   4.336134         -4.248805          0.070318
      4      4  C        0   1.894260         -1.453533          1.228255
      5      5  H        0   1.245312         -2.326515          1.093593
      6      6  O        0   1.501260         -0.692966          2.332743
      7      7  H        0   0.571173         -0.428833          2.208652
      8      8  C        0   3.342876         -1.891245          1.404523
      9      9  H        0   3.435877         -2.777341          2.040311
     10     10  O        0   4.101886         -0.820682          1.916090
     11     11  H        0   3.559904         -0.391480          2.590854
     12     12  C        0   1.972351         -0.667356         -0.092796
     13     13  H        0   2.272108          0.363159          0.124013
     14     14  C        0   3.775877         -2.169763         -0.030075
     15     15  H        0   4.811037         -1.848779         -0.158121
     16     16  O        0   2.949320         -1.337853         -0.856781
     17     17  N        0   0.747537         -0.603675         -0.848408
     18     18  C        0   0.180472         -1.781885         -1.329922
     19     19  H        0   0.745500         -2.678050         -1.117398
     20     20  C        0  -0.940616         -1.805389         -2.042714
     21     21  H        0  -1.301835         -2.759503         -2.401808
     22     22  C        0  -1.710757         -0.563720         -2.389686
     23     23  H        0  -1.870107         -0.511644         -3.474417
     24     24  H        0  -2.715880         -0.618620         -1.951983
     25     25  C        0  -0.975556          0.661745         -1.907696
     26     26  C        0   0.167238          0.578106         -1.205082
     27     27  H        0   0.664806          1.485561         -0.882747
     28     28  C        0  -1.490196          2.019037         -2.185421
     29     29  O        0  -0.856884          3.041777         -1.995891
     30     30  N        0  -2.768702          2.065093         -2.672285
     31     31  H        0  -3.159873          2.969759         -2.870935
     32     32  H        0  -3.333233          1.244800         -2.794446
     33     33  H        0   2.608194         -3.983843         -0.200484
     34     34  C        0   0.208142          2.201375          2.813351
     35     35  C        0  -1.658260          0.916782          1.290193
     36     36  C        0  -2.923206          0.872471          0.533722
     37     37  C        0  -4.828708         -0.426211         -0.420984
     38     38  C        0  -3.505603         -0.288679          0.254051
     39     39  O        0  -1.012118         -0.070853          1.582282
     40     40  S        0  -1.224510          2.543165          1.783533
     41     41  H        0   0.463691          3.137896          3.303446
     42     42  H        0   1.047180          1.859204          2.212566
     43     43  H        0  -5.580301         -0.759343          0.298371
     44     44  H        0  -5.161198          0.522032         -0.843709
     45     45  H        0  -4.797686         -1.180166         -1.209161
     46     46  H        0  -2.992279         -1.197058          0.558672
     47     47  H        0  -3.369305          1.820684          0.254093
     48     48  H        0  -0.040736          1.450300          3.560092
 ---------------------------------------------------------------------------------------------------
                         Z-Matrix orientation:                         
 ---------------------------------------------------------------------
 Center     Atomic      Atomic             Coordinates (Angstroms)
 Number     Number       Type             X           Y           Z
 ---------------------------------------------------------------------
      1          6           0        3.608887   -3.619030   -0.443458
      2          1           0        3.757826   -3.716672   -1.518003
      3          1           0        4.336134   -4.248805    0.070318
      4          6           0        1.894260   -1.453533    1.228255
      5          1           0        1.245312   -2.326515    1.093593
      6          8           0        1.501260   -0.692966    2.332743
      7          1           0        0.571173   -0.428833    2.208652
      8          6           0        3.342876   -1.891245    1.404523
      9          1           0        3.435877   -2.777341    2.040311
     10          8           0        4.101886   -0.820682    1.916090
     11          1           0        3.559904   -0.391480    2.590854
     12          6           0        1.972351   -0.667356   -0.092796
     13          1           0        2.272108    0.363159    0.124013
     14          6           0        3.775877   -2.169763   -0.030075
     15          1           0        4.811037   -1.848779   -0.158121
     16          8           0        2.949320   -1.337853   -0.856781
     17          7           0        0.747537   -0.603675   -0.848408
     18          6           0        0.180472   -1.781885   -1.329922
     19          1           0        0.745500   -2.678050   -1.117398
     20          6           0       -0.940616   -1.805389   -2.042714
     21          1           0       -1.301835   -2.759503   -2.401808
     22          6           0       -1.710757   -0.563720   -2.389686
     23          1           0       -1.870107   -0.511644   -3.474417
     24          1           0       -2.715880   -0.618620   -1.951983
     25          6           0       -0.975556    0.661745   -1.907696
     26          6           0        0.167238    0.578106   -1.205082
     27          1           0        0.664806    1.485561   -0.882747
     28          6           0       -1.490196    2.019037   -2.185421
     29          8           0       -0.856884    3.041777   -1.995891
     30          7           0       -2.768702    2.065093   -2.672285
     31          1           0       -3.159873    2.969759   -2.870935
     32          1           0       -3.333233    1.244800   -2.794446
     33          1           0        2.608194   -3.983843   -0.200484
     34          6           0        0.208142    2.201375    2.813351
     35          6           0       -1.658260    0.916782    1.290193
     36          6           0       -2.923206    0.872471    0.533722
     37          6           0       -4.828708   -0.426211   -0.420984
     38          6           0       -3.505603   -0.288679    0.254051
     39          8           0       -1.012118   -0.070853    1.582282
     40         16           0       -1.224510    2.543165    1.783533
     41          1           0        0.463691    3.137896    3.303446
     42          1           0        1.047180    1.859204    2.212566
     43          1           0       -5.580301   -0.759343    0.298371
     44          1           0       -5.161198    0.522032   -0.843709
     45          1           0       -4.797686   -1.180166   -1.209161
     46          1           0       -2.992279   -1.197058    0.558672
     47          1           0       -3.369305    1.820684    0.254093
     48          1           0       -0.040736    1.450300    3.560092
 ---------------------------------------------------------------------
                    Distance matrix (angstroms):
                    1          2          3          4          5
     1  C    0.000000
     2  H    1.089203   0.000000
     3  H    1.090629   1.772109   0.000000
     4  C    3.228614   4.017040   3.888073   0.000000
     5  H    3.101549   3.881455   3.780935   1.096068   0.000000
     6  O    4.550960   5.391023   5.079278   1.397428   2.066273
     7  H    5.141863   5.903609   5.774044   1.939523   2.301959
     8  C    2.543823   3.470666   2.885265   1.523532   2.164697
     9  H    2.628209   3.694265   2.618500   2.188261   2.428599
    10  O    3.693408   4.505345   3.900484   2.397338   3.332274
    11  H    4.430184   5.289497   4.672750   2.399792   3.368009
    12  C    3.393169   3.810179   4.294281   1.539269   2.165390
    13  H    4.238730   4.642046   5.053048   2.159280   3.037884
    14  C    1.516294   2.146435   2.155547   2.374208   2.773258
    15  H    2.158789   2.539204   2.457202   3.253590   3.809123
    16  O    2.410318   2.598014   3.355057   2.339639   2.772193
    17  N    4.176562   4.381889   5.197024   2.519873   2.643355
    18  C    3.989355   4.071392   5.031490   3.096636   2.702579
    19  H    3.088466   3.211437   4.095191   2.884645   2.293877
    20  C    5.152173   5.099381   6.187025   4.342760   3.858274
    21  H    5.356222   5.224696   6.333729   5.009784   4.346638
    22  C    6.435941   6.372310   7.496423   5.184343   4.896838
    23  H    6.990131   6.765603   8.065293   6.096945   5.819477
    24  H    7.161060   7.189933   8.185282   5.662542   5.280481
    25  C    6.440974   6.459667   7.499339   4.748098   4.782226
    26  C    5.480964   5.606725   6.504261   3.609888   3.857846
    27  H    5.909098   6.085520   6.875313   3.821801   4.332993
    28  C    7.798903   7.802919   8.849877   5.930132   6.092517
    29  O    8.168201   8.197595   9.186362   6.178327   6.540848
    30  N    8.828962   8.795268   9.892718   7.024112   7.041333
    31  H    9.752994   9.715624  10.814285   7.868490   7.948186
    32  H    8.796421   8.748064   9.859298   7.126697   6.988148
    33  H    1.092479   1.768867   1.768987   2.992234   2.505757
    34  C    7.486587   8.147648   8.134456   4.325954   4.953290
    35  C    7.163936   7.660865   8.006506   4.271139   4.357563
    36  C    7.987284   8.360981   8.896079   5.394502   5.284270
    37  C    9.021508   9.260624   9.942230   6.998120   6.542081
    38  C    7.886300   8.224884   8.786876   5.609321   5.237251
    39  O    6.168214   6.756932   6.953065   3.237927   3.228439
    40  S    8.142104   8.655020   8.943530   5.099868   5.503619
    41  H    8.341918   9.004599   8.944959   5.237763   5.945937
    42  H    6.605138   7.235685   7.260456   3.558179   4.337234
    43  H    9.652424   9.962210  10.514943   7.564102   7.048220
    44  H    9.706853   9.897993  10.667504   7.614157   7.273976
    45  H    8.786628   8.928943   9.720097   7.127262   6.567695
    46  H    7.102507   7.498330   7.953445   4.938865   4.418030
    47  H    8.875372   9.197751   9.810518   6.274919   6.260887
    48  H    7.419317   8.180081   7.988449   4.196894   4.690615
                    6          7          8          9         10
     6  O    0.000000
     7  H    0.974796   0.000000
     8  C    2.385165   3.235369   0.000000
     9  H    2.858825   3.708147   1.094551   0.000000
    10  O    2.636886   3.564418   1.408511   2.070631   0.000000
    11  H    2.096552   3.013302   1.924520   2.451696   0.966057
    12  C    2.470996   2.704969   2.370276   3.338277   2.931561
    13  H    2.566728   2.804666   2.805100   3.858665   2.821543
    14  C    3.596904   4.279353   1.524183   2.184319   2.390368
    15  H    4.300573   5.059082   2.144564   2.754341   2.421204
    16  O    3.561716   3.984819   2.361064   3.271392   3.047079
    17  N    3.270442   3.067131   3.670057   4.505185   4.352149
    18  C    4.042937   3.808530   4.182099   4.790309   5.180540
    19  H    4.051568   4.018952   3.704796   4.149592   4.890521
    20  C    5.132725   4.717470   5.499011   6.063784   6.486031
    21  H    5.877405   5.495136   6.067567   6.494510   7.183556
    22  C    5.712713   5.135184   6.457364   7.142327   7.238270
    23  H    6.717299   6.185788   7.272039   7.981170   8.050948
    24  H    6.012377   5.305810   7.042317   7.644776   7.841221
    25  C    5.094230   4.530569   6.011440   6.846518   6.526817
    26  C    3.988915   3.581992   4.795040   5.698737   5.213423
    27  H    3.973036   3.637364   4.879189   5.864762   4.996575
    28  C    6.059503   5.435916   7.178899   8.070207   7.493849
    29  O    6.184353   5.635837   7.316796   8.281356   7.403485
    30  N    7.133707   6.418565   8.344121   9.173578   8.751335
    31  H    7.887964   7.160540   9.175764  10.032617   9.487686
    32  H    7.308579   6.563263   8.487435   9.239770   9.040816
    33  H    4.297955   4.753050   2.737658   2.676167   4.088593
    34  C    3.206298   2.723132   5.344239   5.983601   5.009905
    35  C    3.696047   2.761271   5.736676   6.337149   6.048951
    36  C    5.026228   4.087722   6.903637   7.485244   7.357284
    37  C    6.908159   6.006139   8.500211   8.938073   9.239753
    38  C    5.436275   4.523296   7.126954   7.587378   7.805081
    39  O    2.695790   1.739914   4.723494   5.226809   5.179451
    40  S    4.266614   3.498282   6.377198   7.077636   6.301074
    41  H    4.085868   3.732517   6.098186   6.739394   5.552617
    42  H    2.595034   2.337030   4.470908   5.218534   4.074422
    43  H    7.368282   6.449732   9.062442   9.402028   9.816594
    44  H    7.480268   6.563622   9.121279   9.649515   9.758283
    45  H    7.242870   6.408634   8.579378   8.994531   9.439216
    46  H    4.857297   4.001349   6.428962   6.783343   7.232663
    47  H    5.861879   4.940445   7.755983   8.404934   8.096774
    48  H    2.911654   2.394152   5.221229   5.680627   5.002141
                   11         12         13         14         15
    11  H    0.000000
    12  C    3.130241   0.000000
    13  H    2.883263   1.094907   0.000000
    14  C    3.174619   2.348162   2.949705   0.000000
    15  H    3.353493   3.075413   3.379117   1.091322   0.000000
    16  O    3.626930   1.409861   2.077021   1.434822   2.053086
    17  N    4.447804   1.440546   2.050533   3.506158   4.305672
    18  C    5.359689   2.446117   3.330177   3.842784   4.777000
    19  H    5.186560   2.568631   3.622235   3.259419   4.258696
    20  C    6.612395   3.685468   4.440597   5.140894   6.052692
    21  H    7.360076   4.519835   5.376231   5.635252   6.575010
    22  C    7.253641   4.341858   4.800104   6.184682   7.011780
    23  H    8.141681   5.120946   5.556251   6.818357   7.577825
    24  H    7.750769   5.043656   5.491236   6.945695   7.834903
    25  C    6.474306   3.708170   3.842436   5.841148   6.545869
    26  C    5.182606   2.459022   2.498634   4.685478   5.343292
    27  H    4.895996   2.639839   2.203808   4.875162   5.369743
    28  C    7.357099   4.856441   4.714907   7.065627   7.666517
    29  O    7.234190   5.038255   4.632448   7.244795   7.708454
    30  N    8.589915   6.049597   6.010460   8.230844   8.893360
    31  H    9.288943   6.876510   6.728335   9.087893   9.701189
    32  H    8.899113   6.253357   6.380795   8.357059   9.102174
    33  H    4.647837   3.378606   4.372034   2.164119   3.068030
    34  C    4.243431   4.448341   3.856363   6.318279   6.813225
    35  C    5.534664   4.195651   4.136939   6.387465   7.183157
    36  C    6.918098   5.170113   5.236272   7.379076   8.228145
    37  C    8.912978   6.813242   7.165313   8.788155   9.747691
    38  C    7.442621   5.501970   5.815819   7.525899   8.471735
    39  O    4.692910   3.474012   3.619538   5.470833   6.332390
    40  S    5.670496   4.903874   4.442158   7.106668   7.712783
    41  H    4.748770   5.318877   4.591114   7.089018   7.466511
    42  H    3.394475   3.543182   2.846165   5.357966   5.791020
    43  H    9.430490   7.563334   7.934150   9.467588  10.458258
    44  H    9.417449   7.270903   7.497717   9.369049  10.273084
    45  H    9.214741   6.880599   7.358070   8.710656   9.689132
    46  H    6.907230   5.035131   5.507901   6.862996   7.863223
    47  H    7.639899   5.902878   5.828108   8.188898   8.975125
    48  H    4.158868   4.677668   4.282261   6.368728   6.946131
                   16         17         18         19         20
    16  O    0.000000
    17  N    2.320977   0.000000
    18  C    2.843861   1.393412   0.000000
    19  H    2.592464   2.091744   1.080525   0.000000
    20  C    4.093486   2.391724   1.328707   2.112045   0.000000
    21  H    4.741362   3.355678   2.074105   2.418248   1.081555
    22  C    4.966427   2.901783   2.486719   3.481710   1.501749
    23  H    5.546307   3.708969   3.227576   4.134036   2.141846
    24  H    5.814745   3.635018   3.182609   4.113263   2.137338
    25  C    4.528517   2.385881   2.764336   3.839380   2.471073
    26  C    3.395908   1.364027   2.363328   3.308267   2.758626
    27  H    3.631989   2.091155   3.333279   4.170999   3.840997
    28  C    5.722176   3.697793   4.239106   5.310521   3.866347
    29  O    5.913199   4.144901   4.978688   6.004649   4.848115
    30  N    6.897237   4.776273   5.029792   6.104482   4.326533
    31  H    7.741742   5.668148   6.009222   7.086930   5.330393
    32  H    7.063647   4.884323   4.863309   5.902314   3.948844
    33  H    2.747427   3.912465   3.466711   2.452643   4.553408
    34  C    5.788787   4.644107   5.747507   6.288746   6.399623
    35  C    5.560816   3.559953   4.186734   4.949482   4.362740
    36  C    6.426943   4.190900   4.489052   5.365799   4.211843
    37  C    7.843388   5.595417   5.268387   6.052071   4.432764
    38  C    6.633306   4.404979   4.280862   5.065752   3.762273
    39  O    4.821546   3.047710   3.582015   4.144269   4.019244
    40  S    6.281275   4.551778   5.511228   6.289469   5.799197
    41  H    6.596830   5.596232   6.764064   7.310849   7.415495
    42  H    4.822883   3.940193   5.153439   5.636164   5.957179
    43  H    8.626905   6.432796   6.073173   6.760296   5.301091
    44  H    8.321048   6.015014   5.837626   6.723430   4.966670
    45  H    7.756619   5.586769   5.015845   5.742733   3.995335
    46  H    6.109495   4.039579   3.738336   4.355863   3.368471
    47  H    7.150903   4.903204   5.299861   6.249097   4.931760
    48  H    6.018555   4.926973   5.865849   6.288112   6.542227
                   21         22         23         24         25
    21  H    0.000000
    22  C    2.233568   0.000000
    23  H    2.554661   1.097609   0.000000
    24  H    2.604850   1.097666   1.744873   0.000000
    25  C    3.472109   1.508177   2.152133   2.161024   0.000000
    26  C    3.837963   2.496782   3.238551   3.209733   1.344113
    27  H    4.918922   3.480477   4.139005   4.123091   2.102375
    28  C    4.787144   2.600193   2.865343   2.917881   1.477913
    29  O    5.832461   3.726095   3.979882   4.105642   2.384620
    30  N    5.049909   2.847765   2.844374   2.779198   2.401948
    31  H    6.041260   3.849287   3.761363   3.730692   3.320542
    32  H    4.507237   2.463129   2.384993   2.136165   2.585521
    33  H    4.651146   5.928169   6.544462   6.537449   6.110591
    34  C    7.354470   6.196734   7.156509   6.261844   5.104888
    35  C    5.222354   3.966882   4.978633   3.740017   3.279882
    36  C    4.943421   3.475484   4.369207   2.906040   3.130218
    37  C    4.669770   3.690029   4.252537   2.616299   4.270918
    38  C    4.244426   3.207252   4.077503   2.366244   3.460866
    39  O    4.815158   4.062948   5.147878   3.961551   3.566228
    40  S    6.755838   5.225412   6.115120   5.116165   4.150529
    41  H    8.393231   7.130353   8.043953   7.200043   5.946323
    42  H    6.938499   5.887062   6.817130   6.135446   4.743620
    43  H    5.440301   4.715643   5.297247   3.645381   5.299990
    44  H    5.300078   3.933757   4.338247   2.917008   4.321017
    45  H    4.017174   3.361960   3.761519   2.280578   4.299915
    46  H    3.750104   3.276619   4.242036   2.591211   3.688535
    47  H    5.683868   3.927560   4.646411   3.353198   3.427318
    48  H    7.406555   6.499623   7.528621   6.466823   5.602893
                   26         27         28         29         30
    26  C    0.000000
    27  H    1.083950   0.000000
    28  C    2.405085   2.574022   0.000000
    29  O    2.782783   2.444675   1.217786   0.000000
    30  N    3.603271   3.915007   1.368845   2.250882   0.000000
    31  H    4.423204   4.558937   2.040006   2.464680   1.005434
    32  H    3.901776   4.438116   2.089770   3.162139   1.003244
    33  H    5.270566   5.844367   7.534676   8.036765   8.462295
    34  C    4.334107   3.792370   5.282549   4.996936   6.242786
    35  C    3.110232   3.231379   3.650083   3.994516   4.272345
    36  C    3.558221   3.905905   3.280529   3.921035   3.424135
    37  C    5.155865   5.834963   4.498682   5.502968   3.939362
    38  C    4.046004   4.672531   3.916432   4.813511   3.827102
    39  O    3.095388   3.363163   4.334949   4.745091   5.074366
    40  S    3.837999   3.434689   4.012218   3.829858   4.739978
    41  H    5.192999   4.504983   5.932721   5.462246   6.878127
    42  H    3.754441   3.141143   5.079972   4.768128   6.202025
    43  H    6.089610   6.740623   5.533315   6.482501   4.970646
    44  H    5.340970   5.905272   4.185388   5.118961   3.383602
    45  H    5.267068   6.086991   4.703985   5.828693   4.097464
    46  H    4.030457   4.759034   4.486599   5.390123   4.596814
    47  H    4.022478   4.204612   3.085713   3.586887   2.997357
    48  H    4.848800   4.498650   5.952757   5.836767   6.830980
                   31         32         33         34         35
    31  H    0.000000
    32  H    1.735335   0.000000
    33  H    9.420960   8.328739   0.000000
    34  C    6.651695   6.701027   7.287000   0.000000
    35  C    4.876940   4.426896   6.666399   2.730137   0.000000
    36  C    4.005786   3.373937   7.397245   4.094879   1.474551
    37  C    4.507758   3.265279   8.246992   6.537200   3.844931
    38  C    4.527967   3.416812   7.158167   5.151921   2.437089
    39  O    5.804250   5.125843   5.621068   2.857899   1.215828
    40  S    5.058822   5.204840   7.824818   1.797175   1.754037
    41  H    7.161108   7.428643   8.221653   1.087460   3.672766
    42  H    6.691383   6.680994   6.511588   1.087202   3.009707
    43  H    5.459778   4.316413   8.814630   6.971158   4.378985
    44  H    3.755837   2.769336   9.004449   6.709999   4.120672
    45  H    4.760861   3.246261   7.982800   7.257667   4.527688
    46  H    5.399320   4.162009   6.301411   5.184170   2.604429
    47  H    3.336171   3.102666   8.344439   4.415071   2.195044
    48  H    7.307248   7.159813   7.119598   1.087969   2.837863
                   36         37         38         39         40
    36  C    0.000000
    37  C    2.495792   0.000000
    38  C    1.328786   1.491708   0.000000
    39  O    2.375204   4.325010   2.833569   0.000000
    40  S    2.690504   5.164042   3.944875   2.630343   0.000000
    41  H    4.926925   7.388080   6.065931   3.928930   2.348162
    42  H    4.422231   6.832625   5.401575   2.891900   2.410902
    43  H    3.127037   1.092401   2.127877   4.794866   5.664378
    44  H    2.651176   1.090143   2.145536   4.842707   5.146347
    45  H    3.280950   1.091162   2.145977   4.832521   5.965484
    46  H    2.070832   2.219550   1.086944   2.497429   4.314459
    47  H    1.084576   2.762992   2.113762   3.301262   2.731540
    48  H    4.219175   6.503456   5.095023   2.677540   2.398299
                   41         42         43         44         45
    41  H    0.000000
    42  H    1.779194   0.000000
    43  H    7.794151   7.378647   0.000000
    44  H    7.461971   7.047894   1.766894   0.000000
    45  H    8.166478   7.423506   1.749923   1.778531   0.000000
    46  H    6.186222   5.328539   2.637652   3.102604   2.526858
    47  H    5.072027   4.831401   3.398088   2.470333   3.631320
    48  H    1.779970   1.779492   6.797656   6.817204   7.231438
                   46         47         48
    46  H    0.000000
    47  H    3.056417   0.000000
    48  H    4.972789   4.705973   0.000000
 Stoichiometry    C16H24N2O5S
 Framework group  C1[X(C16H24N2O5S)]
 Deg. of freedom   138
 Full point group                 C1      NOp   1
 Largest Abelian subgroup         C1      NOp   1
 Largest concise Abelian subgroup C1      NOp   1
                         Standard orientation:                         
 ---------------------------------------------------------------------
 Center     Atomic      Atomic             Coordinates (Angstroms)
 Number     Number       Type             X           Y           Z
 ---------------------------------------------------------------------
      1          6           0       -4.686800   -1.958871   -0.574258
      2          1           0       -4.644842   -2.909966   -0.045087
      3          1           0       -5.707990   -1.794407   -0.920082
      4          6           0       -2.546411    0.455957   -0.680508
      5          1           0       -2.356460   -0.166501   -1.562455
      6          8           0       -2.079736    1.759762   -0.867890
      7          1           0       -1.128259    1.718627   -1.075801
      8          6           0       -4.036969    0.491827   -0.367295
      9          1           0       -4.650411    0.575334   -1.269934
     10          8           0       -4.307542    1.546221    0.526544
     11          1           0       -3.777116    2.300203    0.237712
     12          6           0       -1.989369   -0.247723    0.570046
     13          1           0       -1.821239    0.499064    1.352901
     14          6           0       -4.251573   -0.836820    0.348090
     15          1           0       -4.975860   -0.695279    1.152053
     16          8           0       -2.989095   -1.169022    0.943494
     17          7           0       -0.747504   -0.953051    0.381747
     18          6           0       -0.698485   -2.022975   -0.509577
     19          1           0       -1.640521   -2.266382   -0.979530
     20          6           0        0.405049   -2.729314   -0.730393
     21          1           0        0.353664   -3.561777   -1.418962
     22          6           0        1.709788   -2.435616   -0.047278
     23          1           0        2.089349   -3.341571    0.442543
     24          1           0        2.467608   -2.172827   -0.796625
     25          6           0        1.536625   -1.327202    0.960706
     26          6           0        0.367325   -0.683810    1.120148
     27          1           0        0.286622    0.103900    1.860384
     28          6           0        2.659001   -0.893949    1.819072
     29          8           0        2.540080   -0.147849    2.774161
     30          7           0        3.885386   -1.384702    1.460078
     31          1           0        4.677908   -1.111249    2.015082
     32          1           0        4.023794   -1.962281    0.651533
     33          1           0       -4.035484   -2.023064   -1.449002
     34          6           0        0.267880    3.578511    0.340911
     35          6           0        1.602945    1.465658   -0.757769
     36          6           0        2.830358    0.699929   -1.043106
     37          6           0        4.078772   -0.941007   -2.449438
     38          6           0        2.859955   -0.191005   -2.028516
     39          8           0        0.532834    1.248384   -1.292457
     40         16           0        1.872031    2.769409    0.384366
     41          1           0        0.376473    4.504538    0.900600
     42          1           0       -0.494937    2.956451    0.802604
     43          1           0        4.433171   -0.564556   -3.411741
     44          1           0        4.885357   -0.830248   -1.724479
     45          1           0        3.865235   -2.001716   -2.590614
     46          1           0        1.938642   -0.366757   -2.577827
     47          1           0        3.706635    0.923069   -0.444230
     48          1           0       -0.009893    3.799599   -0.687505
 ---------------------------------------------------------------------
 Rotational constants (GHZ):           0.3278295           0.1626052           0.1387907
 Leave Link  202 at Sat Aug 13 20:21:43 2022, MaxMem=  2684354560 cpu:               0.7 elap:               0.1
 (Enter /storage/apps/GAUSSIAN/G16_RevA03/g16/l301.exe)
 Standard basis: def2TZVP (5D, 7F)
 Ernie: Thresh=  0.10000D-02 Tol=  0.10000D-05 Strict=F.
 There are  1014 symmetry adapted cartesian basis functions of A   symmetry.
 There are   894 symmetry adapted basis functions of A   symmetry.
   894 basis functions,  1434 primitive gaussians,  1014 cartesian basis functions
    95 alpha electrons       95 beta electrons
       nuclear repulsion energy      2482.9746787415 Hartrees.
 IExCor= 4336 DFT=T Ex+Corr=M062X ExCW=0 ScaHFX=  0.540000
 ScaDFX=  1.000000  1.000000  1.000000  1.000000 ScalE2=  1.000000  1.000000
 IRadAn=      5 IRanWt=     -1 IRanGd=            0 ICorTp=0 IEmpDi=131
 NAtoms=   48 NActive=   48 NUniq=   48 SFac= 1.00D+00 NAtFMM=   60 NAOKFM=F Big=F
 Integral buffers will be    131072 words long.
 Raffenetti 2 integral format.
 Two-electron integral symmetry is turned on.
 R6Disp:  Grimme-D3 Dispersion energy=       -0.0043110834 Hartrees.
 Nuclear repulsion after empirical dispersion term =     2482.9703676581 Hartrees.
 Leave Link  301 at Sat Aug 13 20:21:43 2022, MaxMem=  2684354560 cpu:               1.7 elap:               0.1
 (Enter /storage/apps/GAUSSIAN/G16_RevA03/g16/l302.exe)
 NPDir=0 NMtPBC=     1 NCelOv=     1 NCel=       1 NClECP=     1 NCelD=      1
         NCelK=      1 NCelE2=     1 NClLst=     1 CellRange=     0.0.
 One-electron integrals computed using PRISM.
 One-electron integral symmetry used in STVInt
   1 Symmetry operations used in ECPInt.
 ECPInt:  NShTT=   65703 NPrTT=  200010 LenC2=   56831 LenP2D=  120955.
 LDataN:  DoStor=T MaxTD1= 6 Len=  172
 NBasis=   894 RedAO= T EigKep=  2.85D-05  NBF=   894
 NBsUse=   894 1.00D-06 EigRej= -1.00D+00 NBFU=   894
 Precomputing XC quadrature grid using
 IXCGrd= 4 IRadAn=           5 IRanWt=          -1 IRanGd=           0 AccXCQ= 0.00D+00.
 Generated NRdTot=       0 NPtTot=           0 NUsed=           0 NTot=          32
 NSgBfM=   998   997   998   998   998 MxSgAt=    48 MxSgA2=    48.
 Leave Link  302 at Sat Aug 13 20:21:44 2022, MaxMem=  2684354560 cpu:              18.6 elap:               1.2
 (Enter /storage/apps/GAUSSIAN/G16_RevA03/g16/l303.exe)
 DipDrv:  MaxL=1.
 Leave Link  303 at Sat Aug 13 20:21:44 2022, MaxMem=  2684354560 cpu:               2.4 elap:               0.2
 (Enter /storage/apps/GAUSSIAN/G16_RevA03/g16/l401.exe)
 ExpMin= 9.52D-02 ExpMax= 6.07D+04 ExpMxC= 2.07D+03 IAcc=3 IRadAn=         5 AccDes= 0.00D+00
 Harris functional with IExCor= 1009 and IRadAn=       5 diagonalized for initial guess.
 HarFok:  IExCor= 1009 AccDes= 0.00D+00 IRadAn=         5 IDoV= 1 UseB2=F ITyADJ=14
 ICtDFT=  3500011 ScaDFX=  1.000000  1.000000  1.000000  1.000000
 FoFCou: FMM=F IPFlag=           0 FMFlag=      100000 FMFlg1=           0
         NFxFlg=           0 DoJE=T BraDBF=F KetDBF=T FulRan=T
         wScrn=  0.000000 ICntrl=       500 IOpCl=  0 I1Cent=   200000004 NGrid=           0
         NMat0=    1 NMatS0=      1 NMatT0=    0 NMatD0=    1 NMtDS0=    0 NMtDT0=    0
 Petite list used in FoFCou.
 Harris En= -1507.25416540227    
 JPrj=0 DoOrth=F DoCkMO=F.
 Leave Link  401 at Sat Aug 13 20:21:48 2022, MaxMem=  2684354560 cpu:              60.7 elap:               3.9
 (Enter /storage/apps/GAUSSIAN/G16_RevA03/g16/l502.exe)
 Integral symmetry usage will be decided dynamically.
 Closed shell SCF:
 Using DIIS extrapolation, IDIIS=  1040.
 NGot=  2684354560 LenX=  2682272944 LenY=  2681243734
 Requested convergence on RMS density matrix=1.00D-08 within 128 cycles.
 Requested convergence on MAX density matrix=1.00D-06.
 Requested convergence on             energy=1.00D-06.
 No special actions if energy rises.
 Fock matrices will be formed incrementally for  20 cycles.
 Integral accuracy reduced to 1.0D-05 until final iterations.

 Cycle   1  Pass 0  IDiag  1:
 FoFJK:  IHMeth= 1 ICntrl=       0 DoSepK=F KAlg= 0 I1Cent=           0 FoldK=F
 IRaf= 790000000 NMat=       1 IRICut=       1 DoRegI=T DoRafI=F ISym2E= 0 IDoP0=0 IntGTp=1.
 FoFCou: FMM=F IPFlag=           0 FMFlag=      100000 FMFlg1=           0
         NFxFlg=           0 DoJE=F BraDBF=F KetDBF=F FulRan=T
         wScrn=  0.000000 ICntrl=         0 IOpCl=  0 I1Cent=           0 NGrid=           0
         NMat0=    1 NMatS0=      1 NMatT0=    0 NMatD0=    1 NMtDS0=    0 NMtDT0=    0
 Symmetry not used in FoFCou.
 E= -1507.18590524436    
 DIIS: error= 1.44D-02 at cycle   1 NSaved=   1.
 NSaved= 1 IEnMin= 1 EnMin= -1507.18590524436     IErMin= 1 ErrMin= 1.44D-02
 ErrMax= 1.44D-02  0.00D+00 EMaxC= 1.00D-01 BMatC= 1.00D+00 BMatP= 1.00D+00
 IDIUse=3 WtCom= 8.56D-01 WtEn= 1.44D-01
 Coeff-Com:  0.100D+01
 Coeff-En:   0.100D+01
 Coeff:      0.100D+01
 Gap=     0.300 Goal=   None    Shift=    0.000
 GapD=    0.300 DampG=1.000 DampE=0.500 DampFc=0.5000 IDamp=-1.
 Damping current iteration by 5.00D-01
 RMSDP=4.51D-03 MaxDP=1.80D+00              OVMax= 2.14D-01

 Cycle   2  Pass 0  IDiag  1:
 RMSU=  2.25D-03    CP:  1.02D+00
 E= -1507.53079098333     Delta-E=       -0.344885738974 Rises=F Damp=T
 DIIS: error= 3.72D-03 at cycle   2 NSaved=   2.
 NSaved= 2 IEnMin= 2 EnMin= -1507.53079098333     IErMin= 2 ErrMin= 3.72D-03
 ErrMax= 3.72D-03  0.00D+00 EMaxC= 1.00D-01 BMatC= 8.65D-02 BMatP= 1.00D+00
 IDIUse=3 WtCom= 9.63D-01 WtEn= 3.72D-02
 Coeff-Com: -0.170D-01 0.102D+01
 Coeff-En:   0.151D-01 0.985D+00
 Coeff:     -0.158D-01 0.102D+01
 Gap=     0.318 Goal=   None    Shift=    0.000
 RMSDP=1.38D-03 MaxDP=5.34D-01 DE=-3.45D-01 OVMax= 1.70D-01

 Cycle   3  Pass 0  IDiag  1:
 RMSU=  1.08D-03    CP:  1.00D+00  6.19D-01
 E= -1507.88971716300     Delta-E=       -0.358926179672 Rises=F Damp=F
 DIIS: error= 3.94D-03 at cycle   3 NSaved=   3.
 NSaved= 3 IEnMin= 3 EnMin= -1507.88971716300     IErMin= 2 ErrMin= 3.72D-03
 ErrMax= 3.94D-03  0.00D+00 EMaxC= 1.00D-01 BMatC= 5.14D-02 BMatP= 8.65D-02
 IDIUse=3 WtCom= 9.61D-01 WtEn= 3.94D-02
 Coeff-Com: -0.837D-01 0.458D+00 0.626D+00
 Coeff-En:   0.000D+00 0.000D+00 0.100D+01
 Coeff:     -0.804D-01 0.440D+00 0.641D+00
 Gap=     0.208 Goal=   None    Shift=    0.000
 RMSDP=3.76D-04 MaxDP=7.72D-02 DE=-3.59D-01 OVMax= 6.79D-02

 Cycle   4  Pass 0  IDiag  1:
 RMSU=  3.11D-04    CP:  1.00D+00  7.04D-01  9.17D-01
 E= -1507.92276655996     Delta-E=       -0.033049396960 Rises=F Damp=F
 DIIS: error= 1.99D-03 at cycle   4 NSaved=   4.
 NSaved= 4 IEnMin= 4 EnMin= -1507.92276655996     IErMin= 4 ErrMin= 1.99D-03
 ErrMax= 1.99D-03  0.00D+00 EMaxC= 1.00D-01 BMatC= 1.02D-02 BMatP= 5.14D-02
 IDIUse=3 WtCom= 9.80D-01 WtEn= 1.99D-02
 Coeff-Com: -0.371D-01 0.996D-01 0.346D+00 0.592D+00
 Coeff-En:   0.000D+00 0.000D+00 0.134D+00 0.866D+00
 Coeff:     -0.364D-01 0.976D-01 0.342D+00 0.597D+00
 Gap=     0.208 Goal=   None    Shift=    0.000
 RMSDP=1.28D-04 MaxDP=1.86D-02 DE=-3.30D-02 OVMax= 1.72D-02

 Cycle   5  Pass 0  IDiag  1:
 RMSU=  7.92D-05    CP:  1.00D+00  6.87D-01  9.45D-01  7.18D-01
 E= -1507.93026570826     Delta-E=       -0.007499148296 Rises=F Damp=F
 DIIS: error= 3.01D-04 at cycle   5 NSaved=   5.
 NSaved= 5 IEnMin= 5 EnMin= -1507.93026570826     IErMin= 5 ErrMin= 3.01D-04
 ErrMax= 3.01D-04  0.00D+00 EMaxC= 1.00D-01 BMatC= 4.11D-04 BMatP= 1.02D-02
 IDIUse=3 WtCom= 9.97D-01 WtEn= 3.01D-03
 Coeff-Com: -0.107D-01 0.186D-01 0.120D+00 0.267D+00 0.605D+00
 Coeff-En:   0.000D+00 0.000D+00 0.000D+00 0.000D+00 0.100D+01
 Coeff:     -0.107D-01 0.185D-01 0.120D+00 0.266D+00 0.606D+00
 Gap=     0.207 Goal=   None    Shift=    0.000
 RMSDP=4.89D-05 MaxDP=1.68D-02 DE=-7.50D-03 OVMax= 4.07D-03

 Cycle   6  Pass 0  IDiag  1:
 RMSU=  3.20D-05    CP:  1.00D+00  6.73D-01  9.57D-01  7.33D-01  8.88D-01
 E= -1507.93059329418     Delta-E=       -0.000327585919 Rises=F Damp=F
 DIIS: error= 1.62D-04 at cycle   6 NSaved=   6.
 NSaved= 6 IEnMin= 6 EnMin= -1507.93059329418     IErMin= 6 ErrMin= 1.62D-04
 ErrMax= 1.62D-04  0.00D+00 EMaxC= 1.00D-01 BMatC= 5.33D-05 BMatP= 4.11D-04
 IDIUse=3 WtCom= 9.98D-01 WtEn= 1.62D-03
 Coeff-Com:  0.129D-03-0.413D-02 0.129D-01 0.440D-01 0.274D+00 0.673D+00
 Coeff-En:   0.000D+00 0.000D+00 0.000D+00 0.000D+00 0.000D+00 0.100D+01
 Coeff:      0.128D-03-0.412D-02 0.129D-01 0.439D-01 0.274D+00 0.674D+00
 Gap=     0.209 Goal=   None    Shift=    0.000
 RMSDP=2.05D-05 MaxDP=4.36D-03 DE=-3.28D-04 OVMax= 3.32D-03

 Cycle   7  Pass 0  IDiag  1:
 RMSU=  1.67D-05    CP:  1.00D+00  6.69D-01  9.62D-01  7.37D-01  9.66D-01
                    CP:  1.01D+00
 E= -1507.93065644515     Delta-E=       -0.000063150968 Rises=F Damp=F
 DIIS: error= 7.64D-05 at cycle   7 NSaved=   7.
 NSaved= 7 IEnMin= 7 EnMin= -1507.93065644515     IErMin= 7 ErrMin= 7.64D-05
 ErrMax= 7.64D-05  0.00D+00 EMaxC= 1.00D-01 BMatC= 9.00D-06 BMatP= 5.33D-05
 IDIUse=1 WtCom= 1.00D+00 WtEn= 0.00D+00
 Coeff-Com:  0.182D-02-0.496D-02-0.119D-01-0.243D-01 0.138D-01 0.289D+00
 Coeff-Com:  0.737D+00
 Coeff:      0.182D-02-0.496D-02-0.119D-01-0.243D-01 0.138D-01 0.289D+00
 Coeff:      0.737D+00
 Gap=     0.209 Goal=   None    Shift=    0.000
 RMSDP=1.80D-05 MaxDP=6.04D-03 DE=-6.32D-05 OVMax= 1.96D-03

 Cycle   8  Pass 0  IDiag  1:
 RMSU=  1.05D-05    CP:  1.00D+00  6.64D-01  9.63D-01  7.42D-01  1.03D+00
                    CP:  1.22D+00  1.27D+00
 E= -1507.93066378718     Delta-E=       -0.000007342035 Rises=F Damp=F
 DIIS: error= 2.86D-05 at cycle   8 NSaved=   8.
 NSaved= 8 IEnMin= 8 EnMin= -1507.93066378718     IErMin= 8 ErrMin= 2.86D-05
 ErrMax= 2.86D-05  0.00D+00 EMaxC= 1.00D-01 BMatC= 2.04D-06 BMatP= 9.00D-06
 IDIUse=1 WtCom= 1.00D+00 WtEn= 0.00D+00
 Coeff-Com:  0.956D-03-0.177D-02-0.794D-02-0.222D-01-0.462D-01 0.109D-01
 Coeff-Com:  0.358D+00 0.708D+00
 Coeff:      0.956D-03-0.177D-02-0.794D-02-0.222D-01-0.462D-01 0.109D-01
 Coeff:      0.358D+00 0.708D+00
 Gap=     0.209 Goal=   None    Shift=    0.000
 RMSDP=1.82D-05 MaxDP=3.66D-03 DE=-7.34D-06 OVMax= 7.09D-04

 Cycle   9  Pass 0  IDiag  1:
 RMSU=  9.27D-06    CP:  1.00D+00  6.61D-01  9.64D-01  7.43D-01  1.07D+00
                    CP:  1.38D+00  1.72D+00  2.00D+00
 E= -1507.93065373661     Delta-E=        0.000010050569 Rises=F Damp=F
 DIIS: error= 2.75D-05 at cycle   9 NSaved=   9.
 NSaved= 9 IEnMin= 8 EnMin= -1507.93066378718     IErMin= 9 ErrMin= 2.75D-05
 ErrMax= 2.75D-05  0.00D+00 EMaxC= 1.00D-01 BMatC= 5.18D-07 BMatP= 2.04D-06
 IDIUse=1 WtCom= 1.00D+00 WtEn= 0.00D+00
 Coeff-Com:  0.373D-03-0.602D-03-0.300D-02-0.100D-01-0.240D-01-0.150D-01
 Coeff-Com:  0.135D+00 0.372D+00 0.545D+00
 Coeff:      0.373D-03-0.602D-03-0.300D-02-0.100D-01-0.240D-01-0.150D-01
 Coeff:      0.135D+00 0.372D+00 0.545D+00
 Gap=     0.209 Goal=   None    Shift=    0.000
 RMSDP=1.86D-05 MaxDP=2.47D-03 DE= 1.01D-05 OVMax= 1.75D-04

 Cycle  10  Pass 0  IDiag  1:
 RMSU=  4.57D-06    CP:  1.00D+00  6.60D-01  9.65D-01  7.46D-01  1.09D+00
                    CP:  1.52D+00  2.13D+00  3.00D+00  2.15D+00
 E= -1507.93064353237     Delta-E=        0.000010204245 Rises=F Damp=F
 DIIS: error= 4.00D-05 at cycle  10 NSaved=  10.
 NSaved=10 IEnMin= 8 EnMin= -1507.93066378718     IErMin= 9 ErrMin= 2.75D-05
 ErrMax= 4.00D-05  0.00D+00 EMaxC= 1.00D-01 BMatC= 8.87D-07 BMatP= 5.18D-07
 IDIUse=1 WtCom= 1.00D+00 WtEn= 0.00D+00
 Coeff-Com:  0.359D-03-0.472D-03-0.300D-02-0.111D-01-0.301D-01-0.339D-01
 Coeff-Com:  0.128D+00 0.466D+00 0.108D+01-0.593D+00
 Coeff:      0.359D-03-0.472D-03-0.300D-02-0.111D-01-0.301D-01-0.339D-01
 Coeff:      0.128D+00 0.466D+00 0.108D+01-0.593D+00
 Gap=     0.209 Goal=   None    Shift=    0.000
 RMSDP=2.18D-05 MaxDP=1.62D-03 DE= 1.02D-05 OVMax= 4.92D-05

 Problem detected with inexpensive integrals.
 Switching to full accuracy and repeating last cycle.
 Cycle  11  Pass 1  IDiag  1:
 E= -1507.93060709753     Delta-E=        0.000036434842 Rises=F Damp=F
 DIIS: error= 2.99D-04 at cycle   1 NSaved=   1.
 NSaved= 1 IEnMin= 1 EnMin= -1507.93060709753     IErMin= 1 ErrMin= 2.99D-04
 ErrMax= 2.99D-04  0.00D+00 EMaxC= 1.00D-01 BMatC= 8.72D-05 BMatP= 8.72D-05
 IDIUse=3 WtCom= 9.97D-01 WtEn= 2.99D-03
 Coeff-Com:  0.100D+01
 Coeff-En:   0.100D+01
 Coeff:      0.100D+01
 Gap=     0.209 Goal=   None    Shift=    0.000
 RMSDP=4.15D-04 MaxDP=2.94D-02 DE= 3.64D-05 OVMax= 8.79D-04

 Cycle  12  Pass 1  IDiag  1:
 RMSU=  4.14D-04    CP:  9.95D-01
 E= -1507.93066143339     Delta-E=       -0.000054335863 Rises=F Damp=F
 DIIS: error= 7.91D-06 at cycle   2 NSaved=   2.
 NSaved= 2 IEnMin= 2 EnMin= -1507.93066143339     IErMin= 2 ErrMin= 7.91D-06
 ErrMax= 7.91D-06  0.00D+00 EMaxC= 1.00D-01 BMatC= 8.59D-08 BMatP= 8.72D-05
 IDIUse=1 WtCom= 1.00D+00 WtEn= 0.00D+00
 Coeff-Com: -0.161D-01 0.102D+01
 Coeff:     -0.161D-01 0.102D+01
 Gap=     0.209 Goal=   None    Shift=    0.000
 RMSDP=1.53D-05 MaxDP=1.11D-03 DE=-5.43D-05 OVMax= 9.96D-05

 Cycle  13  Pass 1  IDiag  1:
 RMSU=  5.15D-06    CP:  9.95D-01  1.03D+00
 E= -1507.93066148705     Delta-E=       -0.000000053664 Rises=F Damp=F
 DIIS: error= 4.53D-06 at cycle   3 NSaved=   3.
 NSaved= 3 IEnMin= 3 EnMin= -1507.93066148705     IErMin= 3 ErrMin= 4.53D-06
 ErrMax= 4.53D-06  0.00D+00 EMaxC= 1.00D-01 BMatC= 7.88D-08 BMatP= 8.59D-08
 IDIUse=1 WtCom= 1.00D+00 WtEn= 0.00D+00
 Coeff-Com: -0.911D-02 0.539D+00 0.470D+00
 Coeff:     -0.911D-02 0.539D+00 0.470D+00
 Gap=     0.209 Goal=   None    Shift=    0.000
 RMSDP=6.42D-07 MaxDP=2.02D-04 DE=-5.37D-08 OVMax= 4.18D-05

 Cycle  14  Pass 1  IDiag  1:
 RMSU=  5.91D-07    CP:  9.95D-01  1.04D+00  1.01D+00
 E= -1507.93066154346     Delta-E=       -0.000000056407 Rises=F Damp=F
 DIIS: error= 1.07D-06 at cycle   4 NSaved=   4.
 NSaved= 4 IEnMin= 4 EnMin= -1507.93066154346     IErMin= 4 ErrMin= 1.07D-06
 ErrMax= 1.07D-06  0.00D+00 EMaxC= 1.00D-01 BMatC= 3.67D-09 BMatP= 7.88D-08
 IDIUse=1 WtCom= 1.00D+00 WtEn= 0.00D+00
 Coeff-Com: -0.385D-03 0.118D-01 0.163D+00 0.826D+00
 Coeff:     -0.385D-03 0.118D-01 0.163D+00 0.826D+00
 Gap=     0.209 Goal=   None    Shift=    0.000
 RMSDP=3.33D-07 MaxDP=2.33D-05 DE=-5.64D-08 OVMax= 2.54D-05

 Cycle  15  Pass 1  IDiag  1:
 RMSU=  1.50D-07    CP:  9.95D-01  1.04D+00  1.04D+00  1.01D+00
 E= -1507.93066154642     Delta-E=       -0.000000002957 Rises=F Damp=F
 DIIS: error= 8.10D-07 at cycle   5 NSaved=   5.
 NSaved= 5 IEnMin= 5 EnMin= -1507.93066154642     IErMin= 5 ErrMin= 8.10D-07
 ErrMax= 8.10D-07  0.00D+00 EMaxC= 1.00D-01 BMatC= 9.60D-10 BMatP= 3.67D-09
 IDIUse=1 WtCom= 1.00D+00 WtEn= 0.00D+00
 Coeff-Com:  0.562D-03-0.394D-01 0.447D-01 0.451D+00 0.543D+00
 Coeff:      0.562D-03-0.394D-01 0.447D-01 0.451D+00 0.543D+00
 Gap=     0.209 Goal=   None    Shift=    0.000
 RMSDP=7.81D-08 MaxDP=1.54D-05 DE=-2.96D-09 OVMax= 9.01D-06

 Cycle  16  Pass 1  IDiag  1:
 RMSU=  5.32D-08    CP:  9.95D-01  1.04D+00  1.05D+00  1.08D+00  1.04D+00
 E= -1507.93066154730     Delta-E=       -0.000000000879 Rises=F Damp=F
 DIIS: error= 1.34D-07 at cycle   6 NSaved=   6.
 NSaved= 6 IEnMin= 6 EnMin= -1507.93066154730     IErMin= 6 ErrMin= 1.34D-07
 ErrMax= 1.34D-07  0.00D+00 EMaxC= 1.00D-01 BMatC= 4.52D-11 BMatP= 9.60D-10
 IDIUse=1 WtCom= 1.00D+00 WtEn= 0.00D+00
 Coeff-Com:  0.223D-03-0.137D-01-0.838D-02 0.442D-01 0.147D+00 0.831D+00
 Coeff:      0.223D-03-0.137D-01-0.838D-02 0.442D-01 0.147D+00 0.831D+00
 Gap=     0.209 Goal=   None    Shift=    0.000
 RMSDP=3.28D-08 MaxDP=1.13D-05 DE=-8.79D-10 OVMax= 4.91D-06

 Cycle  17  Pass 1  IDiag  1:
 RMSU=  1.81D-08    CP:  9.95D-01  1.04D+00  1.05D+00  1.12D+00  1.12D+00
                    CP:  1.19D+00
 E= -1507.93066154739     Delta-E=       -0.000000000096 Rises=F Damp=F
 DIIS: error= 8.72D-08 at cycle   7 NSaved=   7.
 NSaved= 7 IEnMin= 7 EnMin= -1507.93066154739     IErMin= 7 ErrMin= 8.72D-08
 ErrMax= 8.72D-08  0.00D+00 EMaxC= 1.00D-01 BMatC= 1.82D-11 BMatP= 4.52D-11
 IDIUse=1 WtCom= 1.00D+00 WtEn= 0.00D+00
 Coeff-Com: -0.139D-04 0.192D-02-0.148D-01-0.740D-01-0.520D-01 0.431D+00
 Coeff-Com:  0.708D+00
 Coeff:     -0.139D-04 0.192D-02-0.148D-01-0.740D-01-0.520D-01 0.431D+00
 Coeff:      0.708D+00
 Gap=     0.209 Goal=   None    Shift=    0.000
 RMSDP=1.24D-08 MaxDP=2.06D-06 DE=-9.60D-11 OVMax= 2.64D-06

 Cycle  18  Pass 1  IDiag  1:
 RMSU=  8.07D-09    CP:  9.95D-01  1.04D+00  1.05D+00  1.12D+00  1.14D+00
                    CP:  1.29D+00  1.02D+00
 E= -1507.93066154742     Delta-E=       -0.000000000024 Rises=F Damp=F
 DIIS: error= 3.26D-08 at cycle   8 NSaved=   8.
 NSaved= 8 IEnMin= 8 EnMin= -1507.93066154742     IErMin= 8 ErrMin= 3.26D-08
 ErrMax= 3.26D-08  0.00D+00 EMaxC= 1.00D-01 BMatC= 2.22D-12 BMatP= 1.82D-11
 IDIUse=1 WtCom= 1.00D+00 WtEn= 0.00D+00
 Coeff-Com: -0.374D-04 0.281D-02-0.614D-02-0.411D-01-0.470D-01 0.883D-01
 Coeff-Com:  0.332D+00 0.672D+00
 Coeff:     -0.374D-04 0.281D-02-0.614D-02-0.411D-01-0.470D-01 0.883D-01
 Coeff:      0.332D+00 0.672D+00
 Gap=     0.209 Goal=   None    Shift=    0.000
 RMSDP=6.12D-09 MaxDP=2.40D-06 DE=-2.41D-11 OVMax= 6.77D-07

 Cycle  19  Pass 1  IDiag  1:
 RMSU=  3.02D-09    CP:  9.95D-01  1.04D+00  1.05D+00  1.13D+00  1.15D+00
                    CP:  1.32D+00  1.17D+00  1.08D+00
 E= -1507.93066154741     Delta-E=        0.000000000004 Rises=F Damp=F
 DIIS: error= 8.75D-09 at cycle   9 NSaved=   9.
 NSaved= 9 IEnMin= 8 EnMin= -1507.93066154742     IErMin= 9 ErrMin= 8.75D-09
 ErrMax= 8.75D-09  0.00D+00 EMaxC= 1.00D-01 BMatC= 2.02D-13 BMatP= 2.22D-12
 IDIUse=1 WtCom= 1.00D+00 WtEn= 0.00D+00
 Coeff-Com: -0.119D-04 0.770D-03-0.246D-03-0.420D-02-0.103D-01-0.267D-01
 Coeff-Com:  0.301D-01 0.252D+00 0.759D+00
 Coeff:     -0.119D-04 0.770D-03-0.246D-03-0.420D-02-0.103D-01-0.267D-01
 Coeff:      0.301D-01 0.252D+00 0.759D+00
 Gap=     0.209 Goal=   None    Shift=    0.000
 RMSDP=1.41D-09 MaxDP=1.22D-07 DE= 3.64D-12 OVMax= 2.55D-07

 SCF Done:  E(RM062X) =  -1507.93066155     A.U. after   19 cycles
            NFock= 19  Conv=0.14D-08     -V/T= 2.0037
 KE= 1.502383636024D+03 PE=-8.504384159748D+03 EE= 3.011099494519D+03
 Leave Link  502 at Sat Aug 13 20:30:36 2022, MaxMem=  2684354560 cpu:            8439.8 elap:             528.3
 (Enter /storage/apps/GAUSSIAN/G16_RevA03/g16/l601.exe)
 Copying SCF densities to generalized density rwf, IOpCl= 0 IROHF=0.

 **********************************************************************

            Population analysis using the SCF density.

 **********************************************************************

 Orbital symmetries:
       Occupied  (A) (A) (A) (A) (A) (A) (A) (A) (A) (A) (A) (A)
                 (A) (A) (A) (A) (A) (A) (A) (A) (A) (A) (A) (A)
                 (A) (A) (A) (A) (A) (A) (A) (A) (A) (A) (A) (A)
                 (A) (A) (A) (A) (A) (A) (A) (A) (A) (A) (A) (A)
                 (A) (A) (A) (A) (A) (A) (A) (A) (A) (A) (A) (A)
                 (A) (A) (A) (A) (A) (A) (A) (A) (A) (A) (A) (A)
                 (A) (A) (A) (A) (A) (A) (A) (A) (A) (A) (A) (A)
                 (A) (A) (A) (A) (A) (A) (A) (A) (A) (A) (A)
       Virtual   (A) (A) (A) (A) (A) (A) (A) (A) (A) (A) (A) (A)
                 (A) (A) (A) (A) (A) (A) (A) (A) (A) (A) (A) (A)
                 (A) (A) (A) (A) (A) (A) (A) (A) (A) (A) (A) (A)
                 (A) (A) (A) (A) (A) (A) (A) (A) (A) (A) (A) (A)
                 (A) (A) (A) (A) (A) (A) (A) (A) (A) (A) (A) (A)
                 (A) (A) (A) (A) (A) (A) (A) (A) (A) (A) (A) (A)
                 (A) (A) (A) (A) (A) (A) (A) (A) (A) (A) (A) (A)
                 (A) (A) (A) (A) (A) (A) (A) (A) (A) (A) (A) (A)
                 (A) (A) (A) (A) (A) (A) (A) (A) (A) (A) (A) (A)
                 (A) (A) (A) (A) (A) (A) (A) (A) (A) (A) (A) (A)
                 (A) (A) (A) (A) (A) (A) (A) (A) (A) (A) (A) (A)
                 (A) (A) (A) (A) (A) (A) (A) (A) (A) (A) (A) (A)
                 (A) (A) (A) (A) (A) (A) (A) (A) (A) (A) (A) (A)
                 (A) (A) (A) (A) (A) (A) (A) (A) (A) (A) (A) (A)
                 (A) (A) (A) (A) (A) (A) (A) (A) (A) (A) (A) (A)
                 (A) (A) (A) (A) (A) (A) (A) (A) (A) (A) (A) (A)
                 (A) (A) (A) (A) (A) (A) (A) (A) (A) (A) (A) (A)
                 (A) (A) (A) (A) (A) (A) (A) (A) (A) (A) (A) (A)
                 (A) (A) (A) (A) (A) (A) (A) (A) (A) (A) (A) (A)
                 (A) (A) (A) (A) (A) (A) (A) (A) (A) (A) (A) (A)
                 (A) (A) (A) (A) (A) (A) (A) (A) (A) (A) (A) (A)
                 (A) (A) (A) (A) (A) (A) (A) (A) (A) (A) (A) (A)
                 (A) (A) (A) (A) (A) (A) (A) (A) (A) (A) (A) (A)
                 (A) (A) (A) (A) (A) (A) (A) (A) (A) (A) (A) (A)
                 (A) (A) (A) (A) (A) (A) (A) (A) (A) (A) (A) (A)
                 (A) (A) (A) (A) (A) (A) (A) (A) (A) (A) (A) (A)
                 (A) (A) (A) (A) (A) (A) (A) (A) (A) (A) (A) (A)
                 (A) (A) (A) (A) (A) (A) (A) (A) (A) (A) (A) (A)
                 (A) (A) (A) (A) (A) (A) (A) (A) (A) (A) (A) (A)
                 (A) (A) (A) (A) (A) (A) (A) (A) (A) (A) (A) (A)
                 (A) (A) (A) (A) (A) (A) (A) (A) (A) (A) (A) (A)
                 (A) (A) (A) (A) (A) (A) (A) (A) (A) (A) (A) (A)
                 (A) (A) (A) (A) (A) (A) (A) (A) (A) (A) (A) (A)
                 (A) (A) (A) (A) (A) (A) (A) (A) (A) (A) (A) (A)
                 (A) (A) (A) (A) (A) (A) (A) (A) (A) (A) (A) (A)
                 (A) (A) (A) (A) (A) (A) (A) (A) (A) (A) (A) (A)
                 (A) (A) (A) (A) (A) (A) (A) (A) (A) (A) (A) (A)
                 (A) (A) (A) (A) (A) (A) (A) (A) (A) (A) (A) (A)
                 (A) (A) (A) (A) (A) (A) (A) (A) (A) (A) (A) (A)
                 (A) (A) (A) (A) (A) (A) (A) (A) (A) (A) (A) (A)
                 (A) (A) (A) (A) (A) (A) (A) (A) (A) (A) (A) (A)
                 (A) (A) (A) (A) (A) (A) (A) (A) (A) (A) (A) (A)
                 (A) (A) (A) (A) (A) (A) (A) (A) (A) (A) (A) (A)
                 (A) (A) (A) (A) (A) (A) (A) (A) (A) (A) (A) (A)
                 (A) (A) (A) (A) (A) (A) (A) (A) (A) (A) (A) (A)
                 (A) (A) (A) (A) (A) (A) (A) (A) (A) (A) (A) (A)
                 (A) (A) (A) (A) (A) (A) (A) (A) (A) (A) (A) (A)
                 (A) (A) (A) (A) (A) (A) (A) (A) (A) (A) (A) (A)
                 (A) (A) (A) (A) (A) (A) (A) (A) (A) (A) (A) (A)
                 (A) (A) (A) (A) (A) (A) (A) (A) (A) (A) (A) (A)
                 (A) (A) (A) (A) (A) (A) (A) (A) (A) (A) (A) (A)
                 (A) (A) (A) (A) (A) (A) (A) (A) (A) (A) (A) (A)
                 (A) (A) (A) (A) (A) (A) (A) (A) (A) (A) (A) (A)
                 (A) (A) (A) (A) (A) (A) (A) (A) (A) (A) (A) (A)
                 (A) (A) (A) (A) (A) (A) (A) (A) (A) (A) (A) (A)
                 (A) (A) (A) (A) (A) (A) (A) (A) (A) (A) (A) (A)
                 (A) (A) (A) (A) (A) (A) (A) (A) (A) (A) (A) (A)
                 (A) (A) (A) (A) (A) (A) (A) (A) (A) (A) (A) (A)
                 (A) (A) (A) (A) (A) (A) (A) (A) (A) (A) (A) (A)
                 (A) (A) (A) (A) (A) (A) (A) (A) (A) (A) (A) (A)
                 (A) (A) (A) (A) (A) (A) (A) (A) (A) (A) (A) (A)
                 (A) (A) (A) (A) (A) (A) (A) (A) (A) (A) (A) (A)
                 (A) (A) (A) (A) (A) (A) (A) (A) (A) (A) (A) (A)
                 (A) (A) (A) (A) (A) (A) (A) (A) (A) (A) (A) (A)
                 (A) (A) (A) (A) (A) (A) (A) (A) (A) (A) (A) (A)
                 (A) (A) (A) (A) (A) (A) (A) (A) (A) (A) (A) (A)
                 (A) (A) (A) (A) (A) (A) (A)
 The electronic state is 1-A.
 Alpha  occ. eigenvalues --  -89.92282 -19.63780 -19.63223 -19.62603 -19.62147
 Alpha  occ. eigenvalues --  -19.57569 -14.78859 -14.76129 -10.66419 -10.63403
 Alpha  occ. eigenvalues --  -10.62872 -10.59422 -10.59019 -10.58940 -10.58251
 Alpha  occ. eigenvalues --  -10.57498 -10.57187 -10.57161 -10.55660 -10.55555
 Alpha  occ. eigenvalues --  -10.55125 -10.53751 -10.53381 -10.53212  -8.28215
 Alpha  occ. eigenvalues --   -6.20154  -6.19918  -6.19724  -1.19419  -1.18956
 Alpha  occ. eigenvalues --   -1.15885  -1.14883  -1.13663  -1.08248  -1.00709
 Alpha  occ. eigenvalues --   -0.93114  -0.91781  -0.90493  -0.88453  -0.87439
 Alpha  occ. eigenvalues --   -0.85491  -0.83268  -0.78835  -0.76942  -0.75485
 Alpha  occ. eigenvalues --   -0.73422  -0.70714  -0.67760  -0.67607  -0.66552
 Alpha  occ. eigenvalues --   -0.63751  -0.63266  -0.61908  -0.60528  -0.58777
 Alpha  occ. eigenvalues --   -0.58128  -0.57396  -0.56523  -0.56171  -0.55109
 Alpha  occ. eigenvalues --   -0.54351  -0.52975  -0.52457  -0.51969  -0.51316
 Alpha  occ. eigenvalues --   -0.50676  -0.50334  -0.50127  -0.49216  -0.49090
 Alpha  occ. eigenvalues --   -0.48690  -0.48534  -0.47728  -0.47138  -0.46883
 Alpha  occ. eigenvalues --   -0.46013  -0.44666  -0.44189  -0.44091  -0.43749
 Alpha  occ. eigenvalues --   -0.43389  -0.43140  -0.41628  -0.41334  -0.37779
 Alpha  occ. eigenvalues --   -0.36112  -0.35550  -0.34701  -0.34646  -0.33563
 Alpha  occ. eigenvalues --   -0.33382  -0.32846  -0.32341  -0.31271  -0.24314
 Alpha virt. eigenvalues --   -0.03443   0.00494   0.04180   0.04406   0.06093
 Alpha virt. eigenvalues --    0.07030   0.07371   0.07704   0.08620   0.09124
 Alpha virt. eigenvalues --    0.09359   0.09669   0.10439   0.10544   0.10891
 Alpha virt. eigenvalues --    0.11871   0.12078   0.12343   0.12631   0.12892
 Alpha virt. eigenvalues --    0.13508   0.13835   0.13925   0.13970   0.14563
 Alpha virt. eigenvalues --    0.15339   0.15639   0.16280   0.17103   0.17483
 Alpha virt. eigenvalues --    0.18037   0.18669   0.18744   0.19024   0.19454
 Alpha virt. eigenvalues --    0.20427   0.20728   0.21343   0.22116   0.22851
 Alpha virt. eigenvalues --    0.23058   0.23355   0.23612   0.24253   0.24761
 Alpha virt. eigenvalues --    0.24829   0.25554   0.25632   0.26261   0.27137
 Alpha virt. eigenvalues --    0.27445   0.27858   0.28223   0.28477   0.29106
 Alpha virt. eigenvalues --    0.29706   0.30049   0.30316   0.30426   0.31025
 Alpha virt. eigenvalues --    0.31322   0.31873   0.33244   0.33541   0.33924
 Alpha virt. eigenvalues --    0.34312   0.35236   0.35582   0.35738   0.36323
 Alpha virt. eigenvalues --    0.36813   0.37149   0.37401   0.37965   0.38267
 Alpha virt. eigenvalues --    0.38566   0.39169   0.39927   0.40146   0.40323
 Alpha virt. eigenvalues --    0.40823   0.41226   0.41600   0.42116   0.42346
 Alpha virt. eigenvalues --    0.42709   0.43028   0.43690   0.43787   0.43952
 Alpha virt. eigenvalues --    0.44596   0.45091   0.45416   0.45620   0.46068
 Alpha virt. eigenvalues --    0.46306   0.46615   0.47066   0.47548   0.47594
 Alpha virt. eigenvalues --    0.47855   0.48076   0.48778   0.49026   0.49505
 Alpha virt. eigenvalues --    0.50012   0.50536   0.50699   0.51117   0.51411
 Alpha virt. eigenvalues --    0.51869   0.52094   0.52333   0.52577   0.52935
 Alpha virt. eigenvalues --    0.53292   0.53436   0.54138   0.54422   0.54953
 Alpha virt. eigenvalues --    0.55445   0.56014   0.56252   0.56860   0.57596
 Alpha virt. eigenvalues --    0.58278   0.58557   0.58841   0.59421   0.60090
 Alpha virt. eigenvalues --    0.60639   0.60914   0.61548   0.62141   0.62514
 Alpha virt. eigenvalues --    0.63126   0.63416   0.64857   0.65468   0.65666
 Alpha virt. eigenvalues --    0.66491   0.66676   0.66838   0.67489   0.67906
 Alpha virt. eigenvalues --    0.68505   0.69180   0.69561   0.70130   0.71284
 Alpha virt. eigenvalues --    0.71637   0.72916   0.73165   0.73706   0.74140
 Alpha virt. eigenvalues --    0.74321   0.75215   0.76258   0.76617   0.76918
 Alpha virt. eigenvalues --    0.77572   0.77982   0.79576   0.80397   0.81122
 Alpha virt. eigenvalues --    0.81603   0.82285   0.82537   0.83929   0.84790
 Alpha virt. eigenvalues --    0.85526   0.85901   0.86193   0.86950   0.87327
 Alpha virt. eigenvalues --    0.88327   0.88483   0.88610   0.89461   0.90632
 Alpha virt. eigenvalues --    0.90993   0.91429   0.92087   0.92963   0.93094
 Alpha virt. eigenvalues --    0.93573   0.94708   0.95419   0.96079   0.96322
 Alpha virt. eigenvalues --    0.96475   0.97841   0.98424   0.99066   0.99508
 Alpha virt. eigenvalues --    0.99796   1.00538   1.00907   1.02089   1.03065
 Alpha virt. eigenvalues --    1.03601   1.04635   1.05141   1.05798   1.06474
 Alpha virt. eigenvalues --    1.07603   1.07864   1.08215   1.08697   1.09298
 Alpha virt. eigenvalues --    1.10867   1.11410   1.11800   1.12135   1.12641
 Alpha virt. eigenvalues --    1.13304   1.14404   1.15120   1.16275   1.16604
 Alpha virt. eigenvalues --    1.17298   1.18554   1.19049   1.19441   1.20223
 Alpha virt. eigenvalues --    1.20800   1.21102   1.22378   1.23002   1.23484
 Alpha virt. eigenvalues --    1.24153   1.25225   1.25865   1.26978   1.28996
 Alpha virt. eigenvalues --    1.29174   1.29949   1.30827   1.30982   1.31655
 Alpha virt. eigenvalues --    1.33366   1.33861   1.34061   1.35249   1.36496
 Alpha virt. eigenvalues --    1.37189   1.37937   1.38658   1.39061   1.40598
 Alpha virt. eigenvalues --    1.41480   1.42119   1.42391   1.43104   1.44855
 Alpha virt. eigenvalues --    1.45374   1.46363   1.48403   1.48800   1.49737
 Alpha virt. eigenvalues --    1.50430   1.50672   1.51214   1.51790   1.52774
 Alpha virt. eigenvalues --    1.53311   1.53718   1.54151   1.54864   1.55175
 Alpha virt. eigenvalues --    1.56239   1.56496   1.57147   1.57354   1.58609
 Alpha virt. eigenvalues --    1.58883   1.59037   1.59643   1.59856   1.60013
 Alpha virt. eigenvalues --    1.60616   1.61292   1.61764   1.61931   1.62352
 Alpha virt. eigenvalues --    1.62918   1.63500   1.64381   1.64799   1.65857
 Alpha virt. eigenvalues --    1.66033   1.67080   1.67673   1.67798   1.68721
 Alpha virt. eigenvalues --    1.68963   1.69291   1.70048   1.70307   1.71336
 Alpha virt. eigenvalues --    1.72081   1.72991   1.73464   1.74110   1.74649
 Alpha virt. eigenvalues --    1.75685   1.76275   1.76947   1.77442   1.78012
 Alpha virt. eigenvalues --    1.78507   1.78739   1.79400   1.79897   1.80881
 Alpha virt. eigenvalues --    1.82329   1.83668   1.83935   1.84534   1.84848
 Alpha virt. eigenvalues --    1.84969   1.85504   1.86720   1.87086   1.87740
 Alpha virt. eigenvalues --    1.88254   1.88575   1.89629   1.90884   1.91755
 Alpha virt. eigenvalues --    1.92775   1.93265   1.93685   1.94087   1.94169
 Alpha virt. eigenvalues --    1.95891   1.96265   1.97107   1.97205   1.97947
 Alpha virt. eigenvalues --    1.98705   1.99234   1.99980   2.01237   2.02486
 Alpha virt. eigenvalues --    2.02721   2.03337   2.04027   2.04341   2.05240
 Alpha virt. eigenvalues --    2.05789   2.06682   2.07170   2.07761   2.08454
 Alpha virt. eigenvalues --    2.09441   2.10381   2.11266   2.12181   2.12434
 Alpha virt. eigenvalues --    2.13241   2.15222   2.16647   2.17024   2.17291
 Alpha virt. eigenvalues --    2.18502   2.19495   2.19747   2.20351   2.20867
 Alpha virt. eigenvalues --    2.21167   2.21892   2.22459   2.22864   2.23675
 Alpha virt. eigenvalues --    2.24697   2.24752   2.26243   2.26484   2.26964
 Alpha virt. eigenvalues --    2.28202   2.28639   2.29010   2.30154   2.30826
 Alpha virt. eigenvalues --    2.31375   2.31946   2.32836   2.33120   2.34120
 Alpha virt. eigenvalues --    2.34574   2.34977   2.35616   2.36085   2.36709
 Alpha virt. eigenvalues --    2.37079   2.37395   2.38491   2.38895   2.39629
 Alpha virt. eigenvalues --    2.40274   2.40920   2.41561   2.42528   2.43213
 Alpha virt. eigenvalues --    2.43627   2.44613   2.45340   2.46048   2.46910
 Alpha virt. eigenvalues --    2.48131   2.48415   2.50186   2.50413   2.51224
 Alpha virt. eigenvalues --    2.52639   2.53362   2.54036   2.55054   2.55423
 Alpha virt. eigenvalues --    2.55838   2.57285   2.57944   2.58693   2.59059
 Alpha virt. eigenvalues --    2.59432   2.60443   2.60579   2.61554   2.62356
 Alpha virt. eigenvalues --    2.62776   2.63402   2.63925   2.64321   2.64504
 Alpha virt. eigenvalues --    2.65263   2.66144   2.66789   2.67293   2.67867
 Alpha virt. eigenvalues --    2.68261   2.69237   2.69722   2.70184   2.71761
 Alpha virt. eigenvalues --    2.72252   2.72329   2.72739   2.73201   2.73993
 Alpha virt. eigenvalues --    2.74806   2.75711   2.77010   2.77606   2.79047
 Alpha virt. eigenvalues --    2.79781   2.80625   2.81362   2.82509   2.82616
 Alpha virt. eigenvalues --    2.83402   2.83850   2.84918   2.85239   2.86293
 Alpha virt. eigenvalues --    2.86852   2.87370   2.88273   2.89135   2.89880
 Alpha virt. eigenvalues --    2.90365   2.91306   2.91911   2.92048   2.92858
 Alpha virt. eigenvalues --    2.93628   2.94286   2.95042   2.95919   2.97484
 Alpha virt. eigenvalues --    2.97889   2.98420   2.98696   3.00388   3.01191
 Alpha virt. eigenvalues --    3.01867   3.03036   3.03489   3.04198   3.04541
 Alpha virt. eigenvalues --    3.05597   3.06148   3.06423   3.06941   3.07198
 Alpha virt. eigenvalues --    3.08294   3.08537   3.09183   3.09430   3.09585
 Alpha virt. eigenvalues --    3.10819   3.11774   3.12226   3.12457   3.12983
 Alpha virt. eigenvalues --    3.13734   3.14137   3.14381   3.15000   3.15382
 Alpha virt. eigenvalues --    3.16061   3.16828   3.17045   3.17643   3.18091
 Alpha virt. eigenvalues --    3.18439   3.19149   3.19444   3.20087   3.20857
 Alpha virt. eigenvalues --    3.21481   3.21927   3.23303   3.23659   3.24458
 Alpha virt. eigenvalues --    3.24762   3.25086   3.26148   3.27263   3.27379
 Alpha virt. eigenvalues --    3.28048   3.28696   3.29712   3.30735   3.31666
 Alpha virt. eigenvalues --    3.31937   3.32336   3.32899   3.33460   3.34424
 Alpha virt. eigenvalues --    3.34918   3.35319   3.36039   3.36361   3.36814
 Alpha virt. eigenvalues --    3.37615   3.37842   3.38405   3.39142   3.39844
 Alpha virt. eigenvalues --    3.40364   3.41490   3.41730   3.42615   3.42831
 Alpha virt. eigenvalues --    3.44362   3.45112   3.45350   3.45747   3.46334
 Alpha virt. eigenvalues --    3.47298   3.47503   3.48667   3.49478   3.50042
 Alpha virt. eigenvalues --    3.50908   3.51765   3.52499   3.53290   3.54698
 Alpha virt. eigenvalues --    3.55196   3.55847   3.55980   3.56583   3.56960
 Alpha virt. eigenvalues --    3.58525   3.59370   3.59922   3.60658   3.61862
 Alpha virt. eigenvalues --    3.62195   3.62518   3.63110   3.64915   3.65443
 Alpha virt. eigenvalues --    3.65824   3.66402   3.67902   3.68437   3.69222
 Alpha virt. eigenvalues --    3.69563   3.71313   3.71632   3.73686   3.74881
 Alpha virt. eigenvalues --    3.75263   3.76277   3.77258   3.78083   3.78817
 Alpha virt. eigenvalues --    3.80097   3.80810   3.81996   3.82113   3.82671
 Alpha virt. eigenvalues --    3.85085   3.86033   3.87090   3.87880   3.89121
 Alpha virt. eigenvalues --    3.90861   3.91433   3.92970   3.93946   3.95180
 Alpha virt. eigenvalues --    3.95978   3.96830   3.97780   3.99404   4.00619
 Alpha virt. eigenvalues --    4.02296   4.02702   4.03923   4.05660   4.07268
 Alpha virt. eigenvalues --    4.09032   4.10473   4.12120   4.12373   4.13999
 Alpha virt. eigenvalues --    4.14934   4.16388   4.17003   4.18051   4.18790
 Alpha virt. eigenvalues --    4.19170   4.19854   4.20878   4.22025   4.23965
 Alpha virt. eigenvalues --    4.25499   4.26526   4.29576   4.30719   4.32536
 Alpha virt. eigenvalues --    4.32901   4.34850   4.36317   4.37677   4.38547
 Alpha virt. eigenvalues --    4.38889   4.40423   4.42073   4.42517   4.43471
 Alpha virt. eigenvalues --    4.44707   4.46490   4.47632   4.49092   4.50636
 Alpha virt. eigenvalues --    4.52634   4.53235   4.54049   4.57019   4.59240
 Alpha virt. eigenvalues --    4.61601   4.64339   4.65601   4.67147   4.67418
 Alpha virt. eigenvalues --    4.69077   4.69668   4.71376   4.72813   4.74477
 Alpha virt. eigenvalues --    4.75490   4.76805   4.79932   4.82351   4.84759
 Alpha virt. eigenvalues --    4.86551   4.88131   4.89843   4.90550   4.92847
 Alpha virt. eigenvalues --    4.94365   4.95184   4.98589   4.99582   5.01312
 Alpha virt. eigenvalues --    5.02580   5.04012   5.04537   5.07330   5.08957
 Alpha virt. eigenvalues --    5.12876   5.14147   5.14779   5.19122   5.20979
 Alpha virt. eigenvalues --    5.22159   5.24552   5.25658   5.26757   5.30311
 Alpha virt. eigenvalues --    5.30444   5.31461   5.31589   5.32482   5.38717
 Alpha virt. eigenvalues --    5.40300   5.42602   5.44441   5.47086   5.49111
 Alpha virt. eigenvalues --    5.49970   5.50891   5.53645   5.55198   5.56178
 Alpha virt. eigenvalues --    5.64589   5.69158   5.76054   5.77261   5.79633
 Alpha virt. eigenvalues --    5.80173   5.82246   5.82994   5.84023   5.89055
 Alpha virt. eigenvalues --    5.89654   5.92200   5.93930   5.96785   5.98351
 Alpha virt. eigenvalues --    5.99935   6.06752   6.07531   6.16333   6.18697
 Alpha virt. eigenvalues --    6.21796   6.25522   6.28463   6.30056   6.38804
 Alpha virt. eigenvalues --    6.39124   6.43617   6.44919   6.48712   6.54356
 Alpha virt. eigenvalues --    6.59252   6.62357   6.72742   6.76483   6.77446
 Alpha virt. eigenvalues --    6.77729   6.82800   6.84216   6.85469   6.86280
 Alpha virt. eigenvalues --    6.87160   6.98318   7.00505   7.04774   7.09183
 Alpha virt. eigenvalues --    7.11560   7.15012   7.15277   7.18264   7.22877
 Alpha virt. eigenvalues --    7.31760   7.36097   9.01986   9.39357   9.55176
 Alpha virt. eigenvalues --   19.98727  22.33154  22.46495  22.49984  22.52171
 Alpha virt. eigenvalues --   22.60125  22.66696  22.75352  22.77829  22.84916
 Alpha virt. eigenvalues --   22.91988  23.00824  23.02092  23.08749  23.10099
 Alpha virt. eigenvalues --   23.28817  23.52420  32.20007  33.24182  44.17436
 Alpha virt. eigenvalues --   44.19209  44.26300  44.29440  44.54557
          Condensed to atoms (all electrons):
               1          2          3          4          5          6
     1  C    5.156704   0.425960   0.409863   0.012221  -0.008025  -0.000246
     2  H    0.425960   0.498513  -0.015552  -0.002364   0.000455  -0.000005
     3  H    0.409863  -0.015552   0.520555  -0.000837   0.000342  -0.000012
     4  C    0.012221  -0.002364  -0.000837   5.630706   0.540264   0.184148
     5  H   -0.008025   0.000455   0.000342   0.540264   0.521423  -0.037209
     6  O   -0.000246  -0.000005  -0.000012   0.184148  -0.037209   8.149238
     7  H    0.000035  -0.000003  -0.000001  -0.056300  -0.008659   0.322608
     8  C   -0.011880   0.010994  -0.001173  -0.012562  -0.098193  -0.052235
     9  H    0.005026  -0.000352  -0.001694  -0.071693   0.002150   0.001102
    10  O    0.005493  -0.000186  -0.000035   0.057105   0.005690  -0.021288
[...]
 -------------------------------------------------------------------
      1        6           0.000279758   -0.000061127   -0.000030480
      2        1           0.000023355   -0.000004136   -0.000006457
      3        1           0.000007613   -0.000019364   -0.000000900
      4        6           0.000275517   -0.000119085   -0.000196339
      5        1           0.000000019   -0.000015769    0.000000294
      6        8           0.000107803   -0.000139767   -0.000410285
      7        1          -0.000065662   -0.000031660    0.000020641
      8        6           0.000311289   -0.000029152   -0.000063262
      9        1           0.000015505   -0.000002371    0.000002058
     10        8           0.000440114   -0.000019830   -0.000064914
     11        1           0.000023543   -0.000021554    0.000022306
     12        6           0.000295547   -0.000154154   -0.000202186
     13        1           0.000045325   -0.000013550   -0.000035580
     14        6           0.000374577   -0.000009228   -0.000038558
     15        1           0.000022263   -0.000008494   -0.000010390
     16        8           0.000617572   -0.000015668   -0.000180164
     17        7           0.000294115   -0.000172208   -0.000239470
     18        6          -0.000105792   -0.000199516    0.000316509
     19        1          -0.000091365   -0.000027417    0.000101777
     20        6           0.000180894   -0.000112504   -0.000313828
     21        1          -0.000011954    0.000007075    0.000058723
     22        6           0.001040930    0.000008212   -0.001731175
     23        1           0.000207516   -0.000034685   -0.000158043
     24        1          -0.000016682    0.000054594   -0.000070379
     25        6           0.000786189   -0.000012005   -0.001180732
     26        6           0.000508841   -0.000116981   -0.000456681
     27        1           0.000019232   -0.000006973    0.000020759
     28        6           0.000393253    0.000038481   -0.000208919
     29        8          -0.000390550    0.000181910    0.001736525
     30        7           0.000363968   -0.000025530   -0.000396905
     31        1           0.000168910   -0.000077325   -0.000211210
     32        1           0.000325710   -0.000000143   -0.000589723
     33        1          -0.000018706    0.000007375    0.000010140
     34        6           0.000273561    0.000044678   -0.000748873
     35        6          -0.001066166    0.000192895    0.000853223
     36        6          -0.001090455    0.000303924    0.001124219
     37        6          -0.000628140    0.000361375    0.000497387
     38        6          -0.001671614    0.000045422    0.001686657
     39        8          -0.001599433   -0.000009612    0.001479265
     40       16          -0.000185661    0.000578973   -0.000439417
     41        1           0.000067843   -0.000004263   -0.000106256
     42        1          -0.000034612   -0.000040375   -0.000094679
     43        1          -0.000419447   -0.000313971    0.000185217
     44        1          -0.000083541    0.000011476    0.000099309
     45        1           0.000066688   -0.000051067   -0.000206133
     46        1          -0.000081398    0.000026084    0.000201670
     47        1          -0.000012500   -0.000013561    0.000033628
     48        1           0.000036225    0.000020572   -0.000058369
 -------------------------------------------------------------------
 Cartesian Forces:  Max     0.001736525 RMS     0.000456942
 Leave Link  716 at Sat Aug 13 20:33:48 2022, MaxMem=  2684354560 cpu:               0.8 elap:               0.1
 (Enter /storage/apps/GAUSSIAN/G16_RevA03/g16/l103.exe)

 GradGradGradGradGradGradGradGradGradGradGradGradGradGradGradGradGradGrad
 Berny optimization.
 Search for a local minimum.
 Step number   1 out of a maximum of    2
 All quantities printed in internal units (Hartrees-Bohrs-Radians)
 Second derivative matrix not updated -- first step.
 ITU=  0
     Eigenvalues ---    0.00036   0.00092   0.00103   0.00125   0.00186
     Eigenvalues ---    0.00242   0.00311   0.00386   0.00423   0.00454
     Eigenvalues ---    0.00563   0.00730   0.00833   0.00896   0.00917
     Eigenvalues ---    0.01030   0.01072   0.01186   0.01385   0.01517
     Eigenvalues ---    0.01699   0.01895   0.02347   0.02497   0.02630
     Eigenvalues ---    0.02955   0.03206   0.03377   0.03763   0.03864
     Eigenvalues ---    0.04375   0.04625   0.04929   0.05110   0.05261
     Eigenvalues ---    0.05367   0.05540   0.05741   0.05853   0.05878
     Eigenvalues ---    0.06093   0.06160   0.06350   0.06397   0.06693
     Eigenvalues ---    0.06962   0.07512   0.07701   0.07929   0.08155
     Eigenvalues ---    0.08587   0.08695   0.09070   0.09809   0.10290
     Eigenvalues ---    0.10527   0.11661   0.12139   0.12418   0.12541
     Eigenvalues ---    0.13001   0.13122   0.13217   0.13658   0.13759
     Eigenvalues ---    0.13993   0.14103   0.15393   0.16025   0.16609
     Eigenvalues ---    0.16845   0.18605   0.19122   0.19727   0.19864
     Eigenvalues ---    0.20034   0.21133   0.21881   0.21950   0.22253
     Eigenvalues ---    0.25414   0.27286   0.27485   0.28222   0.31246
     Eigenvalues ---    0.33003   0.34258   0.35054   0.35314   0.36708
     Eigenvalues ---    0.38159   0.38159   0.38159   0.38159   0.40224
     Eigenvalues ---    0.42823   0.45205   0.48000   0.56057   0.56613
     Eigenvalues ---    0.61645   0.66504   0.69501   0.69842   0.74212
     Eigenvalues ---    0.78874   0.82425   0.87578   0.89170   0.91113
     Eigenvalues ---    0.91353   0.91996   0.93907   0.94515   0.94908
     Eigenvalues ---    0.95854   0.97239   0.99842   1.01651   1.02971
     Eigenvalues ---    1.05622   1.06849   1.09936   1.11474   1.14162
     Eigenvalues ---    1.19520   1.19910   1.25688   1.27354   1.30207
     Eigenvalues ---    1.33530   1.44842   1.52062   1.63936   1.70136
     Eigenvalues ---    1.79457   2.18606   2.27827
 Quadratic step=2.861D+00 exceeds max=3.000D-01 adjusted using Lamda=-7.001D-03.
 Angle between NR and scaled steps=  49.08 degrees.
 Angle between quadratic step and forces=  48.70 degrees.
 Linear search not attempted -- first point.
 Variable       Old X    -DE/DX   Delta X   Delta X   Delta X     New X
                                 (Linear)    (Quad)   (Total)
    X1        6.81981   0.00028   0.00000  -0.00411  -0.00411   6.81570
    Y1       -6.83898  -0.00006   0.00000   0.00228   0.00228  -6.83670
    Z1       -0.83801  -0.00003   0.00000   0.00686   0.00686  -0.83116
    X2        7.10126   0.00002   0.00000  -0.00997  -0.00997   7.09129
    Y2       -7.02349  -0.00000   0.00000  -0.00429  -0.00429  -7.02778
    Z2       -2.86861  -0.00001   0.00000   0.00737   0.00737  -2.86124
    X3        8.19411   0.00001   0.00000  -0.01039  -0.01039   8.18372
    Y3       -8.02908  -0.00002   0.00000  -0.00109  -0.00109  -8.03017
    Z3        0.13288  -0.00000   0.00000   0.01113   0.01113   0.14401
    X4        3.57963   0.00028   0.00000   0.00385   0.00385   3.58348
    Y4       -2.74678  -0.00012   0.00000   0.00004   0.00004  -2.74674
    Z4        2.32107  -0.00020   0.00000  -0.00998  -0.00998   2.31108
    X5        2.35330   0.00000   0.00000   0.00388   0.00388   2.35718
    Y5       -4.39648  -0.00002   0.00000  -0.00155  -0.00155  -4.39803
    Z5        2.06659   0.00000   0.00000  -0.00205  -0.00205   2.06455
    X6        2.83697   0.00011   0.00000   0.00189   0.00189   2.83886
    Y6       -1.30952  -0.00014   0.00000   0.00192   0.00192  -1.30759
    Z6        4.40825  -0.00041   0.00000  -0.01239  -0.01239   4.39585
    X7        1.07936  -0.00007   0.00000  -0.00342  -0.00342   1.07594
    Y7       -0.81038  -0.00003   0.00000  -0.00896  -0.00896  -0.81933
    Z7        4.17375   0.00002   0.00000   0.00092   0.00092   4.17467
    X8        6.31712   0.00031   0.00000   0.00497   0.00497   6.32209
    Y8       -3.57394  -0.00003   0.00000   0.00572   0.00572  -3.56821
    Z8        2.65416  -0.00006   0.00000  -0.00370  -0.00370   2.65047
    X9        6.49287   0.00002   0.00000   0.00144   0.00144   6.49431
    Y9       -5.24841  -0.00000   0.00000   0.00865   0.00865  -5.23976
    Z9        3.85563   0.00000   0.00000   0.00178   0.00178   3.85741
   X10        7.75144   0.00044   0.00000   0.00320   0.00320   7.75464
   Y10       -1.55086  -0.00002   0.00000   0.00757   0.00757  -1.54330
   Z10        3.62089  -0.00006   0.00000  -0.00414  -0.00414   3.61674
   X11        6.72724   0.00002   0.00000   0.00308   0.00308   6.73033
   Y11       -0.73979  -0.00002   0.00000   0.00140   0.00140  -0.73839
   Z11        4.89600   0.00002   0.00000   0.00070   0.00070   4.89671
   X12        3.72720   0.00030   0.00000   0.00579   0.00579   3.73300
   Y12       -1.26112  -0.00015   0.00000  -0.00329  -0.00329  -1.26441
   Z12       -0.17536  -0.00020   0.00000  -0.01243  -0.01243  -0.18778
   X13        4.29366   0.00005   0.00000  -0.00367  -0.00367   4.28999
   Y13        0.68627  -0.00001   0.00000  -0.00173  -0.00173   0.68454
   Z13        0.23435  -0.00004   0.00000  -0.00553  -0.00553   0.22882
   X14        7.13537   0.00037   0.00000   0.00851   0.00851   7.14388
   Y14       -4.10026  -0.00001   0.00000   0.00215   0.00215  -4.09811
   Z14       -0.05683  -0.00004   0.00000  -0.00105  -0.00105  -0.05788
   X15        9.09154   0.00002   0.00000   0.00979   0.00979   9.10133
   Y15       -3.49369  -0.00001   0.00000  -0.00269  -0.00269  -3.49637
   Z15       -0.29881  -0.00001   0.00000   0.00471   0.00471  -0.29409
   X16        5.57341   0.00062   0.00000   0.01594   0.01594   5.58934
   Y16       -2.52818  -0.00002   0.00000   0.00361   0.00361  -2.52456
   Z16       -1.61908  -0.00018   0.00000  -0.00703  -0.00703  -1.62611
   X17        1.41264   0.00029   0.00000   0.00879   0.00879   1.42143
   Y17       -1.14078  -0.00017   0.00000  -0.00574  -0.00574  -1.14652
   Z17       -1.60326  -0.00024   0.00000  -0.01886  -0.01886  -1.62212
   X18        0.34104  -0.00011   0.00000  -0.00252  -0.00252   0.33852
   Y18       -3.36727  -0.00020   0.00000  -0.00590  -0.00590  -3.37317
   Z18       -2.51319   0.00032   0.00000  -0.00587  -0.00587  -2.51906
   X19        1.40879  -0.00009   0.00000  -0.01975  -0.01975   1.38904
   Y19       -5.06078  -0.00003   0.00000  -0.01012  -0.01012  -5.07091
   Z19       -2.11158   0.00010   0.00000   0.01967   0.01967  -2.09190
   X20       -1.77751   0.00018   0.00000   0.00272   0.00272  -1.77479
   Y20       -3.41169  -0.00011   0.00000  -0.00239  -0.00239  -3.41408
   Z20       -3.86017  -0.00031   0.00000  -0.01511  -0.01511  -3.87528
   X21       -2.46011  -0.00001   0.00000  -0.01365  -0.01365  -2.47376
   Y21       -5.21470   0.00001   0.00000  -0.00401  -0.00401  -5.21872
   Z21       -4.53876   0.00006   0.00000   0.00716   0.00716  -4.53160
   X22       -3.23286   0.00104   0.00000   0.01836   0.01836  -3.21450
   Y22       -1.06528   0.00001   0.00000   0.00156   0.00156  -1.06372
   Z22       -4.51585  -0.00173   0.00000  -0.03768  -0.03768  -4.55353
   X23       -3.53399   0.00021   0.00000   0.01707   0.01707  -3.51692
   Y23       -0.96687  -0.00003   0.00000  -0.00100  -0.00100  -0.96787
   Z23       -6.56570  -0.00016   0.00000  -0.03607  -0.03607  -6.60176
   X24       -5.13227  -0.00002   0.00000   0.01712   0.01712  -5.11515
   Y24       -1.16902   0.00005   0.00000   0.01095   0.01095  -1.15807
   Z24       -3.68871  -0.00007   0.00000  -0.03428  -0.03428  -3.72299
   X25       -1.84353   0.00079   0.00000   0.01683   0.01683  -1.82671
   Y25        1.25052  -0.00001   0.00000  -0.00129  -0.00129   1.24923
   Z25       -3.60502  -0.00118   0.00000  -0.02872  -0.02872  -3.63374
   X26        0.31603   0.00051   0.00000   0.01166   0.01166   0.32769
   Y26        1.09246  -0.00012   0.00000  -0.00490  -0.00490   1.08756
   Z26       -2.27727  -0.00046   0.00000  -0.02073  -0.02073  -2.29800
   X27        1.25630   0.00002   0.00000  -0.00025  -0.00025   1.25606
   Y27        2.80730  -0.00001   0.00000  -0.00561  -0.00561   2.80170
   Z27       -1.66815   0.00002   0.00000   0.00057   0.00057  -1.66758
   X28       -2.81606   0.00039   0.00000  -0.00568  -0.00568  -2.82174
   Y28        3.81543   0.00004   0.00000   0.00032   0.00032   3.81575
   Z28       -4.12985  -0.00021   0.00000   0.01975   0.01975  -4.11009
   X29       -1.61928  -0.00039   0.00000  -0.04221  -0.04221  -1.66148
   Y29        5.74813   0.00018   0.00000   0.00657   0.00657   5.75470
   Z29       -3.77169   0.00174   0.00000   0.10807   0.10807  -3.66362
   X30       -5.23209   0.00036   0.00000   0.00225   0.00225  -5.22984
   Y30        3.90246  -0.00003   0.00000  -0.00350  -0.00350   3.89896
   Z30       -5.04989  -0.00040   0.00000  -0.00232  -0.00232  -5.05221
   X31       -5.97129   0.00017   0.00000  -0.01574  -0.01574  -5.98703
   Y31        5.61203  -0.00008   0.00000  -0.00168  -0.00168   5.61035
   Z31       -5.42528  -0.00021   0.00000   0.04088   0.04088  -5.38440
   X32       -6.29890   0.00033   0.00000   0.02022   0.02022  -6.27868
   Y32        2.35233  -0.00000   0.00000  -0.00859  -0.00859   2.34375
   Z32       -5.28074  -0.00059   0.00000  -0.05019  -0.05019  -5.33093
   X33        4.92877  -0.00002   0.00000  -0.00768  -0.00768   4.92109
   Y33       -7.52837   0.00001   0.00000   0.01440   0.01440  -7.51397
   Z33       -0.37886   0.00001   0.00000   0.01371   0.01371  -0.36515
   X34        0.39333   0.00027   0.00000   0.02287   0.02287   0.41620
   Y34        4.16000   0.00004   0.00000   0.00354   0.00354   4.16353
   Z34        5.31646  -0.00075   0.00000  -0.03175  -0.03175   5.28471
   X35       -3.13366  -0.00107   0.00000  -0.03715  -0.03715  -3.17081
   Y35        1.73247   0.00019   0.00000  -0.00344  -0.00344   1.72903
   Z35        2.43811   0.00085   0.00000   0.05144   0.05144   2.48955
   X36       -5.52406  -0.00109   0.00000  -0.02355  -0.02355  -5.54761
   Y36        1.64873   0.00030   0.00000   0.00325   0.00325   1.65198
   Z36        1.00859   0.00112   0.00000   0.03124   0.03124   1.03983
   X37       -9.12494  -0.00063   0.00000   0.00848   0.00848  -9.11646
   Y37       -0.80542   0.00036   0.00000  -0.00363  -0.00363  -0.80905
   Z37       -0.79554   0.00050   0.00000  -0.02315  -0.02315  -0.81870
   X38       -6.62463  -0.00167   0.00000  -0.02266  -0.02266  -6.64729
   Y38       -0.54552   0.00005   0.00000   0.00239   0.00239  -0.54313
   Z38        0.48009   0.00169   0.00000   0.03332   0.03332   0.51340
   X39       -1.91263  -0.00160   0.00000  -0.09478  -0.09478  -2.00741
   Y39       -0.13389  -0.00001   0.00000  -0.01695  -0.01695  -0.15085
   Z39        2.99008   0.00148   0.00000   0.13246   0.13246   3.12254
   X40       -2.31399  -0.00019   0.00000   0.05061   0.05061  -2.26338
   Y40        4.80589   0.00058   0.00000   0.01044   0.01044   4.81632
   Z40        3.37039  -0.00044   0.00000  -0.07193  -0.07193   3.29846
   X41        0.87625   0.00007   0.00000   0.02008   0.02008   0.89632
   Y41        5.92976  -0.00000   0.00000   0.00288   0.00288   5.93265
   Z41        6.24261  -0.00011   0.00000  -0.02816  -0.02816   6.21445
   X42        1.97888  -0.00003   0.00000   0.03588   0.03588   2.01476
   Y42        3.51339  -0.00004   0.00000  -0.01023  -0.01023   3.50316
   Z42        4.18114  -0.00009   0.00000  -0.00454  -0.00454   4.17660
   X43      -10.54524  -0.00042   0.00000  -0.01735  -0.01735 -10.56259
   Y43       -1.43495  -0.00031   0.00000  -0.02102  -0.02102  -1.45597
   Z43        0.56384   0.00019   0.00000  -0.05780  -0.05780   0.50604
   X44       -9.75325  -0.00008   0.00000   0.02084   0.02084  -9.73241
   Y44        0.98650   0.00001   0.00000  -0.00123  -0.00123   0.98527
   Z44       -1.59438   0.00010   0.00000  -0.02724  -0.02724  -1.62162
   X45       -9.06631   0.00007   0.00000   0.05381   0.05381  -9.01250
   Y45       -2.23019  -0.00005   0.00000   0.00662   0.00662  -2.22357
   Z45       -2.28498  -0.00021   0.00000  -0.03225  -0.03225  -2.31723
   X46       -5.65459  -0.00008   0.00000  -0.02633  -0.02633  -5.68092
   Y46       -2.26211   0.00003   0.00000   0.00570   0.00570  -2.25641
   Z46        1.05574   0.00020   0.00000   0.05089   0.05089   1.10663
   X47       -6.36706  -0.00001   0.00000   0.00292   0.00292  -6.36415
   Y47        3.44059  -0.00001   0.00000   0.00445   0.00445   3.44504
   Z47        0.48017   0.00003   0.00000  -0.00515  -0.00515   0.47501
   X48       -0.07698   0.00004   0.00000  -0.00209  -0.00209  -0.07907
   Y48        2.74067   0.00002   0.00000   0.01257   0.01257   2.75324
   Z48        6.72760  -0.00006   0.00000  -0.02968  -0.02968   6.69792
         Item               Value     Threshold  Converged?
 Maximum Force            0.001737     0.000450     NO 
 RMS     Force            0.000457     0.000300     NO 
 Maximum Displacement     0.132464     0.001800     NO 
 RMS     Displacement     0.025013     0.001200     NO 
 Predicted change in Energy=-8.585480D-04
 GradGradGradGradGradGradGradGradGradGradGradGradGradGradGradGradGradGrad

 Leave Link  103 at Sat Aug 13 20:33:48 2022, MaxMem=  2684354560 cpu:               1.0 elap:               0.1
 (Enter /storage/apps/GAUSSIAN/G16_RevA03/g16/l9999.exe)

 Test job not archived.
 1\1\GINC-T047\Force\RM062X\def2TZVP\C16H24N2O5S1\LV87696\13-Aug-2022\0
 \\#P M062X/Def2TZVP scf=(direct,conver=8) EmpiricalDispersion=GD3 Forc
 e Charge Prop=(Field,Read)\\Gaussian run\\0,1\C,3.608887,-3.61903,-0.4
 43458\H,3.757826,-3.716672,-1.518003\H,4.336134,-4.248805,0.070318\C,1
 .89426,-1.453533,1.228255\H,1.245312,-2.326515,1.093593\O,1.50126,-0.6
 92966,2.332743\H,0.571173,-0.428833,2.208652\C,3.342876,-1.891245,1.40
 4523\H,3.435877,-2.777341,2.040311\O,4.101886,-0.820682,1.91609\H,3.55
 9904,-0.39148,2.590854\C,1.972351,-0.667356,-0.092796\H,2.272108,0.363
 159,0.124013\C,3.775877,-2.169763,-0.030075\H,4.811037,-1.848779,-0.15
 8121\O,2.94932,-1.337853,-0.856781\N,0.747537,-0.603675,-0.848408\C,0.
 180472,-1.781885,-1.329922\H,0.7455,-2.67805,-1.117398\C,-0.940616,-1.
 805389,-2.042714\H,-1.301835,-2.759503,-2.401808\C,-1.710757,-0.56372,
 -2.389686\H,-1.870107,-0.511644,-3.474417\H,-2.71588,-0.61862,-1.95198
 3\C,-0.975556,0.661745,-1.907696\C,0.167238,0.578106,-1.205082\H,0.664
 806,1.485561,-0.882747\C,-1.490196,2.019037,-2.185421\O,-0.856884,3.04
 1777,-1.995891\N,-2.768702,2.065093,-2.672285\H,-3.159873,2.969759,-2.
 870935\H,-3.333233,1.2448,-2.794446\H,2.608194,-3.983843,-0.200484\C,0
 .208142,2.201375,2.813351\C,-1.65826,0.916782,1.290193\C,-2.923206,0.8
 72471,0.533722\C,-4.828708,-0.426211,-0.420984\C,-3.505603,-0.288679,0
 .254051\O,-1.012118,-0.070853,1.582282\S,-1.22451,2.543165,1.783533\H,
 0.463691,3.137896,3.303446\H,1.04718,1.859204,2.212566\H,-5.580301,-0.
 759343,0.298371\H,-5.161198,0.522032,-0.843709\H,-4.797686,-1.180166,-
 1.209161\H,-2.992279,-1.197058,0.558672\H,-3.369305,1.820684,0.254093\
 H,-0.040736,1.4503,3.560092\\Version=ES64L-G16RevA.03\State=1-A\HF=-15
 07.9306615\RMSD=1.406e-09\RMSF=4.569e-04\Dipole=-1.8876955,-1.1639981,
 0.3328149\Quadrupole=6.4022015,-2.7065523,-3.6956492,-2.7426262,7.0552
 847,7.2287601\PG=C01 [X(C16H24N2O5S1)]\\@


 SATCHEL PAIGE'S GUIDE TO LONGEVITY

    1.  AVOID FRIED MEATS, WHICH ANGRY UP THE BLOOD.

    2.  IF YOUR STOMACH DISPUTES YOU, LIE DOWN AND PACIFY IT WITH COOL
        THOUGHTS.

    3.  KEEP THE JUICES FLOWING BY JANGLING AROUND GENTLY AS YOU MOVE.

    4.  GO VERY LIGHT ON THE VICES, SUCH AS CARRYING ON IN SOCIETY.
        THE SOCIAL RUMBLE AIN'T RESTFUL.

    5.  AVOID RUNNING AT ALL TIMES.

    6.  DON'T LOOK BACK.  SOMETHING MAY BE GAINING ON YOU.
 Job cpu time:       0 days  3 hours 12 minutes 59.5 seconds.
 Elapsed time:       0 days  0 hours 12 minutes  5.6 seconds.
 File lengths (MBytes):  RWF=    435 Int=      0 D2E=      0 Chk=     48 Scr=      1
 Normal termination of Gaussian 16 at Sat Aug 13 20:33:48 2022.
