 Entering Gaussian System, Link 0=g16
 Initial command:
 /storage/apps/GAUSSIAN/G16_RevA03/g16/l1.exe "/scratch/tmp/1019202/Gau-167532.inp" -scrdir="/scratch/tmp/1019202/"
 Entering Link 1 = /storage/apps/GAUSSIAN/G16_RevA03/g16/l1.exe PID=    167533.
  
 Copyright (c) 1988,1990,1992,1993,1995,1998,2003,2009,2016,
            Gaussian, Inc.  All Rights Reserved.
  
 This is part of the Gaussian(R) 16 program.  It is based on
 the Gaussian(R) 09 system (copyright 2009, Gaussian, Inc.),
 the Gaussian(R) 03 system (copyright 2003, Gaussian, Inc.),
 the Gaussian(R) 98 system (copyright 1998, Gaussian, Inc.),
 the Gaussian(R) 94 system (copyright 1995, Gaussian, Inc.),
 the Gaussian 92(TM) system (copyright 1992, Gaussian, Inc.),
 the Gaussian 90(TM) system (copyright 1990, Gaussian, Inc.),
 the Gaussian 88(TM) system (copyright 1988, Gaussian, Inc.),
 the Gaussian 86(TM) system (copyright 1986, Carnegie Mellon
 University), and the Gaussian 82(TM) system (copyright 1983,
 Carnegie Mellon University). Gaussian is a federally registered
 trademark of Gaussian, Inc.
  
 This software contains proprietary and confidential information,
 including trade secrets, belonging to Gaussian, Inc.
  
 This software is provided under written license and may be
 used, copied, transmitted, or stored only in accord with that
 written license.
  
 The following legend is applicable only to US Government
 contracts under FAR:
  
                    RESTRICTED RIGHTS LEGEND
  
 Use, reproduction and disclosure by the US Government is
 subject to restrictions as set forth in subparagraphs (a)
 and (c) of the Commercial Computer Software - Restricted
 Rights clause in FAR 52.227-19.
  
 Gaussian, Inc.
 340 Quinnipiac St., Bldg. 40, Wallingford CT 06492
  
  
 ---------------------------------------------------------------
 Warning -- This program may not be used in any manner that
 competes with the business of Gaussian, Inc. or will provide
 assistance to any competitor of Gaussian, Inc.  The licensee
 of this program is prohibited from giving any competitor of
 Gaussian, Inc. access to this program.  By using this program,
 the user acknowledges that Gaussian, Inc. is engaged in the
 business of creating and licensing software in the field of
 computational chemistry and represents and warrants to the
 licensee that it is not a competitor of Gaussian, Inc. and that
 it will not use this program in any manner prohibited above.
 ---------------------------------------------------------------
  

 Cite this work as:
 Gaussian 16, Revision A.03,
 M. J. Frisch, G. W. Trucks, H. B. Schlegel, G. E. Scuseria, 
 M. A. Robb, J. R. Cheeseman, G. Scalmani, V. Barone, 
 G. A. Petersson, H. Nakatsuji, X. Li, M. Caricato, A. V. Marenich, 
 J. Bloino, B. G. Janesko, R. Gomperts, B. Mennucci, H. P. Hratchian, 
 J. V. Ortiz, A. F. Izmaylov, J. L. Sonnenberg, D. Williams-Young, 
 F. Ding, F. Lipparini, F. Egidi, J. Goings, B. Peng, A. Petrone, 
 T. Henderson, D. Ranasinghe, V. G. Zakrzewski, J. Gao, N. Rega, 
 G. Zheng, W. Liang, M. Hada, M. Ehara, K. Toyota, R. Fukuda, 
 J. Hasegawa, M. Ishida, T. Nakajima, Y. Honda, O. Kitao, H. Nakai, 
 T. Vreven, K. Throssell, J. A. Montgomery, Jr., J. E. Peralta, 
 F. Ogliaro, M. J. Bearpark, J. J. Heyd, E. N. Brothers, K. N. Kudin, 
 V. N. Staroverov, T. A. Keith, R. Kobayashi, J. Normand, 
 K. Raghavachari, A. P. Rendell, J. C. Burant, S. S. Iyengar, 
 J. Tomasi, M. Cossi, J. M. Millam, M. Klene, C. Adamo, R. Cammi, 
 J. W. Ochterski, R. L. Martin, K. Morokuma, O. Farkas, 
 J. B. Foresman, and D. J. Fox, Gaussian, Inc., Wallingford CT, 2016.
 
 ******************************************
 Gaussian 16:  ES64L-G16RevA.03 25-Dec-2016
                13-Aug-2022 
 ******************************************
 %NProcShared=16
 Will use up to   16 processors via shared memory.
 %mem=20GB
 ----------------------------------------------------------------------
 #P M062X/Def2TZVP scf=(direct,conver=8) EmpiricalDispersion=GD3 Force 
 Charge Prop=(Field,Read)
 ----------------------------------------------------------------------
 1/10=7,18=10,28=-2,30=1,38=1,125=101/1,3;
 2/12=2,17=6,18=5,29=2,40=1/2;
 3/5=44,7=101,11=2,25=1,30=1,71=1,74=-55,124=31/1,2,3;
 4//1;
 5/5=2,6=8,38=5/2;
 6/7=2,8=2,9=2,10=2,14=2,15=1,28=1/1,2;
 7/7=1,16=-2,29=1/1,2,3,16;
 1/10=7,18=10,28=-2,30=1/3;
 99/12=1/99;
 Leave Link    1 at Sat Aug 13 20:21:42 2022, MaxMem=  2684354560 cpu:               0.6 elap:               0.0
 (Enter /storage/apps/GAUSSIAN/G16_RevA03/g16/l101.exe)
 ------------
 Gaussian run
 ------------
 Symbolic Z-matrix:
 Charge =  0 Multiplicity = 1
 C                     3.60761  -3.61873  -0.44337 
 H                     3.75633  -3.71613  -1.51798 
 H                     4.33535  -4.24819   0.07007 
 C                     1.89275  -1.45294   1.22916 
 H                     1.24314  -2.32544   1.09427 
 O                     1.50093  -0.69248   2.33407 
 H                     0.57119  -0.42688   2.2094 
 C                     3.34124  -1.8911    1.40486 
 H                     3.43432  -2.77718   2.04065 
 O                     4.1002   -0.82042   1.91625 
 H                     3.55801  -0.39111   2.59079 
 C                     1.97103  -0.66665  -0.09185 
 H                     2.27124   0.36378   0.12477 
 C                     3.77405  -2.16949  -0.02979 
 H                     4.80905  -1.84806  -0.15799 
 O                     2.94702  -1.33784  -0.85625 
 N                     0.74619  -0.60284  -0.84746 
 C                     0.18127  -1.78094  -1.33143 
 H                     0.74991  -2.67602  -1.12414 
 C                    -0.94167  -1.80475  -2.04152 
 H                    -1.30067  -2.75824  -2.40443 
 C                    -1.71597  -0.56396  -2.38086 
 H                    -1.88358  -0.51011  -3.46391 
 H                    -2.71747  -0.62146  -1.93648 
 C                    -0.97944   0.66184  -1.90259 
 C                     0.16531   0.57872  -1.20273 
 H                     0.66422   1.48626  -0.88269 
 C                    -1.49203   2.01903  -2.1843 
 O                    -0.85539   3.04092  -2.00206 
 N                    -2.77082   2.06536  -2.67065 
 H                    -3.16582   2.97104  -2.85613 
 H                    -3.34538   1.24747  -2.76271 
 H                     2.60719  -3.98412  -0.20012 
 C                     0.20675   2.20115   2.81667 
 C                    -1.65345   0.91619   1.28594 
 C                    -2.91697   0.8719    0.5283 
 C                    -4.82421  -0.42621  -0.42318 
 C                    -3.49761  -0.28985   0.24496 
 O                    -1.00648  -0.07128   1.57746 
 S                    -1.22425   2.54211   1.78434 
 H                     0.45973   3.13738   3.30863 
 H                     1.04762   1.86124   2.21718 
 H                    -5.57581  -0.75112   0.30282 
 H                    -5.15473   0.52041  -0.85126 
 H                    -4.80064  -1.18664  -1.20694 
 H                    -2.98195  -1.19823   0.54519 
 H                    -3.36632   1.81992   0.25386 
 H                    -0.04246   1.44866   3.56188 
 
 ITRead=  0  0  0  0  0  0  0  0  0  0  0  0  0  0  0  0  0  0  0  0
 ITRead=  0  0  0  0  0  0  0  0  0  0  0  0  0  0  0  0  0  0  0  0
 ITRead=  0  0  0  0  0  0  0  0
 MicOpt= -1 -1 -1 -1 -1 -1 -1 -1 -1 -1 -1 -1 -1 -1 -1 -1 -1 -1 -1 -1
 MicOpt= -1 -1 -1 -1 -1 -1 -1 -1 -1 -1 -1 -1 -1 -1 -1 -1 -1 -1 -1 -1
 MicOpt= -1 -1 -1 -1 -1 -1 -1 -1
 NAtoms=     48 NQM=       48 NQMF=       0 NMMI=      0 NMMIF=      0
                NMic=       0 NMicF=      0.
                    Isotopes and Nuclear Properties:
 (Nuclear quadrupole moments (NQMom) in fm**2, nuclear magnetic moments (NMagM)
  in nuclear magnetons)

  Atom         1           2           3           4           5           6           7           8           9          10
 IAtWgt=          12           1           1          12           1          16           1          12           1          16
 AtmWgt=  12.0000000   1.0078250   1.0078250  12.0000000   1.0078250  15.9949146   1.0078250  12.0000000   1.0078250  15.9949146
 NucSpn=           0           1           1           0           1           0           1           0           1           0
 AtZEff=  -0.0000000  -0.0000000  -0.0000000  -0.0000000  -0.0000000  -0.0000000  -0.0000000  -0.0000000  -0.0000000  -0.0000000
 NQMom=    0.0000000   0.0000000   0.0000000   0.0000000   0.0000000   0.0000000   0.0000000   0.0000000   0.0000000   0.0000000
 NMagM=    0.0000000   2.7928460   2.7928460   0.0000000   2.7928460   0.0000000   2.7928460   0.0000000   2.7928460   0.0000000
 AtZNuc=   6.0000000   1.0000000   1.0000000   6.0000000   1.0000000   8.0000000   1.0000000   6.0000000   1.0000000   8.0000000

  Atom        11          12          13          14          15          16          17          18          19          20
 IAtWgt=           1          12           1          12           1          16          14          12           1          12
 AtmWgt=   1.0078250  12.0000000   1.0078250  12.0000000   1.0078250  15.9949146  14.0030740  12.0000000   1.0078250  12.0000000
 NucSpn=           1           0           1           0           1           0           2           0           1           0
 AtZEff=  -0.0000000  -0.0000000  -0.0000000  -0.0000000  -0.0000000  -0.0000000  -0.0000000  -0.0000000  -0.0000000  -0.0000000
 NQMom=    0.0000000   0.0000000   0.0000000   0.0000000   0.0000000   0.0000000   2.0440000   0.0000000   0.0000000   0.0000000
 NMagM=    2.7928460   0.0000000   2.7928460   0.0000000   2.7928460   0.0000000   0.4037610   0.0000000   2.7928460   0.0000000
 AtZNuc=   1.0000000   6.0000000   1.0000000   6.0000000   1.0000000   8.0000000   7.0000000   6.0000000   1.0000000   6.0000000

  Atom        21          22          23          24          25          26          27          28          29          30
 IAtWgt=           1          12           1           1          12          12           1          12          16          14
 AtmWgt=   1.0078250  12.0000000   1.0078250   1.0078250  12.0000000  12.0000000   1.0078250  12.0000000  15.9949146  14.0030740
 NucSpn=           1           0           1           1           0           0           1           0           0           2
 AtZEff=  -0.0000000  -0.0000000  -0.0000000  -0.0000000  -0.0000000  -0.0000000  -0.0000000  -0.0000000  -0.0000000  -0.0000000
 NQMom=    0.0000000   0.0000000   0.0000000   0.0000000   0.0000000   0.0000000   0.0000000   0.0000000   0.0000000   2.0440000
 NMagM=    2.7928460   0.0000000   2.7928460   2.7928460   0.0000000   0.0000000   2.7928460   0.0000000   0.0000000   0.4037610
 AtZNuc=   1.0000000   6.0000000   1.0000000   1.0000000   6.0000000   6.0000000   1.0000000   6.0000000   8.0000000   7.0000000

  Atom        31          32          33          34          35          36          37          38          39          40
 IAtWgt=           1           1           1          12          12          12          12          12          16          32
 AtmWgt=   1.0078250   1.0078250   1.0078250  12.0000000  12.0000000  12.0000000  12.0000000  12.0000000  15.9949146  31.9720718
 NucSpn=           1           1           1           0           0           0           0           0           0           0
 AtZEff=  -0.0000000  -0.0000000  -0.0000000  -0.0000000  -0.0000000  -0.0000000  -0.0000000  -0.0000000  -0.0000000  -0.0000000
 NQMom=    0.0000000   0.0000000   0.0000000   0.0000000   0.0000000   0.0000000   0.0000000   0.0000000   0.0000000   0.0000000
 NMagM=    2.7928460   2.7928460   2.7928460   0.0000000   0.0000000   0.0000000   0.0000000   0.0000000   0.0000000   0.0000000
 AtZNuc=   1.0000000   1.0000000   1.0000000   6.0000000   6.0000000   6.0000000   6.0000000   6.0000000   8.0000000  16.0000000

  Atom        41          42          43          44          45          46          47          48
 IAtWgt=           1           1           1           1           1           1           1           1
 AtmWgt=   1.0078250   1.0078250   1.0078250   1.0078250   1.0078250   1.0078250   1.0078250   1.0078250
 NucSpn=           1           1           1           1           1           1           1           1
 AtZEff=  -0.0000000  -0.0000000  -0.0000000  -0.0000000  -0.0000000  -0.0000000  -0.0000000  -0.0000000
 NQMom=    0.0000000   0.0000000   0.0000000   0.0000000   0.0000000   0.0000000   0.0000000   0.0000000
 NMagM=    2.7928460   2.7928460   2.7928460   2.7928460   2.7928460   2.7928460   2.7928460   2.7928460
 AtZNuc=   1.0000000   1.0000000   1.0000000   1.0000000   1.0000000   1.0000000   1.0000000   1.0000000
 Background charge distribution read from input stream:
 Leave Link  101 at Sat Aug 13 20:21:42 2022, MaxMem=  2684354560 cpu:               1.5 elap:               0.1
 (Enter /storage/apps/GAUSSIAN/G16_RevA03/g16/l103.exe)

 GradGradGradGradGradGradGradGradGradGradGradGradGradGradGradGradGradGrad
 Berny optimization.
 Initialization pass.
 Trust Radius=3.00D-01 FncErr=1.00D-07 GrdErr=1.00D-07 EigMax=2.50D+02 EigMin=1.00D-04
 Number of steps in this run=      2 maximum allowed number of steps=      2.
 GradGradGradGradGradGradGradGradGradGradGradGradGradGradGradGradGradGrad

 Leave Link  103 at Sat Aug 13 20:21:42 2022, MaxMem=  2684354560 cpu:               0.3 elap:               0.0
 (Enter /storage/apps/GAUSSIAN/G16_RevA03/g16/l202.exe)
 ---------------------------------------------------------------------------------------------------
                            Z-MATRIX (ANGSTROMS AND DEGREES)
   CD    Cent   Atom    N1       Length/X        N2       Alpha/Y        N3        Beta/Z          J
 ---------------------------------------------------------------------------------------------------
      1      1  C        0   3.607608         -3.618732         -0.443370
      2      2  H        0   3.756330         -3.716128         -1.517976
      3      3  H        0   4.335354         -4.248193          0.070072
      4      4  C        0   1.892748         -1.452940          1.229164
      5      5  H        0   1.243144         -2.325444          1.094271
      6      6  O        0   1.500928         -0.692481          2.334066
      7      7  H        0   0.571187         -0.426881          2.209398
      8      8  C        0   3.341237         -1.891101          1.404860
      9      9  H        0   3.434320         -2.777183          2.040649
     10     10  O        0   4.100195         -0.820423          1.916249
     11     11  H        0   3.558009         -0.391106          2.590792
     12     12  C        0   1.971033         -0.666648         -0.091847
     13     13  H        0   2.271245          0.363780          0.124773
     14     14  C        0   3.774050         -2.169487         -0.029787
     15     15  H        0   4.809050         -1.848060         -0.157989
     16     16  O        0   2.947015         -1.337835         -0.856251
     17     17  N        0   0.746194         -0.602836         -0.847461
     18     18  C        0   0.181274         -1.780944         -1.331429
     19     19  H        0   0.749906         -2.676016         -1.124135
     20     20  C        0  -0.941668         -1.804754         -2.041517
     21     21  H        0  -1.300668         -2.758238         -2.404425
     22     22  C        0  -1.715965         -0.563956         -2.380859
     23     23  H        0  -1.883575         -0.510114         -3.463906
     24     24  H        0  -2.717473         -0.621464         -1.936484
     25     25  C        0  -0.979440          0.661836         -1.902587
     26     26  C        0   0.165306          0.578721         -1.202734
     27     27  H        0   0.664218          1.486260         -0.882688
     28     28  C        0  -1.492028          2.019027         -2.184302
     29     29  O        0  -0.855389          3.040924         -2.002060
     30     30  N        0  -2.770824          2.065358         -2.670648
     31     31  H        0  -3.165824          2.971037         -2.856130
     32     32  H        0  -3.345380          1.247472         -2.762712
     33     33  H        0   2.607191         -3.984120         -0.200117
     34     34  C        0   0.206747          2.201150          2.816670
     35     35  C        0  -1.653451          0.916192          1.285936
     36     36  C        0  -2.916968          0.871900          0.528296
     37     37  C        0  -4.824214         -0.426212         -0.423184
     38     38  C        0  -3.497609         -0.289854          0.244963
     39     39  O        0  -1.006483         -0.071280          1.577462
     40     40  S        0  -1.224254          2.542109          1.784340
     41     41  H        0   0.459732          3.137382          3.308633
     42     42  H        0   1.047617          1.861235          2.217179
     43     43  H        0  -5.575809         -0.751115          0.302815
     44     44  H        0  -5.154733          0.520409         -0.851257
     45     45  H        0  -4.800640         -1.186638         -1.206942
     46     46  H        0  -2.981950         -1.198234          0.545187
     47     47  H        0  -3.366316          1.819921          0.253864
     48     48  H        0  -0.042461          1.448663          3.561881
 ---------------------------------------------------------------------------------------------------
                         Z-Matrix orientation:                         
 ---------------------------------------------------------------------
 Center     Atomic      Atomic             Coordinates (Angstroms)
 Number     Number       Type             X           Y           Z
 ---------------------------------------------------------------------
      1          6           0        3.607608   -3.618732   -0.443370
      2          1           0        3.756330   -3.716128   -1.517976
      3          1           0        4.335354   -4.248193    0.070072
      4          6           0        1.892748   -1.452940    1.229164
      5          1           0        1.243144   -2.325444    1.094271
      6          8           0        1.500928   -0.692481    2.334066
      7          1           0        0.571187   -0.426881    2.209398
      8          6           0        3.341237   -1.891101    1.404860
      9          1           0        3.434320   -2.777183    2.040649
     10          8           0        4.100195   -0.820423    1.916249
     11          1           0        3.558009   -0.391106    2.590792
     12          6           0        1.971033   -0.666648   -0.091847
     13          1           0        2.271245    0.363780    0.124773
     14          6           0        3.774050   -2.169487   -0.029787
     15          1           0        4.809050   -1.848060   -0.157989
     16          8           0        2.947015   -1.337835   -0.856251
     17          7           0        0.746194   -0.602836   -0.847461
     18          6           0        0.181274   -1.780944   -1.331429
     19          1           0        0.749906   -2.676016   -1.124135
     20          6           0       -0.941668   -1.804754   -2.041517
     21          1           0       -1.300668   -2.758238   -2.404425
     22          6           0       -1.715965   -0.563956   -2.380859
     23          1           0       -1.883575   -0.510114   -3.463906
     24          1           0       -2.717473   -0.621464   -1.936484
     25          6           0       -0.979440    0.661836   -1.902587
     26          6           0        0.165306    0.578721   -1.202734
     27          1           0        0.664218    1.486260   -0.882688
     28          6           0       -1.492028    2.019027   -2.184302
     29          8           0       -0.855389    3.040924   -2.002060
     30          7           0       -2.770824    2.065358   -2.670648
     31          1           0       -3.165824    2.971037   -2.856130
     32          1           0       -3.345380    1.247472   -2.762712
     33          1           0        2.607191   -3.984120   -0.200117
     34          6           0        0.206747    2.201150    2.816670
     35          6           0       -1.653451    0.916192    1.285936
     36          6           0       -2.916968    0.871900    0.528296
     37          6           0       -4.824214   -0.426212   -0.423184
     38          6           0       -3.497609   -0.289854    0.244963
     39          8           0       -1.006483   -0.071280    1.577462
     40         16           0       -1.224254    2.542109    1.784340
     41          1           0        0.459732    3.137382    3.308633
     42          1           0        1.047617    1.861235    2.217179
     43          1           0       -5.575809   -0.751115    0.302815
     44          1           0       -5.154733    0.520409   -0.851257
     45          1           0       -4.800640   -1.186638   -1.206942
     46          1           0       -2.981950   -1.198234    0.545187
     47          1           0       -3.366316    1.819921    0.253864
     48          1           0       -0.042461    1.448663    3.561881
 ---------------------------------------------------------------------
                    Distance matrix (angstroms):
                    1          2          3          4          5
     1  C    0.000000
     2  H    1.089212   0.000000
     3  H    1.090623   1.772077   0.000000
     4  C    3.229361   4.017678   3.888863   0.000000
     5  H    3.102841   3.882517   3.782553   1.096104   0.000000
     6  O    4.551395   5.391429   5.079639   1.397365   2.066425
     7  H    5.142465   5.904032   5.774781   1.939118   2.302081
     8  C    2.543937   3.470734   2.885448   1.523474   2.164974
     9  H    2.628419   3.694472   2.618951   2.188281   2.429187
    10  O    3.693369   4.505247   3.900420   2.396870   3.332188
    11  H    4.430143   5.289336   4.672838   2.398878   3.367468
    12  C    3.393633   3.810572   4.294612   1.539303   2.165249
    13  H    4.238992   4.642171   5.053101   2.159493   3.037901
    14  C    1.516267   2.146420   2.155470   2.374383   2.773682
    15  H    2.158746   2.539185   2.457038   3.253480   3.809427
    16  O    2.410258   2.597912   3.354958   2.339591   2.771838
    17  N    4.176914   4.382134   5.197361   2.519848   2.642851
    18  C    3.988217   4.069492   5.030696   3.097316   2.703344
    19  H    3.085225   3.205547   4.093081   2.887909   2.299459
    20  C    5.151747   5.098885   6.186773   4.342239   3.857161
    21  H    5.355125   5.222698   6.333076   5.010457   4.347317
    22  C    6.436299   6.373913   7.496608   5.181252   4.892412
    23  H    6.995730   6.773012   8.070769   6.097085   5.817970
    24  H    7.156791   7.187644   8.180574   5.653921   5.270248
    25  C    6.441552   6.460806   7.499787   4.746536   4.779632
    26  C    5.481304   5.607188   6.504493   3.609131   3.856442
    27  H    5.909102   6.085194   6.875241   3.822055   4.332737
    28  C    7.798811   7.802644   8.849781   5.929841   6.091357
    29  O    8.166938   8.195123   9.185247   6.179634   6.541331
    30  N    8.829159   8.795338   9.892939   7.023949   7.040291
    31  H    9.753248   9.717255  10.814232   7.864499   7.943386
    32  H    8.797916   8.753341   9.860054   7.117955   6.978295
    33  H    1.092481   1.768924   1.768978   2.993350   2.507443
    34  C    7.487639   8.148796   8.135307   4.326101   4.952861
    35  C    7.157847   7.654152   8.000936   4.265154   4.351460
    36  C    7.979975   8.352852   8.889404   5.387900   5.277297
    37  C    9.015998   9.254612   9.937229   6.992997   6.536252
    38  C    7.876506   8.213826   8.778060   5.601551   5.228737
    39  O    6.161008   6.749151   6.946513   3.230454   3.221110
    40  S    8.140365   8.653152   8.941821   5.097484   5.500665
    41  H    8.344563   9.007459   8.947371   5.239159   5.946394
    42  H    6.607731   7.238473   7.262534   3.560081   4.339059
    43  H    9.649620   9.959689  10.512606   7.558441   7.042942
    44  H    9.699355   9.889378  10.660683   7.608498   7.267516
    45  H    8.786169   8.928426   9.719582   7.127901   6.566566
    46  H    7.089311   7.483372   7.941720   4.929034   4.407212
    47  H    8.871341   9.193440   9.806707   6.270613   6.255994
    48  H    7.419133   8.179904   7.988252   4.195939   4.688898
                    6          7          8          9         10
     6  O    0.000000
     7  H    0.974938   0.000000
     8  C    2.384712   3.234872   0.000000
     9  H    2.858335   3.708089   1.094547   0.000000
    10  O    2.635741   3.562964   1.408505   2.070694   0.000000
    11  H    2.094831   3.011287   1.924425   2.451799   0.966068
    12  C    2.471178   2.704216   2.369995   3.338129   2.930772
    13  H    2.567109   2.803748   2.804994   3.858623   2.820777
    14  C    3.596725   4.278897   1.524152   2.184357   2.390272
    15  H    4.299927   5.058039   2.144487   2.754480   2.420945
    16  O    3.561709   3.984043   2.360961   3.271272   3.047014
    17  N    3.271051   3.066916   3.669717   4.504996   4.351409
    18  C    4.045008   3.810902   4.181480   4.790168   5.179571
    19  H    4.056797   4.025294   3.704984   4.151165   4.889949
    20  C    5.133143   4.717790   5.498022   6.062917   6.484844
    21  H    5.879591   5.497857   6.067113   6.494548   7.182804
    22  C    5.709241   5.130333   6.455097   7.139576   7.235926
    23  H    6.715996   6.182165   7.273972   7.982464   8.052817
    24  H    6.003128   5.295421   7.034524   7.636051   7.833501
    25  C    5.092703   4.527490   6.010403   6.845235   6.525587
    26  C    3.988583   3.580310   4.794383   5.698077   5.212390
    27  H    3.974230   3.637274   4.879126   5.864837   4.996076
    28  C    6.060174   5.435432   7.178554   8.069867   7.493327
    29  O    6.188096   5.638898   7.317352   8.282238   7.404118
    30  N    7.134473   6.418344   8.343897   9.173349   8.750900
    31  H    7.882771   7.153368   9.172691  10.029077   9.483976
    32  H    7.295702   6.547124   8.481164   9.232251   9.033574
    33  H    4.298929   4.754474   2.737792   2.676167   4.088648
    34  C    3.206386   2.721790   5.344600   5.983580   5.009950
    35  C    3.692765   2.757833   5.730789   6.332142   6.042977
    36  C    5.022539   4.084135   6.896932   7.479430   7.350575
    37  C    6.905125   6.003402   8.494836   8.933136   9.234361
    38  C    5.432479   4.520275   7.118930   7.580431   7.797521
    39  O    2.691737   1.736329   4.716377   5.220841   5.172442
    40  S    4.265136   3.495595   6.375034   7.075512   6.298712
    41  H    4.086774   3.731583   6.100251   6.740774   5.554811
    42  H    2.596270   2.337204   4.472201   5.219429   4.074320
    43  H    7.362719   6.444047   9.056919   9.397204   9.809843
    44  H    7.477647   6.561336   9.115204   9.644121   9.752467
    45  H    7.245184   6.411329   8.579507   8.993956   9.439984
    46  H    4.853047   3.998671   6.418863   6.774807   7.223526
    47  H    5.859135   4.937222   7.751628   8.400870   8.092202
    48  H    2.911027   2.392371   5.220745   5.679782   5.001845
                   11         12         13         14         15
    11  H    0.000000
    12  C    3.129052   0.000000
    13  H    2.882163   1.094912   0.000000
    14  C    3.174389   2.348030   2.949534   0.000000
    15  H    3.353150   3.074809   3.378261   1.091319   0.000000
    16  O    3.626529   1.409733   2.077154   1.434808   2.053064
    17  N    4.446652   1.440575   2.050699   3.505838   4.304968
    18  C    5.358900   2.445702   3.329917   3.840999   4.774702
    19  H    5.187190   2.567943   3.621409   3.255705   4.253892
    20  C    6.610883   3.685149   4.440514   5.139853   6.051472
    21  H    7.359501   4.519601   5.376095   5.633675   6.572941
    22  C    7.249965   4.340976   4.799659   6.184297   7.011840
    23  H    8.141521   5.123796   5.559212   6.823153   7.583562
    24  H    7.741509   5.038533   5.486966   6.940586   7.830462
    25  C    6.472062   3.707956   3.842653   5.841185   6.545977
    26  C    5.180911   2.458793   2.498690   4.685241   5.342763
    27  H    4.895262   2.639736   2.203968   4.874729   5.368660
    28  C    7.356163   4.856337   4.715283   7.065208   7.665761
    29  O    7.235413   5.038220   4.633180   7.243614   7.706402
    30  N    8.589010   6.049734   6.011007   8.230640   8.892850
    31  H    9.283474   6.874686   6.726462   9.087082   9.700633
    32  H    8.888291   6.249930   6.376908   8.356481   9.102836
    33  H    4.647900   3.379651   4.372945   2.164132   3.068014
    34  C    4.242849   4.449319   3.858029   6.319053   6.813655
    35  C    5.529104   4.188144   4.129975   6.380463   7.175648
    36  C    6.911903   5.161808   5.228630   7.370971   8.219521
    37  C    8.907690   6.807568   7.160299   8.782022   9.741240
    38  C    7.436055   5.491945   5.807010   7.515686   8.461144
    39  O    4.686546   3.465062   3.611521   5.462529   6.323698
    40  S    5.667817   4.901638   4.440472   7.104452   7.710187
    41  H    4.750247   5.321460   4.594716   7.091728   7.469181
    42  H    3.393331   3.546053   2.849175   5.359945   5.792121
    43  H    9.422902   7.557626   7.927859   9.462678  10.452795
    44  H    9.412249   7.263770   7.491483   9.361278  10.264854
    45  H    9.215350   6.882542   7.361305   8.710740   9.689372
    46  H    6.899784   5.021995   5.496607   6.849632   7.849612
    47  H    7.635192   5.898291   5.824011   8.184171   8.969967
    48  H    4.158263   4.677438   4.282980   6.368426   6.945716
                   16         17         18         19         20
    16  O    0.000000
    17  N    2.320326   0.000000
    18  C    2.841032   1.393305   0.000000
    19  H    2.586461   2.091563   1.080494   0.000000
    20  C    4.092032   2.391496   1.328831   2.112371   0.000000
    21  H    4.738903   3.355524   2.074265   2.418834   1.081534
    22  C    4.966558   2.900870   2.486338   3.481476   1.501422
    23  H    5.551539   3.710804   3.228942   4.135321   2.141605
    24  H    5.810896   3.630882   3.180129   4.111425   2.136514
    25  C    4.528858   2.385477   2.764173   3.838995   2.470788
    26  C    3.395754   1.363718   2.363226   3.307756   2.758605
    27  H    3.631442   2.091001   3.333050   4.170154   3.840902
    28  C    5.721656   3.697424   4.238763   5.309769   3.865823
    29  O    5.911403   4.144292   4.977432   6.002593   4.846607
    30  N    6.896915   4.776263   5.030152   6.104742   4.326590
    31  H    7.741621   5.666675   6.009085   7.086745   5.330914
    32  H    7.064888   4.881885   4.863863   5.903394   3.951460
    33  H    2.747511   3.913495   3.466832   2.452438   4.553547
    34  C    5.789977   4.645341   5.750169   6.293784   6.400633
    35  C    5.552827   3.552059   4.182267   4.948588   4.356848
    36  C    6.417647   4.181663   4.482774   5.363227   4.203597
    37  C    7.836492   5.589334   5.264515   6.051757   4.426459
    38  C    6.621489   4.393314   4.271129   5.060591   3.749100
    39  O    4.812200   3.038862   3.577061   4.143450   4.013246
    40  S    6.279026   4.549695   5.511108   6.291690   5.797608
    41  H    6.600031   5.598608   6.767396   7.316367   7.417057
    42  H    4.825737   3.943922   5.158356   5.642664   5.960975
    43  H    8.621265   6.427507   6.072504   6.764326   5.299180
    44  H    8.312125   6.006882   5.830931   6.719848   4.957118
    45  H    7.757061   5.589045   5.018781   5.747492   3.996279
    46  H    6.093943   4.024056   3.723872   4.347094   3.349874
    47  H    7.145763   4.898511   5.297620   6.249449   4.928079
    48  H    6.018424   4.926756   5.867274   6.292819   6.541511
                   21         22         23         24         25
    21  H    0.000000
    22  C    2.233361   0.000000
    23  H    2.552713   1.097262   0.000000
    24  H    2.606167   1.097176   1.743790   0.000000
    25  C    3.471590   1.507906   2.151428   2.160733   0.000000
    26  C    3.837765   2.496572   3.239811   3.207686   1.344301
    27  H    4.918559   3.480398   4.139981   4.121750   2.102732
    28  C    4.786161   2.600112   2.861337   2.921527   1.477862
    29  O    5.830133   3.725485   3.975428   4.109105   2.384396
    30  N    5.049684   2.847806   2.837168   2.785831   2.401843
    31  H    6.042138   3.850214   3.759251   3.735349   3.319929
    32  H    4.511644   2.466187   2.391162   2.137719   2.584658
    33  H    4.651142   5.928139   6.548894   6.532570   6.111238
    34  C    7.357150   6.193298   7.153044   6.253854   5.103716
    35  C    5.219641   3.954761   4.964706   3.725657   3.268894
    36  C    4.938743   3.459375   4.349200   2.888784   3.115659
    37  C    4.666802   3.675959   4.230885   2.601261   4.260841
    38  C    4.235413   3.185016   4.050843   2.340361   3.443670
    39  O    4.812662   4.051469   5.135879   3.946898   3.556534
    40  S    6.756128   5.219033   6.106951   5.107096   4.145937
    41  H    8.396212   7.127684   8.041306   7.192691   5.946121
    42  H    6.943572   5.887350   6.818351   6.131282   4.745523
    43  H    5.443760   4.704841   5.280044   3.633367   5.290259
    44  H    5.292983   3.916715   4.311425   2.902039   4.307942
    45  H    4.019166   3.358725   3.749779   2.278429   4.301436
    46  H    3.736380   3.250657   4.213403   2.561504   3.668992
    47  H    5.682688   3.917690   4.631349   3.343499   3.418862
    48  H    7.407962   6.493644   7.522512   6.455473   5.599771
                   26         27         28         29         30
    26  C    0.000000
    27  H    1.083960   0.000000
    28  C    2.405143   2.574381   0.000000
    29  O    2.782658   2.445236   1.217701   0.000000
    30  N    3.603571   3.915568   1.368941   2.251140   0.000000
    31  H    4.421914   4.557220   2.039429   2.464230   1.005327
    32  H    3.899446   4.434905   2.089203   3.161505   1.003757
    33  H    5.271391   5.845178   7.535142   8.036647   8.463023
    34  C    4.334697   3.795471   5.284764   5.005348   6.244600
    35  C    3.100845   3.224825   3.644839   3.995286   4.268918
    36  C    3.547229   3.897846   3.271780   3.918861   3.417447
    37  C    5.149068   5.830230   4.492682   5.501405   3.933882
    38  C    4.033261   4.663366   3.905716   4.808796   3.817856
    39  O    3.086273   3.357009   4.330820   4.745695   5.071938
    40  S    3.835151   3.434266   4.011912   3.836887   4.739841
    41  H    5.194792   4.509456   5.935690   5.471956   6.880227
    42  H    3.757542   3.145914   5.084066   4.776513   6.205885
    43  H    6.082396   6.734182   5.526003   6.478763   4.964065
    44  H    5.331956   5.898648   4.175916   5.114851   3.373436
    45  H    5.270401   6.092142   4.709398   5.836908   4.103421
    46  H    4.014725   4.747618   4.474455   5.383418   4.586633
    47  H    4.016791   4.200986   3.081761   3.589540   2.994599
    48  H    4.847837   4.500556   5.953585   5.844107   6.831449
                   31         32         33         34         35
    31  H    0.000000
    32  H    1.735409   0.000000
    33  H    9.421057   8.328838   0.000000
    34  C    6.644368   6.682560   7.288395   0.000000
    35  C    4.864809   4.400446   6.661417   2.730311   0.000000
    36  C    3.990319   3.339959   7.391065   4.094039   1.473925
    37  C    4.495641   3.234433   8.242224   6.535308   3.844070
    38  C    4.512235   3.381221   7.149425   5.151799   2.437025
    39  O    5.794410   5.103592   5.615046   2.858584   1.216000
    40  S    5.048528   5.181789   7.823663   1.797143   1.753916
    41  H    7.153784   7.410254   8.224275   1.087455   3.672946
    42  H    6.687541   6.668916   6.514888   1.087195   3.009334
    43  H    5.444389   4.285629   8.812874   6.962276   4.373938
    44  H    3.739098   2.730575   8.997901   6.709996   4.121069
    45  H    4.762216   3.234671   7.982203   7.262264   4.532233
    46  H    5.383826   4.129861   6.289287   5.184905   2.604691
    47  H    3.322247   3.070483   8.341210   4.413625   2.194494
    48  H    7.298211   7.137943   7.119580   1.087971   2.838792
                   36         37         38         39         40
    36  C    0.000000
    37  C    2.495595   0.000000
    38  C    1.329321   1.491608   0.000000
    39  O    2.374930   4.324769   2.833556   0.000000
    40  S    2.689335   5.161764   3.944343   2.630594   0.000000
    41  H    4.925930   7.385509   6.065688   3.929663   2.348112
    42  H    4.421430   6.832447   5.401472   2.891916   2.410879
    43  H    3.123212   1.094318   2.129560   4.792248   5.654757
    44  H    2.652226   1.090220   2.145760   4.843217   5.146096
    45  H    3.285856   1.092282   2.147124   4.836585   5.970080
    46  H    2.071223   2.219842   1.086827   2.497616   4.314529
    47  H    1.084422   2.762060   2.113875   3.301116   2.729898
    48  H    4.218778   6.500851   5.095335   2.679083   2.398314
                   41         42         43         44         45
    41  H    0.000000
    42  H    1.779166   0.000000
    43  H    7.783515   7.372851   0.000000
    44  H    7.461598   7.048564   1.768039   0.000000
    45  H    8.170623   7.430763   1.752123   1.779298   0.000000
    46  H    6.187033   5.328538   2.643249   3.102382   2.525416
    47  H    5.070105   4.831058   3.390351   2.471530   3.637394
    48  H    1.779917   1.779525   6.788113   6.817094   7.233723
                   46         47         48
    46  H    0.000000
    47  H    3.056447   0.000000
    48  H    4.974646   4.704128   0.000000
 Stoichiometry    C16H24N2O5S
 Framework group  C1[X(C16H24N2O5S)]
 Deg. of freedom   138
 Full point group                 C1      NOp   1
 Largest Abelian subgroup         C1      NOp   1
 Largest concise Abelian subgroup C1      NOp   1
                         Standard orientation:                         
 ---------------------------------------------------------------------
 Center     Atomic      Atomic             Coordinates (Angstroms)
 Number     Number       Type             X           Y           Z
 ---------------------------------------------------------------------
      1          6           0       -4.685038   -1.961656   -0.569886
      2          1           0       -4.642120   -2.911974   -0.039380
      3          1           0       -5.706677   -1.798162   -0.914823
      4          6           0       -2.545556    0.454772   -0.680610
      5          1           0       -2.354910   -0.168766   -1.561688
      6          8           0       -2.080676    1.758915   -0.869625
      7          1           0       -1.128790    1.718218   -1.076410
      8          6           0       -4.035965    0.489691   -0.366866
      9          1           0       -4.649920    0.571760   -1.269283
     10          8           0       -4.306444    1.545053    0.525849
     11          1           0       -3.776198    2.298736    0.235869
     12          6           0       -1.987765   -0.246910    0.570775
     13          1           0       -1.819990    0.500812    1.352822
     14          6           0       -4.249443   -0.838089    0.350396
     15          1           0       -4.973049   -0.695708    1.154820
     16          8           0       -2.986304   -1.168936    0.945120
     17          7           0       -0.745603   -0.951893    0.382921
     18          6           0       -0.697854   -2.024827   -0.504677
     19          1           0       -1.641571   -2.272829   -0.968748
     20          6           0        0.406801   -2.729004   -0.727528
     21          1           0        0.354589   -3.565123   -1.411555
     22          6           0        1.713393   -2.428168   -0.051817
     23          1           0        2.101186   -3.331620    0.435393
     24          1           0        2.465091   -2.161468   -0.805220
     25          6           0        1.539970   -1.321374    0.957495
     26          6           0        0.369574   -0.680179    1.119317
     27          1           0        0.288210    0.106683    1.860395
     28          6           0        2.661534   -0.889783    1.817670
     29          8           0        2.540932   -0.148830    2.776439
     30          7           0        3.888236   -1.379928    1.458563
     31          1           0        4.682025   -1.094015    2.005222
     32          1           0        4.030246   -1.932535    0.632738
     33          1           0       -4.034654   -2.026769   -1.445257
     34          6           0        0.266912    3.581492    0.333686
     35          6           0        1.598359    1.461639   -0.756301
     36          6           0        2.824973    0.695189   -1.039898
     37          6           0        4.074564   -0.944175   -2.446668
     38          6           0        2.853438   -0.200314   -2.021916
     39          8           0        0.527568    1.242878   -1.289411
     40         16           0        1.870123    2.770697    0.378923
     41          1           0        0.377080    4.509531    0.889714
     42          1           0       -0.496244    2.962144    0.798438
     43          1           0        4.430791   -0.558898   -3.406978
     44          1           0        4.880060   -0.837345   -1.719796
     45          1           0        3.864015   -2.005400   -2.596837
     46          1           0        1.930811   -0.380724   -2.567264
     47          1           0        3.703109    0.923538   -0.446008
     48          1           0       -0.011478    3.799041   -0.695320
 ---------------------------------------------------------------------
 Rotational constants (GHZ):           0.3282530           0.1627726           0.1388991
 Leave Link  202 at Sat Aug 13 20:21:42 2022, MaxMem=  2684354560 cpu:               0.2 elap:               0.0
 (Enter /storage/apps/GAUSSIAN/G16_RevA03/g16/l301.exe)
 Standard basis: def2TZVP (5D, 7F)
 Ernie: Thresh=  0.10000D-02 Tol=  0.10000D-05 Strict=F.
 There are  1014 symmetry adapted cartesian basis functions of A   symmetry.
 There are   894 symmetry adapted basis functions of A   symmetry.
   894 basis functions,  1434 primitive gaussians,  1014 cartesian basis functions
    95 alpha electrons       95 beta electrons
       nuclear repulsion energy      2484.1197300566 Hartrees.
 IExCor= 4336 DFT=T Ex+Corr=M062X ExCW=0 ScaHFX=  0.540000
 ScaDFX=  1.000000  1.000000  1.000000  1.000000 ScalE2=  1.000000  1.000000
 IRadAn=      5 IRanWt=     -1 IRanGd=            0 ICorTp=0 IEmpDi=131
 NAtoms=   48 NActive=   48 NUniq=   48 SFac= 1.00D+00 NAtFMM=   60 NAOKFM=F Big=F
 Integral buffers will be    131072 words long.
 Raffenetti 2 integral format.
 Two-electron integral symmetry is turned on.
 R6Disp:  Grimme-D3 Dispersion energy=       -0.0043082771 Hartrees.
 Nuclear repulsion after empirical dispersion term =     2484.1154217795 Hartrees.
 Leave Link  301 at Sat Aug 13 20:21:43 2022, MaxMem=  2684354560 cpu:               0.9 elap:               0.1
 (Enter /storage/apps/GAUSSIAN/G16_RevA03/g16/l302.exe)
 NPDir=0 NMtPBC=     1 NCelOv=     1 NCel=       1 NClECP=     1 NCelD=      1
         NCelK=      1 NCelE2=     1 NClLst=     1 CellRange=     0.0.
 One-electron integrals computed using PRISM.
 One-electron integral symmetry used in STVInt
   1 Symmetry operations used in ECPInt.
 ECPInt:  NShTT=   65703 NPrTT=  200010 LenC2=   56843 LenP2D=  120999.
 LDataN:  DoStor=T MaxTD1= 6 Len=  172
 NBasis=   894 RedAO= T EigKep=  2.83D-05  NBF=   894
 NBsUse=   894 1.00D-06 EigRej= -1.00D+00 NBFU=   894
 Precomputing XC quadrature grid using
 IXCGrd= 4 IRadAn=           5 IRanWt=          -1 IRanGd=           0 AccXCQ= 0.00D+00.
 Generated NRdTot=       0 NPtTot=           0 NUsed=           0 NTot=          32
 NSgBfM=   998   997   998   998   998 MxSgAt=    48 MxSgA2=    48.
 Leave Link  302 at Sat Aug 13 20:21:44 2022, MaxMem=  2684354560 cpu:              18.4 elap:               1.2
 (Enter /storage/apps/GAUSSIAN/G16_RevA03/g16/l303.exe)
 DipDrv:  MaxL=1.
 Leave Link  303 at Sat Aug 13 20:21:44 2022, MaxMem=  2684354560 cpu:               2.0 elap:               0.2
 (Enter /storage/apps/GAUSSIAN/G16_RevA03/g16/l401.exe)
 ExpMin= 9.52D-02 ExpMax= 6.07D+04 ExpMxC= 2.07D+03 IAcc=3 IRadAn=         5 AccDes= 0.00D+00
 Harris functional with IExCor= 1009 and IRadAn=       5 diagonalized for initial guess.
 HarFok:  IExCor= 1009 AccDes= 0.00D+00 IRadAn=         5 IDoV= 1 UseB2=F ITyADJ=14
 ICtDFT=  3500011 ScaDFX=  1.000000  1.000000  1.000000  1.000000
 FoFCou: FMM=F IPFlag=           0 FMFlag=      100000 FMFlg1=           0
         NFxFlg=           0 DoJE=T BraDBF=F KetDBF=T FulRan=T
         wScrn=  0.000000 ICntrl=       500 IOpCl=  0 I1Cent=   200000004 NGrid=           0
         NMat0=    1 NMatS0=      1 NMatT0=    0 NMatD0=    1 NMtDS0=    0 NMtDT0=    0
 Petite list used in FoFCou.
 Harris En= -1507.25341952356    
 JPrj=0 DoOrth=F DoCkMO=F.
 Leave Link  401 at Sat Aug 13 20:21:48 2022, MaxMem=  2684354560 cpu:              59.8 elap:               3.8
 (Enter /storage/apps/GAUSSIAN/G16_RevA03/g16/l502.exe)
 Integral symmetry usage will be decided dynamically.
 Closed shell SCF:
 Using DIIS extrapolation, IDIIS=  1040.
 NGot=  2684354560 LenX=  2682272944 LenY=  2681243734
 Requested convergence on RMS density matrix=1.00D-08 within 128 cycles.
 Requested convergence on MAX density matrix=1.00D-06.
 Requested convergence on             energy=1.00D-06.
 No special actions if energy rises.
 Fock matrices will be formed incrementally for  20 cycles.
 Integral accuracy reduced to 1.0D-05 until final iterations.

 Cycle   1  Pass 0  IDiag  1:
 FoFJK:  IHMeth= 1 ICntrl=       0 DoSepK=F KAlg= 0 I1Cent=           0 FoldK=F
 IRaf= 790000000 NMat=       1 IRICut=       1 DoRegI=T DoRafI=F ISym2E= 0 IDoP0=0 IntGTp=1.
 FoFCou: FMM=F IPFlag=           0 FMFlag=      100000 FMFlg1=           0
         NFxFlg=           0 DoJE=F BraDBF=F KetDBF=F FulRan=T
         wScrn=  0.000000 ICntrl=         0 IOpCl=  0 I1Cent=           0 NGrid=           0
         NMat0=    1 NMatS0=      1 NMatT0=    0 NMatD0=    1 NMtDS0=    0 NMtDT0=    0
 Symmetry not used in FoFCou.
 E= -1507.18598311538    
 DIIS: error= 1.51D-02 at cycle   1 NSaved=   1.
 NSaved= 1 IEnMin= 1 EnMin= -1507.18598311538     IErMin= 1 ErrMin= 1.51D-02
 ErrMax= 1.51D-02  0.00D+00 EMaxC= 1.00D-01 BMatC= 1.00D+00 BMatP= 1.00D+00
 IDIUse=3 WtCom= 8.49D-01 WtEn= 1.51D-01
 Coeff-Com:  0.100D+01
 Coeff-En:   0.100D+01
 Coeff:      0.100D+01
 Gap=     0.300 Goal=   None    Shift=    0.000
 GapD=    0.300 DampG=1.000 DampE=0.500 DampFc=0.5000 IDamp=-1.
 Damping current iteration by 5.00D-01
 RMSDP=4.53D-03 MaxDP=1.80D+00              OVMax= 2.11D-01

 Cycle   2  Pass 0  IDiag  1:
 RMSU=  2.26D-03    CP:  1.02D+00
 E= -1507.53062895182     Delta-E=       -0.344645836434 Rises=F Damp=T
 DIIS: error= 3.59D-03 at cycle   2 NSaved=   2.
 NSaved= 2 IEnMin= 2 EnMin= -1507.53062895182     IErMin= 2 ErrMin= 3.59D-03
 ErrMax= 3.59D-03  0.00D+00 EMaxC= 1.00D-01 BMatC= 8.65D-02 BMatP= 1.00D+00
 IDIUse=3 WtCom= 9.64D-01 WtEn= 3.59D-02
 Coeff-Com: -0.170D-01 0.102D+01
 Coeff-En:   0.153D-01 0.985D+00
 Coeff:     -0.159D-01 0.102D+01
 Gap=     0.318 Goal=   None    Shift=    0.000
 RMSDP=1.39D-03 MaxDP=5.40D-01 DE=-3.45D-01 OVMax= 1.70D-01

 Cycle   3  Pass 0  IDiag  1:
 RMSU=  1.08D-03    CP:  1.00D+00  6.16D-01
 E= -1507.88935869556     Delta-E=       -0.358729743740 Rises=F Damp=F
 DIIS: error= 4.51D-03 at cycle   3 NSaved=   3.
 NSaved= 3 IEnMin= 3 EnMin= -1507.88935869556     IErMin= 2 ErrMin= 3.59D-03
 ErrMax= 4.51D-03  0.00D+00 EMaxC= 1.00D-01 BMatC= 5.14D-02 BMatP= 8.65D-02
 IDIUse=3 WtCom= 9.55D-01 WtEn= 4.51D-02
 Coeff-Com: -0.838D-01 0.458D+00 0.626D+00
 Coeff-En:   0.000D+00 0.000D+00 0.100D+01
 Coeff:     -0.800D-01 0.437D+00 0.643D+00
 Gap=     0.208 Goal=   None    Shift=    0.000
 RMSDP=3.78D-04 MaxDP=7.83D-02 DE=-3.59D-01 OVMax= 6.82D-02

 Cycle   4  Pass 0  IDiag  1:
 RMSU=  3.13D-04    CP:  1.00D+00  7.01D-01  9.17D-01
 E= -1507.92223487124     Delta-E=       -0.032876175684 Rises=F Damp=F
 DIIS: error= 2.01D-03 at cycle   4 NSaved=   4.
 NSaved= 4 IEnMin= 4 EnMin= -1507.92223487124     IErMin= 4 ErrMin= 2.01D-03
 ErrMax= 2.01D-03  0.00D+00 EMaxC= 1.00D-01 BMatC= 1.04D-02 BMatP= 5.14D-02
 IDIUse=3 WtCom= 9.80D-01 WtEn= 2.01D-02
 Coeff-Com: -0.368D-01 0.989D-01 0.348D+00 0.589D+00
 Coeff-En:   0.000D+00 0.000D+00 0.140D+00 0.860D+00
 Coeff:     -0.361D-01 0.970D-01 0.344D+00 0.595D+00
 Gap=     0.208 Goal=   None    Shift=    0.000
 RMSDP=1.29D-04 MaxDP=1.94D-02 DE=-3.29D-02 OVMax= 1.74D-02

 Cycle   5  Pass 0  IDiag  1:
 RMSU=  7.93D-05    CP:  1.00D+00  6.84D-01  9.45D-01  7.15D-01
 E= -1507.92991879198     Delta-E=       -0.007683920737 Rises=F Damp=F
 DIIS: error= 3.14D-04 at cycle   5 NSaved=   5.
 NSaved= 5 IEnMin= 5 EnMin= -1507.92991879198     IErMin= 5 ErrMin= 3.14D-04
 ErrMax= 3.14D-04  0.00D+00 EMaxC= 1.00D-01 BMatC= 4.13D-04 BMatP= 1.04D-02
 IDIUse=3 WtCom= 9.97D-01 WtEn= 3.14D-03
 Coeff-Com: -0.105D-01 0.183D-01 0.121D+00 0.266D+00 0.605D+00
 Coeff-En:   0.000D+00 0.000D+00 0.000D+00 0.000D+00 0.100D+01
 Coeff:     -0.105D-01 0.182D-01 0.121D+00 0.265D+00 0.606D+00
 Gap=     0.207 Goal=   None    Shift=    0.000
 RMSDP=4.94D-05 MaxDP=1.71D-02 DE=-7.68D-03 OVMax= 4.08D-03

 Cycle   6  Pass 0  IDiag  1:
 RMSU=  3.23D-05    CP:  1.00D+00  6.69D-01  9.57D-01  7.30D-01  8.91D-01
 E= -1507.93024798883     Delta-E=       -0.000329196852 Rises=F Damp=F
 DIIS: error= 1.60D-04 at cycle   6 NSaved=   6.
 NSaved= 6 IEnMin= 6 EnMin= -1507.93024798883     IErMin= 6 ErrMin= 1.60D-04
 ErrMax= 1.60D-04  0.00D+00 EMaxC= 1.00D-01 BMatC= 5.36D-05 BMatP= 4.13D-04
 IDIUse=3 WtCom= 9.98D-01 WtEn= 1.60D-03
 Coeff-Com:  0.157D-03-0.419D-02 0.131D-01 0.439D-01 0.274D+00 0.673D+00
 Coeff-En:   0.000D+00 0.000D+00 0.000D+00 0.000D+00 0.000D+00 0.100D+01
 Coeff:      0.157D-03-0.419D-02 0.131D-01 0.438D-01 0.274D+00 0.673D+00
 Gap=     0.208 Goal=   None    Shift=    0.000
 RMSDP=2.07D-05 MaxDP=4.45D-03 DE=-3.29D-04 OVMax= 3.34D-03

 Cycle   7  Pass 0  IDiag  1:
 RMSU=  1.68D-05    CP:  1.00D+00  6.66D-01  9.62D-01  7.34D-01  9.71D-01
                    CP:  1.01D+00
 E= -1507.93031143155     Delta-E=       -0.000063442720 Rises=F Damp=F
 DIIS: error= 7.70D-05 at cycle   7 NSaved=   7.
 NSaved= 7 IEnMin= 7 EnMin= -1507.93031143155     IErMin= 7 ErrMin= 7.70D-05
 ErrMax= 7.70D-05  0.00D+00 EMaxC= 1.00D-01 BMatC= 9.05D-06 BMatP= 5.36D-05
 IDIUse=1 WtCom= 1.00D+00 WtEn= 0.00D+00
 Coeff-Com:  0.181D-02-0.494D-02-0.120D-01-0.241D-01 0.141D-01 0.289D+00
 Coeff-Com:  0.736D+00
 Coeff:      0.181D-02-0.494D-02-0.120D-01-0.241D-01 0.141D-01 0.289D+00
 Coeff:      0.736D+00
 Gap=     0.208 Goal=   None    Shift=    0.000
 RMSDP=1.78D-05 MaxDP=5.81D-03 DE=-6.34D-05 OVMax= 1.95D-03

 Cycle   8  Pass 0  IDiag  1:
 RMSU=  1.05D-05    CP:  1.00D+00  6.61D-01  9.64D-01  7.38D-01  1.04D+00
                    CP:  1.22D+00  1.27D+00
 E= -1507.93031895826     Delta-E=       -0.000007526711 Rises=F Damp=F
 DIIS: error= 2.80D-05 at cycle   8 NSaved=   8.
 NSaved= 8 IEnMin= 8 EnMin= -1507.93031895826     IErMin= 8 ErrMin= 2.80D-05
 ErrMax= 2.80D-05  0.00D+00 EMaxC= 1.00D-01 BMatC= 2.05D-06 BMatP= 9.05D-06
 IDIUse=1 WtCom= 1.00D+00 WtEn= 0.00D+00
 Coeff-Com:  0.943D-03-0.174D-02-0.803D-02-0.221D-01-0.460D-01 0.115D-01
 Coeff-Com:  0.358D+00 0.707D+00
 Coeff:      0.943D-03-0.174D-02-0.803D-02-0.221D-01-0.460D-01 0.115D-01
 Coeff:      0.358D+00 0.707D+00
 Gap=     0.208 Goal=   None    Shift=    0.000
 RMSDP=1.80D-05 MaxDP=3.28D-03 DE=-7.53D-06 OVMax= 7.07D-04

 Cycle   9  Pass 0  IDiag  1:
 RMSU=  8.74D-06    CP:  1.00D+00  6.58D-01  9.64D-01  7.38D-01  1.08D+00
                    CP:  1.36D+00  1.73D+00  2.05D+00
 E= -1507.93030908601     Delta-E=        0.000009872251 Rises=F Damp=F
 DIIS: error= 2.76D-05 at cycle   9 NSaved=   9.
 NSaved= 9 IEnMin= 8 EnMin= -1507.93031895826     IErMin= 9 ErrMin= 2.76D-05
 ErrMax= 2.76D-05  0.00D+00 EMaxC= 1.00D-01 BMatC= 5.40D-07 BMatP= 2.05D-06
 IDIUse=1 WtCom= 1.00D+00 WtEn= 0.00D+00
 Coeff-Com:  0.380D-03-0.619D-03-0.315D-02-0.103D-01-0.244D-01-0.139D-01
 Coeff-Com:  0.140D+00 0.379D+00 0.533D+00
 Coeff:      0.380D-03-0.619D-03-0.315D-02-0.103D-01-0.244D-01-0.139D-01
 Coeff:      0.140D+00 0.379D+00 0.533D+00
 Gap=     0.208 Goal=   None    Shift=    0.000
 RMSDP=1.83D-05 MaxDP=1.93D-03 DE= 9.87D-06 OVMax= 1.70D-04

 Cycle  10  Pass 0  IDiag  1:
 RMSU=  4.86D-06    CP:  1.00D+00  6.57D-01  9.65D-01  7.40D-01  1.10D+00
                    CP:  1.49D+00  2.15D+00  3.00D+00  2.13D+00
 E= -1507.93029839219     Delta-E=        0.000010693814 Rises=F Damp=F
 DIIS: error= 3.96D-05 at cycle  10 NSaved=  10.
 NSaved=10 IEnMin= 8 EnMin= -1507.93031895826     IErMin= 9 ErrMin= 2.76D-05
 ErrMax= 3.96D-05  0.00D+00 EMaxC= 1.00D-01 BMatC= 9.25D-07 BMatP= 5.40D-07
 IDIUse=1 WtCom= 1.00D+00 WtEn= 0.00D+00
 Coeff-Com:  0.359D-03-0.469D-03-0.311D-02-0.113D-01-0.305D-01-0.339D-01
 Coeff-Com:  0.130D+00 0.473D+00 0.110D+01-0.627D+00
 Coeff:      0.359D-03-0.469D-03-0.311D-02-0.113D-01-0.305D-01-0.339D-01
 Coeff:      0.130D+00 0.473D+00 0.110D+01-0.627D+00
 Gap=     0.208 Goal=   None    Shift=    0.000
 RMSDP=2.34D-05 MaxDP=2.32D-03 DE= 1.07D-05 OVMax= 5.18D-05

 Problem detected with inexpensive integrals.
 Switching to full accuracy and repeating last cycle.
 Cycle  11  Pass 1  IDiag  1:
 E= -1507.93025772175     Delta-E=        0.000040670449 Rises=F Damp=F
 DIIS: error= 3.05D-04 at cycle   1 NSaved=   1.
 NSaved= 1 IEnMin= 1 EnMin= -1507.93025772175     IErMin= 1 ErrMin= 3.05D-04
 ErrMax= 3.05D-04  0.00D+00 EMaxC= 1.00D-01 BMatC= 8.70D-05 BMatP= 8.70D-05
 IDIUse=3 WtCom= 9.97D-01 WtEn= 3.05D-03
 Coeff-Com:  0.100D+01
 Coeff-En:   0.100D+01
 Coeff:      0.100D+01
 Gap=     0.208 Goal=   None    Shift=    0.000
 RMSDP=4.15D-04 MaxDP=3.10D-02 DE= 4.07D-05 OVMax= 8.61D-04

 Cycle  12  Pass 1  IDiag  1:
 RMSU=  4.14D-04    CP:  9.95D-01
 E= -1507.93031191500     Delta-E=       -0.000054193256 Rises=F Damp=F
 DIIS: error= 8.09D-06 at cycle   2 NSaved=   2.
 NSaved= 2 IEnMin= 2 EnMin= -1507.93031191500     IErMin= 2 ErrMin= 8.09D-06
 ErrMax= 8.09D-06  0.00D+00 EMaxC= 1.00D-01 BMatC= 8.30D-08 BMatP= 8.70D-05
 IDIUse=1 WtCom= 1.00D+00 WtEn= 0.00D+00
 Coeff-Com: -0.161D-01 0.102D+01
 Coeff:     -0.161D-01 0.102D+01
 Gap=     0.208 Goal=   None    Shift=    0.000
 RMSDP=1.53D-05 MaxDP=1.19D-03 DE=-5.42D-05 OVMax= 8.89D-05

 Cycle  13  Pass 1  IDiag  1:
 RMSU=  5.18D-06    CP:  9.95D-01  1.03D+00
 E= -1507.93031196945     Delta-E=       -0.000000054443 Rises=F Damp=F
 DIIS: error= 4.55D-06 at cycle   3 NSaved=   3.
 NSaved= 3 IEnMin= 3 EnMin= -1507.93031196945     IErMin= 3 ErrMin= 4.55D-06
 ErrMax= 4.55D-06  0.00D+00 EMaxC= 1.00D-01 BMatC= 7.42D-08 BMatP= 8.30D-08
 IDIUse=1 WtCom= 1.00D+00 WtEn= 0.00D+00
 Coeff-Com: -0.908D-02 0.537D+00 0.472D+00
 Coeff:     -0.908D-02 0.537D+00 0.472D+00
 Gap=     0.208 Goal=   None    Shift=    0.000
 RMSDP=6.38D-07 MaxDP=2.02D-04 DE=-5.44D-08 OVMax= 4.02D-05

 Cycle  14  Pass 1  IDiag  1:
 RMSU=  5.85D-07    CP:  9.95D-01  1.04D+00  1.01D+00
 E= -1507.93031202243     Delta-E=       -0.000000052988 Rises=F Damp=F
 DIIS: error= 1.42D-06 at cycle   4 NSaved=   4.
 NSaved= 4 IEnMin= 4 EnMin= -1507.93031202243     IErMin= 4 ErrMin= 1.42D-06
 ErrMax= 1.42D-06  0.00D+00 EMaxC= 1.00D-01 BMatC= 3.61D-09 BMatP= 7.42D-08
 IDIUse=1 WtCom= 1.00D+00 WtEn= 0.00D+00
 Coeff-Com: -0.299D-03 0.673D-02 0.165D+00 0.829D+00
 Coeff:     -0.299D-03 0.673D-02 0.165D+00 0.829D+00
 Gap=     0.208 Goal=   None    Shift=    0.000
 RMSDP=3.38D-07 MaxDP=2.37D-05 DE=-5.30D-08 OVMax= 2.52D-05

 Cycle  15  Pass 1  IDiag  1:
 RMSU=  1.49D-07    CP:  9.95D-01  1.04D+00  1.05D+00  1.02D+00
 E= -1507.93031202538     Delta-E=       -0.000000002945 Rises=F Damp=F
 DIIS: error= 7.61D-07 at cycle   5 NSaved=   5.
 NSaved= 5 IEnMin= 5 EnMin= -1507.93031202538     IErMin= 5 ErrMin= 7.61D-07
 ErrMax= 7.61D-07  0.00D+00 EMaxC= 1.00D-01 BMatC= 8.85D-10 BMatP= 3.61D-09
 IDIUse=1 WtCom= 1.00D+00 WtEn= 0.00D+00
 Coeff-Com:  0.560D-03-0.392D-01 0.475D-01 0.450D+00 0.541D+00
 Coeff:      0.560D-03-0.392D-01 0.475D-01 0.450D+00 0.541D+00
 Gap=     0.208 Goal=   None    Shift=    0.000
 RMSDP=7.46D-08 MaxDP=1.44D-05 DE=-2.95D-09 OVMax= 8.69D-06

 Cycle  16  Pass 1  IDiag  1:
 RMSU=  5.12D-08    CP:  9.95D-01  1.04D+00  1.05D+00  1.08D+00  1.04D+00
 E= -1507.93031202619     Delta-E=       -0.000000000813 Rises=F Damp=F
 DIIS: error= 1.59D-07 at cycle   6 NSaved=   6.
 NSaved= 6 IEnMin= 6 EnMin= -1507.93031202619     IErMin= 6 ErrMin= 1.59D-07
 ErrMax= 1.59D-07  0.00D+00 EMaxC= 1.00D-01 BMatC= 4.31D-11 BMatP= 8.85D-10
 IDIUse=1 WtCom= 1.00D+00 WtEn= 0.00D+00
 Coeff-Com:  0.211D-03-0.129D-01-0.942D-02 0.344D-01 0.141D+00 0.846D+00
 Coeff:      0.211D-03-0.129D-01-0.942D-02 0.344D-01 0.141D+00 0.846D+00
 Gap=     0.208 Goal=   None    Shift=    0.000
 RMSDP=3.33D-08 MaxDP=1.14D-05 DE=-8.13D-10 OVMax= 5.10D-06

 Cycle  17  Pass 1  IDiag  1:
 RMSU=  1.83D-08    CP:  9.95D-01  1.04D+00  1.05D+00  1.12D+00  1.12D+00
                    CP:  1.19D+00
 E= -1507.93031202629     Delta-E=       -0.000000000095 Rises=F Damp=F
 DIIS: error= 9.16D-08 at cycle   7 NSaved=   7.
 NSaved= 7 IEnMin= 7 EnMin= -1507.93031202629     IErMin= 7 ErrMin= 9.16D-08
 ErrMax= 9.16D-08  0.00D+00 EMaxC= 1.00D-01 BMatC= 1.83D-11 BMatP= 4.31D-11
 IDIUse=1 WtCom= 1.00D+00 WtEn= 0.00D+00
 Coeff-Com: -0.147D-04 0.199D-02-0.157D-01-0.759D-01-0.506D-01 0.448D+00
 Coeff-Com:  0.693D+00
 Coeff:     -0.147D-04 0.199D-02-0.157D-01-0.759D-01-0.506D-01 0.448D+00
 Coeff:      0.693D+00
 Gap=     0.208 Goal=   None    Shift=    0.000
 RMSDP=1.23D-08 MaxDP=2.06D-06 DE=-9.50D-11 OVMax= 2.64D-06

 Cycle  18  Pass 1  IDiag  1:
 RMSU=  8.14D-09    CP:  9.95D-01  1.04D+00  1.05D+00  1.13D+00  1.14D+00
                    CP:  1.30D+00  1.02D+00
 E= -1507.93031202632     Delta-E=       -0.000000000038 Rises=F Damp=F
 DIIS: error= 3.28D-08 at cycle   8 NSaved=   8.
 NSaved= 8 IEnMin= 8 EnMin= -1507.93031202632     IErMin= 8 ErrMin= 3.28D-08
 ErrMax= 3.28D-08  0.00D+00 EMaxC= 1.00D-01 BMatC= 2.20D-12 BMatP= 1.83D-11
 IDIUse=1 WtCom= 1.00D+00 WtEn= 0.00D+00
 Coeff-Com: -0.372D-04 0.279D-02-0.649D-02-0.414D-01-0.466D-01 0.946D-01
 Coeff-Com:  0.327D+00 0.670D+00
 Coeff:     -0.372D-04 0.279D-02-0.649D-02-0.414D-01-0.466D-01 0.946D-01
 Coeff:      0.327D+00 0.670D+00
 Gap=     0.208 Goal=   None    Shift=    0.000
 RMSDP=6.07D-09 MaxDP=2.38D-06 DE=-3.77D-11 OVMax= 6.66D-07

 Cycle  19  Pass 1  IDiag  1:
 RMSU=  3.04D-09    CP:  9.95D-01  1.04D+00  1.05D+00  1.14D+00  1.15D+00
                    CP:  1.33D+00  1.16D+00  1.09D+00
 E= -1507.93031202636     Delta-E=       -0.000000000038 Rises=F Damp=F
 DIIS: error= 8.32D-09 at cycle   9 NSaved=   9.
 NSaved= 9 IEnMin= 9 EnMin= -1507.93031202636     IErMin= 9 ErrMin= 8.32D-09
 ErrMax= 8.32D-09  0.00D+00 EMaxC= 1.00D-01 BMatC= 1.87D-13 BMatP= 2.20D-12
 IDIUse=1 WtCom= 1.00D+00 WtEn= 0.00D+00
 Coeff-Com: -0.114D-04 0.735D-03-0.206D-03-0.385D-02-0.101D-01-0.263D-01
 Coeff-Com:  0.282D-01 0.244D+00 0.767D+00
 Coeff:     -0.114D-04 0.735D-03-0.206D-03-0.385D-02-0.101D-01-0.263D-01
 Coeff:      0.282D-01 0.244D+00 0.767D+00
 Gap=     0.208 Goal=   None    Shift=    0.000
 RMSDP=1.42D-09 MaxDP=1.69D-07 DE=-3.82D-11 OVMax= 2.52D-07

 SCF Done:  E(RM062X) =  -1507.93031203     A.U. after   19 cycles
            NFock= 19  Conv=0.14D-08     -V/T= 2.0037
 KE= 1.502386268544D+03 PE=-8.506658224833D+03 EE= 3.012226222484D+03
 Leave Link  502 at Sat Aug 13 20:30:34 2022, MaxMem=  2684354560 cpu:            8412.2 elap:             526.5
 (Enter /storage/apps/GAUSSIAN/G16_RevA03/g16/l601.exe)
 Copying SCF densities to generalized density rwf, IOpCl= 0 IROHF=0.

 **********************************************************************

            Population analysis using the SCF density.

 **********************************************************************

 Orbital symmetries:
       Occupied  (A) (A) (A) (A) (A) (A) (A) (A) (A) (A) (A) (A)
                 (A) (A) (A) (A) (A) (A) (A) (A) (A) (A) (A) (A)
                 (A) (A) (A) (A) (A) (A) (A) (A) (A) (A) (A) (A)
                 (A) (A) (A) (A) (A) (A) (A) (A) (A) (A) (A) (A)
                 (A) (A) (A) (A) (A) (A) (A) (A) (A) (A) (A) (A)
                 (A) (A) (A) (A) (A) (A) (A) (A) (A) (A) (A) (A)
                 (A) (A) (A) (A) (A) (A) (A) (A) (A) (A) (A) (A)
                 (A) (A) (A) (A) (A) (A) (A) (A) (A) (A) (A)
       Virtual   (A) (A) (A) (A) (A) (A) (A) (A) (A) (A) (A) (A)
                 (A) (A) (A) (A) (A) (A) (A) (A) (A) (A) (A) (A)
                 (A) (A) (A) (A) (A) (A) (A) (A) (A) (A) (A) (A)
                 (A) (A) (A) (A) (A) (A) (A) (A) (A) (A) (A) (A)
                 (A) (A) (A) (A) (A) (A) (A) (A) (A) (A) (A) (A)
                 (A) (A) (A) (A) (A) (A) (A) (A) (A) (A) (A) (A)
                 (A) (A) (A) (A) (A) (A) (A) (A) (A) (A) (A) (A)
                 (A) (A) (A) (A) (A) (A) (A) (A) (A) (A) (A) (A)
                 (A) (A) (A) (A) (A) (A) (A) (A) (A) (A) (A) (A)
                 (A) (A) (A) (A) (A) (A) (A) (A) (A) (A) (A) (A)
                 (A) (A) (A) (A) (A) (A) (A) (A) (A) (A) (A) (A)
                 (A) (A) (A) (A) (A) (A) (A) (A) (A) (A) (A) (A)
                 (A) (A) (A) (A) (A) (A) (A) (A) (A) (A) (A) (A)
                 (A) (A) (A) (A) (A) (A) (A) (A) (A) (A) (A) (A)
                 (A) (A) (A) (A) (A) (A) (A) (A) (A) (A) (A) (A)
                 (A) (A) (A) (A) (A) (A) (A) (A) (A) (A) (A) (A)
                 (A) (A) (A) (A) (A) (A) (A) (A) (A) (A) (A) (A)
                 (A) (A) (A) (A) (A) (A) (A) (A) (A) (A) (A) (A)
                 (A) (A) (A) (A) (A) (A) (A) (A) (A) (A) (A) (A)
                 (A) (A) (A) (A) (A) (A) (A) (A) (A) (A) (A) (A)
                 (A) (A) (A) (A) (A) (A) (A) (A) (A) (A) (A) (A)
                 (A) (A) (A) (A) (A) (A) (A) (A) (A) (A) (A) (A)
                 (A) (A) (A) (A) (A) (A) (A) (A) (A) (A) (A) (A)
                 (A) (A) (A) (A) (A) (A) (A) (A) (A) (A) (A) (A)
                 (A) (A) (A) (A) (A) (A) (A) (A) (A) (A) (A) (A)
                 (A) (A) (A) (A) (A) (A) (A) (A) (A) (A) (A) (A)
                 (A) (A) (A) (A) (A) (A) (A) (A) (A) (A) (A) (A)
                 (A) (A) (A) (A) (A) (A) (A) (A) (A) (A) (A) (A)
                 (A) (A) (A) (A) (A) (A) (A) (A) (A) (A) (A) (A)
                 (A) (A) (A) (A) (A) (A) (A) (A) (A) (A) (A) (A)
                 (A) (A) (A) (A) (A) (A) (A) (A) (A) (A) (A) (A)
                 (A) (A) (A) (A) (A) (A) (A) (A) (A) (A) (A) (A)
                 (A) (A) (A) (A) (A) (A) (A) (A) (A) (A) (A) (A)
                 (A) (A) (A) (A) (A) (A) (A) (A) (A) (A) (A) (A)
                 (A) (A) (A) (A) (A) (A) (A) (A) (A) (A) (A) (A)
                 (A) (A) (A) (A) (A) (A) (A) (A) (A) (A) (A) (A)
                 (A) (A) (A) (A) (A) (A) (A) (A) (A) (A) (A) (A)
                 (A) (A) (A) (A) (A) (A) (A) (A) (A) (A) (A) (A)
                 (A) (A) (A) (A) (A) (A) (A) (A) (A) (A) (A) (A)
                 (A) (A) (A) (A) (A) (A) (A) (A) (A) (A) (A) (A)
                 (A) (A) (A) (A) (A) (A) (A) (A) (A) (A) (A) (A)
                 (A) (A) (A) (A) (A) (A) (A) (A) (A) (A) (A) (A)
                 (A) (A) (A) (A) (A) (A) (A) (A) (A) (A) (A) (A)
                 (A) (A) (A) (A) (A) (A) (A) (A) (A) (A) (A) (A)
                 (A) (A) (A) (A) (A) (A) (A) (A) (A) (A) (A) (A)
                 (A) (A) (A) (A) (A) (A) (A) (A) (A) (A) (A) (A)
                 (A) (A) (A) (A) (A) (A) (A) (A) (A) (A) (A) (A)
                 (A) (A) (A) (A) (A) (A) (A) (A) (A) (A) (A) (A)
                 (A) (A) (A) (A) (A) (A) (A) (A) (A) (A) (A) (A)
                 (A) (A) (A) (A) (A) (A) (A) (A) (A) (A) (A) (A)
                 (A) (A) (A) (A) (A) (A) (A) (A) (A) (A) (A) (A)
                 (A) (A) (A) (A) (A) (A) (A) (A) (A) (A) (A) (A)
                 (A) (A) (A) (A) (A) (A) (A) (A) (A) (A) (A) (A)
                 (A) (A) (A) (A) (A) (A) (A) (A) (A) (A) (A) (A)
                 (A) (A) (A) (A) (A) (A) (A) (A) (A) (A) (A) (A)
                 (A) (A) (A) (A) (A) (A) (A) (A) (A) (A) (A) (A)
                 (A) (A) (A) (A) (A) (A) (A) (A) (A) (A) (A) (A)
                 (A) (A) (A) (A) (A) (A) (A) (A) (A) (A) (A) (A)
                 (A) (A) (A) (A) (A) (A) (A) (A) (A) (A) (A) (A)
                 (A) (A) (A) (A) (A) (A) (A) (A) (A) (A) (A) (A)
                 (A) (A) (A) (A) (A) (A) (A) (A) (A) (A) (A) (A)
                 (A) (A) (A) (A) (A) (A) (A) (A) (A) (A) (A) (A)
                 (A) (A) (A) (A) (A) (A) (A) (A) (A) (A) (A) (A)
                 (A) (A) (A) (A) (A) (A) (A) (A) (A) (A) (A) (A)
                 (A) (A) (A) (A) (A) (A) (A) (A) (A) (A) (A) (A)
                 (A) (A) (A) (A) (A) (A) (A) (A) (A) (A) (A) (A)
                 (A) (A) (A) (A) (A) (A) (A)
 The electronic state is 1-A.
 Alpha  occ. eigenvalues --  -89.92305 -19.63797 -19.63228 -19.62591 -19.62141
 Alpha  occ. eigenvalues --  -19.57577 -14.78865 -14.76128 -10.66438 -10.63401
 Alpha  occ. eigenvalues --  -10.62873 -10.59417 -10.59019 -10.58937 -10.58256
 Alpha  occ. eigenvalues --  -10.57495 -10.57222 -10.57180 -10.55684 -10.55627
 Alpha  occ. eigenvalues --  -10.55101 -10.53751 -10.53381 -10.53213  -8.28238
 Alpha  occ. eigenvalues --   -6.20177  -6.19941  -6.19747  -1.19435  -1.18965
 Alpha  occ. eigenvalues --   -1.15887  -1.14892  -1.13656  -1.08260  -1.00710
 Alpha  occ. eigenvalues --   -0.93154  -0.91785  -0.90518  -0.88452  -0.87443
 Alpha  occ. eigenvalues --   -0.85493  -0.83296  -0.78838  -0.76960  -0.75489
 Alpha  occ. eigenvalues --   -0.73424  -0.70714  -0.67793  -0.67608  -0.66547
 Alpha  occ. eigenvalues --   -0.63775  -0.63269  -0.61920  -0.60524  -0.58782
 Alpha  occ. eigenvalues --   -0.58134  -0.57414  -0.56526  -0.56186  -0.55126
 Alpha  occ. eigenvalues --   -0.54385  -0.52973  -0.52468  -0.51985  -0.51334
 Alpha  occ. eigenvalues --   -0.50680  -0.50336  -0.50120  -0.49220  -0.49105
 Alpha  occ. eigenvalues --   -0.48709  -0.48549  -0.47727  -0.47139  -0.46900
 Alpha  occ. eigenvalues --   -0.46018  -0.44667  -0.44212  -0.44112  -0.43751
 Alpha  occ. eigenvalues --   -0.43389  -0.43133  -0.41647  -0.41344  -0.37781
 Alpha  occ. eigenvalues --   -0.36116  -0.35548  -0.34712  -0.34667  -0.33559
 Alpha  occ. eigenvalues --   -0.33402  -0.32835  -0.32336  -0.31291  -0.24316
 Alpha virt. eigenvalues --   -0.03471   0.00488   0.04175   0.04388   0.06085
 Alpha virt. eigenvalues --    0.07005   0.07346   0.07672   0.08620   0.09129
 Alpha virt. eigenvalues --    0.09355   0.09682   0.10439   0.10551   0.10883
 Alpha virt. eigenvalues --    0.11904   0.12069   0.12332   0.12616   0.12894
 Alpha virt. eigenvalues --    0.13487   0.13828   0.13908   0.13969   0.14555
 Alpha virt. eigenvalues --    0.15307   0.15640   0.16271   0.17100   0.17491
 Alpha virt. eigenvalues --    0.18027   0.18664   0.18799   0.19030   0.19445
 Alpha virt. eigenvalues --    0.20433   0.20739   0.21344   0.22135   0.22850
 Alpha virt. eigenvalues --    0.23084   0.23362   0.23665   0.24246   0.24756
 Alpha virt. eigenvalues --    0.24828   0.25553   0.25625   0.26278   0.27150
 Alpha virt. eigenvalues --    0.27436   0.27884   0.28245   0.28478   0.29124
 Alpha virt. eigenvalues --    0.29738   0.30060   0.30342   0.30453   0.31015
 Alpha virt. eigenvalues --    0.31307   0.31902   0.33256   0.33574   0.33928
 Alpha virt. eigenvalues --    0.34318   0.35253   0.35587   0.35746   0.36338
 Alpha virt. eigenvalues --    0.36794   0.37180   0.37443   0.38000   0.38277
 Alpha virt. eigenvalues --    0.38574   0.39193   0.39920   0.40157   0.40341
 Alpha virt. eigenvalues --    0.40825   0.41220   0.41578   0.42119   0.42334
 Alpha virt. eigenvalues --    0.42768   0.43040   0.43692   0.43772   0.43966
 Alpha virt. eigenvalues --    0.44593   0.45101   0.45437   0.45614   0.46083
 Alpha virt. eigenvalues --    0.46313   0.46586   0.47032   0.47543   0.47591
 Alpha virt. eigenvalues --    0.47888   0.48098   0.48726   0.49017   0.49519
 Alpha virt. eigenvalues --    0.49996   0.50537   0.50697   0.51098   0.51436
 Alpha virt. eigenvalues --    0.51881   0.52097   0.52315   0.52601   0.52935
 Alpha virt. eigenvalues --    0.53306   0.53480   0.54118   0.54430   0.54955
 Alpha virt. eigenvalues --    0.55446   0.55977   0.56314   0.56866   0.57595
 Alpha virt. eigenvalues --    0.58244   0.58545   0.58864   0.59465   0.60051
 Alpha virt. eigenvalues --    0.60673   0.60894   0.61534   0.62127   0.62540
 Alpha virt. eigenvalues --    0.63109   0.63335   0.64940   0.65439   0.65611
 Alpha virt. eigenvalues --    0.66522   0.66743   0.66903   0.67471   0.67895
 Alpha virt. eigenvalues --    0.68521   0.69235   0.69643   0.70129   0.71272
 Alpha virt. eigenvalues --    0.71643   0.72953   0.73169   0.73715   0.74168
 Alpha virt. eigenvalues --    0.74347   0.75216   0.76273   0.76645   0.76946
 Alpha virt. eigenvalues --    0.77621   0.77931   0.79525   0.80455   0.81162
 Alpha virt. eigenvalues --    0.81590   0.82184   0.82616   0.83963   0.84723
 Alpha virt. eigenvalues --    0.85625   0.86008   0.86130   0.86953   0.87446
 Alpha virt. eigenvalues --    0.88367   0.88480   0.88555   0.89450   0.90636
 Alpha virt. eigenvalues --    0.90989   0.91454   0.92091   0.92961   0.93261
 Alpha virt. eigenvalues --    0.93558   0.94795   0.95454   0.96027   0.96260
 Alpha virt. eigenvalues --    0.96462   0.97883   0.98430   0.99156   0.99532
 Alpha virt. eigenvalues --    0.99691   1.00606   1.00944   1.02124   1.03045
 Alpha virt. eigenvalues --    1.03568   1.04577   1.05121   1.05718   1.06499
 Alpha virt. eigenvalues --    1.07648   1.07825   1.08218   1.08646   1.09280
 Alpha virt. eigenvalues --    1.10892   1.11371   1.11823   1.12169   1.12633
 Alpha virt. eigenvalues --    1.13331   1.14437   1.15228   1.16299   1.16691
 Alpha virt. eigenvalues --    1.17355   1.18713   1.19090   1.19518   1.20138
 Alpha virt. eigenvalues --    1.20807   1.21163   1.22370   1.23030   1.23617
 Alpha virt. eigenvalues --    1.24123   1.25251   1.25867   1.27006   1.29023
 Alpha virt. eigenvalues --    1.29223   1.29953   1.30802   1.30992   1.31715
 Alpha virt. eigenvalues --    1.33401   1.33858   1.34060   1.35211   1.36559
 Alpha virt. eigenvalues --    1.37107   1.37955   1.38746   1.39023   1.40683
 Alpha virt. eigenvalues --    1.41525   1.42122   1.42403   1.43048   1.44859
 Alpha virt. eigenvalues --    1.45348   1.46329   1.48426   1.48788   1.49725
 Alpha virt. eigenvalues --    1.50390   1.50673   1.51223   1.51762   1.52805
 Alpha virt. eigenvalues --    1.53337   1.53739   1.54169   1.54851   1.55222
 Alpha virt. eigenvalues --    1.56216   1.56527   1.57151   1.57356   1.58593
 Alpha virt. eigenvalues --    1.58877   1.59062   1.59616   1.59818   1.60003
 Alpha virt. eigenvalues --    1.60595   1.61321   1.61767   1.61934   1.62358
 Alpha virt. eigenvalues --    1.62895   1.63492   1.64391   1.64922   1.65864
 Alpha virt. eigenvalues --    1.66037   1.67065   1.67590   1.67782   1.68701
 Alpha virt. eigenvalues --    1.68983   1.69270   1.70006   1.70252   1.71308
 Alpha virt. eigenvalues --    1.72103   1.73007   1.73520   1.74054   1.74701
 Alpha virt. eigenvalues --    1.75684   1.76336   1.76946   1.77467   1.78001
 Alpha virt. eigenvalues --    1.78569   1.78757   1.79383   1.79964   1.80934
 Alpha virt. eigenvalues --    1.82362   1.83649   1.83965   1.84576   1.84849
 Alpha virt. eigenvalues --    1.84862   1.85577   1.86764   1.87060   1.87865
 Alpha virt. eigenvalues --    1.88254   1.88603   1.89683   1.90893   1.91943
 Alpha virt. eigenvalues --    1.92700   1.93315   1.93786   1.94065   1.94259
 Alpha virt. eigenvalues --    1.95864   1.96302   1.97119   1.97261   1.98056
 Alpha virt. eigenvalues --    1.98847   1.99238   2.00008   2.01153   2.02515
 Alpha virt. eigenvalues --    2.02760   2.03400   2.04037   2.04408   2.05412
 Alpha virt. eigenvalues --    2.05989   2.06634   2.07292   2.07843   2.08409
 Alpha virt. eigenvalues --    2.09514   2.10435   2.11303   2.12162   2.12458
 Alpha virt. eigenvalues --    2.13323   2.15276   2.16713   2.17068   2.17355
 Alpha virt. eigenvalues --    2.18527   2.19535   2.19732   2.20376   2.20866
 Alpha virt. eigenvalues --    2.21192   2.21945   2.22504   2.22912   2.23680
 Alpha virt. eigenvalues --    2.24688   2.24828   2.26314   2.26454   2.26974
 Alpha virt. eigenvalues --    2.28140   2.28629   2.29039   2.30142   2.30805
 Alpha virt. eigenvalues --    2.31461   2.32063   2.32893   2.33156   2.34140
 Alpha virt. eigenvalues --    2.34625   2.34992   2.35638   2.36076   2.36706
 Alpha virt. eigenvalues --    2.37073   2.37399   2.38474   2.38973   2.39664
 Alpha virt. eigenvalues --    2.40218   2.40941   2.41668   2.42524   2.43217
 Alpha virt. eigenvalues --    2.43653   2.44621   2.45395   2.46109   2.46958
 Alpha virt. eigenvalues --    2.48188   2.48463   2.50138   2.50371   2.51199
 Alpha virt. eigenvalues --    2.52562   2.53444   2.53997   2.55122   2.55420
 Alpha virt. eigenvalues --    2.55842   2.57326   2.57927   2.58699   2.59078
 Alpha virt. eigenvalues --    2.59447   2.60440   2.60619   2.61523   2.62264
 Alpha virt. eigenvalues --    2.62801   2.63395   2.63866   2.64291   2.64648
 Alpha virt. eigenvalues --    2.65284   2.66003   2.66730   2.67297   2.67759
 Alpha virt. eigenvalues --    2.68306   2.69221   2.69691   2.70176   2.71732
 Alpha virt. eigenvalues --    2.72200   2.72406   2.72860   2.73192   2.73989
 Alpha virt. eigenvalues --    2.74788   2.75720   2.76999   2.77603   2.78965
 Alpha virt. eigenvalues --    2.79727   2.80647   2.81333   2.82456   2.82610
 Alpha virt. eigenvalues --    2.83374   2.83850   2.85017   2.85265   2.86313
 Alpha virt. eigenvalues --    2.86884   2.87346   2.88318   2.89108   2.89829
 Alpha virt. eigenvalues --    2.90351   2.91352   2.91940   2.92019   2.92815
 Alpha virt. eigenvalues --    2.93572   2.94482   2.95042   2.95846   2.97403
 Alpha virt. eigenvalues --    2.97885   2.98550   2.98752   3.00430   3.01288
 Alpha virt. eigenvalues --    3.01813   3.03011   3.03557   3.04251   3.04704
 Alpha virt. eigenvalues --    3.05595   3.06243   3.06394   3.06983   3.07259
 Alpha virt. eigenvalues --    3.08263   3.08535   3.09212   3.09462   3.09579
 Alpha virt. eigenvalues --    3.10843   3.11810   3.12298   3.12417   3.13057
 Alpha virt. eigenvalues --    3.13784   3.14180   3.14434   3.15007   3.15473
 Alpha virt. eigenvalues --    3.16133   3.16918   3.17078   3.17614   3.18181
 Alpha virt. eigenvalues --    3.18523   3.19172   3.19545   3.20068   3.20904
 Alpha virt. eigenvalues --    3.21480   3.21994   3.23328   3.23756   3.24454
 Alpha virt. eigenvalues --    3.24759   3.25125   3.26256   3.27236   3.27443
 Alpha virt. eigenvalues --    3.28138   3.28662   3.29711   3.30827   3.31679
 Alpha virt. eigenvalues --    3.31943   3.32334   3.32977   3.33435   3.34416
 Alpha virt. eigenvalues --    3.34845   3.35305   3.36038   3.36384   3.36795
 Alpha virt. eigenvalues --    3.37641   3.37836   3.38448   3.39183   3.39815
 Alpha virt. eigenvalues --    3.40451   3.41532   3.41743   3.42655   3.42957
 Alpha virt. eigenvalues --    3.44384   3.45152   3.45459   3.45840   3.46401
 Alpha virt. eigenvalues --    3.47314   3.47471   3.48750   3.49469   3.50030
 Alpha virt. eigenvalues --    3.50912   3.51879   3.52509   3.53306   3.54755
 Alpha virt. eigenvalues --    3.55218   3.55869   3.56031   3.56614   3.56948
 Alpha virt. eigenvalues --    3.58517   3.59374   3.59955   3.60746   3.61815
 Alpha virt. eigenvalues --    3.62301   3.62558   3.63172   3.64938   3.65379
 Alpha virt. eigenvalues --    3.65775   3.66403   3.67995   3.68415   3.69158
 Alpha virt. eigenvalues --    3.69461   3.71408   3.71660   3.73733   3.74966
 Alpha virt. eigenvalues --    3.75258   3.76272   3.77302   3.78184   3.78891
 Alpha virt. eigenvalues --    3.80098   3.80806   3.81972   3.82172   3.82682
 Alpha virt. eigenvalues --    3.85109   3.85956   3.87173   3.87972   3.89137
 Alpha virt. eigenvalues --    3.90873   3.91426   3.93039   3.93912   3.95167
 Alpha virt. eigenvalues --    3.96132   3.96883   3.97755   3.99452   4.00646
 Alpha virt. eigenvalues --    4.02320   4.02664   4.03926   4.05588   4.07204
 Alpha virt. eigenvalues --    4.09005   4.10483   4.11794   4.12706   4.13977
 Alpha virt. eigenvalues --    4.15049   4.16495   4.17148   4.18031   4.18844
 Alpha virt. eigenvalues --    4.19131   4.19803   4.20975   4.22000   4.24008
 Alpha virt. eigenvalues --    4.25487   4.26488   4.29562   4.30751   4.32205
 Alpha virt. eigenvalues --    4.32713   4.35500   4.36441   4.37746   4.38575
 Alpha virt. eigenvalues --    4.38918   4.40439   4.42151   4.42550   4.43641
 Alpha virt. eigenvalues --    4.44678   4.46164   4.47591   4.49144   4.50932
 Alpha virt. eigenvalues --    4.52641   4.53286   4.54138   4.57178   4.59275
 Alpha virt. eigenvalues --    4.61656   4.64419   4.65665   4.67265   4.67569
 Alpha virt. eigenvalues --    4.69103   4.69760   4.71536   4.72815   4.74555
 Alpha virt. eigenvalues --    4.75493   4.76837   4.80025   4.82347   4.84789
 Alpha virt. eigenvalues --    4.86602   4.88162   4.89870   4.90580   4.92848
 Alpha virt. eigenvalues --    4.94418   4.95165   4.98631   4.99603   5.01393
 Alpha virt. eigenvalues --    5.02456   5.03813   5.04566   5.07331   5.09012
 Alpha virt. eigenvalues --    5.12934   5.14135   5.14957   5.19195   5.20973
 Alpha virt. eigenvalues --    5.22193   5.24569   5.25581   5.26837   5.30086
 Alpha virt. eigenvalues --    5.30311   5.31485   5.31643   5.32850   5.38720
 Alpha virt. eigenvalues --    5.40315   5.42632   5.44448   5.47092   5.49097
 Alpha virt. eigenvalues --    5.49987   5.50897   5.53640   5.55173   5.56206
 Alpha virt. eigenvalues --    5.64577   5.69143   5.76074   5.77260   5.79644
 Alpha virt. eigenvalues --    5.80209   5.82272   5.83031   5.84056   5.89091
 Alpha virt. eigenvalues --    5.89674   5.92204   5.93942   5.96800   5.98357
 Alpha virt. eigenvalues --    5.99923   6.06704   6.07530   6.16402   6.18724
 Alpha virt. eigenvalues --    6.21836   6.25510   6.28458   6.30049   6.38818
 Alpha virt. eigenvalues --    6.39154   6.43621   6.45005   6.48729   6.54391
 Alpha virt. eigenvalues --    6.59430   6.62356   6.72775   6.76498   6.77455
 Alpha virt. eigenvalues --    6.77749   6.82804   6.84259   6.85485   6.86263
 Alpha virt. eigenvalues --    6.87166   6.98304   7.00513   7.04811   7.09190
 Alpha virt. eigenvalues --    7.11558   7.15073   7.15361   7.18276   7.22880
 Alpha virt. eigenvalues --    7.31840   7.36156   9.01959   9.39342   9.55205
 Alpha virt. eigenvalues --   19.98787  22.33130  22.46244  22.50081  22.52212
 Alpha virt. eigenvalues --   22.60426  22.66741  22.75407  22.77884  22.84958
 Alpha virt. eigenvalues --   22.92121  23.00894  23.01978  23.08767  23.10121
 Alpha virt. eigenvalues --   23.28851  23.52519  32.20193  33.24221  44.17399
 Alpha virt. eigenvalues --   44.19259  44.26347  44.29552  44.54581
          Condensed to atoms (all electrons):
               1          2          3          4          5          6
     1  C    5.157094   0.426050   0.409875   0.012146  -0.008029  -0.000246
     2  H    0.426050   0.498422  -0.015506  -0.002371   0.000453  -0.000005
     3  H    0.409875  -0.015506   0.520366  -0.000821   0.000342  -0.000012
     4  C    0.012146  -0.002371  -0.000821   5.630271   0.540063   0.183671
     5  H   -0.008029   0.000453   0.000342   0.540063   0.521114  -0.037176
     6  O   -0.000246  -0.000005  -0.000012   0.183671  -0.037176   8.150185
     7  H    0.000034  -0.000003  -0.000001  -0.056477  -0.008661   0.322695
     8  C   -0.011816   0.011007  -0.001184  -0.011644  -0.098120  -0.052097
     9  H    0.005017  -0.000353  -0.001689  -0.071780   0.002174   0.001091
    10  O    0.005491  -0.000186  -0.000034   0.057187   0.005689  -0.021419
[...]
 Leave Link  703 at Sat Aug 13 20:33:47 2022, MaxMem=  2684354560 cpu:            3052.9 elap:             191.1
 (Enter /storage/apps/GAUSSIAN/G16_RevA03/g16/l716.exe)
 Dipole        = 1.03662119D+00-4.52881088D-01-1.94749453D+00
 ***** Axes restored to original set *****
 -------------------------------------------------------------------
 Center     Atomic                   Forces (Hartrees/Bohr)
 Number     Number              X              Y              Z
 -------------------------------------------------------------------
      1        6           0.000276435   -0.000065745   -0.000025946
      2        1           0.000020463   -0.000003877   -0.000004840
      3        1           0.000006862   -0.000023068    0.000000454
      4        6           0.000323152   -0.000132361   -0.000216958
      5        1           0.000003139   -0.000013979    0.000002343
      6        8           0.000051128   -0.000126690   -0.000390699
      7        1           0.000039731   -0.000061639    0.000037393
      8        6           0.000339336   -0.000038782   -0.000055983
      9        1           0.000020829   -0.000004575    0.000003153
     10        8           0.000497986   -0.000035643   -0.000049019
     11        1           0.000030682   -0.000025205    0.000020047
     12        6           0.000257590   -0.000160671   -0.000234939
     13        1           0.000048566   -0.000011065   -0.000033364
     14        6           0.000398143   -0.000009060   -0.000039864
     15        1           0.000029205   -0.000012592   -0.000009113
     16        8           0.000699205    0.000002490   -0.000162442
     17        7           0.000421880   -0.000204321   -0.000221294
     18        6          -0.000300409   -0.000237387    0.000277612
     19        1          -0.000100005   -0.000047621    0.000131472
     20        6           0.000389506   -0.000184487   -0.000266142
     21        1          -0.000021888   -0.000009441    0.000066335
     22        6           0.001280118    0.000037442   -0.001967937
     23        1           0.000222551   -0.000028900   -0.000328307
     24        1          -0.000203590    0.000046283   -0.000131300
     25        6           0.001091163    0.000056323   -0.001286606
     26        6           0.000372773   -0.000075483   -0.000626840
     27        1           0.000013727   -0.000012314    0.000016655
     28        6           0.000430733   -0.000050341   -0.000253931
     29        8          -0.000401609    0.000284925    0.001796817
     30        7           0.000247061   -0.000447888   -0.000412847
     31        1           0.000079955    0.000041274   -0.000255341
     32        1           0.000486576    0.000286102   -0.000545042
     33        1          -0.000021333    0.000008455    0.000011303
     34        6           0.000291932    0.000039125   -0.000740545
     35        6          -0.000957907    0.000089106    0.001021739
     36        6          -0.001587309   -0.000330154    0.001163421
     37        6          -0.001447265   -0.000614581    0.000461199
     38        6          -0.001754531    0.000697874    0.002343753
     39        8          -0.001804040    0.000167967    0.001435397
     40       16          -0.000091037    0.000638710   -0.000430870
     41        1           0.000068157   -0.000001556   -0.000103631
     42        1          -0.000032385   -0.000045854   -0.000099613
     43        1           0.000466238    0.000056792   -0.000571230
     44        1          -0.000128123    0.000014658    0.000182383
     45        1           0.000016136    0.000483203    0.000321967
     46        1          -0.000065382   -0.000038902    0.000217208
     47        1          -0.000036790    0.000083236    0.000012934
     48        1           0.000032646    0.000020216   -0.000058945
 -------------------------------------------------------------------
 Cartesian Forces:  Max     0.002343753 RMS     0.000538023
 Leave Link  716 at Sat Aug 13 20:33:47 2022, MaxMem=  2684354560 cpu:               0.4 elap:               0.0
 (Enter /storage/apps/GAUSSIAN/G16_RevA03/g16/l103.exe)

 GradGradGradGradGradGradGradGradGradGradGradGradGradGradGradGradGradGrad
 Berny optimization.
 Search for a local minimum.
 Step number   1 out of a maximum of    2
 All quantities printed in internal units (Hartrees-Bohrs-Radians)
 Second derivative matrix not updated -- first step.
 ITU=  0
     Eigenvalues ---    0.00036   0.00093   0.00104   0.00125   0.00186
     Eigenvalues ---    0.00243   0.00312   0.00387   0.00423   0.00454
     Eigenvalues ---    0.00566   0.00730   0.00833   0.00893   0.00918
     Eigenvalues ---    0.01030   0.01075   0.01188   0.01385   0.01516
     Eigenvalues ---    0.01700   0.01896   0.02348   0.02497   0.02628
     Eigenvalues ---    0.02956   0.03205   0.03377   0.03760   0.03861
     Eigenvalues ---    0.04374   0.04625   0.04930   0.05113   0.05261
     Eigenvalues ---    0.05366   0.05536   0.05741   0.05852   0.05878
     Eigenvalues ---    0.06095   0.06160   0.06351   0.06393   0.06694
     Eigenvalues ---    0.06959   0.07516   0.07704   0.07930   0.08147
     Eigenvalues ---    0.08564   0.08705   0.09079   0.09820   0.10289
     Eigenvalues ---    0.10531   0.11666   0.12133   0.12434   0.12545
     Eigenvalues ---    0.12996   0.13108   0.13217   0.13659   0.13751
     Eigenvalues ---    0.13976   0.14086   0.15385   0.16018   0.16611
     Eigenvalues ---    0.16828   0.18608   0.19131   0.19723   0.19869
     Eigenvalues ---    0.20033   0.21113   0.21877   0.21940   0.22252
     Eigenvalues ---    0.25331   0.27240   0.27454   0.28324   0.31179
     Eigenvalues ---    0.33002   0.34225   0.35063   0.35312   0.36729
     Eigenvalues ---    0.38153   0.38153   0.38153   0.38153   0.40213
     Eigenvalues ---    0.42861   0.45214   0.48008   0.56083   0.56630
     Eigenvalues ---    0.61646   0.66465   0.69510   0.69856   0.74228
     Eigenvalues ---    0.78876   0.82433   0.87571   0.89171   0.90992
     Eigenvalues ---    0.91288   0.91854   0.93913   0.94526   0.94762
     Eigenvalues ---    0.95919   0.97233   0.99879   1.01682   1.02978
     Eigenvalues ---    1.05612   1.06858   1.09963   1.11477   1.14196
     Eigenvalues ---    1.19544   1.19912   1.25675   1.27200   1.30199
     Eigenvalues ---    1.33531   1.44769   1.52060   1.63720   1.70158
     Eigenvalues ---    1.79435   2.18496   2.27879
 Quadratic step=3.064D+00 exceeds max=3.000D-01 adjusted using Lamda=-7.885D-03.
 Angle between NR and scaled steps=  50.33 degrees.
 Angle between quadratic step and forces=  51.39 degrees.
 Linear search not attempted -- first point.
 Variable       Old X    -DE/DX   Delta X   Delta X   Delta X     New X
                                 (Linear)    (Quad)   (Total)
    X1        6.81739   0.00028   0.00000  -0.00481  -0.00481   6.81258
    Y1       -6.83841  -0.00007   0.00000   0.00283   0.00283  -6.83558
    Z1       -0.83785  -0.00003   0.00000   0.00595   0.00595  -0.83190
    X2        7.09843   0.00002   0.00000  -0.01130  -0.01130   7.08713
    Y2       -7.02246  -0.00000   0.00000  -0.00249  -0.00249  -7.02496
    Z2       -2.86856  -0.00000   0.00000   0.00625   0.00625  -2.86231
    X3        8.19263   0.00001   0.00000  -0.01069  -0.01069   8.18194
    Y3       -8.02792  -0.00002   0.00000  -0.00099  -0.00099  -8.02891
    Z3        0.13242   0.00000   0.00000   0.00905   0.00905   0.14147
    X4        3.57678   0.00032   0.00000   0.00429   0.00429   3.58106
    Y4       -2.74566  -0.00013   0.00000   0.00006   0.00006  -2.74560
    Z4        2.32278  -0.00022   0.00000  -0.00832  -0.00832   2.31446
    X5        2.34920   0.00000   0.00000   0.00376   0.00376   2.35296
    Y5       -4.39445  -0.00001   0.00000  -0.00113  -0.00113  -4.39559
    Z5        2.06787   0.00000   0.00000  -0.00010  -0.00010   2.06778
    X6        2.83634   0.00005   0.00000   0.00379   0.00379   2.84014
    Y6       -1.30860  -0.00013   0.00000   0.00153   0.00153  -1.30707
    Z6        4.41075  -0.00039   0.00000  -0.00986  -0.00986   4.40088
    X7        1.07939   0.00004   0.00000  -0.00122  -0.00122   1.07817
    Y7       -0.80669  -0.00006   0.00000  -0.00849  -0.00849  -0.81518
    Z7        4.17516   0.00004   0.00000   0.00427   0.00427   4.17943
    X8        6.31402   0.00034   0.00000   0.00543   0.00543   6.31945
    Y8       -3.57366  -0.00004   0.00000   0.00491   0.00491  -3.56876
    Z8        2.65480  -0.00006   0.00000  -0.00302  -0.00302   2.65178
    X9        6.48992   0.00002   0.00000   0.00173   0.00173   6.49166
    Y9       -5.24812  -0.00000   0.00000   0.00734   0.00734  -5.24078
    Z9        3.85627   0.00000   0.00000   0.00173   0.00173   3.85799
   X10        7.74825   0.00050   0.00000   0.00476   0.00476   7.75301
   Y10       -1.55037  -0.00004   0.00000   0.00579   0.00579  -1.54459
   Z10        3.62119  -0.00005   0.00000  -0.00298  -0.00298   3.61821
   X11        6.72366   0.00003   0.00000   0.00489   0.00489   6.72855
   Y11       -0.73908  -0.00003   0.00000   0.00021   0.00021  -0.73888
   Z11        4.89589   0.00002   0.00000   0.00171   0.00171   4.89759
   X12        3.72471   0.00026   0.00000   0.00502   0.00502   3.72973
   Y12       -1.25978  -0.00016   0.00000  -0.00303  -0.00303  -1.26281
   Z12       -0.17357  -0.00023   0.00000  -0.01094  -0.01094  -0.18451
   X13        4.29203   0.00005   0.00000  -0.00474  -0.00474   4.28729
   Y13        0.68744  -0.00001   0.00000  -0.00132  -0.00132   0.68612
   Z13        0.23579  -0.00003   0.00000  -0.00407  -0.00407   0.23171
   X14        7.13192   0.00040   0.00000   0.00823   0.00823   7.14015
   Y14       -4.09974  -0.00001   0.00000   0.00230   0.00230  -4.09743
   Z14       -0.05629  -0.00004   0.00000  -0.00071  -0.00071  -0.05700
   X15        9.08779   0.00003   0.00000   0.00942   0.00942   9.09721
   Y15       -3.49233  -0.00001   0.00000  -0.00241  -0.00241  -3.49473
   Z15       -0.29856  -0.00001   0.00000   0.00464   0.00464  -0.29392
   X16        5.56905   0.00070   0.00000   0.01556   0.01556   5.58461
   Y16       -2.52814   0.00000   0.00000   0.00452   0.00452  -2.52362
   Z16       -1.61808  -0.00016   0.00000  -0.00573  -0.00573  -1.62381
   X17        1.41010   0.00042   0.00000   0.00816   0.00816   1.41826
   Y17       -1.13919  -0.00020   0.00000  -0.00575  -0.00575  -1.14494
   Z17       -1.60147  -0.00022   0.00000  -0.01805  -0.01805  -1.61952
   X18        0.34256  -0.00030   0.00000  -0.00394  -0.00394   0.33861
   Y18       -3.36550  -0.00024   0.00000  -0.00627  -0.00627  -3.37177
   Z18       -2.51604   0.00028   0.00000  -0.00380  -0.00380  -2.51983
   X19        1.41712  -0.00010   0.00000  -0.02222  -0.02222   1.39490
   Y19       -5.05694  -0.00005   0.00000  -0.01080  -0.01080  -5.06774
   Z19       -2.12431   0.00013   0.00000   0.02418   0.02418  -2.10013
   X20       -1.77949   0.00039   0.00000   0.00300   0.00300  -1.77650
   Y20       -3.41049  -0.00018   0.00000  -0.00289  -0.00289  -3.41338
   Z20       -3.85791  -0.00027   0.00000  -0.01546  -0.01546  -3.87337
   X21       -2.45791  -0.00002   0.00000  -0.01376  -0.01376  -2.47166
   Y21       -5.21231  -0.00001   0.00000  -0.00498  -0.00498  -5.21729
   Z21       -4.54370   0.00007   0.00000   0.00815   0.00815  -4.53555
   X22       -3.24270   0.00128   0.00000   0.02050   0.02050  -3.22220
   Y22       -1.06572   0.00004   0.00000   0.00147   0.00147  -1.06425
   Z22       -4.49917  -0.00197   0.00000  -0.04275  -0.04275  -4.54192
   X23       -3.55944   0.00022   0.00000   0.02153   0.02153  -3.53791
   Y23       -0.96398  -0.00003   0.00000  -0.00191  -0.00191  -0.96588
   Z23       -6.54583  -0.00033   0.00000  -0.04177  -0.04177  -6.58760
   X24       -5.13528  -0.00020   0.00000   0.01727   0.01727  -5.11801
   Y24       -1.17440   0.00005   0.00000   0.01223   0.01223  -1.16217
   Z24       -3.65942  -0.00013   0.00000  -0.04196  -0.04196  -3.70138
   X25       -1.85087   0.00109   0.00000   0.01865   0.01865  -1.83222
   Y25        1.25069   0.00006   0.00000  -0.00133  -0.00133   1.24936
   Z25       -3.59537  -0.00129   0.00000  -0.03280  -0.03280  -3.62817
   X26        0.31238   0.00037   0.00000   0.01187   0.01187   0.32425
   Y26        1.09362  -0.00008   0.00000  -0.00493  -0.00493   1.08869
   Z26       -2.27284  -0.00063   0.00000  -0.02242  -0.02242  -2.29526
   X27        1.25519   0.00001   0.00000  -0.00083  -0.00083   1.25436
   Y27        2.80862  -0.00001   0.00000  -0.00541  -0.00541   2.80322
   Z27       -1.66804   0.00002   0.00000  -0.00027  -0.00027  -1.66831
   X28       -2.81952   0.00043   0.00000  -0.00503  -0.00503  -2.82455
   Y28        3.81541  -0.00005   0.00000   0.00028   0.00028   3.81569
   Z28       -4.12773  -0.00025   0.00000   0.01671   0.01671  -4.11102
   X29       -1.61645  -0.00040   0.00000  -0.04126  -0.04126  -1.65771
   Y29        5.74651   0.00028   0.00000   0.00756   0.00756   5.75408
   Z29       -3.78335   0.00180   0.00000   0.10284   0.10284  -3.68051
   X30       -5.23610   0.00025   0.00000   0.00056   0.00056  -5.23554
   Y30        3.90296  -0.00045   0.00000  -0.00365  -0.00365   3.89931
   Z30       -5.04679  -0.00041   0.00000   0.00036   0.00036  -5.04643
   X31       -5.98254   0.00008   0.00000  -0.01797  -0.01797  -6.00051
   Y31        5.61445   0.00004   0.00000  -0.00241  -0.00241   5.61204
   Z31       -5.39730  -0.00026   0.00000   0.04334   0.04334  -5.35397
   X32       -6.32185   0.00049   0.00000   0.01681   0.01681  -6.30504
   Y32        2.35738   0.00029   0.00000  -0.00924  -0.00924   2.34814
   Z32       -5.22077  -0.00055   0.00000  -0.04231  -0.04231  -5.26308
   X33        4.92688  -0.00002   0.00000  -0.00826  -0.00826   4.91861
   Y33       -7.52890   0.00001   0.00000   0.01472   0.01472  -7.51417
   Z33       -0.37817   0.00001   0.00000   0.01292   0.01292  -0.36525
   X34        0.39070   0.00029   0.00000   0.02402   0.02402   0.41471
   Y34        4.15957   0.00004   0.00000   0.00312   0.00312   4.16269
   Z34        5.32273  -0.00074   0.00000  -0.03181  -0.03181   5.29093
   X35       -3.12457  -0.00096   0.00000  -0.03836  -0.03836  -3.16293
   Y35        1.73135   0.00009   0.00000  -0.00253  -0.00253   1.72882
   Z35        2.43007   0.00102   0.00000   0.05168   0.05168   2.48175
   X36       -5.51227  -0.00159   0.00000  -0.02778  -0.02778  -5.54005
   Y36        1.64765  -0.00033   0.00000   0.00355   0.00355   1.65121
   Z36        0.99833   0.00116   0.00000   0.03592   0.03592   1.03425
   X37       -9.11644  -0.00145   0.00000   0.00839   0.00839  -9.10806
   Y37       -0.80542  -0.00061   0.00000  -0.00491  -0.00491  -0.81033
   Z37       -0.79970   0.00046   0.00000  -0.02431  -0.02431  -0.82401
   X38       -6.60952  -0.00175   0.00000  -0.02538  -0.02538  -6.63490
   Y38       -0.54774   0.00070   0.00000   0.00300   0.00300  -0.54474
   Z38        0.46291   0.00234   0.00000   0.03796   0.03796   0.50087
   X39       -1.90198  -0.00180   0.00000  -0.09253  -0.09253  -1.99451
   Y39       -0.13470   0.00017   0.00000  -0.01578  -0.01578  -0.15048
   Z39        2.98097   0.00144   0.00000   0.12528   0.12528   3.10626
   X40       -2.31350  -0.00009   0.00000   0.05039   0.05039  -2.26311
   Y40        4.80389   0.00064   0.00000   0.01124   0.01124   4.81513
   Z40        3.37191  -0.00043   0.00000  -0.06956  -0.06956   3.30235
   X41        0.86877   0.00007   0.00000   0.02134   0.02134   0.89010
   Y41        5.92879  -0.00000   0.00000   0.00193   0.00193   5.93072
   Z41        6.25241  -0.00010   0.00000  -0.02724  -0.02724   6.22517
   X42        1.97971  -0.00003   0.00000   0.03632   0.03632   2.01603
   Y42        3.51722  -0.00005   0.00000  -0.00941  -0.00941   3.50782
   Z42        4.18986  -0.00010   0.00000  -0.00624  -0.00624   4.18363
   X43      -10.53675   0.00047   0.00000  -0.01563  -0.01563 -10.55238
   Y43       -1.41940   0.00006   0.00000  -0.02380  -0.02380  -1.44320
   Z43        0.57224  -0.00057   0.00000  -0.06274  -0.06274   0.50950
   X44       -9.74103  -0.00013   0.00000   0.02007   0.02007  -9.72096
   Y44        0.98343   0.00001   0.00000  -0.00203  -0.00203   0.98140
   Z44       -1.60864   0.00018   0.00000  -0.02665  -0.02665  -1.63529
   X45       -9.07189   0.00002   0.00000   0.05660   0.05660  -9.01530
   Y45       -2.24242   0.00048   0.00000   0.00823   0.00823  -2.23419
   Z45       -2.28079   0.00032   0.00000  -0.03379  -0.03379  -2.31458
   X46       -5.63507  -0.00007   0.00000  -0.02664  -0.02664  -5.66171
   Y46       -2.26433  -0.00004   0.00000   0.00645   0.00645  -2.25788
   Z46        1.03025   0.00022   0.00000   0.05298   0.05298   1.08323
   X47       -6.36142  -0.00004   0.00000  -0.00118  -0.00118  -6.36259
   Y47        3.43915   0.00008   0.00000   0.00510   0.00510   3.44425
   Z47        0.47973   0.00001   0.00000  -0.00137  -0.00137   0.47836
   X48       -0.08024   0.00003   0.00000   0.00028   0.00028  -0.07996
   Y48        2.73758   0.00002   0.00000   0.01098   0.01098   2.74855
   Z48        6.73098  -0.00006   0.00000  -0.03049  -0.03049   6.70049
         Item               Value     Threshold  Converged?
 Maximum Force            0.002344     0.000450     NO 
 RMS     Force            0.000538     0.000300     NO 
 Maximum Displacement     0.125284     0.001800     NO 
 RMS     Displacement     0.025042     0.001200     NO 
 Predicted change in Energy=-9.613763D-04
 GradGradGradGradGradGradGradGradGradGradGradGradGradGradGradGradGradGrad

 Leave Link  103 at Sat Aug 13 20:33:47 2022, MaxMem=  2684354560 cpu:               0.9 elap:               0.1
 (Enter /storage/apps/GAUSSIAN/G16_RevA03/g16/l9999.exe)

 Test job not archived.
 1\1\GINC-T041\Force\RM062X\def2TZVP\C16H24N2O5S1\LV87696\13-Aug-2022\0
 \\#P M062X/Def2TZVP scf=(direct,conver=8) EmpiricalDispersion=GD3 Forc
 e Charge Prop=(Field,Read)\\Gaussian run\\0,1\C,3.607608,-3.618732,-0.
 44337\H,3.75633,-3.716128,-1.517976\H,4.335354,-4.248193,0.070072\C,1.
 892748,-1.45294,1.229164\H,1.243144,-2.325444,1.094271\O,1.500928,-0.6
 92481,2.334066\H,0.571187,-0.426881,2.209398\C,3.341237,-1.891101,1.40
 486\H,3.43432,-2.777183,2.040649\O,4.100195,-0.820423,1.916249\H,3.558
 009,-0.391106,2.590792\C,1.971033,-0.666648,-0.091847\H,2.271245,0.363
 78,0.124773\C,3.77405,-2.169487,-0.029787\H,4.80905,-1.84806,-0.157989
 \O,2.947015,-1.337835,-0.856251\N,0.746194,-0.602836,-0.847461\C,0.181
 274,-1.780944,-1.331429\H,0.749906,-2.676016,-1.124135\C,-0.941668,-1.
 804754,-2.041517\H,-1.300668,-2.758238,-2.404425\C,-1.715965,-0.563956
 ,-2.380859\H,-1.883575,-0.510114,-3.463906\H,-2.717473,-0.621464,-1.93
 6484\C,-0.97944,0.661836,-1.902587\C,0.165306,0.578721,-1.202734\H,0.6
 64218,1.48626,-0.882688\C,-1.492028,2.019027,-2.184302\O,-0.855389,3.0
 40924,-2.00206\N,-2.770824,2.065358,-2.670648\H,-3.165824,2.971037,-2.
 85613\H,-3.34538,1.247472,-2.762712\H,2.607191,-3.98412,-0.200117\C,0.
 206747,2.20115,2.81667\C,-1.653451,0.916192,1.285936\C,-2.916968,0.871
 9,0.528296\C,-4.824214,-0.426212,-0.423184\C,-3.497609,-0.289854,0.244
 963\O,-1.006483,-0.07128,1.577462\S,-1.224254,2.542109,1.78434\H,0.459
 732,3.137382,3.308633\H,1.047617,1.861235,2.217179\H,-5.575809,-0.7511
 15,0.302815\H,-5.154733,0.520409,-0.851257\H,-4.80064,-1.186638,-1.206
 942\H,-2.98195,-1.198234,0.545187\H,-3.366316,1.819921,0.253864\H,-0.0
 42461,1.448663,3.561881\\Version=ES64L-G16RevA.03\State=1-A\HF=-1507.9
 30312\RMSD=1.425e-09\RMSF=5.380e-04\Dipole=-1.8948713,-1.1620671,0.362
 6052\Quadrupole=6.557979,-2.6276901,-3.9302889,-2.7812864,6.8931478,7.
 3707534\PG=C01 [X(C16H24N2O5S1)]\\@


 ON A CLEAR DISK YOU CAN SEEK FOREVER.
 Job cpu time:       0 days  3 hours 12 minutes 48.3 seconds.
 Elapsed time:       0 days  0 hours 12 minutes  4.4 seconds.
 File lengths (MBytes):  RWF=    435 Int=      0 D2E=      0 Chk=     48 Scr=      1
 Normal termination of Gaussian 16 at Sat Aug 13 20:33:47 2022.
