 Entering Gaussian System, Link 0=g16
 Initial command:
 /storage/apps/GAUSSIAN/G16_RevA03/g16/l1.exe "/scratch/tmp/1019197/Gau-108279.inp" -scrdir="/scratch/tmp/1019197/"
 Entering Link 1 = /storage/apps/GAUSSIAN/G16_RevA03/g16/l1.exe PID=    108280.
  
 Copyright (c) 1988,1990,1992,1993,1995,1998,2003,2009,2016,
            Gaussian, Inc.  All Rights Reserved.
  
 This is part of the Gaussian(R) 16 program.  It is based on
 the Gaussian(R) 09 system (copyright 2009, Gaussian, Inc.),
 the Gaussian(R) 03 system (copyright 2003, Gaussian, Inc.),
 the Gaussian(R) 98 system (copyright 1998, Gaussian, Inc.),
 the Gaussian(R) 94 system (copyright 1995, Gaussian, Inc.),
 the Gaussian 92(TM) system (copyright 1992, Gaussian, Inc.),
 the Gaussian 90(TM) system (copyright 1990, Gaussian, Inc.),
 the Gaussian 88(TM) system (copyright 1988, Gaussian, Inc.),
 the Gaussian 86(TM) system (copyright 1986, Carnegie Mellon
 University), and the Gaussian 82(TM) system (copyright 1983,
 Carnegie Mellon University). Gaussian is a federally registered
 trademark of Gaussian, Inc.
  
 This software contains proprietary and confidential information,
 including trade secrets, belonging to Gaussian, Inc.
  
 This software is provided under written license and may be
 used, copied, transmitted, or stored only in accord with that
 written license.
  
 The following legend is applicable only to US Government
 contracts under FAR:
  
                    RESTRICTED RIGHTS LEGEND
  
 Use, reproduction and disclosure by the US Government is
 subject to restrictions as set forth in subparagraphs (a)
 and (c) of the Commercial Computer Software - Restricted
 Rights clause in FAR 52.227-19.
  
 Gaussian, Inc.
 340 Quinnipiac St., Bldg. 40, Wallingford CT 06492
  
  
 ---------------------------------------------------------------
 Warning -- This program may not be used in any manner that
 competes with the business of Gaussian, Inc. or will provide
 assistance to any competitor of Gaussian, Inc.  The licensee
 of this program is prohibited from giving any competitor of
 Gaussian, Inc. access to this program.  By using this program,
 the user acknowledges that Gaussian, Inc. is engaged in the
 business of creating and licensing software in the field of
 computational chemistry and represents and warrants to the
 licensee that it is not a competitor of Gaussian, Inc. and that
 it will not use this program in any manner prohibited above.
 ---------------------------------------------------------------
  

 Cite this work as:
 Gaussian 16, Revision A.03,
 M. J. Frisch, G. W. Trucks, H. B. Schlegel, G. E. Scuseria, 
 M. A. Robb, J. R. Cheeseman, G. Scalmani, V. Barone, 
 G. A. Petersson, H. Nakatsuji, X. Li, M. Caricato, A. V. Marenich, 
 J. Bloino, B. G. Janesko, R. Gomperts, B. Mennucci, H. P. Hratchian, 
 J. V. Ortiz, A. F. Izmaylov, J. L. Sonnenberg, D. Williams-Young, 
 F. Ding, F. Lipparini, F. Egidi, J. Goings, B. Peng, A. Petrone, 
 T. Henderson, D. Ranasinghe, V. G. Zakrzewski, J. Gao, N. Rega, 
 G. Zheng, W. Liang, M. Hada, M. Ehara, K. Toyota, R. Fukuda, 
 J. Hasegawa, M. Ishida, T. Nakajima, Y. Honda, O. Kitao, H. Nakai, 
 T. Vreven, K. Throssell, J. A. Montgomery, Jr., J. E. Peralta, 
 F. Ogliaro, M. J. Bearpark, J. J. Heyd, E. N. Brothers, K. N. Kudin, 
 V. N. Staroverov, T. A. Keith, R. Kobayashi, J. Normand, 
 K. Raghavachari, A. P. Rendell, J. C. Burant, S. S. Iyengar, 
 J. Tomasi, M. Cossi, J. M. Millam, M. Klene, C. Adamo, R. Cammi, 
 J. W. Ochterski, R. L. Martin, K. Morokuma, O. Farkas, 
 J. B. Foresman, and D. J. Fox, Gaussian, Inc., Wallingford CT, 2016.
 
 ******************************************
 Gaussian 16:  ES64L-G16RevA.03 25-Dec-2016
                13-Aug-2022 
 ******************************************
 %NProcShared=16
 Will use up to   16 processors via shared memory.
 %mem=20GB
 ----------------------------------------------------------------------
 #P M062X/Def2TZVP scf=(direct,conver=8) EmpiricalDispersion=GD3 Force 
 Charge Prop=(Field,Read)
 ----------------------------------------------------------------------
 1/10=7,18=10,28=-2,30=1,38=1,125=101/1,3;
 2/12=2,17=6,18=5,29=2,40=1/2;
 3/5=44,7=101,11=2,25=1,30=1,71=1,74=-55,124=31/1,2,3;
 4//1;
 5/5=2,6=8,38=5/2;
 6/7=2,8=2,9=2,10=2,14=2,15=1,28=1/1,2;
 7/7=1,16=-2,29=1/1,2,3,16;
 1/10=7,18=10,28=-2,30=1/3;
 99/12=1/99;
 Leave Link    1 at Sat Aug 13 20:09:18 2022, MaxMem=  2684354560 cpu:               0.6 elap:               0.0
 (Enter /storage/apps/GAUSSIAN/G16_RevA03/g16/l101.exe)
 ------------
 Gaussian run
 ------------
 Symbolic Z-matrix:
 Charge =  0 Multiplicity = 1
 C                     3.60582  -3.61826  -0.44332 
 H                     3.7543   -3.71527  -1.518 
 H                     4.33439  -4.24712   0.06969 
 C                     1.89033  -1.45205   1.2304 
 H                     1.23972  -2.3238    1.0951 
 O                     1.50007  -0.69161   2.3358 
 H                     0.57111  -0.42395   2.2103 
 C                     3.33856  -1.89085   1.40532 
 H                     3.43188  -2.7769    2.04111 
 O                     4.09739  -0.81993   1.9164 
 H                     3.55485  -0.39041   2.59054 
 C                     1.96892  -0.66558  -0.09043 
 H                     2.27011   0.36464   0.12596 
 C                     3.77113  -2.16901  -0.02945 
 H                     4.80586  -1.84675  -0.15784 
 O                     2.94323  -1.33798  -0.85559 
 N                     0.74405  -0.6015   -0.84553 
 C                     0.18284  -1.77944  -1.33419 
 H                     0.75791  -2.67254  -1.13622 
 C                    -0.94298  -1.80375  -2.03943 
 H                    -1.29818  -2.75599  -2.40932 
 C                    -1.72508  -0.5644   -2.36489 
 H                    -1.90628  -0.50758  -3.44573 
 H                    -2.72164  -0.62634  -1.9103 
 C                    -0.98553   0.66214  -1.89357 
 C                     0.16231   0.57982  -1.19883 
 H                     0.66389   1.4874   -0.88308 
 C                    -1.49469   2.01891  -2.18226 
 O                    -0.85302   3.03946  -2.01114 
 N                    -2.77412   2.06553  -2.66878 
 H                    -3.1731    2.97329  -2.83582 
 H                    -3.36206   1.25445  -2.71333 
 H                     2.60586  -3.98468  -0.19971 
 C                     0.2046    2.20086   2.82138 
 C                    -1.6456    0.91501   1.27902 
 C                    -2.90706   0.87005   0.51884 
 C                    -4.81724  -0.42624  -0.42673 
 C                    -3.4839   -0.2912    0.22897 
 O                    -0.99794  -0.07185   1.57059 
 S                    -1.22415   2.54039   1.78553 
 H                     0.45376   3.13672   3.316 
 H                     1.04805   1.86432   2.22362 
 H                    -5.56282  -0.72949   0.31287 
 H                    -5.14426   0.51705  -0.86492 
 H                    -4.81109  -1.19858  -1.1974 
 H                    -2.96326  -1.20043   0.51924 
 H                    -3.36133   1.81849   0.25326 
 H                    -0.0449    1.4463    3.5644 
 
 ITRead=  0  0  0  0  0  0  0  0  0  0  0  0  0  0  0  0  0  0  0  0
 ITRead=  0  0  0  0  0  0  0  0  0  0  0  0  0  0  0  0  0  0  0  0
 ITRead=  0  0  0  0  0  0  0  0
 MicOpt= -1 -1 -1 -1 -1 -1 -1 -1 -1 -1 -1 -1 -1 -1 -1 -1 -1 -1 -1 -1
 MicOpt= -1 -1 -1 -1 -1 -1 -1 -1 -1 -1 -1 -1 -1 -1 -1 -1 -1 -1 -1 -1
 MicOpt= -1 -1 -1 -1 -1 -1 -1 -1
 NAtoms=     48 NQM=       48 NQMF=       0 NMMI=      0 NMMIF=      0
                NMic=       0 NMicF=      0.
                    Isotopes and Nuclear Properties:
 (Nuclear quadrupole moments (NQMom) in fm**2, nuclear magnetic moments (NMagM)
  in nuclear magnetons)

  Atom         1           2           3           4           5           6           7           8           9          10
 IAtWgt=          12           1           1          12           1          16           1          12           1          16
 AtmWgt=  12.0000000   1.0078250   1.0078250  12.0000000   1.0078250  15.9949146   1.0078250  12.0000000   1.0078250  15.9949146
 NucSpn=           0           1           1           0           1           0           1           0           1           0
 AtZEff=  -0.0000000  -0.0000000  -0.0000000  -0.0000000  -0.0000000  -0.0000000  -0.0000000  -0.0000000  -0.0000000  -0.0000000
 NQMom=    0.0000000   0.0000000   0.0000000   0.0000000   0.0000000   0.0000000   0.0000000   0.0000000   0.0000000   0.0000000
 NMagM=    0.0000000   2.7928460   2.7928460   0.0000000   2.7928460   0.0000000   2.7928460   0.0000000   2.7928460   0.0000000
 AtZNuc=   6.0000000   1.0000000   1.0000000   6.0000000   1.0000000   8.0000000   1.0000000   6.0000000   1.0000000   8.0000000

  Atom        11          12          13          14          15          16          17          18          19          20
 IAtWgt=           1          12           1          12           1          16          14          12           1          12
 AtmWgt=   1.0078250  12.0000000   1.0078250  12.0000000   1.0078250  15.9949146  14.0030740  12.0000000   1.0078250  12.0000000
 NucSpn=           1           0           1           0           1           0           2           0           1           0
 AtZEff=  -0.0000000  -0.0000000  -0.0000000  -0.0000000  -0.0000000  -0.0000000  -0.0000000  -0.0000000  -0.0000000  -0.0000000
 NQMom=    0.0000000   0.0000000   0.0000000   0.0000000   0.0000000   0.0000000   2.0440000   0.0000000   0.0000000   0.0000000
 NMagM=    2.7928460   0.0000000   2.7928460   0.0000000   2.7928460   0.0000000   0.4037610   0.0000000   2.7928460   0.0000000
 AtZNuc=   1.0000000   6.0000000   1.0000000   6.0000000   1.0000000   8.0000000   7.0000000   6.0000000   1.0000000   6.0000000

  Atom        21          22          23          24          25          26          27          28          29          30
 IAtWgt=           1          12           1           1          12          12           1          12          16          14
 AtmWgt=   1.0078250  12.0000000   1.0078250   1.0078250  12.0000000  12.0000000   1.0078250  12.0000000  15.9949146  14.0030740
 NucSpn=           1           0           1           1           0           0           1           0           0           2
 AtZEff=  -0.0000000  -0.0000000  -0.0000000  -0.0000000  -0.0000000  -0.0000000  -0.0000000  -0.0000000  -0.0000000  -0.0000000
 NQMom=    0.0000000   0.0000000   0.0000000   0.0000000   0.0000000   0.0000000   0.0000000   0.0000000   0.0000000   2.0440000
 NMagM=    2.7928460   0.0000000   2.7928460   2.7928460   0.0000000   0.0000000   2.7928460   0.0000000   0.0000000   0.4037610
 AtZNuc=   1.0000000   6.0000000   1.0000000   1.0000000   6.0000000   6.0000000   1.0000000   6.0000000   8.0000000   7.0000000

  Atom        31          32          33          34          35          36          37          38          39          40
 IAtWgt=           1           1           1          12          12          12          12          12          16          32
 AtmWgt=   1.0078250   1.0078250   1.0078250  12.0000000  12.0000000  12.0000000  12.0000000  12.0000000  15.9949146  31.9720718
 NucSpn=           1           1           1           0           0           0           0           0           0           0
 AtZEff=  -0.0000000  -0.0000000  -0.0000000  -0.0000000  -0.0000000  -0.0000000  -0.0000000  -0.0000000  -0.0000000  -0.0000000
 NQMom=    0.0000000   0.0000000   0.0000000   0.0000000   0.0000000   0.0000000   0.0000000   0.0000000   0.0000000   0.0000000
 NMagM=    2.7928460   2.7928460   2.7928460   0.0000000   0.0000000   0.0000000   0.0000000   0.0000000   0.0000000   0.0000000
 AtZNuc=   1.0000000   1.0000000   1.0000000   6.0000000   6.0000000   6.0000000   6.0000000   6.0000000   8.0000000  16.0000000

  Atom        41          42          43          44          45          46          47          48
 IAtWgt=           1           1           1           1           1           1           1           1
 AtmWgt=   1.0078250   1.0078250   1.0078250   1.0078250   1.0078250   1.0078250   1.0078250   1.0078250
 NucSpn=           1           1           1           1           1           1           1           1
 AtZEff=  -0.0000000  -0.0000000  -0.0000000  -0.0000000  -0.0000000  -0.0000000  -0.0000000  -0.0000000
 NQMom=    0.0000000   0.0000000   0.0000000   0.0000000   0.0000000   0.0000000   0.0000000   0.0000000
 NMagM=    2.7928460   2.7928460   2.7928460   2.7928460   2.7928460   2.7928460   2.7928460   2.7928460
 AtZNuc=   1.0000000   1.0000000   1.0000000   1.0000000   1.0000000   1.0000000   1.0000000   1.0000000
 Background charge distribution read from input stream:
 Leave Link  101 at Sat Aug 13 20:09:19 2022, MaxMem=  2684354560 cpu:               1.7 elap:               0.1
 (Enter /storage/apps/GAUSSIAN/G16_RevA03/g16/l103.exe)

 GradGradGradGradGradGradGradGradGradGradGradGradGradGradGradGradGradGrad
 Berny optimization.
 Initialization pass.
 Trust Radius=3.00D-01 FncErr=1.00D-07 GrdErr=1.00D-07 EigMax=2.50D+02 EigMin=1.00D-04
 Number of steps in this run=      2 maximum allowed number of steps=      2.
 GradGradGradGradGradGradGradGradGradGradGradGradGradGradGradGradGradGrad

 Leave Link  103 at Sat Aug 13 20:09:19 2022, MaxMem=  2684354560 cpu:               0.4 elap:               0.1
 (Enter /storage/apps/GAUSSIAN/G16_RevA03/g16/l202.exe)
 ---------------------------------------------------------------------------------------------------
                            Z-MATRIX (ANGSTROMS AND DEGREES)
   CD    Cent   Atom    N1       Length/X        N2       Alpha/Y        N3        Beta/Z          J
 ---------------------------------------------------------------------------------------------------
      1      1  C        0   3.605819         -3.618263         -0.443315
      2      2  H        0   3.754295         -3.715274         -1.517999
      3      3  H        0   4.334388         -4.247122          0.069692
      4      4  C        0   1.890325         -1.452046          1.230401
      5      5  H        0   1.239715         -2.323803          1.095102
      6      6  O        0   1.500066         -0.691614          2.335796
      7      7  H        0   0.571111         -0.423945          2.210298
      8      8  C        0   3.338562         -1.890854          1.405315
      9      9  H        0   3.431878         -2.776902          2.041114
     10     10  O        0   4.097394         -0.819932          1.916398
     11     11  H        0   3.554852         -0.390413          2.590537
     12     12  C        0   1.968924         -0.665578         -0.090434
     13     13  H        0   2.270106          0.364644          0.125961
     14     14  C        0   3.771127         -2.169009         -0.029454
     15     15  H        0   4.805855         -1.846750         -0.157840
     16     16  O        0   2.943234         -1.337980         -0.855587
     17     17  N        0   0.744053         -0.601497         -0.845527
     18     18  C        0   0.182838         -1.779437         -1.334186
     19     19  H        0   0.757909         -2.672538         -1.136216
     20     20  C        0  -0.942982         -1.803749         -2.039432
     21     21  H        0  -1.298180         -2.755987         -2.409315
     22     22  C        0  -1.725083         -0.564399         -2.364889
     23     23  H        0  -1.906279         -0.507580         -3.445728
     24     24  H        0  -2.721638         -0.626335         -1.910296
     25     25  C        0  -0.985527          0.662143         -1.893572
     26     26  C        0   0.162314          0.579818         -1.198829
     27     27  H        0   0.663886          1.487399         -0.883080
     28     28  C        0  -1.494692          2.018912         -2.182256
     29     29  O        0  -0.853018          3.039463         -2.011140
     30     30  N        0  -2.774118          2.065531         -2.668779
     31     31  H        0  -3.173098          2.973288         -2.835822
     32     32  H        0  -3.362057          1.254447         -2.713329
     33     33  H        0   2.605856         -3.984680         -0.199708
     34     34  C        0   0.204598          2.200860          2.821381
     35     35  C        0  -1.645601          0.915014          1.279019
     36     36  C        0  -2.907057          0.870046          0.518844
     37     37  C        0  -4.817243         -0.426237         -0.426730
     38     38  C        0  -3.483896         -0.291198          0.228972
     39     39  O        0  -0.997938         -0.071847          1.570585
     40     40  S        0  -1.224148          2.540386          1.785533
     41     41  H        0   0.453757          3.136721          3.315995
     42     42  H        0   1.048047          1.864316          2.223615
     43     43  H        0  -5.562818         -0.729489          0.312865
     44     44  H        0  -5.144260          0.517053         -0.864921
     45     45  H        0  -4.811093         -1.198579         -1.197398
     46     46  H        0  -2.963261         -1.200433          0.519237
     47     47  H        0  -3.361332          1.818485          0.253256
     48     48  H        0  -0.044902          1.446303          3.564403
 ---------------------------------------------------------------------------------------------------
                         Z-Matrix orientation:                         
 ---------------------------------------------------------------------
 Center     Atomic      Atomic             Coordinates (Angstroms)
 Number     Number       Type             X           Y           Z
 ---------------------------------------------------------------------
      1          6           0        3.605819   -3.618263   -0.443315
      2          1           0        3.754295   -3.715274   -1.517999
      3          1           0        4.334388   -4.247122    0.069692
      4          6           0        1.890325   -1.452046    1.230401
      5          1           0        1.239715   -2.323803    1.095102
      6          8           0        1.500066   -0.691614    2.335796
      7          1           0        0.571111   -0.423945    2.210298
      8          6           0        3.338562   -1.890854    1.405315
      9          1           0        3.431878   -2.776902    2.041114
     10          8           0        4.097394   -0.819932    1.916398
     11          1           0        3.554852   -0.390413    2.590537
     12          6           0        1.968924   -0.665578   -0.090434
     13          1           0        2.270106    0.364644    0.125961
     14          6           0        3.771127   -2.169009   -0.029454
     15          1           0        4.805855   -1.846750   -0.157840
     16          8           0        2.943234   -1.337980   -0.855587
     17          7           0        0.744053   -0.601497   -0.845527
     18          6           0        0.182838   -1.779437   -1.334186
     19          1           0        0.757909   -2.672538   -1.136216
     20          6           0       -0.942982   -1.803749   -2.039432
     21          1           0       -1.298180   -2.755987   -2.409315
     22          6           0       -1.725083   -0.564399   -2.364889
     23          1           0       -1.906279   -0.507580   -3.445728
     24          1           0       -2.721638   -0.626335   -1.910296
     25          6           0       -0.985527    0.662143   -1.893572
     26          6           0        0.162314    0.579818   -1.198829
     27          1           0        0.663886    1.487399   -0.883080
     28          6           0       -1.494692    2.018912   -2.182256
     29          8           0       -0.853018    3.039463   -2.011140
     30          7           0       -2.774118    2.065531   -2.668779
     31          1           0       -3.173098    2.973288   -2.835822
     32          1           0       -3.362057    1.254447   -2.713329
     33          1           0        2.605856   -3.984680   -0.199708
     34          6           0        0.204598    2.200860    2.821381
     35          6           0       -1.645601    0.915014    1.279019
     36          6           0       -2.907057    0.870046    0.518844
     37          6           0       -4.817243   -0.426237   -0.426730
     38          6           0       -3.483896   -0.291198    0.228972
     39          8           0       -0.997938   -0.071847    1.570585
     40         16           0       -1.224148    2.540386    1.785533
     41          1           0        0.453757    3.136721    3.315995
     42          1           0        1.048047    1.864316    2.223615
     43          1           0       -5.562818   -0.729489    0.312865
     44          1           0       -5.144260    0.517053   -0.864921
     45          1           0       -4.811093   -1.198579   -1.197398
     46          1           0       -2.963261   -1.200433    0.519237
     47          1           0       -3.361332    1.818485    0.253256
     48          1           0       -0.044902    1.446303    3.564403
 ---------------------------------------------------------------------
                    Distance matrix (angstroms):
                    1          2          3          4          5
     1  C    0.000000
     2  H    1.089221   0.000000
     3  H    1.090620   1.772042   0.000000
     4  C    3.230595   4.018742   3.890134   0.000000
     5  H    3.104964   3.884276   3.785185   1.096157   0.000000
     6  O    4.552244   5.392198   5.080378   1.397303   2.066675
     7  H    5.143421   5.904719   5.775909   1.938431   2.302206
     8  C    2.544170   3.470894   2.885751   1.523331   2.165372
     9  H    2.628789   3.694832   2.619652   2.188352   2.430188
    10  O    3.693311   4.505087   3.900272   2.396104   3.332039
    11  H    4.430110   5.289097   4.672958   2.397433   3.366628
    12  C    3.394451   3.811317   4.295174   1.539258   2.164937
    13  H    4.239310   4.642322   5.053000   2.159718   3.037875
    14  C    1.516227   2.146389   2.155376   2.374592   2.774281
    15  H    2.158666   2.539132   2.456794   3.253201   3.809829
    16  O    2.410120   2.597718   3.354781   2.339439   2.771103
    17  N    4.177602   4.382851   5.197953   2.519296   2.641602
    18  C    3.986443   4.066517   5.029484   3.098355   2.704582
    19  H    3.079789   3.195526   4.089588   2.893586   2.309228
    20  C    5.150887   5.098062   6.186203   4.340868   3.854857
    21  H    5.353306   5.219404   6.332044   5.011423   4.348406
    22  C    6.437161   6.377211   7.497121   5.175442   4.884370
    23  H    7.005288   6.785834   8.080116   6.096917   5.815074
    24  H    7.151250   7.185621   8.174225   5.640565   5.254154
    25  C    6.442482   6.462875   7.500452   4.743367   4.774908
    26  C    5.482008   5.608209   6.504975   3.607721   3.854079
    27  H    5.908989   6.084534   6.874961   3.822472   4.332441
    28  C    7.798517   7.802179   8.849442   5.928922   6.089108
    29  O    8.164840   8.191275   9.183320   6.181195   6.541628
    30  N    8.829598   8.795577   9.893415   7.023815   7.038743
    31  H    9.753274   9.719171  10.813819   7.858499   7.936262
    32  H    8.800430   8.761815   9.861427   7.103916   6.963069
    33  H    1.092489   1.769006   1.768976   2.995235   2.510256
    34  C    7.489241   8.150534   8.136549   4.326270   4.952179
    35  C    7.148038   7.643412   7.991895   4.255362   4.341522
    36  C    7.967950   8.339514   8.878382   5.377109   5.265782
    37  C    9.007623   9.245534   9.929650   6.984972   6.527133
    38  C    7.860368   8.195585   8.763576   5.588621   5.214803
    39  O    6.150401   6.737776   6.936808   3.219121   3.210059
    40  S    8.137893   8.650520   8.939334   5.093881   5.496149
    41  H    8.348516   9.011708   8.950917   5.241203   5.947051
    42  H    6.611610   7.242602   7.265610   3.562887   4.341730
    43  H    9.642651   9.953671  10.506549   7.544091   7.030518
    44  H    9.687232   9.875393  10.649678   7.599547   7.257223
    45  H    8.790217   8.933219   9.723114   7.132143   6.567645
    46  H    7.065778   7.456562   7.920864   4.911859   4.388461
    47  H    8.864797   9.186511   9.800479   6.263472   6.247951
    48  H    7.418854   8.179645   7.987883   4.194412   4.686298
                    6          7          8          9         10
     6  O    0.000000
     7  H    0.974861   0.000000
     8  C    2.384122   3.233977   0.000000
     9  H    2.857825   3.707967   1.094545   0.000000
    10  O    2.634098   3.560598   1.408512   2.070796   0.000000
    11  H    2.092310   3.008059   1.924281   2.452003   0.966075
    12  C    2.471254   2.702894   2.369488   3.337877   2.929434
    13  H    2.567492   2.802306   2.804571   3.858346   2.819196
    14  C    3.596501   4.278065   1.524154   2.184462   2.390146
    15  H    4.298930   5.056235   2.144376   2.754704   2.420482
    16  O    3.561664   3.982722   2.360854   3.271108   3.047025
    17  N    3.271161   3.065860   3.668816   4.504385   4.349809
    18  C    4.048113   3.814640   4.180415   4.789974   5.177904
    19  H    4.065676   4.036114   3.705426   4.154086   4.889045
    20  C    5.133025   4.717684   5.495952   6.061129   6.482428
    21  H    5.882848   5.502135   6.066237   6.494629   7.181387
    22  C    5.702123   5.120993   6.450924   7.134583   7.231594
    23  H    6.712904   6.175361   7.276979   7.984433   8.055684
    24  H    5.988017   5.278490   7.022700   7.622620   7.821781
    25  C    5.089046   4.521555   6.008177   6.842679   6.522921
    26  C    3.987442   3.577262   4.793155   5.696916   5.210450
    27  H    3.975985   3.637421   4.878856   5.864892   4.994981
    28  C    6.060389   5.434117   7.177554   8.068939   7.491957
    29  O    6.193044   5.643038   7.317755   8.283188   7.404530
    30  N    7.135564   6.418212   8.343625   9.173148   8.750281
    31  H    7.874998   7.143082   9.167815  10.023717   9.477983
    32  H    7.274686   6.521420   8.470799   9.220307   9.021132
    33  H    4.300679   4.756800   2.738077   2.676252   4.088792
    34  C    3.206312   2.719808   5.345007   5.983500   5.009794
    35  C    3.686903   2.752073   5.721077   6.323909   6.033099
    36  C    5.016257   4.078368   6.885939   7.469915   7.339722
    37  C    6.900027   5.999023   8.486380   8.925462   9.225833
    38  C    5.425764   4.515125   7.105534   7.569050   7.784788
    39  O    2.685085   1.730642   4.705458   5.211717   5.161553
    40  S    4.262623   3.491509   6.371717   7.072302   6.295051
    41  H    4.087995   3.730239   6.103221   6.742808   5.557883
    42  H    2.598015   2.337474   4.474078   5.220810   4.074075
    43  H    7.346973   6.427962   9.043052   9.385270   9.792813
    44  H    7.473455   6.558042   9.105507   9.635628   9.743276
    45  H    7.250600   6.417209   8.583137   8.995868   9.444588
    46  H    4.845624   3.994297   6.401155   6.760116   7.207613
    47  H    5.854123   4.931796   7.744354   8.394148   8.084546
    48  H    2.909827   2.389749   5.219780   5.678369   5.001036
                   11         12         13         14         15
    11  H    0.000000
    12  C    3.127058   0.000000
    13  H    2.880073   1.094941   0.000000
    14  C    3.174040   2.347756   2.949002   0.000000
    15  H    3.352537   3.073742   3.376511   1.091328   0.000000
    16  O    3.625980   1.409561   2.077370   1.434751   2.053060
    17  N    4.444287   1.440341   2.050867   3.505174   4.303697
    18  C    5.357548   2.444934   3.329535   3.837956   4.770808
    19  H    5.188417   2.566731   3.619987   3.249299   4.245587
    20  C    6.607923   3.684186   4.440134   5.137728   6.049080
    21  H    7.358422   4.518959   5.375744   5.630822   6.569254
    22  C    7.243220   4.339248   4.798853   6.183636   7.012035
    23  H    8.140895   5.128368   5.564165   6.831121   7.593176
    24  H    7.727062   5.031382   5.481413   6.933499   7.824555
    25  C    6.467623   3.707146   3.842677   5.840900   6.545794
    26  C    5.177833   2.458331   2.498831   4.684765   5.341757
    27  H    4.893861   2.639455   2.204243   4.873699   5.366417
    28  C    7.354067   4.855805   4.715737   7.064141   7.664104
    29  O    7.236629   5.037837   4.634195   7.241407   7.702768
    30  N    8.587661   6.050063   6.012303   8.230285   8.891948
    31  H    9.274975   6.871600   6.723515   9.085218   9.698868
    32  H    8.870185   6.243832   6.369818   8.354972   9.102897
    33  H    4.648098   3.381429   4.374404   2.164141   3.067979
    34  C    4.241720   4.450616   3.860479   6.320059   6.813991
    35  C    5.519867   4.175939   4.118885   6.369006   7.163322
    36  C    6.901952   5.148257   5.216589   7.357624   8.205358
    37  C    8.899279   6.798709   7.152725   8.772410   9.731093
    38  C    7.425012   5.474982   5.792174   7.498554   8.443301
    39  O    4.676503   3.451633   3.599663   5.449972   6.310447
    40  S    5.663608   4.898282   4.438225   7.101081   7.706140
    41  H    4.752237   5.325126   4.599984   7.095614   7.472835
    42  H    3.391534   3.550099   2.853524   5.362760   5.793484
    43  H    9.403971   7.542803   7.911179   9.450499  10.439311
    44  H    9.404160   7.252298   7.481838   9.348639  10.251454
    45  H    9.219036   6.890435   7.371453   8.715522   9.694663
    46  H    6.887105   4.998421   5.476519   6.825773   7.825300
    47  H    7.627301   5.890698   5.817470   8.176308   8.961355
    48  H    4.156942   4.676897   4.283939   6.367760   6.944720
                   16         17         18         19         20
    16  O    0.000000
    17  N    2.319247   0.000000
    18  C    2.836147   1.393303   0.000000
    19  H    2.575935   2.091388   1.080522   0.000000
    20  C    4.089145   2.391005   1.328696   2.112729   0.000000
    21  H    4.734386   3.355291   2.074359   2.419762   1.081543
    22  C    4.966850   2.899391   2.485725   3.481255   1.501197
    23  H    5.560231   3.714044   3.231198   4.137486   2.141416
    24  H    5.805999   3.625654   3.177661   4.110157   2.136960
    25  C    4.529135   2.384666   2.763929   3.838392   2.470568
    26  C    3.395479   1.363359   2.363224   3.307034   2.758566
    27  H    3.630282   2.090771   3.332735   4.168692   3.840681
    28  C    5.720486   3.696670   4.238017   5.308306   3.864909
    29  O    5.908370   4.143173   4.975245   5.998961   4.844130
    30  N    6.896352   4.776485   5.030756   6.105183   4.326715
    31  H    7.740664   5.664312   6.008795   7.086383   5.331767
    32  H    7.066016   4.877843   4.865467   5.906151   3.957098
    33  H    2.747548   3.915268   3.467153   2.452279   4.553602
    34  C    5.791685   4.646550   5.754301   6.302280   6.401667
    35  C    5.539849   3.538919   4.175176   4.947803   4.347121
    36  C    6.402370   4.166239   4.472240   5.359207   4.189457
    37  C    7.825612   5.579796   5.258844   6.052401   4.416814
    38  C    6.601517   4.373372   4.254792   5.052468   3.726890
    39  O    4.798150   3.025336   3.570405   4.144076   4.004339
    40  S    6.275692   4.546176   5.511182   6.296010   5.794905
    41  H    6.604736   5.601501   6.772458   7.325448   7.418876
    42  H    4.829898   3.948706   5.165605   5.652936   5.965942
    43  H    8.607465   6.413648   6.068586   6.769554   5.294357
    44  H    8.297517   5.993643   5.819970   6.714364   4.941289
    45  H    7.763109   5.598211   5.029459   5.761083   4.004689
    46  H    6.065950   3.995683   3.697075   4.330672   3.315464
    47  H    7.137251   4.890585   5.293974   6.250445   4.921932
    48  H    6.018098   4.925791   5.869705   6.301204   6.540058
                   21         22         23         24         25
    21  H    0.000000
    22  C    2.233221   0.000000
    23  H    2.549367   1.097394   0.000000
    24  H    2.609726   1.097093   1.742545   0.000000
    25  C    3.470930   1.507809   2.150633   2.162068   0.000000
    26  C    3.837436   2.496236   3.241923   3.205958   1.344241
    27  H    4.917868   3.480346   4.141600   4.121264   2.103023
    28  C    4.784332   2.599987   2.854633   2.928599   1.477636
    29  O    5.826144   3.724709   3.968490   4.115821   2.383911
    30  N    5.049035   2.847693   2.824481   2.797176   2.401979
    31  H    6.043328   3.851461   3.754099   3.744022   3.318839
    32  H    4.520574   2.471699   2.400091   2.142974   2.582774
    33  H    4.651188   5.928184   6.556389   6.525855   6.112297
    34  C    7.361308   6.186091   7.146195   6.240565   5.100473
    35  C    5.215435   3.933579   4.941150   3.702073   3.250381
    36  C    4.930590   3.430832   4.314770   2.859066   3.091157
    37  C    4.662851   3.651986   4.194601   2.575377   4.244790
    38  C    4.220557   3.145819   4.004887   2.295609   3.414074
    39  O    4.809819   4.032283   5.116478   3.923663   3.541084
    40  S    6.756759   5.207363   6.092741   5.092126   4.137699
    41  H    8.400742   7.121662   8.035645   7.180379   5.944297
    42  H    6.950973   5.885854   6.818752   6.123976   4.746775
    43  H    5.450146   4.682503   5.248480   3.609070   5.268453
    44  H    5.281124   3.887186   4.265555   2.875629   4.286518
    45  H    4.029246   3.359863   3.737701   2.280682   4.310673
    46  H    3.710614   3.202469   4.161515   2.508107   3.633493
    47  H    5.680816   3.900017   4.605458   3.326757   3.404475
    48  H    7.410483   6.482471   7.511612   6.436853   5.593673
                   26         27         28         29         30
    26  C    0.000000
    27  H    1.083963   0.000000
    28  C    2.404951   2.574844   0.000000
    29  O    2.782194   2.445899   1.217600   0.000000
    30  N    3.604265   3.916992   1.369602   2.252034   0.000000
    31  H    4.419663   4.554505   2.038389   2.463179   1.005540
    32  H    3.894872   4.428577   2.086504   3.158263   1.002753
    33  H    5.272929   5.846528   7.535788   8.036397   8.464366
    34  C    4.334934   3.800395   5.287445   5.017476   6.247633
    35  C    3.085554   3.214969   3.636178   3.995825   4.264077
    36  C    3.529259   3.885634   3.257393   3.914877   3.407022
    37  C    5.138509   5.823490   4.483299   5.498774   3.925564
    38  C    4.011500   4.648028   3.886845   4.799263   3.801962
    39  O    3.072541   3.348638   4.324564   4.746578   5.069064
    40  S    3.830473   3.434378   4.011045   3.847277   4.740125
    41  H    5.196761   4.516265   5.939420   5.485935   6.883614
    42  H    3.761327   3.152967   5.089314   4.788337   6.211679
    43  H    6.064375   6.716898   5.507176   6.464380   4.947644
    44  H    5.317439   5.888672   4.160565   5.107948   3.356972
    45  H    5.281806   6.106445   4.724480   5.855727   4.119301
    46  H    3.986259   4.727275   4.451847   5.369604   4.567903
    47  H    4.007359   4.195624   3.075099   3.593037   2.990676
    48  H    4.845835   4.503796   5.954315   5.854732   6.832615
                   31         32         33         34         35
    31  H    0.000000
    32  H    1.733529   0.000000
    33  H    9.421185   8.329630   0.000000
    34  C    6.633960   6.652048   7.290674   0.000000
    35  C    4.847851   4.358931   6.653459   2.730479   0.000000
    36  C    3.968399   3.286599   7.380846   4.093304   1.473485
    37  C    4.479253   3.189169   8.235075   6.532285   3.842896
    38  C    4.488477   3.325808   7.135170   5.151303   2.436570
    39  O    5.781054   5.069520   5.606383   2.859332   1.215884
    40  S    5.034157   5.144322   7.822186   1.797102   1.753857
    41  H    7.143223   7.379440   8.228369   1.087455   3.673222
    42  H    6.681750   6.647885   6.519971   1.087195   3.008185
    43  H    5.416230   4.235233   8.808305   6.938493   4.356883
    44  H    3.715242   2.671443   8.987347   6.710761   4.122556
    45  H    4.771995   3.227242   7.985542   7.270758   4.540953
    46  H    5.359142   4.078597   6.267693   5.186906   2.605497
    47  H    3.303242   3.019729   8.336020   4.411047   2.193669
    48  H    7.285614   7.102834   7.119735   1.087974   2.840332
                   36         37         38         39         40
    36  C    0.000000
    37  C    2.494648   0.000000
    38  C    1.328630   1.491977   0.000000
    39  O    2.374459   4.324575   2.833377   0.000000
    40  S    2.688256   5.158032   3.942995   2.630805   0.000000
    41  H    4.925134   7.381470   6.065101   3.930494   2.348041
    42  H    4.420143   6.831734   5.400310   2.891579   2.410779
    43  H    3.107090   1.093089   2.126277   4.780427   5.628933
    44  H    2.654145   1.090297   2.146318   4.844634   5.146461
    45  H    3.293941   1.091091   2.149261   4.844730   5.978621
    46  H    2.071242   2.220694   1.087209   2.498306   4.315292
    47  H    1.084638   2.760586   2.113380   3.300658   2.727007
    48  H    4.218937   6.496983   5.096145   2.681113   2.398336
                   41         42         43         44         45
    41  H    0.000000
    42  H    1.779182   0.000000
    43  H    7.756645   7.354069   0.000000
    44  H    7.461938   7.049740   1.765287   0.000000
    45  H    8.178275   7.444070   1.751008   1.779026   0.000000
    46  H    6.189408   5.328056   2.649920   3.102001   2.522166
    47  H    5.066855   4.829807   3.367828   2.474445   3.648134
    48  H    1.779854   1.779602   6.764168   6.818055   7.237868
                   46         47         48
    46  H    0.000000
    47  H    3.056644   0.000000
    48  H    4.979464   4.701162   0.000000
 Stoichiometry    C16H24N2O5S
 Framework group  C1[X(C16H24N2O5S)]
 Deg. of freedom   138
 Full point group                 C1      NOp   1
 Largest Abelian subgroup         C1      NOp   1
 Largest concise Abelian subgroup C1      NOp   1
                         Standard orientation:                         
 ---------------------------------------------------------------------
 Center     Atomic      Atomic             Coordinates (Angstroms)
 Number     Number       Type             X           Y           Z
 ---------------------------------------------------------------------
      1          6           0       -4.682564   -1.965787   -0.562746
      2          1           0       -4.638278   -2.914835   -0.030065
      3          1           0       -5.704903   -1.803627   -0.906228
      4          6           0       -2.544121    0.452865   -0.680751
      5          1           0       -2.352448   -0.172457   -1.560406
      6          8           0       -2.081633    1.757413   -0.872362
      7          1           0       -1.129439    1.717301   -1.077478
      8          6           0       -4.034241    0.486527   -0.366192
      9          1           0       -4.649094    0.566357   -1.268197
     10          8           0       -4.304423    1.543476    0.524744
     11          1           0       -3.774363    2.296597    0.232946
     12          6           0       -1.985217   -0.245559    0.571904
     13          1           0       -1.818211    0.503700    1.352683
     14          6           0       -4.246045   -0.839859    0.354142
     15          1           0       -4.968495   -0.695950    1.159345
     16          8           0       -2.981881   -1.168798    0.947606
     17          7           0       -0.742722   -0.949609    0.384555
     18          6           0       -0.697156   -2.027980   -0.496542
     19          1           0       -1.643849   -2.283875   -0.950213
     20          6           0        0.409045   -2.728356   -0.722873
     21          1           0        0.355527   -3.570900   -1.398885
     22          6           0        1.719236   -2.414932   -0.060486
     23          1           0        2.120612   -3.314770    0.422692
     24          1           0        2.461841   -2.142655   -0.820760
     25          6           0        1.545008   -1.311355    0.952062
     26          6           0        0.373057   -0.674188    1.117992
     27          1           0        0.290344    0.110792    1.860918
     28          6           0        2.665191   -0.883112    1.815315
     29          8           0        2.542116   -0.149925    2.779597
     30          7           0        3.892639   -1.373327    1.456331
     31          1           0        4.687325   -1.069390    1.992250
     32          1           0        4.039475   -1.884864    0.606459
     33          1           0       -4.033717   -2.032569   -1.439141
     34          6           0        0.265714    3.585766    0.322428
     35          6           0        1.590932    1.454901   -0.754014
     36          6           0        2.816221    0.686255   -1.035103
     37          6           0        4.067962   -0.949608   -2.442358
     38          6           0        2.842772   -0.216273   -2.009780
     39          8           0        0.519554    1.234775   -1.285112
     40         16           0        1.867552    2.772485    0.370027
     41          1           0        0.378335    4.516790    0.872947
     42          1           0       -0.497765    2.970385    0.791894
     43          1           0        4.425202   -0.542770   -3.391941
     44          1           0        4.871414   -0.850788   -1.711983
     45          1           0        3.864932   -2.007859   -2.613711
     46          1           0        1.917169   -0.406879   -2.547322
     47          1           0        3.697322    0.923706   -0.448829
     48          1           0       -0.013812    3.797999   -0.707383
 ---------------------------------------------------------------------
 Rotational constants (GHZ):           0.3289899           0.1630485           0.1390816
 Leave Link  202 at Sat Aug 13 20:09:19 2022, MaxMem=  2684354560 cpu:               0.4 elap:               0.1
 (Enter /storage/apps/GAUSSIAN/G16_RevA03/g16/l301.exe)
 Standard basis: def2TZVP (5D, 7F)
 Ernie: Thresh=  0.10000D-02 Tol=  0.10000D-05 Strict=F.
 There are  1014 symmetry adapted cartesian basis functions of A   symmetry.
 There are   894 symmetry adapted basis functions of A   symmetry.
   894 basis functions,  1434 primitive gaussians,  1014 cartesian basis functions
    95 alpha electrons       95 beta electrons
       nuclear repulsion energy      2486.0907396295 Hartrees.
 IExCor= 4336 DFT=T Ex+Corr=M062X ExCW=0 ScaHFX=  0.540000
 ScaDFX=  1.000000  1.000000  1.000000  1.000000 ScalE2=  1.000000  1.000000
 IRadAn=      5 IRanWt=     -1 IRanGd=            0 ICorTp=0 IEmpDi=131
 NAtoms=   48 NActive=   48 NUniq=   48 SFac= 1.00D+00 NAtFMM=   60 NAOKFM=F Big=F
 Integral buffers will be    131072 words long.
 Raffenetti 2 integral format.
 Two-electron integral symmetry is turned on.
 R6Disp:  Grimme-D3 Dispersion energy=       -0.0043039301 Hartrees.
 Nuclear repulsion after empirical dispersion term =     2486.0864356994 Hartrees.
 Leave Link  301 at Sat Aug 13 20:09:19 2022, MaxMem=  2684354560 cpu:               1.5 elap:               0.1
 (Enter /storage/apps/GAUSSIAN/G16_RevA03/g16/l302.exe)
 NPDir=0 NMtPBC=     1 NCelOv=     1 NCel=       1 NClECP=     1 NCelD=      1
         NCelK=      1 NCelE2=     1 NClLst=     1 CellRange=     0.0.
 One-electron integrals computed using PRISM.
 One-electron integral symmetry used in STVInt
   1 Symmetry operations used in ECPInt.
 ECPInt:  NShTT=   65703 NPrTT=  200010 LenC2=   56866 LenP2D=  121072.
 LDataN:  DoStor=T MaxTD1= 6 Len=  172
 NBasis=   894 RedAO= T EigKep=  2.79D-05  NBF=   894
 NBsUse=   894 1.00D-06 EigRej= -1.00D+00 NBFU=   894
 Precomputing XC quadrature grid using
 IXCGrd= 4 IRadAn=           5 IRanWt=          -1 IRanGd=           0 AccXCQ= 0.00D+00.
 Generated NRdTot=       0 NPtTot=           0 NUsed=           0 NTot=          32
 NSgBfM=   996   996   996   996   996 MxSgAt=    48 MxSgA2=    48.
 Leave Link  302 at Sat Aug 13 20:09:20 2022, MaxMem=  2684354560 cpu:              19.5 elap:               1.3
 (Enter /storage/apps/GAUSSIAN/G16_RevA03/g16/l303.exe)
 DipDrv:  MaxL=1.
 Leave Link  303 at Sat Aug 13 20:09:20 2022, MaxMem=  2684354560 cpu:               2.2 elap:               0.2
 (Enter /storage/apps/GAUSSIAN/G16_RevA03/g16/l401.exe)
 ExpMin= 9.52D-02 ExpMax= 6.07D+04 ExpMxC= 2.07D+03 IAcc=3 IRadAn=         5 AccDes= 0.00D+00
 Harris functional with IExCor= 1009 and IRadAn=       5 diagonalized for initial guess.
 HarFok:  IExCor= 1009 AccDes= 0.00D+00 IRadAn=         5 IDoV= 1 UseB2=F ITyADJ=14
 ICtDFT=  3500011 ScaDFX=  1.000000  1.000000  1.000000  1.000000
 FoFCou: FMM=F IPFlag=           0 FMFlag=      100000 FMFlg1=           0
         NFxFlg=           0 DoJE=T BraDBF=F KetDBF=T FulRan=T
         wScrn=  0.000000 ICntrl=       500 IOpCl=  0 I1Cent=   200000004 NGrid=           0
         NMat0=    1 NMatS0=      1 NMatT0=    0 NMatD0=    1 NMtDS0=    0 NMtDT0=    0
 Petite list used in FoFCou.
 Harris En= -1507.25264494041    
 JPrj=0 DoOrth=F DoCkMO=F.
 Leave Link  401 at Sat Aug 13 20:09:24 2022, MaxMem=  2684354560 cpu:              63.5 elap:               4.0
 (Enter /storage/apps/GAUSSIAN/G16_RevA03/g16/l502.exe)
 Integral symmetry usage will be decided dynamically.
 Closed shell SCF:
 Using DIIS extrapolation, IDIIS=  1040.
 NGot=  2684354560 LenX=  2682272944 LenY=  2681243734
 Requested convergence on RMS density matrix=1.00D-08 within 128 cycles.
 Requested convergence on MAX density matrix=1.00D-06.
 Requested convergence on             energy=1.00D-06.
 No special actions if energy rises.
 Fock matrices will be formed incrementally for  20 cycles.
 Integral accuracy reduced to 1.0D-05 until final iterations.

 Cycle   1  Pass 0  IDiag  1:
 FoFJK:  IHMeth= 1 ICntrl=       0 DoSepK=F KAlg= 0 I1Cent=           0 FoldK=F
 IRaf= 790000000 NMat=       1 IRICut=       1 DoRegI=T DoRafI=F ISym2E= 0 IDoP0=0 IntGTp=1.
 FoFCou: FMM=F IPFlag=           0 FMFlag=      100000 FMFlg1=           0
         NFxFlg=           0 DoJE=F BraDBF=F KetDBF=F FulRan=T
         wScrn=  0.000000 ICntrl=         0 IOpCl=  0 I1Cent=           0 NGrid=           0
         NMat0=    1 NMatS0=      1 NMatT0=    0 NMatD0=    1 NMtDS0=    0 NMtDT0=    0
 Symmetry not used in FoFCou.
 E= -1507.18555893946    
 DIIS: error= 1.50D-02 at cycle   1 NSaved=   1.
 NSaved= 1 IEnMin= 1 EnMin= -1507.18555893946     IErMin= 1 ErrMin= 1.50D-02
 ErrMax= 1.50D-02  0.00D+00 EMaxC= 1.00D-01 BMatC= 1.00D+00 BMatP= 1.00D+00
 IDIUse=3 WtCom= 8.50D-01 WtEn= 1.50D-01
 Coeff-Com:  0.100D+01
 Coeff-En:   0.100D+01
 Coeff:      0.100D+01
 Gap=     0.302 Goal=   None    Shift=    0.000
 GapD=    0.302 DampG=1.000 DampE=0.500 DampFc=0.5000 IDamp=-1.
 Damping current iteration by 5.00D-01
 RMSDP=4.54D-03 MaxDP=1.82D+00              OVMax= 2.20D-01

 Cycle   2  Pass 0  IDiag  1:
 RMSU=  2.27D-03    CP:  1.02D+00
 E= -1507.53016383889     Delta-E=       -0.344604899431 Rises=F Damp=T
 DIIS: error= 3.75D-03 at cycle   2 NSaved=   2.
 NSaved= 2 IEnMin= 2 EnMin= -1507.53016383889     IErMin= 2 ErrMin= 3.75D-03
 ErrMax= 3.75D-03  0.00D+00 EMaxC= 1.00D-01 BMatC= 8.65D-02 BMatP= 1.00D+00
 IDIUse=3 WtCom= 9.63D-01 WtEn= 3.75D-02
 Coeff-Com: -0.173D-01 0.102D+01
 Coeff-En:   0.150D-01 0.985D+00
 Coeff:     -0.161D-01 0.102D+01
 Gap=     0.319 Goal=   None    Shift=    0.000
 RMSDP=1.40D-03 MaxDP=5.47D-01 DE=-3.45D-01 OVMax= 1.70D-01

 Cycle   3  Pass 0  IDiag  1:
 RMSU=  1.09D-03    CP:  1.00D+00  6.12D-01
 E= -1507.88874561969     Delta-E=       -0.358581780801 Rises=F Damp=F
 DIIS: error= 3.90D-03 at cycle   3 NSaved=   3.
 NSaved= 3 IEnMin= 3 EnMin= -1507.88874561969     IErMin= 2 ErrMin= 3.75D-03
 ErrMax= 3.90D-03  0.00D+00 EMaxC= 1.00D-01 BMatC= 5.13D-02 BMatP= 8.65D-02
 IDIUse=3 WtCom= 9.61D-01 WtEn= 3.90D-02
 Coeff-Com: -0.839D-01 0.458D+00 0.626D+00
 Coeff-En:   0.000D+00 0.000D+00 0.100D+01
 Coeff:     -0.806D-01 0.440D+00 0.641D+00
 Gap=     0.208 Goal=   None    Shift=    0.000
 RMSDP=3.78D-04 MaxDP=7.74D-02 DE=-3.59D-01 OVMax= 6.78D-02

 Cycle   4  Pass 0  IDiag  1:
 RMSU=  3.14D-04    CP:  1.00D+00  6.96D-01  9.19D-01
 E= -1507.92178239005     Delta-E=       -0.033036770353 Rises=F Damp=F
 DIIS: error= 1.93D-03 at cycle   4 NSaved=   4.
 NSaved= 4 IEnMin= 4 EnMin= -1507.92178239005     IErMin= 4 ErrMin= 1.93D-03
 ErrMax= 1.93D-03  0.00D+00 EMaxC= 1.00D-01 BMatC= 1.01D-02 BMatP= 5.13D-02
 IDIUse=3 WtCom= 9.81D-01 WtEn= 1.93D-02
 Coeff-Com: -0.372D-01 0.998D-01 0.346D+00 0.591D+00
 Coeff-En:   0.000D+00 0.000D+00 0.134D+00 0.866D+00
 Coeff:     -0.365D-01 0.979D-01 0.342D+00 0.597D+00
 Gap=     0.208 Goal=   None    Shift=    0.000
 RMSDP=1.28D-04 MaxDP=1.87D-02 DE=-3.30D-02 OVMax= 1.71D-02

 Cycle   5  Pass 0  IDiag  1:
 RMSU=  7.96D-05    CP:  1.00D+00  6.80D-01  9.46D-01  7.19D-01
 E= -1507.92926202770     Delta-E=       -0.007479637655 Rises=F Damp=F
 DIIS: error= 3.32D-04 at cycle   5 NSaved=   5.
 NSaved= 5 IEnMin= 5 EnMin= -1507.92926202770     IErMin= 5 ErrMin= 3.32D-04
 ErrMax= 3.32D-04  0.00D+00 EMaxC= 1.00D-01 BMatC= 4.12D-04 BMatP= 1.01D-02
 IDIUse=3 WtCom= 9.97D-01 WtEn= 3.32D-03
 Coeff-Com: -0.108D-01 0.187D-01 0.120D+00 0.267D+00 0.604D+00
 Coeff-En:   0.000D+00 0.000D+00 0.000D+00 0.000D+00 0.100D+01
 Coeff:     -0.107D-01 0.187D-01 0.120D+00 0.266D+00 0.606D+00
 Gap=     0.207 Goal=   None    Shift=    0.000
 RMSDP=4.93D-05 MaxDP=1.69D-02 DE=-7.48D-03 OVMax= 4.09D-03

 Cycle   6  Pass 0  IDiag  1:
 RMSU=  3.24D-05    CP:  1.00D+00  6.65D-01  9.58D-01  7.34D-01  8.95D-01
 E= -1507.92959081480     Delta-E=       -0.000328787099 Rises=F Damp=F
 DIIS: error= 1.51D-04 at cycle   6 NSaved=   6.
 NSaved= 6 IEnMin= 6 EnMin= -1507.92959081480     IErMin= 6 ErrMin= 1.51D-04
 ErrMax= 1.51D-04  0.00D+00 EMaxC= 1.00D-01 BMatC= 5.35D-05 BMatP= 4.12D-04
 IDIUse=3 WtCom= 9.98D-01 WtEn= 1.51D-03
 Coeff-Com:  0.116D-03-0.410D-02 0.130D-01 0.441D-01 0.274D+00 0.673D+00
 Coeff-En:   0.000D+00 0.000D+00 0.000D+00 0.000D+00 0.000D+00 0.100D+01
 Coeff:      0.115D-03-0.409D-02 0.130D-01 0.440D-01 0.274D+00 0.673D+00
 Gap=     0.208 Goal=   None    Shift=    0.000
 RMSDP=2.09D-05 MaxDP=4.46D-03 DE=-3.29D-04 OVMax= 3.35D-03

 Cycle   7  Pass 0  IDiag  1:
 RMSU=  1.69D-05    CP:  1.00D+00  6.61D-01  9.63D-01  7.38D-01  9.76D-01
                    CP:  1.02D+00
 E= -1507.92965406538     Delta-E=       -0.000063250579 Rises=F Damp=F
 DIIS: error= 7.69D-05 at cycle   7 NSaved=   7.
 NSaved= 7 IEnMin= 7 EnMin= -1507.92965406538     IErMin= 7 ErrMin= 7.69D-05
 ErrMax= 7.69D-05  0.00D+00 EMaxC= 1.00D-01 BMatC= 9.06D-06 BMatP= 5.35D-05
 IDIUse=1 WtCom= 1.00D+00 WtEn= 0.00D+00
 Coeff-Com:  0.183D-02-0.498D-02-0.119D-01-0.243D-01 0.140D-01 0.290D+00
 Coeff-Com:  0.736D+00
 Coeff:      0.183D-02-0.498D-02-0.119D-01-0.243D-01 0.140D-01 0.290D+00
 Coeff:      0.736D+00
 Gap=     0.208 Goal=   None    Shift=    0.000
 RMSDP=1.75D-05 MaxDP=5.16D-03 DE=-6.33D-05 OVMax= 1.93D-03

 Cycle   8  Pass 0  IDiag  1:
 RMSU=  1.14D-05    CP:  1.00D+00  6.57D-01  9.64D-01  7.42D-01  1.04D+00
                    CP:  1.21D+00  1.26D+00
 E= -1507.92966081608     Delta-E=       -0.000006750699 Rises=F Damp=F
 DIIS: error= 2.69D-05 at cycle   8 NSaved=   8.
 NSaved= 8 IEnMin= 8 EnMin= -1507.92966081608     IErMin= 8 ErrMin= 2.69D-05
 ErrMax= 2.69D-05  0.00D+00 EMaxC= 1.00D-01 BMatC= 2.05D-06 BMatP= 9.06D-06
 IDIUse=1 WtCom= 1.00D+00 WtEn= 0.00D+00
 Coeff-Com:  0.961D-03-0.178D-02-0.798D-02-0.222D-01-0.462D-01 0.116D-01
 Coeff-Com:  0.358D+00 0.707D+00
 Coeff:      0.961D-03-0.178D-02-0.798D-02-0.222D-01-0.462D-01 0.116D-01
 Coeff:      0.358D+00 0.707D+00
 Gap=     0.209 Goal=   None    Shift=    0.000
 RMSDP=1.84D-05 MaxDP=2.68D-03 DE=-6.75D-06 OVMax= 7.05D-04

 Cycle   9  Pass 0  IDiag  1:
 RMSU=  9.48D-06    CP:  1.00D+00  6.55D-01  9.63D-01  7.40D-01  1.09D+00
                    CP:  1.33D+00  1.70D+00  2.03D+00
 E= -1507.92964895994     Delta-E=        0.000011856137 Rises=F Damp=F
 DIIS: error= 2.65D-05 at cycle   9 NSaved=   9.
 NSaved= 9 IEnMin= 8 EnMin= -1507.92966081608     IErMin= 9 ErrMin= 2.65D-05
 ErrMax= 2.65D-05  0.00D+00 EMaxC= 1.00D-01 BMatC= 5.39D-07 BMatP= 2.05D-06
 IDIUse=1 WtCom= 1.00D+00 WtEn= 0.00D+00
 Coeff-Com:  0.387D-03-0.635D-03-0.312D-02-0.103D-01-0.244D-01-0.139D-01
 Coeff-Com:  0.140D+00 0.378D+00 0.534D+00
 Coeff:      0.387D-03-0.635D-03-0.312D-02-0.103D-01-0.244D-01-0.139D-01
 Coeff:      0.140D+00 0.378D+00 0.534D+00
 Gap=     0.209 Goal=   None    Shift=    0.000
 RMSDP=1.90D-05 MaxDP=1.81D-03 DE= 1.19D-05 OVMax= 1.69D-04

 Cycle  10  Pass 0  IDiag  1:
 RMSU=  4.89D-06    CP:  1.00D+00  6.54D-01  9.63D-01  7.40D-01  1.11D+00
                    CP:  1.44D+00  2.11D+00  3.00D+00  2.15D+00
 E= -1507.92963723426     Delta-E=        0.000011725688 Rises=F Damp=F
 DIIS: error= 3.88D-05 at cycle  10 NSaved=  10.
 NSaved=10 IEnMin= 8 EnMin= -1507.92966081608     IErMin= 9 ErrMin= 2.65D-05
 ErrMax= 3.88D-05  0.00D+00 EMaxC= 1.00D-01 BMatC= 9.30D-07 BMatP= 5.39D-07
 IDIUse=1 WtCom= 1.00D+00 WtEn= 0.00D+00
 Coeff-Com:  0.369D-03-0.489D-03-0.308D-02-0.114D-01-0.306D-01-0.338D-01
 Coeff-Com:  0.130D+00 0.474D+00 0.110D+01-0.629D+00
 Coeff:      0.369D-03-0.489D-03-0.308D-02-0.114D-01-0.306D-01-0.338D-01
 Coeff:      0.130D+00 0.474D+00 0.110D+01-0.629D+00
 Gap=     0.209 Goal=   None    Shift=    0.000
 RMSDP=2.44D-05 MaxDP=2.93D-03 DE= 1.17D-05 OVMax= 5.28D-05

 Problem detected with inexpensive integrals.
 Switching to full accuracy and repeating last cycle.
 Cycle  11  Pass 1  IDiag  1:
 E= -1507.92959073162     Delta-E=        0.000046502641 Rises=F Damp=F
 DIIS: error= 3.10D-04 at cycle   1 NSaved=   1.
 NSaved= 1 IEnMin= 1 EnMin= -1507.92959073162     IErMin= 1 ErrMin= 3.10D-04
 ErrMax= 3.10D-04  0.00D+00 EMaxC= 1.00D-01 BMatC= 8.63D-05 BMatP= 8.63D-05
 IDIUse=3 WtCom= 9.97D-01 WtEn= 3.10D-03
 Coeff-Com:  0.100D+01
 Coeff-En:   0.100D+01
 Coeff:      0.100D+01
 Gap=     0.209 Goal=   None    Shift=    0.000
 RMSDP=4.14D-04 MaxDP=3.09D-02 DE= 4.65D-05 OVMax= 8.65D-04

 Cycle  12  Pass 1  IDiag  1:
 RMSU=  4.13D-04    CP:  9.95D-01
 E= -1507.92964461083     Delta-E=       -0.000053879210 Rises=F Damp=F
 DIIS: error= 8.36D-06 at cycle   2 NSaved=   2.
 NSaved= 2 IEnMin= 2 EnMin= -1507.92964461083     IErMin= 2 ErrMin= 8.36D-06
 ErrMax= 8.36D-06  0.00D+00 EMaxC= 1.00D-01 BMatC= 8.01D-08 BMatP= 8.63D-05
 IDIUse=1 WtCom= 1.00D+00 WtEn= 0.00D+00
 Coeff-Com: -0.161D-01 0.102D+01
 Coeff:     -0.161D-01 0.102D+01
 Gap=     0.209 Goal=   None    Shift=    0.000
 RMSDP=1.52D-05 MaxDP=1.16D-03 DE=-5.39D-05 OVMax= 8.03D-05

 Cycle  13  Pass 1  IDiag  1:
 RMSU=  5.19D-06    CP:  9.95D-01  1.03D+00
 E= -1507.92964466374     Delta-E=       -0.000000052918 Rises=F Damp=F
 DIIS: error= 4.43D-06 at cycle   3 NSaved=   3.
 NSaved= 3 IEnMin= 3 EnMin= -1507.92964466374     IErMin= 3 ErrMin= 4.43D-06
 ErrMax= 4.43D-06  0.00D+00 EMaxC= 1.00D-01 BMatC= 7.13D-08 BMatP= 8.01D-08
 IDIUse=1 WtCom= 1.00D+00 WtEn= 0.00D+00
 Coeff-Com: -0.909D-02 0.539D+00 0.470D+00
 Coeff:     -0.909D-02 0.539D+00 0.470D+00
 Gap=     0.209 Goal=   None    Shift=    0.000
 RMSDP=6.36D-07 MaxDP=2.05D-04 DE=-5.29D-08 OVMax= 4.21D-05

 Cycle  14  Pass 1  IDiag  1:
 RMSU=  5.84D-07    CP:  9.95D-01  1.04D+00  1.01D+00
 E= -1507.92964471490     Delta-E=       -0.000000051155 Rises=F Damp=F
 DIIS: error= 1.52D-06 at cycle   4 NSaved=   4.
 NSaved= 4 IEnMin= 4 EnMin= -1507.92964471490     IErMin= 4 ErrMin= 1.52D-06
 ErrMax= 1.52D-06  0.00D+00 EMaxC= 1.00D-01 BMatC= 3.64D-09 BMatP= 7.13D-08
 IDIUse=1 WtCom= 1.00D+00 WtEn= 0.00D+00
 Coeff-Com: -0.230D-03 0.267D-02 0.169D+00 0.829D+00
 Coeff:     -0.230D-03 0.267D-02 0.169D+00 0.829D+00
 Gap=     0.209 Goal=   None    Shift=    0.000
 RMSDP=3.40D-07 MaxDP=2.28D-05 DE=-5.12D-08 OVMax= 2.42D-05

 Cycle  15  Pass 1  IDiag  1:
 RMSU=  1.49D-07    CP:  9.95D-01  1.04D+00  1.05D+00  1.01D+00
 E= -1507.92964471787     Delta-E=       -0.000000002968 Rises=F Damp=F
 DIIS: error= 6.83D-07 at cycle   5 NSaved=   5.
 NSaved= 5 IEnMin= 5 EnMin= -1507.92964471787     IErMin= 5 ErrMin= 6.83D-07
 ErrMax= 6.83D-07  0.00D+00 EMaxC= 1.00D-01 BMatC= 7.73D-10 BMatP= 3.64D-09
 IDIUse=1 WtCom= 1.00D+00 WtEn= 0.00D+00
 Coeff-Com:  0.551D-03-0.385D-01 0.513D-01 0.441D+00 0.546D+00
 Coeff:      0.551D-03-0.385D-01 0.513D-01 0.441D+00 0.546D+00
 Gap=     0.209 Goal=   None    Shift=    0.000
 RMSDP=7.09D-08 MaxDP=1.39D-05 DE=-2.97D-09 OVMax= 8.23D-06

 Cycle  16  Pass 1  IDiag  1:
 RMSU=  4.85D-08    CP:  9.95D-01  1.04D+00  1.05D+00  1.07D+00  1.05D+00
 E= -1507.92964471866     Delta-E=       -0.000000000794 Rises=F Damp=F
 DIIS: error= 1.43D-07 at cycle   6 NSaved=   6.
 NSaved= 6 IEnMin= 6 EnMin= -1507.92964471866     IErMin= 6 ErrMin= 1.43D-07
 ErrMax= 1.43D-07  0.00D+00 EMaxC= 1.00D-01 BMatC= 4.07D-11 BMatP= 7.73D-10
 IDIUse=1 WtCom= 1.00D+00 WtEn= 0.00D+00
 Coeff-Com:  0.199D-03-0.121D-01-0.940D-02 0.266D-01 0.142D+00 0.852D+00
 Coeff:      0.199D-03-0.121D-01-0.940D-02 0.266D-01 0.142D+00 0.852D+00
 Gap=     0.209 Goal=   None    Shift=    0.000
 RMSDP=3.38D-08 MaxDP=1.16D-05 DE=-7.94D-10 OVMax= 5.14D-06

 Cycle  17  Pass 1  IDiag  1:
 RMSU=  1.87D-08    CP:  9.95D-01  1.04D+00  1.05D+00  1.11D+00  1.13D+00
                    CP:  1.19D+00
 E= -1507.92964471871     Delta-E=       -0.000000000053 Rises=F Damp=F
 DIIS: error= 9.68D-08 at cycle   7 NSaved=   7.
 NSaved= 7 IEnMin= 7 EnMin= -1507.92964471871     IErMin= 7 ErrMin= 9.68D-08
 ErrMax= 9.68D-08  0.00D+00 EMaxC= 1.00D-01 BMatC= 1.85D-11 BMatP= 4.07D-11
 IDIUse=1 WtCom= 1.00D+00 WtEn= 0.00D+00
 Coeff-Com: -0.165D-04 0.211D-02-0.166D-01-0.784D-01-0.493D-01 0.466D+00
 Coeff-Com:  0.676D+00
 Coeff:     -0.165D-04 0.211D-02-0.166D-01-0.784D-01-0.493D-01 0.466D+00
 Coeff:      0.676D+00
 Gap=     0.209 Goal=   None    Shift=    0.000
 RMSDP=1.20D-08 MaxDP=1.79D-06 DE=-5.28D-11 OVMax= 2.57D-06

 Cycle  18  Pass 1  IDiag  1:
 RMSU=  8.10D-09    CP:  9.95D-01  1.04D+00  1.05D+00  1.12D+00  1.15D+00
                    CP:  1.30D+00  1.00D+00
 E= -1507.92964471876     Delta-E=       -0.000000000045 Rises=F Damp=F
 DIIS: error= 2.91D-08 at cycle   8 NSaved=   8.
 NSaved= 8 IEnMin= 8 EnMin= -1507.92964471876     IErMin= 8 ErrMin= 2.91D-08
 ErrMax= 2.91D-08  0.00D+00 EMaxC= 1.00D-01 BMatC= 1.92D-12 BMatP= 1.85D-11
 IDIUse=1 WtCom= 1.00D+00 WtEn= 0.00D+00
 Coeff-Com: -0.358D-04 0.270D-02-0.668D-02-0.405D-01-0.456D-01 0.995D-01
 Coeff-Com:  0.310D+00 0.681D+00
 Coeff:     -0.358D-04 0.270D-02-0.668D-02-0.405D-01-0.456D-01 0.995D-01
 Coeff:      0.310D+00 0.681D+00
 Gap=     0.209 Goal=   None    Shift=    0.000
 RMSDP=5.90D-09 MaxDP=2.34D-06 DE=-4.55D-11 OVMax= 6.43D-07

 Cycle  19  Pass 1  IDiag  1:
 RMSU=  3.08D-09    CP:  9.95D-01  1.04D+00  1.05D+00  1.13D+00  1.16D+00
                    CP:  1.33D+00  1.13D+00  1.07D+00
 E= -1507.92964471875     Delta-E=        0.000000000007 Rises=F Damp=F
 DIIS: error= 7.82D-09 at cycle   9 NSaved=   9.
 NSaved= 9 IEnMin= 8 EnMin= -1507.92964471876     IErMin= 9 ErrMin= 7.82D-09
 ErrMax= 7.82D-09  0.00D+00 EMaxC= 1.00D-01 BMatC= 1.67D-13 BMatP= 1.92D-12
 IDIUse=1 WtCom= 1.00D+00 WtEn= 0.00D+00
 Coeff-Com: -0.108D-04 0.690D-03-0.185D-03-0.352D-02-0.102D-01-0.251D-01
 Coeff-Com:  0.248D-01 0.244D+00 0.770D+00
 Coeff:     -0.108D-04 0.690D-03-0.185D-03-0.352D-02-0.102D-01-0.251D-01
 Coeff:      0.248D-01 0.244D+00 0.770D+00
 Gap=     0.209 Goal=   None    Shift=    0.000
 RMSDP=1.38D-09 MaxDP=1.95D-07 DE= 6.82D-12 OVMax= 2.32D-07

 SCF Done:  E(RM062X) =  -1507.92964472     A.U. after   19 cycles
            NFock= 19  Conv=0.14D-08     -V/T= 2.0037
 KE= 1.502404898454D+03 PE=-8.510583543327D+03 EE= 3.014162564455D+03
 Leave Link  502 at Sat Aug 13 20:18:42 2022, MaxMem=  2684354560 cpu:            8902.3 elap:             557.2
 (Enter /storage/apps/GAUSSIAN/G16_RevA03/g16/l601.exe)
 Copying SCF densities to generalized density rwf, IOpCl= 0 IROHF=0.

 **********************************************************************

            Population analysis using the SCF density.

 **********************************************************************

 Orbital symmetries:
       Occupied  (A) (A) (A) (A) (A) (A) (A) (A) (A) (A) (A) (A)
                 (A) (A) (A) (A) (A) (A) (A) (A) (A) (A) (A) (A)
                 (A) (A) (A) (A) (A) (A) (A) (A) (A) (A) (A) (A)
                 (A) (A) (A) (A) (A) (A) (A) (A) (A) (A) (A) (A)
                 (A) (A) (A) (A) (A) (A) (A) (A) (A) (A) (A) (A)
                 (A) (A) (A) (A) (A) (A) (A) (A) (A) (A) (A) (A)
                 (A) (A) (A) (A) (A) (A) (A) (A) (A) (A) (A) (A)
                 (A) (A) (A) (A) (A) (A) (A) (A) (A) (A) (A)
       Virtual   (A) (A) (A) (A) (A) (A) (A) (A) (A) (A) (A) (A)
                 (A) (A) (A) (A) (A) (A) (A) (A) (A) (A) (A) (A)
                 (A) (A) (A) (A) (A) (A) (A) (A) (A) (A) (A) (A)
                 (A) (A) (A) (A) (A) (A) (A) (A) (A) (A) (A) (A)
                 (A) (A) (A) (A) (A) (A) (A) (A) (A) (A) (A) (A)
                 (A) (A) (A) (A) (A) (A) (A) (A) (A) (A) (A) (A)
                 (A) (A) (A) (A) (A) (A) (A) (A) (A) (A) (A) (A)
                 (A) (A) (A) (A) (A) (A) (A) (A) (A) (A) (A) (A)
                 (A) (A) (A) (A) (A) (A) (A) (A) (A) (A) (A) (A)
                 (A) (A) (A) (A) (A) (A) (A) (A) (A) (A) (A) (A)
                 (A) (A) (A) (A) (A) (A) (A) (A) (A) (A) (A) (A)
                 (A) (A) (A) (A) (A) (A) (A) (A) (A) (A) (A) (A)
                 (A) (A) (A) (A) (A) (A) (A) (A) (A) (A) (A) (A)
                 (A) (A) (A) (A) (A) (A) (A) (A) (A) (A) (A) (A)
                 (A) (A) (A) (A) (A) (A) (A) (A) (A) (A) (A) (A)
                 (A) (A) (A) (A) (A) (A) (A) (A) (A) (A) (A) (A)
                 (A) (A) (A) (A) (A) (A) (A) (A) (A) (A) (A) (A)
                 (A) (A) (A) (A) (A) (A) (A) (A) (A) (A) (A) (A)
                 (A) (A) (A) (A) (A) (A) (A) (A) (A) (A) (A) (A)
                 (A) (A) (A) (A) (A) (A) (A) (A) (A) (A) (A) (A)
                 (A) (A) (A) (A) (A) (A) (A) (A) (A) (A) (A) (A)
                 (A) (A) (A) (A) (A) (A) (A) (A) (A) (A) (A) (A)
                 (A) (A) (A) (A) (A) (A) (A) (A) (A) (A) (A) (A)
                 (A) (A) (A) (A) (A) (A) (A) (A) (A) (A) (A) (A)
                 (A) (A) (A) (A) (A) (A) (A) (A) (A) (A) (A) (A)
                 (A) (A) (A) (A) (A) (A) (A) (A) (A) (A) (A) (A)
                 (A) (A) (A) (A) (A) (A) (A) (A) (A) (A) (A) (A)
                 (A) (A) (A) (A) (A) (A) (A) (A) (A) (A) (A) (A)
                 (A) (A) (A) (A) (A) (A) (A) (A) (A) (A) (A) (A)
                 (A) (A) (A) (A) (A) (A) (A) (A) (A) (A) (A) (A)
                 (A) (A) (A) (A) (A) (A) (A) (A) (A) (A) (A) (A)
                 (A) (A) (A) (A) (A) (A) (A) (A) (A) (A) (A) (A)
                 (A) (A) (A) (A) (A) (A) (A) (A) (A) (A) (A) (A)
                 (A) (A) (A) (A) (A) (A) (A) (A) (A) (A) (A) (A)
                 (A) (A) (A) (A) (A) (A) (A) (A) (A) (A) (A) (A)
                 (A) (A) (A) (A) (A) (A) (A) (A) (A) (A) (A) (A)
                 (A) (A) (A) (A) (A) (A) (A) (A) (A) (A) (A) (A)
                 (A) (A) (A) (A) (A) (A) (A) (A) (A) (A) (A) (A)
                 (A) (A) (A) (A) (A) (A) (A) (A) (A) (A) (A) (A)
                 (A) (A) (A) (A) (A) (A) (A) (A) (A) (A) (A) (A)
                 (A) (A) (A) (A) (A) (A) (A) (A) (A) (A) (A) (A)
                 (A) (A) (A) (A) (A) (A) (A) (A) (A) (A) (A) (A)
                 (A) (A) (A) (A) (A) (A) (A) (A) (A) (A) (A) (A)
                 (A) (A) (A) (A) (A) (A) (A) (A) (A) (A) (A) (A)
                 (A) (A) (A) (A) (A) (A) (A) (A) (A) (A) (A) (A)
                 (A) (A) (A) (A) (A) (A) (A) (A) (A) (A) (A) (A)
                 (A) (A) (A) (A) (A) (A) (A) (A) (A) (A) (A) (A)
                 (A) (A) (A) (A) (A) (A) (A) (A) (A) (A) (A) (A)
                 (A) (A) (A) (A) (A) (A) (A) (A) (A) (A) (A) (A)
                 (A) (A) (A) (A) (A) (A) (A) (A) (A) (A) (A) (A)
                 (A) (A) (A) (A) (A) (A) (A) (A) (A) (A) (A) (A)
                 (A) (A) (A) (A) (A) (A) (A) (A) (A) (A) (A) (A)
                 (A) (A) (A) (A) (A) (A) (A) (A) (A) (A) (A) (A)
                 (A) (A) (A) (A) (A) (A) (A) (A) (A) (A) (A) (A)
                 (A) (A) (A) (A) (A) (A) (A) (A) (A) (A) (A) (A)
                 (A) (A) (A) (A) (A) (A) (A) (A) (A) (A) (A) (A)
                 (A) (A) (A) (A) (A) (A) (A) (A) (A) (A) (A) (A)
                 (A) (A) (A) (A) (A) (A) (A) (A) (A) (A) (A) (A)
                 (A) (A) (A) (A) (A) (A) (A) (A) (A) (A) (A) (A)
                 (A) (A) (A) (A) (A) (A) (A) (A) (A) (A) (A) (A)
                 (A) (A) (A) (A) (A) (A) (A) (A) (A) (A) (A) (A)
                 (A) (A) (A) (A) (A) (A) (A) (A) (A) (A) (A) (A)
                 (A) (A) (A) (A) (A) (A) (A) (A) (A) (A) (A) (A)
                 (A) (A) (A) (A) (A) (A) (A) (A) (A) (A) (A) (A)
                 (A) (A) (A) (A) (A) (A) (A) (A) (A) (A) (A) (A)
                 (A) (A) (A) (A) (A) (A) (A) (A) (A) (A) (A) (A)
                 (A) (A) (A) (A) (A) (A) (A)
 The electronic state is 1-A.
 Alpha  occ. eigenvalues --  -89.92333 -19.63823 -19.63240 -19.62572 -19.62135
 Alpha  occ. eigenvalues --  -19.57606 -14.78882 -14.76112 -10.66462 -10.63406
 Alpha  occ. eigenvalues --  -10.62877 -10.59412 -10.59022 -10.58935 -10.58269
 Alpha  occ. eigenvalues --  -10.57492 -10.57250 -10.57207 -10.55695 -10.55661
 Alpha  occ. eigenvalues --  -10.55081 -10.53757 -10.53389 -10.53218  -8.28267
 Alpha  occ. eigenvalues --   -6.20206  -6.19970  -6.19776  -1.19475  -1.18989
 Alpha  occ. eigenvalues --   -1.15894  -1.14912  -1.13648  -1.08285  -1.00726
 Alpha  occ. eigenvalues --   -0.93226  -0.91795  -0.90556  -0.88453  -0.87463
 Alpha  occ. eigenvalues --   -0.85499  -0.83352  -0.78846  -0.77004  -0.75497
 Alpha  occ. eigenvalues --   -0.73430  -0.70720  -0.67843  -0.67614  -0.66542
 Alpha  occ. eigenvalues --   -0.63810  -0.63280  -0.61943  -0.60517  -0.58793
 Alpha  occ. eigenvalues --   -0.58149  -0.57447  -0.56534  -0.56209  -0.55157
 Alpha  occ. eigenvalues --   -0.54445  -0.52971  -0.52489  -0.52012  -0.51366
 Alpha  occ. eigenvalues --   -0.50692  -0.50347  -0.50153  -0.49232  -0.49135
 Alpha  occ. eigenvalues --   -0.48748  -0.48574  -0.47728  -0.47138  -0.46934
 Alpha  occ. eigenvalues --   -0.46031  -0.44670  -0.44248  -0.44123  -0.43758
 Alpha  occ. eigenvalues --   -0.43393  -0.43126  -0.41672  -0.41361  -0.37787
 Alpha  occ. eigenvalues --   -0.36125  -0.35548  -0.34736  -0.34700  -0.33566
 Alpha  occ. eigenvalues --   -0.33444  -0.32821  -0.32336  -0.31322  -0.24336
 Alpha virt. eigenvalues --   -0.03481   0.00469   0.04183   0.04367   0.06069
 Alpha virt. eigenvalues --    0.06962   0.07308   0.07626   0.08619   0.09146
 Alpha virt. eigenvalues --    0.09357   0.09702   0.10439   0.10580   0.10876
 Alpha virt. eigenvalues --    0.11955   0.12062   0.12320   0.12600   0.12907
 Alpha virt. eigenvalues --    0.13454   0.13817   0.13878   0.13989   0.14542
 Alpha virt. eigenvalues --    0.15253   0.15653   0.16257   0.17095   0.17500
 Alpha virt. eigenvalues --    0.18009   0.18659   0.18898   0.19041   0.19434
 Alpha virt. eigenvalues --    0.20453   0.20757   0.21355   0.22154   0.22858
 Alpha virt. eigenvalues --    0.23107   0.23363   0.23768   0.24240   0.24747
 Alpha virt. eigenvalues --    0.24842   0.25552   0.25611   0.26307   0.27164
 Alpha virt. eigenvalues --    0.27427   0.27917   0.28275   0.28500   0.29149
 Alpha virt. eigenvalues --    0.29788   0.30092   0.30366   0.30536   0.31003
 Alpha virt. eigenvalues --    0.31278   0.31963   0.33269   0.33634   0.33942
 Alpha virt. eigenvalues --    0.34329   0.35279   0.35588   0.35767   0.36357
 Alpha virt. eigenvalues --    0.36746   0.37233   0.37521   0.38060   0.38310
 Alpha virt. eigenvalues --    0.38587   0.39228   0.39900   0.40173   0.40368
 Alpha virt. eigenvalues --    0.40831   0.41220   0.41543   0.42134   0.42322
 Alpha virt. eigenvalues --    0.42864   0.43061   0.43694   0.43749   0.43997
 Alpha virt. eigenvalues --    0.44602   0.45113   0.45472   0.45602   0.46104
 Alpha virt. eigenvalues --    0.46338   0.46556   0.46996   0.47560   0.47586
 Alpha virt. eigenvalues --    0.47935   0.48136   0.48660   0.49005   0.49537
 Alpha virt. eigenvalues --    0.49987   0.50540   0.50696   0.51065   0.51489
 Alpha virt. eigenvalues --    0.51896   0.52105   0.52274   0.52636   0.52930
 Alpha virt. eigenvalues --    0.53345   0.53546   0.54094   0.54444   0.54956
 Alpha virt. eigenvalues --    0.55441   0.55926   0.56403   0.56892   0.57596
 Alpha virt. eigenvalues --    0.58172   0.58520   0.58892   0.59566   0.59986
 Alpha virt. eigenvalues --    0.60687   0.60894   0.61583   0.62079   0.62587
 Alpha virt. eigenvalues --    0.63034   0.63278   0.65068   0.65396   0.65529
 Alpha virt. eigenvalues --    0.66553   0.66821   0.67064   0.67432   0.67892
 Alpha virt. eigenvalues --    0.68558   0.69327   0.69798   0.70138   0.71243
 Alpha virt. eigenvalues --    0.71667   0.73010   0.73185   0.73722   0.74152
 Alpha virt. eigenvalues --    0.74459   0.75217   0.76295   0.76692   0.76996
 Alpha virt. eigenvalues --    0.77578   0.77941   0.79414   0.80573   0.81211
 Alpha virt. eigenvalues --    0.81548   0.82047   0.82734   0.84015   0.84605
 Alpha virt. eigenvalues --    0.85705   0.86059   0.86243   0.86949   0.87658
 Alpha virt. eigenvalues --    0.88312   0.88402   0.88614   0.89441   0.90578
 Alpha virt. eigenvalues --    0.90992   0.91507   0.92005   0.92944   0.93515
 Alpha virt. eigenvalues --    0.93595   0.94903   0.95414   0.95837   0.96302
 Alpha virt. eigenvalues --    0.96596   0.97922   0.98442   0.99169   0.99508
 Alpha virt. eigenvalues --    0.99710   1.00728   1.01023   1.02239   1.03033
 Alpha virt. eigenvalues --    1.03521   1.04489   1.05071   1.05636   1.06542
 Alpha virt. eigenvalues --    1.07658   1.07757   1.08306   1.08578   1.09304
 Alpha virt. eigenvalues --    1.10954   1.11313   1.11852   1.12260   1.12628
 Alpha virt. eigenvalues --    1.13392   1.14489   1.15386   1.16360   1.16801
 Alpha virt. eigenvalues --    1.17455   1.18932   1.19162   1.19736   1.20024
 Alpha virt. eigenvalues --    1.20806   1.21280   1.22366   1.23080   1.23884
 Alpha virt. eigenvalues --    1.24108   1.25294   1.25880   1.27072   1.29069
 Alpha virt. eigenvalues --    1.29320   1.29953   1.30766   1.31039   1.31818
 Alpha virt. eigenvalues --    1.33440   1.33859   1.34067   1.35150   1.36623
 Alpha virt. eigenvalues --    1.37017   1.37997   1.38867   1.38961   1.40795
 Alpha virt. eigenvalues --    1.41589   1.42103   1.42446   1.42987   1.44858
 Alpha virt. eigenvalues --    1.45312   1.46283   1.48469   1.48776   1.49705
 Alpha virt. eigenvalues --    1.50319   1.50697   1.51223   1.51737   1.52854
 Alpha virt. eigenvalues --    1.53407   1.53769   1.54182   1.54831   1.55296
 Alpha virt. eigenvalues --    1.56177   1.56570   1.57160   1.57418   1.58556
 Alpha virt. eigenvalues --    1.58880   1.59149   1.59615   1.59794   1.60004
 Alpha virt. eigenvalues --    1.60587   1.61378   1.61810   1.61948   1.62377
 Alpha virt. eigenvalues --    1.62866   1.63523   1.64402   1.65115   1.65866
 Alpha virt. eigenvalues --    1.66038   1.67048   1.67471   1.67791   1.68668
 Alpha virt. eigenvalues --    1.69020   1.69234   1.69919   1.70177   1.71274
 Alpha virt. eigenvalues --    1.72153   1.73027   1.73591   1.73973   1.74801
 Alpha virt. eigenvalues --    1.75672   1.76438   1.76848   1.77539   1.77986
 Alpha virt. eigenvalues --    1.78677   1.78801   1.79350   1.80090   1.81052
 Alpha virt. eigenvalues --    1.82426   1.83602   1.83986   1.84622   1.84790
 Alpha virt. eigenvalues --    1.84888   1.85705   1.86812   1.87055   1.88088
 Alpha virt. eigenvalues --    1.88270   1.88687   1.89751   1.90909   1.92222
 Alpha virt. eigenvalues --    1.92625   1.93371   1.93975   1.94026   1.94470
 Alpha virt. eigenvalues --    1.95825   1.96360   1.97140   1.97364   1.98193
 Alpha virt. eigenvalues --    1.99093   1.99289   2.00070   2.01047   2.02604
 Alpha virt. eigenvalues --    2.02821   2.03488   2.04050   2.04524   2.05691
 Alpha virt. eigenvalues --    2.06304   2.06517   2.07480   2.07930   2.08451
 Alpha virt. eigenvalues --    2.09608   2.10542   2.11410   2.12139   2.12520
 Alpha virt. eigenvalues --    2.13470   2.15359   2.16827   2.17116   2.17471
 Alpha virt. eigenvalues --    2.18561   2.19601   2.19707   2.20422   2.20860
 Alpha virt. eigenvalues --    2.21265   2.22022   2.22602   2.23014   2.23676
 Alpha virt. eigenvalues --    2.24698   2.24947   2.26371   2.26474   2.26993
 Alpha virt. eigenvalues --    2.28010   2.28593   2.29089   2.30139   2.30759
 Alpha virt. eigenvalues --    2.31650   2.32256   2.33039   2.33228   2.34161
 Alpha virt. eigenvalues --    2.34736   2.35012   2.35732   2.36140   2.36703
 Alpha virt. eigenvalues --    2.37047   2.37452   2.38483   2.39116   2.39861
 Alpha virt. eigenvalues --    2.40114   2.40973   2.41866   2.42493   2.43244
 Alpha virt. eigenvalues --    2.43730   2.44628   2.45493   2.46195   2.47032
 Alpha virt. eigenvalues --    2.48318   2.48619   2.49997   2.50389   2.51236
 Alpha virt. eigenvalues --    2.52446   2.53568   2.54059   2.55262   2.55488
 Alpha virt. eigenvalues --    2.55873   2.57392   2.57931   2.58720   2.59131
 Alpha virt. eigenvalues --    2.59477   2.60382   2.60728   2.61499   2.62188
 Alpha virt. eigenvalues --    2.62824   2.63370   2.63778   2.64252   2.64838
 Alpha virt. eigenvalues --    2.65323   2.65849   2.66634   2.67288   2.67559
 Alpha virt. eigenvalues --    2.68386   2.69196   2.69727   2.70229   2.71782
 Alpha virt. eigenvalues --    2.72136   2.72515   2.73136   2.73256   2.74021
 Alpha virt. eigenvalues --    2.74758   2.75764   2.76952   2.77630   2.78824
 Alpha virt. eigenvalues --    2.79730   2.80691   2.81303   2.82350   2.82618
 Alpha virt. eigenvalues --    2.83383   2.83876   2.85140   2.85367   2.86350
 Alpha virt. eigenvalues --    2.86928   2.87330   2.88422   2.89075   2.89789
 Alpha virt. eigenvalues --    2.90338   2.91473   2.91987   2.92036   2.92689
 Alpha virt. eigenvalues --    2.93489   2.94839   2.95073   2.95726   2.97248
 Alpha virt. eigenvalues --    2.97923   2.98760   2.98953   3.00530   3.01421
 Alpha virt. eigenvalues --    3.01754   3.02943   3.03656   3.04346   3.04995
 Alpha virt. eigenvalues --    3.05593   3.06262   3.06494   3.07052   3.07295
 Alpha virt. eigenvalues --    3.08252   3.08558   3.09229   3.09474   3.09637
 Alpha virt. eigenvalues --    3.10889   3.11874   3.12278   3.12372   3.13231
 Alpha virt. eigenvalues --    3.13867   3.14312   3.14590   3.15023   3.15671
 Alpha virt. eigenvalues --    3.16250   3.17003   3.17176   3.17578   3.18282
 Alpha virt. eigenvalues --    3.18719   3.19207   3.19671   3.20056   3.20980
 Alpha virt. eigenvalues --    3.21458   3.22152   3.23295   3.23927   3.24600
 Alpha virt. eigenvalues --    3.24775   3.25254   3.26528   3.27146   3.27555
 Alpha virt. eigenvalues --    3.28311   3.28666   3.29703   3.30997   3.31687
 Alpha virt. eigenvalues --    3.31976   3.32395   3.33111   3.33405   3.34510
 Alpha virt. eigenvalues --    3.34713   3.35334   3.36027   3.36472   3.36781
 Alpha virt. eigenvalues --    3.37608   3.37858   3.38542   3.39243   3.39839
 Alpha virt. eigenvalues --    3.40602   3.41624   3.41785   3.42741   3.43185
 Alpha virt. eigenvalues --    3.44430   3.45192   3.45598   3.45980   3.46528
 Alpha virt. eigenvalues --    3.47231   3.47505   3.48900   3.49434   3.50012
 Alpha virt. eigenvalues --    3.50900   3.52035   3.52547   3.53340   3.54863
 Alpha virt. eigenvalues --    3.55232   3.55892   3.56143   3.56661   3.56907
 Alpha virt. eigenvalues --    3.58519   3.59373   3.60010   3.60886   3.61733
 Alpha virt. eigenvalues --    3.62303   3.62676   3.63419   3.65016   3.65376
 Alpha virt. eigenvalues --    3.65700   3.66496   3.68102   3.68397   3.68818
 Alpha virt. eigenvalues --    3.69559   3.71541   3.71836   3.73856   3.75036
 Alpha virt. eigenvalues --    3.75341   3.76242   3.77421   3.78329   3.79019
 Alpha virt. eigenvalues --    3.80073   3.80854   3.81960   3.82274   3.82682
 Alpha virt. eigenvalues --    3.85158   3.85786   3.87324   3.88191   3.89155
 Alpha virt. eigenvalues --    3.90840   3.91382   3.93218   3.93830   3.95130
 Alpha virt. eigenvalues --    3.96388   3.96988   3.97711   3.99488   4.00679
 Alpha virt. eigenvalues --    4.02339   4.02556   4.03973   4.05455   4.07038
 Alpha virt. eigenvalues --    4.08943   4.10430   4.11360   4.13196   4.14045
 Alpha virt. eigenvalues --    4.15222   4.16603   4.17423   4.18080   4.18977
 Alpha virt. eigenvalues --    4.19213   4.19781   4.21124   4.21993   4.24136
 Alpha virt. eigenvalues --    4.25488   4.26516   4.29539   4.30781   4.31999
 Alpha virt. eigenvalues --    4.32539   4.36553   4.36891   4.37922   4.38620
 Alpha virt. eigenvalues --    4.38997   4.40444   4.42347   4.42706   4.43985
 Alpha virt. eigenvalues --    4.44916   4.46025   4.47570   4.49212   4.51363
 Alpha virt. eigenvalues --    4.52654   4.53397   4.54229   4.57361   4.59318
 Alpha virt. eigenvalues --    4.61863   4.64613   4.65819   4.67241   4.68163
 Alpha virt. eigenvalues --    4.69370   4.69928   4.71828   4.72838   4.74661
 Alpha virt. eigenvalues --    4.75508   4.76903   4.80183   4.82349   4.84821
 Alpha virt. eigenvalues --    4.86683   4.88206   4.89915   4.90663   4.92849
 Alpha virt. eigenvalues --    4.94534   4.95155   4.98657   4.99634   5.01385
 Alpha virt. eigenvalues --    5.02343   5.03625   5.04631   5.07311   5.09132
 Alpha virt. eigenvalues --    5.13003   5.14040   5.15328   5.19323   5.20962
 Alpha virt. eigenvalues --    5.22257   5.24554   5.25457   5.26984   5.29752
 Alpha virt. eigenvalues --    5.30282   5.31519   5.31736   5.33526   5.38726
 Alpha virt. eigenvalues --    5.40338   5.42677   5.44444   5.47112   5.49087
 Alpha virt. eigenvalues --    5.50017   5.50910   5.53640   5.55148   5.56282
 Alpha virt. eigenvalues --    5.64614   5.69089   5.76109   5.77274   5.79664
 Alpha virt. eigenvalues --    5.80252   5.82309   5.83062   5.84100   5.89127
 Alpha virt. eigenvalues --    5.89704   5.92219   5.93969   5.96834   5.98392
 Alpha virt. eigenvalues --    5.99902   6.06627   6.07607   6.16506   6.18772
 Alpha virt. eigenvalues --    6.21900   6.25571   6.28457   6.30144   6.38830
 Alpha virt. eigenvalues --    6.39193   6.43611   6.45219   6.48755   6.54452
 Alpha virt. eigenvalues --    6.59716   6.62333   6.72836   6.76517   6.77465
 Alpha virt. eigenvalues --    6.77734   6.82813   6.84350   6.85513   6.86235
 Alpha virt. eigenvalues --    6.87175   6.98272   7.00531   7.04890   7.09211
 Alpha virt. eigenvalues --    7.11527   7.15095   7.15560   7.18298   7.22890
 Alpha virt. eigenvalues --    7.31996   7.36266   9.01923   9.39340   9.55256
 Alpha virt. eigenvalues --   19.98838  22.33099  22.46721  22.50231  22.52284
 Alpha virt. eigenvalues --   22.60853  22.66810  22.75403  22.77898  22.85029
 Alpha virt. eigenvalues --   22.92316  23.01109  23.02154  23.08829  23.10202
 Alpha virt. eigenvalues --   23.28958  23.52522  32.20488  33.24276  44.17304
 Alpha virt. eigenvalues --   44.19375  44.26413  44.29736  44.54617
          Condensed to atoms (all electrons):
               1          2          3          4          5          6
     1  C    5.157741   0.426205   0.409899   0.012049  -0.008033  -0.000248
     2  H    0.426205   0.498271  -0.015421  -0.002382   0.000448  -0.000005
     3  H    0.409899  -0.015421   0.520021  -0.000797   0.000342  -0.000012
     4  C    0.012049  -0.002382  -0.000797   5.629641   0.539720   0.182938
     5  H   -0.008033   0.000448   0.000342   0.539720   0.520602  -0.037126
     6  O   -0.000248  -0.000005  -0.000012   0.182938  -0.037126   8.151442
     7  H    0.000033  -0.000003  -0.000001  -0.056742  -0.008661   0.322927
     8  C   -0.011736   0.011027  -0.001198  -0.010260  -0.098013  -0.051858
     9  H    0.004995  -0.000354  -0.001678  -0.071879   0.002215   0.001071
    10  O    0.005487  -0.000186  -0.000034   0.057396   0.005690  -0.021620
[...]
 (Enter /storage/apps/GAUSSIAN/G16_RevA03/g16/l716.exe)
 Dipole        = 1.03286276D+00-4.18595319D-01-1.96927337D+00
 ***** Axes restored to original set *****
 -------------------------------------------------------------------
 Center     Atomic                   Forces (Hartrees/Bohr)
 Number     Number              X              Y              Z
 -------------------------------------------------------------------
      1        6           0.000264402   -0.000074556   -0.000011200
      2        1           0.000018736   -0.000004980   -0.000005473
      3        1           0.000003000   -0.000024853   -0.000000763
      4        6           0.000364637   -0.000137541   -0.000192397
      5        1           0.000006862   -0.000016367    0.000001032
      6        8           0.000265819   -0.000209889   -0.000321220
      7        1          -0.000039561   -0.000044918    0.000031169
      8        6           0.000407789   -0.000048582   -0.000051924
      9        1           0.000023432   -0.000004743    0.000001056
     10        8           0.000589644   -0.000068165   -0.000031537
     11        1           0.000036540   -0.000025844    0.000025300
     12        6           0.000325945   -0.000166754   -0.000225818
     13        1           0.000045230   -0.000014254   -0.000034855
     14        6           0.000461145   -0.000026820   -0.000020588
     15        1           0.000031912   -0.000017400   -0.000008267
     16        8           0.000819858    0.000049458   -0.000140426
     17        7           0.000414742   -0.000213866   -0.000397931
     18        6          -0.000240786   -0.000264672    0.000470430
     19        1          -0.000140941   -0.000036045    0.000165535
     20        6           0.000177681   -0.000188214   -0.000362225
     21        1          -0.000021411   -0.000011782    0.000087964
     22        6           0.001579420    0.000073563   -0.002823652
     23        1           0.000301585   -0.000035637   -0.000207182
     24        1           0.000020520    0.000047358   -0.000333960
     25        6           0.000990238   -0.000043022   -0.001638727
     26        6           0.000541485   -0.000154161   -0.000631043
     27        1           0.000006008   -0.000006837    0.000020232
     28        6           0.000368364    0.000024827   -0.000368859
     29        8          -0.000494131    0.000324316    0.001813437
     30        7           0.001100928    0.000540778   -0.000283261
     31        1           0.000073003   -0.000026925   -0.000237696
     32        1          -0.000205039   -0.000673831   -0.000642227
     33        1          -0.000022781    0.000009444    0.000013312
     34        6           0.000306514    0.000032878   -0.000724901
     35        6          -0.001306716    0.000211242    0.001126270
     36        6          -0.001541819    0.000562835    0.001680637
     37        6          -0.001067675    0.000025863    0.000578058
     38        6          -0.002340770   -0.000104883    0.002723693
     39        8          -0.001805385    0.000054143    0.001424906
     40       16           0.000052555    0.000717800   -0.000468815
     41        1           0.000072385   -0.000004409   -0.000102278
     42        1          -0.000028892   -0.000047241   -0.000094457
     43        1          -0.000199092   -0.000301508   -0.000115886
     44        1          -0.000128257    0.000054744    0.000161033
     45        1           0.000159037    0.000107533   -0.000166310
     46        1          -0.000250893    0.000172883    0.000310846
     47        1          -0.000028696   -0.000030882    0.000066806
     48        1           0.000033427    0.000019916   -0.000057839
 -------------------------------------------------------------------
 Cartesian Forces:  Max     0.002823652 RMS     0.000616459
 Leave Link  716 at Sat Aug 13 20:22:01 2022, MaxMem=  2684354560 cpu:               0.8 elap:               0.1
 (Enter /storage/apps/GAUSSIAN/G16_RevA03/g16/l103.exe)

 GradGradGradGradGradGradGradGradGradGradGradGradGradGradGradGradGradGrad
 Berny optimization.
 Search for a local minimum.
 Step number   1 out of a maximum of    2
 All quantities printed in internal units (Hartrees-Bohrs-Radians)
 Second derivative matrix not updated -- first step.
 ITU=  0
     Eigenvalues ---    0.00036   0.00094   0.00104   0.00125   0.00186
     Eigenvalues ---    0.00244   0.00312   0.00387   0.00424   0.00455
     Eigenvalues ---    0.00570   0.00730   0.00833   0.00888   0.00919
     Eigenvalues ---    0.01030   0.01080   0.01191   0.01384   0.01515
     Eigenvalues ---    0.01702   0.01898   0.02348   0.02496   0.02624
     Eigenvalues ---    0.02961   0.03204   0.03379   0.03755   0.03854
     Eigenvalues ---    0.04372   0.04625   0.04930   0.05115   0.05262
     Eigenvalues ---    0.05375   0.05534   0.05744   0.05858   0.05878
     Eigenvalues ---    0.06095   0.06160   0.06353   0.06389   0.06696
     Eigenvalues ---    0.06956   0.07520   0.07708   0.07925   0.08126
     Eigenvalues ---    0.08522   0.08721   0.09095   0.09833   0.10287
     Eigenvalues ---    0.10535   0.11676   0.12137   0.12452   0.12555
     Eigenvalues ---    0.13003   0.13113   0.13219   0.13662   0.13753
     Eigenvalues ---    0.13965   0.14066   0.15380   0.16004   0.16619
     Eigenvalues ---    0.16806   0.18616   0.19150   0.19728   0.19853
     Eigenvalues ---    0.20039   0.21059   0.21873   0.21909   0.22248
     Eigenvalues ---    0.25133   0.27185   0.27465   0.28423   0.31120
     Eigenvalues ---    0.32996   0.34258   0.35075   0.35316   0.36795
     Eigenvalues ---    0.38160   0.38160   0.38160   0.38160   0.40260
     Eigenvalues ---    0.42945   0.45233   0.48018   0.56171   0.56642
     Eigenvalues ---    0.61648   0.66507   0.69516   0.69895   0.74219
     Eigenvalues ---    0.78891   0.82440   0.87582   0.89155   0.91056
     Eigenvalues ---    0.91330   0.91925   0.93923   0.94547   0.94873
     Eigenvalues ---    0.95973   0.97247   0.99933   1.01713   1.02991
     Eigenvalues ---    1.05643   1.06857   1.09990   1.11482   1.14232
     Eigenvalues ---    1.19503   1.19938   1.25693   1.27218   1.30214
     Eigenvalues ---    1.33547   1.44502   1.52071   1.64018   1.70225
     Eigenvalues ---    1.79496   2.18628   2.27891
 Quadratic step=3.433D+00 exceeds max=3.000D-01 adjusted using Lamda=-9.728D-03.
 Angle between NR and scaled steps=  52.12 degrees.
 Angle between quadratic step and forces=  49.95 degrees.
 Linear search not attempted -- first point.
 Variable       Old X    -DE/DX   Delta X   Delta X   Delta X     New X
                                 (Linear)    (Quad)   (Total)
    X1        6.81401   0.00026   0.00000  -0.00554  -0.00554   6.80847
    Y1       -6.83753  -0.00007   0.00000   0.00363   0.00363  -6.83389
    Z1       -0.83774  -0.00001   0.00000   0.00450   0.00450  -0.83325
    X2        7.09459   0.00002   0.00000  -0.01278  -0.01278   7.08181
    Y2       -7.02085  -0.00000   0.00000   0.00039   0.00039  -7.02046
    Z2       -2.86860  -0.00001   0.00000   0.00444   0.00444  -2.86416
    X3        8.19081   0.00000   0.00000  -0.01065  -0.01065   8.18016
    Y3       -8.02590  -0.00002   0.00000  -0.00080  -0.00080  -8.02669
    Z3        0.13170  -0.00000   0.00000   0.00567   0.00567   0.13737
    X4        3.57220   0.00036   0.00000   0.00503   0.00503   3.57723
    Y4       -2.74397  -0.00014   0.00000  -0.00015  -0.00015  -2.74412
    Z4        2.32512  -0.00019   0.00000  -0.00524  -0.00524   2.31988
    X5        2.34272   0.00001   0.00000   0.00369   0.00369   2.34641
    Y5       -4.39135  -0.00002   0.00000  -0.00074  -0.00074  -4.39209
    Z5        2.06944   0.00000   0.00000   0.00312   0.00312   2.07257
    X6        2.83471   0.00027   0.00000   0.00717   0.00717   2.84188
    Y6       -1.30696  -0.00021   0.00000   0.00039   0.00039  -1.30657
    Z6        4.41401  -0.00032   0.00000  -0.00521  -0.00521   4.40880
    X7        1.07924  -0.00004   0.00000   0.00228   0.00228   1.08152
    Y7       -0.80114  -0.00004   0.00000  -0.00787  -0.00787  -0.80901
    Z7        4.17686   0.00003   0.00000   0.00983   0.00983   4.18669
    X8        6.30897   0.00041   0.00000   0.00629   0.00629   6.31526
    Y8       -3.57320  -0.00005   0.00000   0.00363   0.00363  -3.56957
    Z8        2.65566  -0.00005   0.00000  -0.00180  -0.00180   2.65386
    X9        6.48531   0.00002   0.00000   0.00256   0.00256   6.48787
    Y9       -5.24758  -0.00000   0.00000   0.00527   0.00527  -5.24232
    Z9        3.85715   0.00000   0.00000   0.00171   0.00171   3.85885
   X10        7.74295   0.00059   0.00000   0.00701   0.00701   7.74996
   Y10       -1.54945  -0.00007   0.00000   0.00329   0.00329  -1.54616
   Z10        3.62147  -0.00003   0.00000  -0.00110  -0.00110   3.62036
   X11        6.71770   0.00004   0.00000   0.00736   0.00736   6.72506
   Y11       -0.73777  -0.00003   0.00000  -0.00137  -0.00137  -0.73915
   Z11        4.89541   0.00003   0.00000   0.00318   0.00318   4.89859
   X12        3.72073   0.00033   0.00000   0.00367   0.00367   3.72440
   Y12       -1.25776  -0.00017   0.00000  -0.00273  -0.00273  -1.26049
   Z12       -0.17090  -0.00023   0.00000  -0.00816  -0.00816  -0.17906
   X13        4.28988   0.00005   0.00000  -0.00641  -0.00641   4.28347
   Y13        0.68908  -0.00001   0.00000  -0.00081  -0.00081   0.68827
   Z13        0.23803  -0.00003   0.00000  -0.00155  -0.00155   0.23648
   X14        7.12640   0.00046   0.00000   0.00781   0.00781   7.13420
   Y14       -4.09883  -0.00003   0.00000   0.00251   0.00251  -4.09632
   Z14       -0.05566  -0.00002   0.00000  -0.00005  -0.00005  -0.05571
   X15        9.08175   0.00003   0.00000   0.00870   0.00870   9.09045
   Y15       -3.48985  -0.00002   0.00000  -0.00174  -0.00174  -3.49159
   Z15       -0.29827  -0.00001   0.00000   0.00431   0.00431  -0.29396
   X16        5.56191   0.00082   0.00000   0.01462   0.01462   5.57653
   Y16       -2.52842   0.00005   0.00000   0.00579   0.00579  -2.52263
   Z16       -1.61683  -0.00014   0.00000  -0.00341  -0.00341  -1.62024
   X17        1.40606   0.00041   0.00000   0.00661   0.00661   1.41266
   Y17       -1.13666  -0.00021   0.00000  -0.00589  -0.00589  -1.14255
   Z17       -1.59781  -0.00040   0.00000  -0.01631  -0.01631  -1.61412
   X18        0.34551  -0.00024   0.00000  -0.00632  -0.00632   0.33920
   Y18       -3.36265  -0.00026   0.00000  -0.00678  -0.00678  -3.36943
   Z18       -2.52125   0.00047   0.00000  -0.00049  -0.00049  -2.52173
   X19        1.43224  -0.00014   0.00000  -0.02565  -0.02565   1.40660
   Y19       -5.05036  -0.00004   0.00000  -0.01159  -0.01159  -5.06196
   Z19       -2.14714   0.00017   0.00000   0.03023   0.03023  -2.11690
   X20       -1.78198   0.00018   0.00000   0.00265   0.00265  -1.77933
   Y20       -3.40859  -0.00019   0.00000  -0.00348  -0.00348  -3.41207
   Z20       -3.85397  -0.00036   0.00000  -0.01615  -0.01615  -3.87012
   X21       -2.45320  -0.00002   0.00000  -0.01440  -0.01440  -2.46761
   Y21       -5.20806  -0.00001   0.00000  -0.00615  -0.00615  -5.21421
   Z21       -4.55295   0.00009   0.00000   0.00913   0.00913  -4.54381
   X22       -3.25993   0.00158   0.00000   0.02394   0.02394  -3.23600
   Y22       -1.06656   0.00007   0.00000   0.00137   0.00137  -1.06519
   Z22       -4.46899  -0.00282   0.00000  -0.05126  -0.05126  -4.52026
   X23       -3.60235   0.00030   0.00000   0.02731   0.02731  -3.57503
   Y23       -0.95919  -0.00004   0.00000  -0.00263  -0.00263  -0.96181
   Z23       -6.51148  -0.00021   0.00000  -0.04983  -0.04983  -6.56131
   X24       -5.14315   0.00002   0.00000   0.01983   0.01983  -5.12332
   Y24       -1.18360   0.00005   0.00000   0.01385   0.01385  -1.16975
   Z24       -3.60994  -0.00033   0.00000  -0.05280  -0.05280  -3.66274
   X25       -1.86238   0.00099   0.00000   0.02002   0.02002  -1.84235
   Y25        1.25127  -0.00004   0.00000  -0.00178  -0.00178   1.24949
   Z25       -3.57833  -0.00164   0.00000  -0.03831  -0.03831  -3.61664
   X26        0.30673   0.00054   0.00000   0.01119   0.01119   0.31792
   Y26        1.09570  -0.00015   0.00000  -0.00533  -0.00533   1.09037
   Z26       -2.26546  -0.00063   0.00000  -0.02355  -0.02355  -2.28901
   X27        1.25456   0.00001   0.00000  -0.00283  -0.00283   1.25173
   Y27        2.81078  -0.00001   0.00000  -0.00536  -0.00536   2.80542
   Z27       -1.66878   0.00002   0.00000   0.00023   0.00023  -1.66855
   X28       -2.82456   0.00037   0.00000  -0.00462  -0.00462  -2.82917
   Y28        3.81519   0.00002   0.00000   0.00026   0.00026   3.81545
   Z28       -4.12387  -0.00037   0.00000   0.01209   0.01209  -4.11178
   X29       -1.61197  -0.00049   0.00000  -0.03967  -0.03967  -1.65164
   Y29        5.74375   0.00032   0.00000   0.00860   0.00860   5.75235
   Z29       -3.80050   0.00181   0.00000   0.09357   0.09357  -3.70693
   X30       -5.24232   0.00110   0.00000  -0.00168  -0.00168  -5.24400
   Y30        3.90329   0.00054   0.00000  -0.00296  -0.00296   3.90033
   Z30       -5.04326  -0.00028   0.00000   0.00359   0.00359  -5.03967
   X31       -5.99629   0.00007   0.00000  -0.01969  -0.01969  -6.01597
   Y31        5.61870  -0.00003   0.00000  -0.00250  -0.00250   5.61620
   Z31       -5.35893  -0.00024   0.00000   0.04648   0.04648  -5.31245
   X32       -6.35337  -0.00021   0.00000   0.01047   0.01047  -6.34290
   Y32        2.37056  -0.00067   0.00000  -0.01174  -0.01174   2.35883
   Z32       -5.12745  -0.00064   0.00000  -0.03262  -0.03262  -5.16007
   X33        4.92435  -0.00002   0.00000  -0.00873  -0.00873   4.91562
   Y33       -7.52995   0.00001   0.00000   0.01478   0.01478  -7.51518
   Z33       -0.37739   0.00001   0.00000   0.01135   0.01135  -0.36605
   X34        0.38663   0.00031   0.00000   0.02523   0.02523   0.41186
   Y34        4.15902   0.00003   0.00000   0.00255   0.00255   4.16158
   Z34        5.33164  -0.00072   0.00000  -0.03100  -0.03100   5.30064
   X35       -3.10974  -0.00131   0.00000  -0.03889  -0.03889  -3.14862
   Y35        1.72913   0.00021   0.00000  -0.00077  -0.00077   1.72836
   Z35        2.41700   0.00113   0.00000   0.05063   0.05063   2.46762
   X36       -5.49354  -0.00154   0.00000  -0.03253  -0.03253  -5.52607
   Y36        1.64415   0.00056   0.00000   0.00551   0.00551   1.64966
   Z36        0.98047   0.00168   0.00000   0.04256   0.04256   1.02303
   X37       -9.10327  -0.00107   0.00000   0.00735   0.00735  -9.09592
   Y37       -0.80547   0.00003   0.00000  -0.00618  -0.00618  -0.81165
   Z37       -0.80640   0.00058   0.00000  -0.02412  -0.02412  -0.83053
   X38       -6.58361  -0.00234   0.00000  -0.02931  -0.02931  -6.61292
   Y38       -0.55028  -0.00010   0.00000   0.00318   0.00318  -0.54711
   Z38        0.43269   0.00272   0.00000   0.04457   0.04457   0.47727
   X39       -1.88583  -0.00181   0.00000  -0.08519  -0.08519  -1.97102
   Y39       -0.13577   0.00005   0.00000  -0.01358  -0.01358  -0.14935
   Z39        2.96798   0.00142   0.00000   0.10903   0.10903   3.07700
   X40       -2.31330   0.00005   0.00000   0.04933   0.04933  -2.26397
   Y40        4.80063   0.00072   0.00000   0.01242   0.01242   4.81305
   Z40        3.37417  -0.00047   0.00000  -0.06481  -0.06481   3.30935
   X41        0.85748   0.00007   0.00000   0.02279   0.02279   0.88027
   Y41        5.92754  -0.00000   0.00000   0.00053   0.00053   5.92807
   Z41        6.26632  -0.00010   0.00000  -0.02503  -0.02503   6.24130
   X42        1.98052  -0.00003   0.00000   0.03645   0.03645   2.01697
   Y42        3.52305  -0.00005   0.00000  -0.00787  -0.00787   3.51518
   Z42        4.20202  -0.00009   0.00000  -0.00805  -0.00805   4.19398
   X43      -10.51220  -0.00020   0.00000  -0.02230  -0.02230 -10.53450
   Y43       -1.37853  -0.00030   0.00000  -0.03051  -0.03051  -1.40905
   Z43        0.59123  -0.00012   0.00000  -0.06592  -0.06592   0.52531
   X44       -9.72124  -0.00013   0.00000   0.02074   0.02074  -9.70051
   Y44        0.97709   0.00005   0.00000  -0.00247  -0.00247   0.97462
   Z44       -1.63446   0.00016   0.00000  -0.02627  -0.02627  -1.66073
   X45       -9.09165   0.00016   0.00000   0.06260   0.06260  -9.02905
   Y45       -2.26499   0.00011   0.00000   0.00838   0.00838  -2.25661
   Z45       -2.26275  -0.00017   0.00000  -0.03900  -0.03900  -2.30176
   X46       -5.59975  -0.00025   0.00000  -0.02802  -0.02802  -5.62777
   Y46       -2.26849   0.00017   0.00000   0.00781   0.00781  -2.26068
   Z46        0.98122   0.00031   0.00000   0.05713   0.05713   1.03834
   X47       -6.35200  -0.00003   0.00000  -0.00596  -0.00596  -6.35795
   Y47        3.43644  -0.00003   0.00000   0.00681   0.00681   3.44325
   Z47        0.47858   0.00007   0.00000   0.00458   0.00458   0.48317
   X48       -0.08485   0.00003   0.00000   0.00378   0.00378  -0.08107
   Y48        2.73312   0.00002   0.00000   0.00854   0.00854   2.74165
   Z48        6.73575  -0.00006   0.00000  -0.03079  -0.03079   6.70496
         Item               Value     Threshold  Converged?
 Maximum Force            0.002824     0.000450     NO 
 RMS     Force            0.000616     0.000300     NO 
 Maximum Displacement     0.109027     0.001800     NO 
 RMS     Displacement     0.025004     0.001200     NO 
 Predicted change in Energy=-1.152015D-03
 GradGradGradGradGradGradGradGradGradGradGradGradGradGradGradGradGradGrad

 Leave Link  103 at Sat Aug 13 20:22:01 2022, MaxMem=  2684354560 cpu:               1.3 elap:               0.1
 (Enter /storage/apps/GAUSSIAN/G16_RevA03/g16/l9999.exe)

 Test job not archived.
 1\1\GINC-T025\Force\RM062X\def2TZVP\C16H24N2O5S1\LV87696\13-Aug-2022\0
 \\#P M062X/Def2TZVP scf=(direct,conver=8) EmpiricalDispersion=GD3 Forc
 e Charge Prop=(Field,Read)\\Gaussian run\\0,1\C,3.605819,-3.618263,-0.
 443315\H,3.754295,-3.715274,-1.517999\H,4.334388,-4.247122,0.069692\C,
 1.890325,-1.452046,1.230401\H,1.239715,-2.323803,1.095102\O,1.500066,-
 0.691614,2.335796\H,0.571111,-0.423945,2.210298\C,3.338562,-1.890854,1
 .405315\H,3.431878,-2.776902,2.041114\O,4.097394,-0.819932,1.916398\H,
 3.554852,-0.390413,2.590537\C,1.968924,-0.665578,-0.090434\H,2.270106,
 0.364644,0.125961\C,3.771127,-2.169009,-0.029454\H,4.805855,-1.84675,-
 0.15784\O,2.943234,-1.33798,-0.855587\N,0.744053,-0.601497,-0.845527\C
 ,0.182838,-1.779437,-1.334186\H,0.757909,-2.672538,-1.136216\C,-0.9429
 82,-1.803749,-2.039432\H,-1.29818,-2.755987,-2.409315\C,-1.725083,-0.5
 64399,-2.364889\H,-1.906279,-0.50758,-3.445728\H,-2.721638,-0.626335,-
 1.910296\C,-0.985527,0.662143,-1.893572\C,0.162314,0.579818,-1.198829\
 H,0.663886,1.487399,-0.88308\C,-1.494692,2.018912,-2.182256\O,-0.85301
 8,3.039463,-2.01114\N,-2.774118,2.065531,-2.668779\H,-3.173098,2.97328
 8,-2.835822\H,-3.362057,1.254447,-2.713329\H,2.605856,-3.98468,-0.1997
 08\C,0.204598,2.20086,2.821381\C,-1.645601,0.915014,1.279019\C,-2.9070
 57,0.870046,0.518844\C,-4.817243,-0.426237,-0.42673\C,-3.483896,-0.291
 198,0.228972\O,-0.997938,-0.071847,1.570585\S,-1.224148,2.540386,1.785
 533\H,0.453757,3.136721,3.315995\H,1.048047,1.864316,2.223615\H,-5.562
 818,-0.729489,0.312865\H,-5.14426,0.517053,-0.864921\H,-4.811093,-1.19
 8579,-1.197398\H,-2.963261,-1.200433,0.519237\H,-3.361332,1.818485,0.2
 53256\H,-0.044902,1.446303,3.564403\\Version=ES64L-G16RevA.03\State=1-
 A\HF=-1507.9296447\RMSD=1.381e-09\RMSF=6.165e-04\Dipole=-1.9004353,-1.
 1591451,0.4059478\Quadrupole=6.7662886,-2.4904372,-4.2758514,-2.836260
 4,6.6278976,7.5782389\PG=C01 [X(C16H24N2O5S1)]\\@


 IF MATHEMATICALLY YOU END UP WITH THE INCORRECT ANSWER,
 TRY MULTIPLYING BY THE PAGE NUMBER.
 Job cpu time:       0 days  3 hours 22 minutes 51.7 seconds.
 Elapsed time:       0 days  0 hours 12 minutes 42.5 seconds.
 File lengths (MBytes):  RWF=    435 Int=      0 D2E=      0 Chk=     48 Scr=      1
 Normal termination of Gaussian 16 at Sat Aug 13 20:22:01 2022.
