 Entering Gaussian System, Link 0=g16
 Initial command:
 /storage/apps/GAUSSIAN/G16_RevA03/g16/l1.exe "/scratch/tmp/1019187/Gau-135091.inp" -scrdir="/scratch/tmp/1019187/"
 Entering Link 1 = /storage/apps/GAUSSIAN/G16_RevA03/g16/l1.exe PID=    135092.
  
 Copyright (c) 1988,1990,1992,1993,1995,1998,2003,2009,2016,
            Gaussian, Inc.  All Rights Reserved.
  
 This is part of the Gaussian(R) 16 program.  It is based on
 the Gaussian(R) 09 system (copyright 2009, Gaussian, Inc.),
 the Gaussian(R) 03 system (copyright 2003, Gaussian, Inc.),
 the Gaussian(R) 98 system (copyright 1998, Gaussian, Inc.),
 the Gaussian(R) 94 system (copyright 1995, Gaussian, Inc.),
 the Gaussian 92(TM) system (copyright 1992, Gaussian, Inc.),
 the Gaussian 90(TM) system (copyright 1990, Gaussian, Inc.),
 the Gaussian 88(TM) system (copyright 1988, Gaussian, Inc.),
 the Gaussian 86(TM) system (copyright 1986, Carnegie Mellon
 University), and the Gaussian 82(TM) system (copyright 1983,
 Carnegie Mellon University). Gaussian is a federally registered
 trademark of Gaussian, Inc.
  
 This software contains proprietary and confidential information,
 including trade secrets, belonging to Gaussian, Inc.
  
 This software is provided under written license and may be
 used, copied, transmitted, or stored only in accord with that
 written license.
  
 The following legend is applicable only to US Government
 contracts under FAR:
  
                    RESTRICTED RIGHTS LEGEND
  
 Use, reproduction and disclosure by the US Government is
 subject to restrictions as set forth in subparagraphs (a)
 and (c) of the Commercial Computer Software - Restricted
 Rights clause in FAR 52.227-19.
  
 Gaussian, Inc.
 340 Quinnipiac St., Bldg. 40, Wallingford CT 06492
  
  
 ---------------------------------------------------------------
 Warning -- This program may not be used in any manner that
 competes with the business of Gaussian, Inc. or will provide
 assistance to any competitor of Gaussian, Inc.  The licensee
 of this program is prohibited from giving any competitor of
 Gaussian, Inc. access to this program.  By using this program,
 the user acknowledges that Gaussian, Inc. is engaged in the
 business of creating and licensing software in the field of
 computational chemistry and represents and warrants to the
 licensee that it is not a competitor of Gaussian, Inc. and that
 it will not use this program in any manner prohibited above.
 ---------------------------------------------------------------
  

 Cite this work as:
 Gaussian 16, Revision A.03,
 M. J. Frisch, G. W. Trucks, H. B. Schlegel, G. E. Scuseria, 
 M. A. Robb, J. R. Cheeseman, G. Scalmani, V. Barone, 
 G. A. Petersson, H. Nakatsuji, X. Li, M. Caricato, A. V. Marenich, 
 J. Bloino, B. G. Janesko, R. Gomperts, B. Mennucci, H. P. Hratchian, 
 J. V. Ortiz, A. F. Izmaylov, J. L. Sonnenberg, D. Williams-Young, 
 F. Ding, F. Lipparini, F. Egidi, J. Goings, B. Peng, A. Petrone, 
 T. Henderson, D. Ranasinghe, V. G. Zakrzewski, J. Gao, N. Rega, 
 G. Zheng, W. Liang, M. Hada, M. Ehara, K. Toyota, R. Fukuda, 
 J. Hasegawa, M. Ishida, T. Nakajima, Y. Honda, O. Kitao, H. Nakai, 
 T. Vreven, K. Throssell, J. A. Montgomery, Jr., J. E. Peralta, 
 F. Ogliaro, M. J. Bearpark, J. J. Heyd, E. N. Brothers, K. N. Kudin, 
 V. N. Staroverov, T. A. Keith, R. Kobayashi, J. Normand, 
 K. Raghavachari, A. P. Rendell, J. C. Burant, S. S. Iyengar, 
 J. Tomasi, M. Cossi, J. M. Millam, M. Klene, C. Adamo, R. Cammi, 
 J. W. Ochterski, R. L. Martin, K. Morokuma, O. Farkas, 
 J. B. Foresman, and D. J. Fox, Gaussian, Inc., Wallingford CT, 2016.
 
 ******************************************
 Gaussian 16:  ES64L-G16RevA.03 25-Dec-2016
                13-Aug-2022 
 ******************************************
 %NProcShared=16
 Will use up to   16 processors via shared memory.
 %mem=20GB
 ----------------------------------------------------------------------
 #P M062X/Def2TZVP scf=(direct,conver=8) EmpiricalDispersion=GD3 Force 
 Charge Prop=(Field,Read)
 ----------------------------------------------------------------------
 1/10=7,18=10,28=-2,30=1,38=1,125=101/1,3;
 2/12=2,17=6,18=5,29=2,40=1/2;
 3/5=44,7=101,11=2,25=1,30=1,71=1,74=-55,124=31/1,2,3;
 4//1;
 5/5=2,6=8,38=5/2;
 6/7=2,8=2,9=2,10=2,14=2,15=1,28=1/1,2;
 7/7=1,16=-2,29=1/1,2,3,16;
 1/10=7,18=10,28=-2,30=1/3;
 99/12=1/99;
 Leave Link    1 at Sat Aug 13 20:09:18 2022, MaxMem=  2684354560 cpu:               0.6 elap:               0.0
 (Enter /storage/apps/GAUSSIAN/G16_RevA03/g16/l101.exe)
 ------------
 Gaussian run
 ------------
 Symbolic Z-matrix:
 Charge =  0 Multiplicity = 1
 C                     3.60325  -3.61741  -0.44338 
 H                     3.75162  -3.71377  -1.51817 
 H                     4.33349  -4.24477   0.06905 
 C                     1.88575  -1.45042   1.23211 
 H                     1.23371  -2.3211    1.0956 
 O                     1.49712  -0.68958   2.33733 
 H                     0.56909  -0.41871   2.20987 
 C                     3.33354  -1.89022   1.4059 
 H                     3.42723  -2.7762    2.04172 
 O                     4.09226  -0.81892   1.91636 
 H                     3.54903  -0.38872   2.58955 
 C                     1.96543  -0.66393  -0.08814 
 H                     2.26848   0.36588   0.12769 
 C                     3.76584  -2.16808  -0.02911 
 H                     4.7999   -1.84382  -0.1578 
 O                     2.9361   -1.33858  -0.85501 
 N                     0.73946  -0.5993   -0.84089 
 C                     0.18614  -1.7766   -1.33964 
 H                     0.7744   -2.66527  -1.16176 
 C                    -0.94537  -1.80116  -2.03569 
 H                    -1.29297  -2.74987  -2.42142 
 C                    -1.74326  -0.56523  -2.32841 
 H                    -1.96098  -0.5033   -3.40187 
 H                    -2.72514  -0.63701  -1.84579 
 C                    -0.99648   0.66284  -1.87571 
 C                     0.15786   0.58182  -1.19102 
 H                     0.66556   1.48918  -0.88451 
 C                    -1.49923   2.01854  -2.17812 
 O                    -0.84896   3.03613  -2.02511 
 N                    -2.77948   2.06638  -2.666 
 H                    -3.18087   2.97816  -2.80544 
 H                    -3.38753   1.26793  -2.63493 
 H                     2.60423  -3.98611  -0.19933 
 C                     0.20121   2.20045   2.82819 
 C                    -1.63195   0.91279   1.26618 
 C                    -2.88687   0.86602   0.49881 
 C                    -4.8054   -0.42532  -0.43143 
 C                    -3.45527  -0.29563   0.19147 
 O                    -0.9837   -0.07298   1.56109 
 S                    -1.22467   2.53769   1.7876 
 H                     0.44478   3.13574   3.32665 
 H                     1.04821   1.86923   2.23249 
 H                    -5.5369   -0.68396   0.33893 
 H                    -5.12584   0.51046  -0.89072 
 H                    -4.83819  -1.22219  -1.17558 
 H                    -2.92523  -1.20561   0.46051 
 H                    -3.35459   1.81365   0.25482 
 H                    -0.04794   1.44268   3.56805 
 
 ITRead=  0  0  0  0  0  0  0  0  0  0  0  0  0  0  0  0  0  0  0  0
 ITRead=  0  0  0  0  0  0  0  0  0  0  0  0  0  0  0  0  0  0  0  0
 ITRead=  0  0  0  0  0  0  0  0
 MicOpt= -1 -1 -1 -1 -1 -1 -1 -1 -1 -1 -1 -1 -1 -1 -1 -1 -1 -1 -1 -1
 MicOpt= -1 -1 -1 -1 -1 -1 -1 -1 -1 -1 -1 -1 -1 -1 -1 -1 -1 -1 -1 -1
 MicOpt= -1 -1 -1 -1 -1 -1 -1 -1
 NAtoms=     48 NQM=       48 NQMF=       0 NMMI=      0 NMMIF=      0
                NMic=       0 NMicF=      0.
                    Isotopes and Nuclear Properties:
 (Nuclear quadrupole moments (NQMom) in fm**2, nuclear magnetic moments (NMagM)
  in nuclear magnetons)

  Atom         1           2           3           4           5           6           7           8           9          10
 IAtWgt=          12           1           1          12           1          16           1          12           1          16
 AtmWgt=  12.0000000   1.0078250   1.0078250  12.0000000   1.0078250  15.9949146   1.0078250  12.0000000   1.0078250  15.9949146
 NucSpn=           0           1           1           0           1           0           1           0           1           0
 AtZEff=  -0.0000000  -0.0000000  -0.0000000  -0.0000000  -0.0000000  -0.0000000  -0.0000000  -0.0000000  -0.0000000  -0.0000000
 NQMom=    0.0000000   0.0000000   0.0000000   0.0000000   0.0000000   0.0000000   0.0000000   0.0000000   0.0000000   0.0000000
 NMagM=    0.0000000   2.7928460   2.7928460   0.0000000   2.7928460   0.0000000   2.7928460   0.0000000   2.7928460   0.0000000
 AtZNuc=   6.0000000   1.0000000   1.0000000   6.0000000   1.0000000   8.0000000   1.0000000   6.0000000   1.0000000   8.0000000

  Atom        11          12          13          14          15          16          17          18          19          20
 IAtWgt=           1          12           1          12           1          16          14          12           1          12
 AtmWgt=   1.0078250  12.0000000   1.0078250  12.0000000   1.0078250  15.9949146  14.0030740  12.0000000   1.0078250  12.0000000
 NucSpn=           1           0           1           0           1           0           2           0           1           0
 AtZEff=  -0.0000000  -0.0000000  -0.0000000  -0.0000000  -0.0000000  -0.0000000  -0.0000000  -0.0000000  -0.0000000  -0.0000000
 NQMom=    0.0000000   0.0000000   0.0000000   0.0000000   0.0000000   0.0000000   2.0440000   0.0000000   0.0000000   0.0000000
 NMagM=    2.7928460   0.0000000   2.7928460   0.0000000   2.7928460   0.0000000   0.4037610   0.0000000   2.7928460   0.0000000
 AtZNuc=   1.0000000   6.0000000   1.0000000   6.0000000   1.0000000   8.0000000   7.0000000   6.0000000   1.0000000   6.0000000

  Atom        21          22          23          24          25          26          27          28          29          30
 IAtWgt=           1          12           1           1          12          12           1          12          16          14
 AtmWgt=   1.0078250  12.0000000   1.0078250   1.0078250  12.0000000  12.0000000   1.0078250  12.0000000  15.9949146  14.0030740
 NucSpn=           1           0           1           1           0           0           1           0           0           2
 AtZEff=  -0.0000000  -0.0000000  -0.0000000  -0.0000000  -0.0000000  -0.0000000  -0.0000000  -0.0000000  -0.0000000  -0.0000000
 NQMom=    0.0000000   0.0000000   0.0000000   0.0000000   0.0000000   0.0000000   0.0000000   0.0000000   0.0000000   2.0440000
 NMagM=    2.7928460   0.0000000   2.7928460   2.7928460   0.0000000   0.0000000   2.7928460   0.0000000   0.0000000   0.4037610
 AtZNuc=   1.0000000   6.0000000   1.0000000   1.0000000   6.0000000   6.0000000   1.0000000   6.0000000   8.0000000   7.0000000

  Atom        31          32          33          34          35          36          37          38          39          40
 IAtWgt=           1           1           1          12          12          12          12          12          16          32
 AtmWgt=   1.0078250   1.0078250   1.0078250  12.0000000  12.0000000  12.0000000  12.0000000  12.0000000  15.9949146  31.9720718
 NucSpn=           1           1           1           0           0           0           0           0           0           0
 AtZEff=  -0.0000000  -0.0000000  -0.0000000  -0.0000000  -0.0000000  -0.0000000  -0.0000000  -0.0000000  -0.0000000  -0.0000000
 NQMom=    0.0000000   0.0000000   0.0000000   0.0000000   0.0000000   0.0000000   0.0000000   0.0000000   0.0000000   0.0000000
 NMagM=    2.7928460   2.7928460   2.7928460   0.0000000   0.0000000   0.0000000   0.0000000   0.0000000   0.0000000   0.0000000
 AtZNuc=   1.0000000   1.0000000   1.0000000   6.0000000   6.0000000   6.0000000   6.0000000   6.0000000   8.0000000  16.0000000

  Atom        41          42          43          44          45          46          47          48
 IAtWgt=           1           1           1           1           1           1           1           1
 AtmWgt=   1.0078250   1.0078250   1.0078250   1.0078250   1.0078250   1.0078250   1.0078250   1.0078250
 NucSpn=           1           1           1           1           1           1           1           1
 AtZEff=  -0.0000000  -0.0000000  -0.0000000  -0.0000000  -0.0000000  -0.0000000  -0.0000000  -0.0000000
 NQMom=    0.0000000   0.0000000   0.0000000   0.0000000   0.0000000   0.0000000   0.0000000   0.0000000
 NMagM=    2.7928460   2.7928460   2.7928460   2.7928460   2.7928460   2.7928460   2.7928460   2.7928460
 AtZNuc=   1.0000000   1.0000000   1.0000000   1.0000000   1.0000000   1.0000000   1.0000000   1.0000000
 Background charge distribution read from input stream:
 Leave Link  101 at Sat Aug 13 20:09:19 2022, MaxMem=  2684354560 cpu:               1.7 elap:               0.1
 (Enter /storage/apps/GAUSSIAN/G16_RevA03/g16/l103.exe)

 GradGradGradGradGradGradGradGradGradGradGradGradGradGradGradGradGradGrad
 Berny optimization.
 Initialization pass.
 Trust Radius=3.00D-01 FncErr=1.00D-07 GrdErr=1.00D-07 EigMax=2.50D+02 EigMin=1.00D-04
 Number of steps in this run=      2 maximum allowed number of steps=      2.
 GradGradGradGradGradGradGradGradGradGradGradGradGradGradGradGradGradGrad

 Leave Link  103 at Sat Aug 13 20:09:19 2022, MaxMem=  2684354560 cpu:               0.5 elap:               0.1
 (Enter /storage/apps/GAUSSIAN/G16_RevA03/g16/l202.exe)
 ---------------------------------------------------------------------------------------------------
                            Z-MATRIX (ANGSTROMS AND DEGREES)
   CD    Cent   Atom    N1       Length/X        N2       Alpha/Y        N3        Beta/Z          J
 ---------------------------------------------------------------------------------------------------
      1      1  C        0   3.603253         -3.617409         -0.443383
      2      2  H        0   3.751616         -3.713774         -1.518165
      3      3  H        0   4.333488         -4.244774          0.069050
      4      4  C        0   1.885747         -1.450424          1.232105
      5      5  H        0   1.233710         -2.321095          1.095602
      6      6  O        0   1.497115         -0.689581          2.337329
      7      7  H        0   0.569093         -0.418711          2.209873
      8      8  C        0   3.333545         -1.890223          1.405902
      9      9  H        0   3.427232         -2.776201          2.041717
     10     10  O        0   4.092264         -0.818920          1.916355
     11     11  H        0   3.549031         -0.388718          2.589551
     12     12  C        0   1.965428         -0.663933         -0.088135
     13     13  H        0   2.268483          0.365876          0.127693
     14     14  C        0   3.765836         -2.168084         -0.029112
     15     15  H        0   4.799896         -1.843823         -0.157796
     16     16  O        0   2.936097         -1.338581         -0.855007
     17     17  N        0   0.739463         -0.599301         -0.840885
     18     18  C        0   0.186135         -1.776603         -1.339641
     19     19  H        0   0.774399         -2.665272         -1.161758
     20     20  C        0  -0.945369         -1.801158         -2.035687
     21     21  H        0  -1.292969         -2.749869         -2.421420
     22     22  C        0  -1.743262         -0.565226         -2.328407
     23     23  H        0  -1.960977         -0.503302         -3.401866
     24     24  H        0  -2.725141         -0.637006         -1.845785
     25     25  C        0  -0.996477          0.662836         -1.875710
     26     26  C        0   0.157863          0.581818         -1.191017
     27     27  H        0   0.665561          1.489179         -0.884512
     28     28  C        0  -1.499232          2.018541         -2.178119
     29     29  O        0  -0.848964          3.036134         -2.025115
     30     30  N        0  -2.779482          2.066378         -2.665999
     31     31  H        0  -3.180873          2.978159         -2.805437
     32     32  H        0  -3.387528          1.267925         -2.634928
     33     33  H        0   2.604227         -3.986112         -0.199325
     34     34  C        0   0.201210          2.200452          2.828185
     35     35  C        0  -1.631947          0.912785          1.266175
     36     36  C        0  -2.886870          0.866022          0.498805
     37     37  C        0  -4.805399         -0.425318         -0.431425
     38     38  C        0  -3.455273         -0.295632          0.191466
     39     39  O        0  -0.983696         -0.072984          1.561091
     40     40  S        0  -1.224672          2.537690          1.787601
     41     41  H        0   0.444781          3.135740          3.326652
     42     42  H        0   1.048206          1.869234          2.232494
     43     43  H        0  -5.536899         -0.683958          0.338926
     44     44  H        0  -5.125837          0.510464         -0.890716
     45     45  H        0  -4.838192         -1.222186         -1.175582
     46     46  H        0  -2.925230         -1.205612          0.460506
     47     47  H        0  -3.354589          1.813654          0.254818
     48     48  H        0  -0.047941          1.442677          3.568047
 ---------------------------------------------------------------------------------------------------
                         Z-Matrix orientation:                         
 ---------------------------------------------------------------------
 Center     Atomic      Atomic             Coordinates (Angstroms)
 Number     Number       Type             X           Y           Z
 ---------------------------------------------------------------------
      1          6           0        3.603253   -3.617409   -0.443383
      2          1           0        3.751616   -3.713774   -1.518165
      3          1           0        4.333488   -4.244774    0.069050
      4          6           0        1.885747   -1.450424    1.232105
      5          1           0        1.233710   -2.321095    1.095602
      6          8           0        1.497115   -0.689581    2.337329
      7          1           0        0.569093   -0.418711    2.209873
      8          6           0        3.333545   -1.890223    1.405902
      9          1           0        3.427232   -2.776201    2.041717
     10          8           0        4.092264   -0.818920    1.916355
     11          1           0        3.549031   -0.388718    2.589551
     12          6           0        1.965428   -0.663933   -0.088135
     13          1           0        2.268483    0.365876    0.127693
     14          6           0        3.765836   -2.168084   -0.029112
     15          1           0        4.799896   -1.843823   -0.157796
     16          8           0        2.936097   -1.338581   -0.855007
     17          7           0        0.739463   -0.599301   -0.840885
     18          6           0        0.186135   -1.776603   -1.339641
     19          1           0        0.774399   -2.665272   -1.161758
     20          6           0       -0.945369   -1.801158   -2.035687
     21          1           0       -1.292969   -2.749869   -2.421420
     22          6           0       -1.743262   -0.565226   -2.328407
     23          1           0       -1.960977   -0.503302   -3.401866
     24          1           0       -2.725141   -0.637006   -1.845785
     25          6           0       -0.996477    0.662836   -1.875710
     26          6           0        0.157863    0.581818   -1.191017
     27          1           0        0.665561    1.489179   -0.884512
     28          6           0       -1.499232    2.018541   -2.178119
     29          8           0       -0.848964    3.036134   -2.025115
     30          7           0       -2.779482    2.066378   -2.665999
     31          1           0       -3.180873    2.978159   -2.805437
     32          1           0       -3.387528    1.267925   -2.634928
     33          1           0        2.604227   -3.986112   -0.199325
     34          6           0        0.201210    2.200452    2.828185
     35          6           0       -1.631947    0.912785    1.266175
     36          6           0       -2.886870    0.866022    0.498805
     37          6           0       -4.805399   -0.425318   -0.431425
     38          6           0       -3.455273   -0.295632    0.191466
     39          8           0       -0.983696   -0.072984    1.561091
     40         16           0       -1.224672    2.537690    1.787601
     41          1           0        0.444781    3.135740    3.326652
     42          1           0        1.048206    1.869234    2.232494
     43          1           0       -5.536899   -0.683958    0.338926
     44          1           0       -5.125837    0.510464   -0.890716
     45          1           0       -4.838192   -1.222186   -1.175582
     46          1           0       -2.925230   -1.205612    0.460506
     47          1           0       -3.354589    1.813654    0.254818
     48          1           0       -0.047941    1.442677    3.568047
 ---------------------------------------------------------------------
                    Distance matrix (angstroms):
                    1          2          3          4          5
     1  C    0.000000
     2  H    1.089245   0.000000
     3  H    1.090604   1.771945   0.000000
     4  C    3.233096   4.020971   3.892624   0.000000
     5  H    3.108639   3.887311   3.789851   1.096291   0.000000
     6  O    4.554158   5.393825   5.082273   1.396938   2.067149
     7  H    5.145635   5.906281   5.778629   1.937534   2.302690
     8  C    2.544753   3.471353   2.886342   1.523072   2.165928
     9  H    2.629513   3.695542   2.620958   2.188454   2.431829
    10  O    3.693107   4.504681   3.899641   2.394935   3.331891
    11  H    4.430133   5.288702   4.673057   2.395077   3.365513
    12  C    3.395835   3.812740   4.295909   1.538815   2.163985
    13  H    4.239611   4.642421   5.052304   2.159898   3.037666
    14  C    1.516112   2.146308   2.155112   2.374961   2.774897
    15  H    2.158500   2.538939   2.456331   3.252515   3.810050
    16  O    2.409894   2.597382   3.354481   2.339184   2.769175
    17  N    4.179507   4.385398   5.199468   2.517075   2.637961
    18  C    3.983534   4.061669   5.027605   3.099831   2.706343
    19  H    3.070023   3.176508   4.083727   2.905431   2.329184
    20  C    5.150161   5.097803   6.186074   4.337822   3.850155
    21  H    5.351471   5.214674   6.331998   5.014084   4.351712
    22  C    6.438506   6.384632   7.497584   5.160477   4.865108
    23  H    7.029292   6.818297   8.103466   6.096557   5.808409
    24  H    7.134291   7.177898   8.155172   5.603155   5.211565
    25  C    6.444344   6.467375   7.501683   4.736201   4.765110
    26  C    5.482990   5.610187   6.505352   3.603763   3.848763
    27  H    5.907780   6.082431   6.873222   3.822327   4.331493
    28  C    7.797987   7.801691   8.848701   5.926333   6.084296
    29  O    8.160499   8.184350   9.179050   6.182017   6.540360
    30  N    8.830898   8.796756   9.894720   7.023352   7.035998
    31  H    9.752189   9.721031  10.811987   7.847594   7.923935
    32  H    8.805701   8.776780   9.864859   7.081723   6.939291
    33  H    1.092501   1.769183   1.768976   2.999153   2.515439
    34  C    7.491633   8.153172   8.138150   4.325972   4.950989
    35  C    7.131098   7.624982   7.976211   4.237934   4.324242
    36  C    7.944216   8.313375   8.856551   5.355513   5.243383
    37  C    8.994166   9.231330   9.917559   6.970625   6.511269
    38  C    7.826878   8.157560   8.733585   5.562640   5.187150
    39  O    6.133593   6.720145   6.921161   3.199887   3.191798
    40  S    8.134580   8.647100   8.935792   5.088058   5.489107
    41  H    8.354288   9.017941   8.955780   5.243702   5.947860
    42  H    6.617540   7.248851   7.270121   3.566845   4.345779
    43  H    9.631174   9.945103  10.496513   7.515378   7.006706
    44  H    9.666253   9.851246  10.630723   7.583783   7.239270
    45  H    8.805180   8.950429   9.736779   7.145656   6.575247
    46  H    7.018181   7.401776   7.879006   4.878606   4.352520
    47  H    8.854123   9.175733   9.790076   6.250633   6.233422
    48  H    7.418036   8.178947   7.986676   4.191158   4.682050
                    6          7          8          9         10
     6  O    0.000000
     7  H    0.975110   0.000000
     8  C    2.383605   3.233251   0.000000
     9  H    2.857748   3.708773   1.094530   0.000000
    10  O    2.632251   3.557956   1.408512   2.070974   0.000000
    11  H    2.089137   3.004178   1.924052   2.452556   0.966110
    12  C    2.470395   2.700134   2.368054   3.336887   2.926676
    13  H    2.567390   2.799817   2.803241   3.857309   2.815889
    14  C    3.596263   4.276976   1.524253   2.184672   2.389904
    15  H    4.297242   5.053365   2.144176   2.755248   2.419354
    16  O    3.561303   3.980246   2.360928   3.270929   3.047494
    17  N    3.268521   3.060844   3.666578   4.502487   4.346479
    18  C    4.052209   3.819630   4.178170   4.789310   5.174602
    19  H    4.082803   4.056733   3.707129   4.160779   4.887947
    20  C    5.130750   4.714821   5.491955   6.057687   6.477744
    21  H    5.888552   5.509124   6.065642   6.496198   7.179526
    22  C    5.681954   5.095531   6.440082   7.121826   7.220508
    23  H    6.703093   6.156300   7.284926   7.989459   8.063797
    24  H    5.943791   5.229531   6.989399   7.585547   7.788697
    25  C    5.079048   4.506966   6.003014   6.836842   6.516950
    26  C    3.982371   3.568784   4.789565   5.693473   5.205510
    27  H    3.977278   3.636560   4.876935   5.863711   4.991440
    28  C    6.058159   5.428871   7.174913   8.066388   7.488707
    29  O    6.198061   5.646412   7.316710   8.283007   7.403537
    30  N    7.135677   6.415820   8.342911   9.172593   8.748932
    31  H    7.860275   7.124206   9.158284  10.013721   9.466343
    32  H    7.239814   6.478556   8.454291   9.201463   9.000910
    33  H    4.304350   4.761550   2.738870   2.676470   4.089188
    34  C    3.205090   2.716185   5.344907   5.982711   5.008826
    35  C    3.675048   2.740077   5.703726   6.309150   6.015657
    36  C    5.001939   4.064723   6.863911   7.450789   7.318250
    37  C    6.888942   5.988461   8.471371   8.911750   9.210613
    38  C    5.411661   4.503847   7.078533   7.546226   7.759793
    39  O    2.671546   1.718022   4.686684   5.195639   5.142762
    40  S    4.257417   3.483707   6.366274   7.066981   6.289135
    41  H    4.088918   3.727837   6.106926   6.745155   5.561691
    42  H    2.600008   2.337681   4.476555   5.222665   4.073378
    43  H    7.312387   6.391708   9.015447   9.361230   9.758446
    44  H    7.464843   6.550515   9.088393   9.620619   9.727296
    45  H    7.263630   6.430055   8.595791   9.004622   9.459162
    46  H    4.831758   3.986200   6.366689   6.732069   7.177343
    47  H    5.843122   4.919449   7.731419   8.381699   8.071355
    48  H    2.906611   2.385400   5.217043   5.674984   4.998420
                   11         12         13         14         15
    11  H    0.000000
    12  C    3.123066   0.000000
    13  H    2.875754   1.094957   0.000000
    14  C    3.173412   2.346790   2.947475   0.000000
    15  H    3.351106   3.071026   3.372288   1.091323   0.000000
    16  O    3.625315   1.409057   2.077638   1.434798   2.053076
    17  N    4.439134   1.440069   2.051246   3.504139   4.301460
    18  C    5.354796   2.443396   3.328582   3.832102   4.763199
    19  H    5.191686   2.564483   3.617019   3.237094   4.229343
    20  C    6.602079   3.682252   4.439042   5.133851   6.044532
    21  H    7.357298   4.518019   5.374922   5.626111   6.562615
    22  C    7.226744   4.333929   4.795151   6.181106   7.011368
    23  H    8.140663   5.140357   5.576880   6.851522   7.617768
    24  H    7.687593   5.009141   5.462295   6.912111   7.805889
    25  C    6.458016   3.705215   3.842105   5.839834   6.544655
    26  C    5.170557   2.456733   2.498068   4.682889   5.338516
    27  H    4.889786   2.638136   2.203572   4.870214   5.360013
    28  C    7.349186   4.854644   4.716328   7.061657   7.660194
    29  O    7.236513   5.036188   4.635012   7.236318   7.694835
    30  N    8.584776   6.050963   6.014846   8.229522   8.889754
    31  H    9.259231   6.865346   6.717347   9.080119   9.692997
    32  H    8.840560   6.234771   6.358949   8.352667   9.102366
    33  H    4.648842   3.384863   4.377153   2.164147   3.067913
    34  C    4.238945   4.452200   3.864187   6.320982   6.813234
    35  C    5.503432   4.154672   4.099830   6.348668   7.141091
    36  C    6.882326   5.121529   5.192835   7.330961   8.176843
    37  C    8.883926   6.783722   7.139916   8.755864   9.713327
    38  C    7.404036   5.440388   5.762208   7.463186   8.406348
    39  O    4.658651   3.430233   3.581047   5.429203   6.288114
    40  S    5.656432   4.893415   4.435561   7.095768   7.699198
    41  H    4.754102   5.330164   4.607752   7.100782   7.476928
    42  H    3.388209   3.555777   2.859956   5.366592   5.794433
    43  H    9.365180   7.514499   7.878500   9.427564  10.413518
    44  H    9.390108   7.232523   7.465523   9.326244  10.227415
    45  H    9.231273   6.912556   7.397655   8.731461   9.711594
    46  H    6.864124   4.951056   5.436450   6.777643   7.776065
    47  H    7.613238   5.878659   5.807853   8.163045   8.946676
    48  H    4.153272   4.675375   4.285015   6.365693   6.941506
                   16         17         18         19         20
    16  O    0.000000
    17  N    2.317744   0.000000
    18  C    2.826486   1.393187   0.000000
    19  H    2.554827   2.091032   1.080477   0.000000
    20  C    4.083352   2.389701   1.328678   2.113776   0.000000
    21  H    4.725503   3.354670   2.074908   2.422378   1.081512
    22  C    4.966426   2.894444   2.483478   3.479925   1.499949
    23  H    5.582608   3.722931   3.237925   4.144210   2.140639
    24  H    5.789945   3.607593   3.167079   4.102260   2.135158
    25  C    4.529089   2.382717   2.763477   3.836930   2.469711
    26  C    3.394027   1.362312   2.363269   3.305233   2.758471
    27  H    3.626628   2.090242   3.332015   4.165114   3.840132
    28  C    5.717783   3.695003   4.236346   5.304761   3.862273
    29  O    5.902031   4.140276   4.970286   5.990553   4.838264
    30  N    6.895019   4.777014   5.032158   6.105843   4.326557
    31  H    7.736649   5.659215   6.007750   7.084784   5.332154
    32  H    7.067547   4.872081   4.870112   5.912859   3.967682
    33  H    2.747631   3.919111   3.468345   2.453399   4.554765
    34  C    5.793985   4.646548   5.760900   6.318501   6.401935
    35  C    5.516801   3.514213   4.162752   4.948520   4.328876
    36  C    6.371815   4.134275   4.450473   5.350925   4.160159
    37  C    7.806679   5.562681   5.250356   6.056808   4.400730
    38  C    6.559913   4.330563   4.218698   5.033541   3.677830
    39  O    4.775358   3.002628   3.561610   4.150272   3.990597
    40  S    6.270634   4.539546   5.512091   6.306014   5.789745
    41  H    6.611541   5.604082   6.780288   7.342085   7.420253
    42  H    4.835998   3.954067   5.176431   5.670773   5.971891
    43  H    8.581705   6.386849   6.063380   6.783077   5.288579
    44  H    8.271337   5.969573   5.800798   6.706083   4.912318
    45  H    7.781766   5.622299   5.057485   5.795159   4.028531
    46  H    6.008611   3.935887   3.639664   4.295300   3.241220
    47  H    7.123274   4.876903   5.288570   6.254279   4.910969
    48  H    6.016917   4.922231   5.874007   6.318429   6.536794
                   21         22         23         24         25
    21  H    0.000000
    22  C    2.232505   0.000000
    23  H    2.540585   1.097064   0.000000
    24  H    2.616613   1.096432   1.738738   0.000000
    25  C    3.468755   1.506904   2.149253   2.163045   0.000000
    26  C    3.836528   2.494723   3.248819   3.197806   1.344570
    27  H    4.916040   3.479632   4.147982   4.116014   2.104207
    28  C    4.779066   2.599613   2.840855   2.943676   1.477210
    29  O    5.816531   3.723110   3.957224   4.128457   2.382567
    30  N    5.046363   2.848343   2.795480   2.825595   2.402830
    31  H    6.043340   3.853552   3.736903   3.768029   3.316127
    32  H    4.536015   2.481533   2.400101   2.165702   2.580634
    33  H    4.653401   5.927572   6.574749   6.506113   6.114577
    34  C    7.368623   6.166067   7.127333   6.201669   5.091694
    35  C    5.208483   3.888178   4.889189   3.644341   3.215235
    36  C    4.913543   3.368893   4.236456   2.789687   3.041906
    37  C    4.658410   3.604830   4.113434   2.524421   4.216388
    38  C    4.186408   3.058337   3.897189   2.190895   3.352246
    39  O    4.808509   3.993424   5.076534   3.867500   3.514711
    40  S    6.758610   5.180593   6.059731   5.052880   4.121529
    41  H    8.408359   7.103828   8.018931   7.143957   5.937765
    42  H    6.962480   5.875432   6.813965   6.095223   4.744836
    43  H    5.467947   4.639013   5.178164   3.561060   5.228183
    44  H    5.259630   3.829605   4.165325   2.827045   4.247946
    45  H    4.056419   3.367372   3.708302   2.292726   4.336157
    46  H    3.654381   3.095994   4.042393   2.383763   3.559367
    47  H    5.677875   3.863741   4.547722   3.288536   3.379974
    48  H    7.416283   6.455537   7.485067   6.387649   5.580534
                   26         27         28         29         30
    26  C    0.000000
    27  H    1.083977   0.000000
    28  C    2.405100   2.576814   0.000000
    29  O    2.780843   2.447004   1.217273   0.000000
    30  N    3.606589   3.921119   1.370896   2.253455   0.000000
    31  H    4.415423   4.549953   2.035267   2.459688   1.005934
    32  H    3.889141   4.420457   2.082729   3.153211   1.004098
    33  H    5.275807   5.848651   7.537232   8.035545   8.467670
    34  C    4.333110   3.808628   5.290338   5.035449   6.252084
    35  C    3.057900   3.199411   3.619872   3.994279   4.255538
    36  C    3.493804   3.862856   3.227966   3.902899   3.386498
    37  C    5.121062   5.813948   4.467004   5.493166   3.912315
    38  C    3.966854   4.617851   3.846612   4.775641   3.768407
    39  O    3.050577   3.337870   4.315315   4.748225   5.066558
    40  S    3.822173   3.436938   4.008969   3.863471   4.740688
    41  H    5.197516   4.527009   5.943890   5.506824   6.888488
    42  H    3.764383   3.163319   5.095610   4.805012   6.219750
    43  H    6.031022   6.685046   5.471907   6.434634   4.919072
    44  H    5.292708   5.873518   4.133276   5.094852   3.328345
    45  H    5.311801   6.142273   4.759837   5.896519   4.156234
    46  H    3.927836   4.686657   4.403518   5.336816   4.527935
    47  H    3.993141   4.191057   3.066514   3.601487   2.987606
    48  H    4.840674   4.509604   5.954518   5.870622   6.834738
                   31         32         33         34         35
    31  H    0.000000
    32  H    1.731092   0.000000
    33  H    9.421267   8.332958   0.000000
    34  C    6.616722   6.602594   7.294785   0.000000
    35  C    4.821096   4.292644   6.640185   2.731012   0.000000
    36  C    3.932630   3.198823   7.360892   4.091815   1.471691
    37  C    4.456307   3.119752   8.224092   6.525784   3.839683
    38  C    4.446845   3.230759   7.105625   5.152921   2.437168
    39  O    5.762259   5.018269   5.593284   2.859727   1.216119
    40  S    5.011660   5.084192   7.821019   1.797132   1.754444
    41  H    7.125497   7.329104   8.235077   1.087456   3.674220
    42  H    6.670500   6.612799   6.528401   1.087178   3.005293
    43  H    5.371124   4.156134   8.801810   6.887824   4.319494
    44  H    3.679478   2.576381   8.969454   6.712951   4.125689
    45  H    4.800628   3.230289   7.998873   7.289731   4.560733
    46  H    5.313725   3.989213   6.224263   5.194401   2.609461
    47  H    3.278934   2.941010   8.327726   4.406306   2.191325
    48  H    7.265966   7.047005   7.120312   1.087977   2.844024
                   36         37         38         39         40
    36  C    0.000000
    37  C    2.492717   0.000000
    38  C    1.329278   1.492532   0.000000
    39  O    2.373237   4.324312   2.834455   0.000000
    40  S    2.686703   5.150252   3.943468   2.631539   0.000000
    41  H    4.924250   7.373511   6.067465   3.931115   2.348066
    42  H    4.415533   6.828333   5.397570   2.889917   2.410547
    43  H    3.074191   1.093356   2.122665   4.753802   5.574314
    44  H    2.658978   1.090558   2.147485   4.848618   5.148021
    45  H    3.312377   1.090800   2.154017   4.864893   5.997887
    46  H    2.072343   2.222484   1.086918   2.502736   4.320346
    47  H    1.084572   2.754773   2.112638   3.299528   2.722168
    48  H    4.220462   6.489884   5.102247   2.683419   2.398695
                   41         42         43         44         45
    41  H    0.000000
    42  H    1.779140   0.000000
    43  H    7.700461   7.312181   0.000000
    44  H    7.463917   7.051206   1.762849   0.000000
    45  H    8.195818   7.471381   1.752602   1.779316   0.000000
    46  H    6.198315   5.327552   2.666031   3.100547   2.517237
    47  H    5.061550   4.826893   3.317773   2.479490   3.669257
    48  H    1.779750   1.779660   6.714049   6.821629   7.249139
                   46         47         48
    46  H    0.000000
    47  H    3.056571   0.000000
    48  H    4.994901   4.695640   0.000000
 Stoichiometry    C16H24N2O5S
 Framework group  C1[X(C16H24N2O5S)]
 Deg. of freedom   138
 Full point group                 C1      NOp   1
 Largest Abelian subgroup         C1      NOp   1
 Largest concise Abelian subgroup C1      NOp   1
                         Standard orientation:                         
 ---------------------------------------------------------------------
 Center     Atomic      Atomic             Coordinates (Angstroms)
 Number     Number       Type             X           Y           Z
 ---------------------------------------------------------------------
      1          6           0       -4.678969   -1.972667   -0.548648
      2          1           0       -4.632741   -2.919096   -0.011442
      3          1           0       -5.702528   -1.812475   -0.889356
      4          6           0       -2.541118    0.449094   -0.681230
      5          1           0       -2.348022   -0.180440   -1.557731
      6          8           0       -2.081230    1.753414   -0.877926
      7          1           0       -1.128204    1.713376   -1.080360
      8          6           0       -4.030715    0.481292   -0.365296
      9          1           0       -4.647075    0.556724   -1.266631
     10          8           0       -4.300315    1.541530    0.521901
     11          1           0       -3.770199    2.293355    0.226765
     12          6           0       -1.981045   -0.242764    0.573999
     13          1           0       -1.815416    0.509493    1.352207
     14          6           0       -4.239992   -0.842206    0.361272
     15          1           0       -4.959993   -0.694682    1.168006
     16          8           0       -2.973931   -1.168186    0.952434
     17          7           0       -0.737435   -0.944333    0.386828
     18          6           0       -0.696495   -2.034034   -0.480262
     19          1           0       -1.648830   -2.306285   -0.911965
     20          6           0        0.412981   -2.727227   -0.712493
     21          1           0        0.357630   -3.583650   -1.370629
     22          6           0        1.729165   -2.385208   -0.079619
     23          1           0        2.164397   -3.276625    0.388887
     24          1           0        2.447646   -2.095928   -0.855676
     25          6           0        1.553461   -1.291715    0.942223
     26          6           0        0.378171   -0.662140    1.115996
     27          1           0        0.292175    0.118573    1.863055
     28          6           0        2.671113   -0.870344    1.811389
     29          8           0        2.543498   -0.149231    2.783739
     30          7           0        3.900092   -1.361590    1.454116
     31          1           0        4.693494   -1.029370    1.975695
     32          1           0        4.054102   -1.807795    0.567892
     33          1           0       -4.033124   -2.043439   -1.426961
     34          6           0        0.264174    3.592172    0.301332
     35          6           0        1.578358    1.441660   -0.750640
     36          6           0        2.798968    0.666399   -1.024424
     37          6           0        4.056753   -0.959568   -2.434334
     38          6           0        2.821161   -0.254619   -1.982658
     39          8           0        0.505814    1.221721   -1.280000
     40         16           0        1.864238    2.775559    0.352563
     41          1           0        0.380445    4.528178    0.842565
     42          1           0       -0.499207    2.983021    0.778973
     43          1           0        4.414421   -0.505811   -3.362561
     44          1           0        4.856204   -0.878105   -1.697070
     45          1           0        3.871520   -2.012519   -2.650729
     46          1           0        1.890887   -0.465939   -2.503547
     47          1           0        3.687465    0.923901   -0.458241
     48          1           0       -0.017981    3.795323   -0.729596
 ---------------------------------------------------------------------
 Rotational constants (GHZ):           0.3305164           0.1635777           0.1394478
 Leave Link  202 at Sat Aug 13 20:09:19 2022, MaxMem=  2684354560 cpu:               0.4 elap:               0.1
 (Enter /storage/apps/GAUSSIAN/G16_RevA03/g16/l301.exe)
 Standard basis: def2TZVP (5D, 7F)
 Ernie: Thresh=  0.10000D-02 Tol=  0.10000D-05 Strict=F.
 There are  1014 symmetry adapted cartesian basis functions of A   symmetry.
 There are   894 symmetry adapted basis functions of A   symmetry.
   894 basis functions,  1434 primitive gaussians,  1014 cartesian basis functions
    95 alpha electrons       95 beta electrons
       nuclear repulsion energy      2490.0322486980 Hartrees.
 IExCor= 4336 DFT=T Ex+Corr=M062X ExCW=0 ScaHFX=  0.540000
 ScaDFX=  1.000000  1.000000  1.000000  1.000000 ScalE2=  1.000000  1.000000
 IRadAn=      5 IRanWt=     -1 IRanGd=            0 ICorTp=0 IEmpDi=131
 NAtoms=   48 NActive=   48 NUniq=   48 SFac= 1.00D+00 NAtFMM=   60 NAOKFM=F Big=F
 Integral buffers will be    131072 words long.
 Raffenetti 2 integral format.
 Two-electron integral symmetry is turned on.
 R6Disp:  Grimme-D3 Dispersion energy=       -0.0042950536 Hartrees.
 Nuclear repulsion after empirical dispersion term =     2490.0279536444 Hartrees.
 Leave Link  301 at Sat Aug 13 20:09:19 2022, MaxMem=  2684354560 cpu:               1.8 elap:               0.2
 (Enter /storage/apps/GAUSSIAN/G16_RevA03/g16/l302.exe)
 NPDir=0 NMtPBC=     1 NCelOv=     1 NCel=       1 NClECP=     1 NCelD=      1
         NCelK=      1 NCelE2=     1 NClLst=     1 CellRange=     0.0.
 One-electron integrals computed using PRISM.
 One-electron integral symmetry used in STVInt
   1 Symmetry operations used in ECPInt.
 ECPInt:  NShTT=   65703 NPrTT=  200010 LenC2=   56896 LenP2D=  121212.
 LDataN:  DoStor=T MaxTD1= 6 Len=  172
 NBasis=   894 RedAO= T EigKep=  2.73D-05  NBF=   894
 NBsUse=   894 1.00D-06 EigRej= -1.00D+00 NBFU=   894
 Precomputing XC quadrature grid using
 IXCGrd= 4 IRadAn=           5 IRanWt=          -1 IRanGd=           0 AccXCQ= 0.00D+00.
 Generated NRdTot=       0 NPtTot=           0 NUsed=           0 NTot=          32
 NSgBfM=   998   998   998   998   998 MxSgAt=    48 MxSgA2=    48.
 Leave Link  302 at Sat Aug 13 20:09:20 2022, MaxMem=  2684354560 cpu:              18.6 elap:               1.2
 (Enter /storage/apps/GAUSSIAN/G16_RevA03/g16/l303.exe)
 DipDrv:  MaxL=1.
 Leave Link  303 at Sat Aug 13 20:09:20 2022, MaxMem=  2684354560 cpu:               2.1 elap:               0.2
 (Enter /storage/apps/GAUSSIAN/G16_RevA03/g16/l401.exe)
 ExpMin= 9.52D-02 ExpMax= 6.07D+04 ExpMxC= 2.07D+03 IAcc=3 IRadAn=         5 AccDes= 0.00D+00
 Harris functional with IExCor= 1009 and IRadAn=       5 diagonalized for initial guess.
 HarFok:  IExCor= 1009 AccDes= 0.00D+00 IRadAn=         5 IDoV= 1 UseB2=F ITyADJ=14
 ICtDFT=  3500011 ScaDFX=  1.000000  1.000000  1.000000  1.000000
 FoFCou: FMM=F IPFlag=           0 FMFlag=      100000 FMFlg1=           0
         NFxFlg=           0 DoJE=T BraDBF=F KetDBF=T FulRan=T
         wScrn=  0.000000 ICntrl=       500 IOpCl=  0 I1Cent=   200000004 NGrid=           0
         NMat0=    1 NMatS0=      1 NMatT0=    0 NMatD0=    1 NMtDS0=    0 NMtDT0=    0
 Petite list used in FoFCou.
 Harris En= -1507.25027826040    
 JPrj=0 DoOrth=F DoCkMO=F.
 Leave Link  401 at Sat Aug 13 20:09:24 2022, MaxMem=  2684354560 cpu:              61.1 elap:               3.9
 (Enter /storage/apps/GAUSSIAN/G16_RevA03/g16/l502.exe)
 Integral symmetry usage will be decided dynamically.
 Closed shell SCF:
 Using DIIS extrapolation, IDIIS=  1040.
 NGot=  2684354560 LenX=  2682272944 LenY=  2681243734
 Requested convergence on RMS density matrix=1.00D-08 within 128 cycles.
 Requested convergence on MAX density matrix=1.00D-06.
 Requested convergence on             energy=1.00D-06.
 No special actions if energy rises.
 Fock matrices will be formed incrementally for  20 cycles.
 Integral accuracy reduced to 1.0D-05 until final iterations.

 Cycle   1  Pass 0  IDiag  1:
 FoFJK:  IHMeth= 1 ICntrl=       0 DoSepK=F KAlg= 0 I1Cent=           0 FoldK=F
 IRaf= 790000000 NMat=       1 IRICut=       1 DoRegI=T DoRafI=F ISym2E= 0 IDoP0=0 IntGTp=1.
 FoFCou: FMM=F IPFlag=           0 FMFlag=      100000 FMFlg1=           0
         NFxFlg=           0 DoJE=F BraDBF=F KetDBF=F FulRan=T
         wScrn=  0.000000 ICntrl=         0 IOpCl=  0 I1Cent=           0 NGrid=           0
         NMat0=    1 NMatS0=      1 NMatT0=    0 NMatD0=    1 NMtDS0=    0 NMtDT0=    0
 Symmetry not used in FoFCou.
 E= -1507.18484548290    
 DIIS: error= 1.51D-02 at cycle   1 NSaved=   1.
 NSaved= 1 IEnMin= 1 EnMin= -1507.18484548290     IErMin= 1 ErrMin= 1.51D-02
 ErrMax= 1.51D-02  0.00D+00 EMaxC= 1.00D-01 BMatC= 1.00D+00 BMatP= 1.00D+00
 IDIUse=3 WtCom= 8.49D-01 WtEn= 1.51D-01
 Coeff-Com:  0.100D+01
 Coeff-En:   0.100D+01
 Coeff:      0.100D+01
 Gap=     0.307 Goal=   None    Shift=    0.000
 GapD=    0.307 DampG=1.000 DampE=0.500 DampFc=0.5000 IDamp=-1.
 Damping current iteration by 5.00D-01
 RMSDP=4.57D-03 MaxDP=1.84D+00              OVMax= 2.30D-01

 Cycle   2  Pass 0  IDiag  1:
 RMSU=  2.28D-03    CP:  1.02D+00
 E= -1507.52899912342     Delta-E=       -0.344153640527 Rises=F Damp=T
 DIIS: error= 3.71D-03 at cycle   2 NSaved=   2.
 NSaved= 2 IEnMin= 2 EnMin= -1507.52899912342     IErMin= 2 ErrMin= 3.71D-03
 ErrMax= 3.71D-03  0.00D+00 EMaxC= 1.00D-01 BMatC= 8.65D-02 BMatP= 1.00D+00
 IDIUse=3 WtCom= 9.63D-01 WtEn= 3.71D-02
 Coeff-Com: -0.177D-01 0.102D+01
 Coeff-En:   0.147D-01 0.985D+00
 Coeff:     -0.165D-01 0.102D+01
 Gap=     0.320 Goal=   None    Shift=    0.000
 RMSDP=1.42D-03 MaxDP=5.57D-01 DE=-3.44D-01 OVMax= 1.70D-01

 Cycle   3  Pass 0  IDiag  1:
 RMSU=  1.10D-03    CP:  1.00D+00  6.09D-01
 E= -1507.88706753394     Delta-E=       -0.358068410520 Rises=F Damp=F
 DIIS: error= 3.99D-03 at cycle   3 NSaved=   3.
 NSaved= 3 IEnMin= 3 EnMin= -1507.88706753394     IErMin= 2 ErrMin= 3.71D-03
 ErrMax= 3.99D-03  0.00D+00 EMaxC= 1.00D-01 BMatC= 5.11D-02 BMatP= 8.65D-02
 IDIUse=3 WtCom= 9.60D-01 WtEn= 3.99D-02
 Coeff-Com: -0.841D-01 0.457D+00 0.627D+00
 Coeff-En:   0.000D+00 0.000D+00 0.100D+01
 Coeff:     -0.807D-01 0.439D+00 0.642D+00
 Gap=     0.209 Goal=   None    Shift=    0.000
 RMSDP=3.80D-04 MaxDP=7.77D-02 DE=-3.58D-01 OVMax= 6.74D-02

 Cycle   4  Pass 0  IDiag  1:
 RMSU=  3.18D-04    CP:  1.00D+00  6.92D-01  9.20D-01
 E= -1507.91997971271     Delta-E=       -0.032912178762 Rises=F Damp=F
 DIIS: error= 1.84D-03 at cycle   4 NSaved=   4.
 NSaved= 4 IEnMin= 4 EnMin= -1507.91997971271     IErMin= 4 ErrMin= 1.84D-03
 ErrMax= 1.84D-03  0.00D+00 EMaxC= 1.00D-01 BMatC= 1.02D-02 BMatP= 5.11D-02
 IDIUse=3 WtCom= 9.82D-01 WtEn= 1.84D-02
 Coeff-Com: -0.372D-01 0.999D-01 0.347D+00 0.591D+00
 Coeff-En:   0.000D+00 0.000D+00 0.135D+00 0.865D+00
 Coeff:     -0.365D-01 0.981D-01 0.343D+00 0.596D+00
 Gap=     0.208 Goal=   None    Shift=    0.000
 RMSDP=1.29D-04 MaxDP=1.89D-02 DE=-3.29D-02 OVMax= 1.68D-02

 Cycle   5  Pass 0  IDiag  1:
 RMSU=  8.02D-05    CP:  1.00D+00  6.76D-01  9.47D-01  7.20D-01
 E= -1507.92747599473     Delta-E=       -0.007496282025 Rises=F Damp=F
 DIIS: error= 3.28D-04 at cycle   5 NSaved=   5.
 NSaved= 5 IEnMin= 5 EnMin= -1507.92747599473     IErMin= 5 ErrMin= 3.28D-04
 ErrMax= 3.28D-04  0.00D+00 EMaxC= 1.00D-01 BMatC= 4.12D-04 BMatP= 1.02D-02
 IDIUse=3 WtCom= 9.97D-01 WtEn= 3.28D-03
 Coeff-Com: -0.108D-01 0.188D-01 0.121D+00 0.267D+00 0.605D+00
 Coeff-En:   0.000D+00 0.000D+00 0.000D+00 0.000D+00 0.100D+01
 Coeff:     -0.107D-01 0.187D-01 0.120D+00 0.266D+00 0.606D+00
 Gap=     0.208 Goal=   None    Shift=    0.000
 RMSDP=4.93D-05 MaxDP=1.69D-02 DE=-7.50D-03 OVMax= 4.09D-03

 Cycle   6  Pass 0  IDiag  1:
 RMSU=  3.25D-05    CP:  1.00D+00  6.61D-01  9.58D-01  7.35D-01  9.02D-01
 E= -1507.92780446390     Delta-E=       -0.000328469164 Rises=F Damp=F
 DIIS: error= 1.35D-04 at cycle   6 NSaved=   6.
 NSaved= 6 IEnMin= 6 EnMin= -1507.92780446390     IErMin= 6 ErrMin= 1.35D-04
 ErrMax= 1.35D-04  0.00D+00 EMaxC= 1.00D-01 BMatC= 5.34D-05 BMatP= 4.12D-04
 IDIUse=3 WtCom= 9.99D-01 WtEn= 1.35D-03
 Coeff-Com:  0.113D-03-0.410D-02 0.131D-01 0.439D-01 0.274D+00 0.673D+00
 Coeff-En:   0.000D+00 0.000D+00 0.000D+00 0.000D+00 0.000D+00 0.100D+01
 Coeff:      0.113D-03-0.409D-02 0.131D-01 0.439D-01 0.273D+00 0.674D+00
 Gap=     0.209 Goal=   None    Shift=    0.000
 RMSDP=2.13D-05 MaxDP=4.50D-03 DE=-3.28D-04 OVMax= 3.37D-03

 Cycle   7  Pass 0  IDiag  1:
 RMSU=  1.73D-05    CP:  1.00D+00  6.58D-01  9.63D-01  7.40D-01  9.81D-01
                    CP:  1.01D+00
 E= -1507.92786783264     Delta-E=       -0.000063368744 Rises=F Damp=F
 DIIS: error= 6.71D-05 at cycle   7 NSaved=   7.
 NSaved= 7 IEnMin= 7 EnMin= -1507.92786783264     IErMin= 7 ErrMin= 6.71D-05
 ErrMax= 6.71D-05  0.00D+00 EMaxC= 1.00D-01 BMatC= 9.13D-06 BMatP= 5.34D-05
 IDIUse=1 WtCom= 1.00D+00 WtEn= 0.00D+00
 Coeff-Com:  0.183D-02-0.499D-02-0.119D-01-0.243D-01 0.141D-01 0.291D+00
 Coeff-Com:  0.734D+00
 Coeff:      0.183D-02-0.499D-02-0.119D-01-0.243D-01 0.141D-01 0.291D+00
 Coeff:      0.734D+00
 Gap=     0.209 Goal=   None    Shift=    0.000
 RMSDP=1.79D-05 MaxDP=5.30D-03 DE=-6.34D-05 OVMax= 1.88D-03

 Cycle   8  Pass 0  IDiag  1:
 RMSU=  1.16D-05    CP:  1.00D+00  6.53D-01  9.65D-01  7.45D-01  1.05D+00
                    CP:  1.20D+00  1.26D+00
 E= -1507.92787472428     Delta-E=       -0.000006891640 Rises=F Damp=F
 DIIS: error= 2.66D-05 at cycle   8 NSaved=   8.
 NSaved= 8 IEnMin= 8 EnMin= -1507.92787472428     IErMin= 8 ErrMin= 2.66D-05
 ErrMax= 2.66D-05  0.00D+00 EMaxC= 1.00D-01 BMatC= 2.08D-06 BMatP= 9.13D-06
 IDIUse=1 WtCom= 1.00D+00 WtEn= 0.00D+00
 Coeff-Com:  0.964D-03-0.179D-02-0.806D-02-0.223D-01-0.461D-01 0.131D-01
 Coeff-Com:  0.360D+00 0.704D+00
 Coeff:      0.964D-03-0.179D-02-0.806D-02-0.223D-01-0.461D-01 0.131D-01
 Coeff:      0.360D+00 0.704D+00
 Gap=     0.209 Goal=   None    Shift=    0.000
 RMSDP=1.93D-05 MaxDP=2.95D-03 DE=-6.89D-06 OVMax= 6.93D-04

 Cycle   9  Pass 0  IDiag  1:
 RMSU=  9.48D-06    CP:  1.00D+00  6.51D-01  9.65D-01  7.44D-01  1.09D+00
                    CP:  1.33D+00  1.72D+00  2.09D+00
 E= -1507.92786333381     Delta-E=        0.000011390472 Rises=F Damp=F
 DIIS: error= 2.66D-05 at cycle   9 NSaved=   9.
 NSaved= 9 IEnMin= 8 EnMin= -1507.92787472428     IErMin= 9 ErrMin= 2.66D-05
 ErrMax= 2.66D-05  0.00D+00 EMaxC= 1.00D-01 BMatC= 5.89D-07 BMatP= 2.08D-06
 IDIUse=1 WtCom= 1.00D+00 WtEn= 0.00D+00
 Coeff-Com:  0.422D-03-0.711D-03-0.343D-02-0.110D-01-0.254D-01-0.111D-01
 Coeff-Com:  0.153D+00 0.393D+00 0.505D+00
 Coeff:      0.422D-03-0.711D-03-0.343D-02-0.110D-01-0.254D-01-0.111D-01
 Coeff:      0.153D+00 0.393D+00 0.505D+00
 Gap=     0.209 Goal=   None    Shift=    0.000
 RMSDP=1.95D-05 MaxDP=2.10D-03 DE= 1.14D-05 OVMax= 1.54D-04

 Cycle  10  Pass 0  IDiag  1:
 RMSU=  5.02D-06    CP:  1.00D+00  6.50D-01  9.64D-01  7.44D-01  1.12D+00
                    CP:  1.43D+00  2.13D+00  3.00D+00  2.15D+00
 E= -1507.92785156484     Delta-E=        0.000011768968 Rises=F Damp=F
 DIIS: error= 3.90D-05 at cycle  10 NSaved=  10.
 NSaved=10 IEnMin= 8 EnMin= -1507.92787472428     IErMin= 9 ErrMin= 2.66D-05
 ErrMax= 3.90D-05  0.00D+00 EMaxC= 1.00D-01 BMatC= 1.01D-06 BMatP= 5.89D-07
 IDIUse=1 WtCom= 1.00D+00 WtEn= 0.00D+00
 Coeff-Com:  0.388D-03-0.525D-03-0.328D-02-0.118D-01-0.316D-01-0.332D-01
 Coeff-Com:  0.138D+00 0.488D+00 0.115D+01-0.701D+00
 Coeff:      0.388D-03-0.525D-03-0.328D-02-0.118D-01-0.316D-01-0.332D-01
 Coeff:      0.138D+00 0.488D+00 0.115D+01-0.701D+00
 Gap=     0.209 Goal=   None    Shift=    0.000
 RMSDP=2.83D-05 MaxDP=3.82D-03 DE= 1.18D-05 OVMax= 5.91D-05

 Problem detected with inexpensive integrals.
 Switching to full accuracy and repeating last cycle.
 Cycle  11  Pass 1  IDiag  1:
 E= -1507.92779517699     Delta-E=        0.000056387853 Rises=F Damp=F
 DIIS: error= 3.16D-04 at cycle   1 NSaved=   1.
 NSaved= 1 IEnMin= 1 EnMin= -1507.92779517699     IErMin= 1 ErrMin= 3.16D-04
 ErrMax= 3.16D-04  0.00D+00 EMaxC= 1.00D-01 BMatC= 8.60D-05 BMatP= 8.60D-05
 IDIUse=3 WtCom= 9.97D-01 WtEn= 3.16D-03
 Coeff-Com:  0.100D+01
 Coeff-En:   0.100D+01
 Coeff:      0.100D+01
 Gap=     0.209 Goal=   None    Shift=    0.000
 RMSDP=4.19D-04 MaxDP=3.37D-02 DE= 5.64D-05 OVMax= 9.07D-04

 Cycle  12  Pass 1  IDiag  1:
 RMSU=  4.18D-04    CP:  9.95D-01
 E= -1507.92784877786     Delta-E=       -0.000053600877 Rises=F Damp=F
 DIIS: error= 9.40D-06 at cycle   2 NSaved=   2.
 NSaved= 2 IEnMin= 2 EnMin= -1507.92784877786     IErMin= 2 ErrMin= 9.40D-06
 ErrMax= 9.40D-06  0.00D+00 EMaxC= 1.00D-01 BMatC= 7.73D-08 BMatP= 8.60D-05
 IDIUse=1 WtCom= 1.00D+00 WtEn= 0.00D+00
 Coeff-Com: -0.161D-01 0.102D+01
 Coeff:     -0.161D-01 0.102D+01
 Gap=     0.209 Goal=   None    Shift=    0.000
 RMSDP=1.55D-05 MaxDP=1.28D-03 DE=-5.36D-05 OVMax= 8.29D-05

 Cycle  13  Pass 1  IDiag  1:
 RMSU=  5.32D-06    CP:  9.95D-01  1.03D+00
 E= -1507.92784883265     Delta-E=       -0.000000054784 Rises=F Damp=F
 DIIS: error= 4.68D-06 at cycle   3 NSaved=   3.
 NSaved= 3 IEnMin= 3 EnMin= -1507.92784883265     IErMin= 3 ErrMin= 4.68D-06
 ErrMax= 4.68D-06  0.00D+00 EMaxC= 1.00D-01 BMatC= 6.72D-08 BMatP= 7.73D-08
 IDIUse=1 WtCom= 1.00D+00 WtEn= 0.00D+00
 Coeff-Com: -0.904D-02 0.537D+00 0.472D+00
 Coeff:     -0.904D-02 0.537D+00 0.472D+00
 Gap=     0.209 Goal=   None    Shift=    0.000
 RMSDP=6.08D-07 MaxDP=1.88D-04 DE=-5.48D-08 OVMax= 3.76D-05

 Cycle  14  Pass 1  IDiag  1:
 RMSU=  5.53D-07    CP:  9.95D-01  1.04D+00  1.01D+00
 E= -1507.92784888071     Delta-E=       -0.000000048059 Rises=F Damp=F
 DIIS: error= 1.49D-06 at cycle   4 NSaved=   4.
 NSaved= 4 IEnMin= 4 EnMin= -1507.92784888071     IErMin= 4 ErrMin= 1.49D-06
 ErrMax= 1.49D-06  0.00D+00 EMaxC= 1.00D-01 BMatC= 3.50D-09 BMatP= 6.72D-08
 IDIUse=1 WtCom= 1.00D+00 WtEn= 0.00D+00
 Coeff-Com: -0.149D-03-0.208D-02 0.169D+00 0.834D+00
 Coeff:     -0.149D-03-0.208D-02 0.169D+00 0.834D+00
 Gap=     0.209 Goal=   None    Shift=    0.000
 RMSDP=3.47D-07 MaxDP=2.65D-05 DE=-4.81D-08 OVMax= 2.56D-05

 Cycle  15  Pass 1  IDiag  1:
 RMSU=  1.48D-07    CP:  9.95D-01  1.04D+00  1.05D+00  1.04D+00
 E= -1507.92784888378     Delta-E=       -0.000000003071 Rises=F Damp=F
 DIIS: error= 5.84D-07 at cycle   5 NSaved=   5.
 NSaved= 5 IEnMin= 5 EnMin= -1507.92784888378     IErMin= 5 ErrMin= 5.84D-07
 ErrMax= 5.84D-07  0.00D+00 EMaxC= 1.00D-01 BMatC= 7.23D-10 BMatP= 3.50D-09
 IDIUse=1 WtCom= 1.00D+00 WtEn= 0.00D+00
 Coeff-Com:  0.559D-03-0.391D-01 0.509D-01 0.438D+00 0.550D+00
 Coeff:      0.559D-03-0.391D-01 0.509D-01 0.438D+00 0.550D+00
 Gap=     0.209 Goal=   None    Shift=    0.000
 RMSDP=6.62D-08 MaxDP=1.13D-05 DE=-3.07D-09 OVMax= 8.22D-06

 Cycle  16  Pass 1  IDiag  1:
 RMSU=  4.71D-08    CP:  9.95D-01  1.04D+00  1.05D+00  1.10D+00  1.05D+00
 E= -1507.92784888451     Delta-E=       -0.000000000732 Rises=F Damp=F
 DIIS: error= 1.45D-07 at cycle   6 NSaved=   6.
 NSaved= 6 IEnMin= 6 EnMin= -1507.92784888451     IErMin= 6 ErrMin= 1.45D-07
 ErrMax= 1.45D-07  0.00D+00 EMaxC= 1.00D-01 BMatC= 4.36D-11 BMatP= 7.23D-10
 IDIUse=1 WtCom= 1.00D+00 WtEn= 0.00D+00
 Coeff-Com:  0.198D-03-0.119D-01-0.117D-01 0.174D-01 0.146D+00 0.860D+00
 Coeff:      0.198D-03-0.119D-01-0.117D-01 0.174D-01 0.146D+00 0.860D+00
 Gap=     0.209 Goal=   None    Shift=    0.000
 RMSDP=3.40D-08 MaxDP=1.11D-05 DE=-7.32D-10 OVMax= 5.45D-06

 Cycle  17  Pass 1  IDiag  1:
 RMSU=  2.07D-08    CP:  9.95D-01  1.04D+00  1.05D+00  1.14D+00  1.13D+00
                    CP:  1.20D+00
 E= -1507.92784888456     Delta-E=       -0.000000000056 Rises=F Damp=F
 DIIS: error= 9.89D-08 at cycle   7 NSaved=   7.
 NSaved= 7 IEnMin= 7 EnMin= -1507.92784888456     IErMin= 7 ErrMin= 9.89D-08
 ErrMax= 9.89D-08  0.00D+00 EMaxC= 1.00D-01 BMatC= 1.97D-11 BMatP= 4.36D-11
 IDIUse=1 WtCom= 1.00D+00 WtEn= 0.00D+00
 Coeff-Com: -0.191D-04 0.232D-02-0.177D-01-0.811D-01-0.503D-01 0.471D+00
 Coeff-Com:  0.676D+00
 Coeff:     -0.191D-04 0.232D-02-0.177D-01-0.811D-01-0.503D-01 0.471D+00
 Coeff:      0.676D+00
 Gap=     0.209 Goal=   None    Shift=    0.000
 RMSDP=1.35D-08 MaxDP=2.69D-06 DE=-5.64D-11 OVMax= 2.72D-06

 Cycle  18  Pass 1  IDiag  1:
 RMSU=  8.80D-09    CP:  9.95D-01  1.04D+00  1.05D+00  1.15D+00  1.15D+00
                    CP:  1.31D+00  1.01D+00
 E= -1507.92784888461     Delta-E=       -0.000000000041 Rises=F Damp=F
 DIIS: error= 2.57D-08 at cycle   8 NSaved=   8.
 NSaved= 8 IEnMin= 8 EnMin= -1507.92784888461     IErMin= 8 ErrMin= 2.57D-08
 ErrMax= 2.57D-08  0.00D+00 EMaxC= 1.00D-01 BMatC= 2.10D-12 BMatP= 1.97D-11
 IDIUse=1 WtCom= 1.00D+00 WtEn= 0.00D+00
 Coeff-Com: -0.363D-04 0.276D-02-0.749D-02-0.426D-01-0.475D-01 0.114D+00
 Coeff-Com:  0.319D+00 0.663D+00
 Coeff:     -0.363D-04 0.276D-02-0.749D-02-0.426D-01-0.475D-01 0.114D+00
 Coeff:      0.319D+00 0.663D+00
 Gap=     0.209 Goal=   None    Shift=    0.000
 RMSDP=6.12D-09 MaxDP=2.40D-06 DE=-4.09D-11 OVMax= 6.00D-07

 Cycle  19  Pass 1  IDiag  1:
 RMSU=  3.30D-09    CP:  9.95D-01  1.04D+00  1.05D+00  1.15D+00  1.16D+00
                    CP:  1.35D+00  1.11D+00  1.10D+00
 E= -1507.92784888459     Delta-E=        0.000000000019 Rises=F Damp=F
 DIIS: error= 6.99D-09 at cycle   9 NSaved=   9.
 NSaved= 9 IEnMin= 8 EnMin= -1507.92784888461     IErMin= 9 ErrMin= 6.99D-09
 ErrMax= 6.99D-09  0.00D+00 EMaxC= 1.00D-01 BMatC= 1.63D-13 BMatP= 2.10D-12
 IDIUse=1 WtCom= 1.00D+00 WtEn= 0.00D+00
 Coeff-Com: -0.104D-04 0.668D-03-0.227D-03-0.341D-02-0.101D-01-0.211D-01
 Coeff-Com:  0.240D-01 0.233D+00 0.777D+00
 Coeff:     -0.104D-04 0.668D-03-0.227D-03-0.341D-02-0.101D-01-0.211D-01
 Coeff:      0.240D-01 0.233D+00 0.777D+00
 Gap=     0.209 Goal=   None    Shift=    0.000
 RMSDP=1.47D-09 MaxDP=1.98D-07 DE= 1.86D-11 OVMax= 2.54D-07

 SCF Done:  E(RM062X) =  -1507.92784888     A.U. after   19 cycles
            NFock= 19  Conv=0.15D-08     -V/T= 2.0037
 KE= 1.502431840885D+03 PE=-8.518434048904D+03 EE= 3.018046405490D+03
 Leave Link  502 at Sat Aug 13 20:18:19 2022, MaxMem=  2684354560 cpu:            8546.2 elap:             535.0
 (Enter /storage/apps/GAUSSIAN/G16_RevA03/g16/l601.exe)
 Copying SCF densities to generalized density rwf, IOpCl= 0 IROHF=0.

 **********************************************************************

            Population analysis using the SCF density.

 **********************************************************************

 Orbital symmetries:
       Occupied  (A) (A) (A) (A) (A) (A) (A) (A) (A) (A) (A) (A)
                 (A) (A) (A) (A) (A) (A) (A) (A) (A) (A) (A) (A)
                 (A) (A) (A) (A) (A) (A) (A) (A) (A) (A) (A) (A)
                 (A) (A) (A) (A) (A) (A) (A) (A) (A) (A) (A) (A)
                 (A) (A) (A) (A) (A) (A) (A) (A) (A) (A) (A) (A)
                 (A) (A) (A) (A) (A) (A) (A) (A) (A) (A) (A) (A)
                 (A) (A) (A) (A) (A) (A) (A) (A) (A) (A) (A) (A)
                 (A) (A) (A) (A) (A) (A) (A) (A) (A) (A) (A)
       Virtual   (A) (A) (A) (A) (A) (A) (A) (A) (A) (A) (A) (A)
                 (A) (A) (A) (A) (A) (A) (A) (A) (A) (A) (A) (A)
                 (A) (A) (A) (A) (A) (A) (A) (A) (A) (A) (A) (A)
                 (A) (A) (A) (A) (A) (A) (A) (A) (A) (A) (A) (A)
                 (A) (A) (A) (A) (A) (A) (A) (A) (A) (A) (A) (A)
                 (A) (A) (A) (A) (A) (A) (A) (A) (A) (A) (A) (A)
                 (A) (A) (A) (A) (A) (A) (A) (A) (A) (A) (A) (A)
                 (A) (A) (A) (A) (A) (A) (A) (A) (A) (A) (A) (A)
                 (A) (A) (A) (A) (A) (A) (A) (A) (A) (A) (A) (A)
                 (A) (A) (A) (A) (A) (A) (A) (A) (A) (A) (A) (A)
                 (A) (A) (A) (A) (A) (A) (A) (A) (A) (A) (A) (A)
                 (A) (A) (A) (A) (A) (A) (A) (A) (A) (A) (A) (A)
                 (A) (A) (A) (A) (A) (A) (A) (A) (A) (A) (A) (A)
                 (A) (A) (A) (A) (A) (A) (A) (A) (A) (A) (A) (A)
                 (A) (A) (A) (A) (A) (A) (A) (A) (A) (A) (A) (A)
                 (A) (A) (A) (A) (A) (A) (A) (A) (A) (A) (A) (A)
                 (A) (A) (A) (A) (A) (A) (A) (A) (A) (A) (A) (A)
                 (A) (A) (A) (A) (A) (A) (A) (A) (A) (A) (A) (A)
                 (A) (A) (A) (A) (A) (A) (A) (A) (A) (A) (A) (A)
                 (A) (A) (A) (A) (A) (A) (A) (A) (A) (A) (A) (A)
                 (A) (A) (A) (A) (A) (A) (A) (A) (A) (A) (A) (A)
                 (A) (A) (A) (A) (A) (A) (A) (A) (A) (A) (A) (A)
                 (A) (A) (A) (A) (A) (A) (A) (A) (A) (A) (A) (A)
                 (A) (A) (A) (A) (A) (A) (A) (A) (A) (A) (A) (A)
                 (A) (A) (A) (A) (A) (A) (A) (A) (A) (A) (A) (A)
                 (A) (A) (A) (A) (A) (A) (A) (A) (A) (A) (A) (A)
                 (A) (A) (A) (A) (A) (A) (A) (A) (A) (A) (A) (A)
                 (A) (A) (A) (A) (A) (A) (A) (A) (A) (A) (A) (A)
                 (A) (A) (A) (A) (A) (A) (A) (A) (A) (A) (A) (A)
                 (A) (A) (A) (A) (A) (A) (A) (A) (A) (A) (A) (A)
                 (A) (A) (A) (A) (A) (A) (A) (A) (A) (A) (A) (A)
                 (A) (A) (A) (A) (A) (A) (A) (A) (A) (A) (A) (A)
                 (A) (A) (A) (A) (A) (A) (A) (A) (A) (A) (A) (A)
                 (A) (A) (A) (A) (A) (A) (A) (A) (A) (A) (A) (A)
                 (A) (A) (A) (A) (A) (A) (A) (A) (A) (A) (A) (A)
                 (A) (A) (A) (A) (A) (A) (A) (A) (A) (A) (A) (A)
                 (A) (A) (A) (A) (A) (A) (A) (A) (A) (A) (A) (A)
                 (A) (A) (A) (A) (A) (A) (A) (A) (A) (A) (A) (A)
                 (A) (A) (A) (A) (A) (A) (A) (A) (A) (A) (A) (A)
                 (A) (A) (A) (A) (A) (A) (A) (A) (A) (A) (A) (A)
                 (A) (A) (A) (A) (A) (A) (A) (A) (A) (A) (A) (A)
                 (A) (A) (A) (A) (A) (A) (A) (A) (A) (A) (A) (A)
                 (A) (A) (A) (A) (A) (A) (A) (A) (A) (A) (A) (A)
                 (A) (A) (A) (A) (A) (A) (A) (A) (A) (A) (A) (A)
                 (A) (A) (A) (A) (A) (A) (A) (A) (A) (A) (A) (A)
                 (A) (A) (A) (A) (A) (A) (A) (A) (A) (A) (A) (A)
                 (A) (A) (A) (A) (A) (A) (A) (A) (A) (A) (A) (A)
                 (A) (A) (A) (A) (A) (A) (A) (A) (A) (A) (A) (A)
                 (A) (A) (A) (A) (A) (A) (A) (A) (A) (A) (A) (A)
                 (A) (A) (A) (A) (A) (A) (A) (A) (A) (A) (A) (A)
                 (A) (A) (A) (A) (A) (A) (A) (A) (A) (A) (A) (A)
                 (A) (A) (A) (A) (A) (A) (A) (A) (A) (A) (A) (A)
                 (A) (A) (A) (A) (A) (A) (A) (A) (A) (A) (A) (A)
                 (A) (A) (A) (A) (A) (A) (A) (A) (A) (A) (A) (A)
                 (A) (A) (A) (A) (A) (A) (A) (A) (A) (A) (A) (A)
                 (A) (A) (A) (A) (A) (A) (A) (A) (A) (A) (A) (A)
                 (A) (A) (A) (A) (A) (A) (A) (A) (A) (A) (A) (A)
                 (A) (A) (A) (A) (A) (A) (A) (A) (A) (A) (A) (A)
                 (A) (A) (A) (A) (A) (A) (A) (A) (A) (A) (A) (A)
                 (A) (A) (A) (A) (A) (A) (A) (A) (A) (A) (A) (A)
                 (A) (A) (A) (A) (A) (A) (A) (A) (A) (A) (A) (A)
                 (A) (A) (A) (A) (A) (A) (A) (A) (A) (A) (A) (A)
                 (A) (A) (A) (A) (A) (A) (A) (A) (A) (A) (A) (A)
                 (A) (A) (A) (A) (A) (A) (A) (A) (A) (A) (A) (A)
                 (A) (A) (A) (A) (A) (A) (A) (A) (A) (A) (A) (A)
                 (A) (A) (A) (A) (A) (A) (A) (A) (A) (A) (A) (A)
                 (A) (A) (A) (A) (A) (A) (A)
 The electronic state is 1-A.
 Alpha  occ. eigenvalues --  -89.92353 -19.63835 -19.63277 -19.62522 -19.62129
 Alpha  occ. eigenvalues --  -19.57672 -14.78949 -14.76107 -10.66478 -10.63421
 Alpha  occ. eigenvalues --  -10.62886 -10.59399 -10.59037 -10.58935 -10.58319
 Alpha  occ. eigenvalues --  -10.57502 -10.57315 -10.57230 -10.55755 -10.55687
 Alpha  occ. eigenvalues --  -10.55029 -10.53785 -10.53421 -10.53235  -8.28288
 Alpha  occ. eigenvalues --   -6.20227  -6.19991  -6.19796  -1.19518  -1.19023
 Alpha  occ. eigenvalues --   -1.15903  -1.14970  -1.13635  -1.08366  -1.00734
 Alpha  occ. eigenvalues --   -0.93339  -0.91831  -0.90588  -0.88463  -0.87519
 Alpha  occ. eigenvalues --   -0.85521  -0.83418  -0.78874  -0.77036  -0.75531
 Alpha  occ. eigenvalues --   -0.73452  -0.70738  -0.67935  -0.67634  -0.66515
 Alpha  occ. eigenvalues --   -0.63870  -0.63290  -0.61968  -0.60479  -0.58811
 Alpha  occ. eigenvalues --   -0.58190  -0.57479  -0.56561  -0.56247  -0.55224
 Alpha  occ. eigenvalues --   -0.54565  -0.52972  -0.52536  -0.52035  -0.51420
 Alpha  occ. eigenvalues --   -0.50714  -0.50379  -0.50180  -0.49250  -0.49183
 Alpha  occ. eigenvalues --   -0.48796  -0.48591  -0.47742  -0.47130  -0.46972
 Alpha  occ. eigenvalues --   -0.46043  -0.44687  -0.44341  -0.44140  -0.43777
 Alpha  occ. eigenvalues --   -0.43406  -0.43122  -0.41698  -0.41423  -0.37797
 Alpha  occ. eigenvalues --   -0.36142  -0.35554  -0.34743  -0.34709  -0.33635
 Alpha  occ. eigenvalues --   -0.33495  -0.32778  -0.32350  -0.31333  -0.24397
 Alpha virt. eigenvalues --   -0.03504   0.00407   0.04206   0.04342   0.06025
 Alpha virt. eigenvalues --    0.06877   0.07216   0.07560   0.08619   0.09160
 Alpha virt. eigenvalues --    0.09384   0.09720   0.10436   0.10623   0.10888
 Alpha virt. eigenvalues --    0.12047   0.12066   0.12310   0.12586   0.12935
 Alpha virt. eigenvalues --    0.13412   0.13796   0.13833   0.14041   0.14519
 Alpha virt. eigenvalues --    0.15126   0.15703   0.16221   0.17094   0.17500
 Alpha virt. eigenvalues --    0.17964   0.18657   0.19042   0.19106   0.19421
 Alpha virt. eigenvalues --    0.20493   0.20777   0.21403   0.22165   0.22893
 Alpha virt. eigenvalues --    0.23105   0.23359   0.23950   0.24250   0.24714
 Alpha virt. eigenvalues --    0.24909   0.25546   0.25625   0.26385   0.27170
 Alpha virt. eigenvalues --    0.27435   0.27948   0.28278   0.28610   0.29168
 Alpha virt. eigenvalues --    0.29839   0.30233   0.30387   0.30707   0.31030
 Alpha virt. eigenvalues --    0.31225   0.32114   0.33271   0.33769   0.33973
 Alpha virt. eigenvalues --    0.34344   0.35330   0.35554   0.35836   0.36373
 Alpha virt. eigenvalues --    0.36652   0.37350   0.37688   0.38163   0.38388
 Alpha virt. eigenvalues --    0.38619   0.39296   0.39855   0.40202   0.40406
 Alpha virt. eigenvalues --    0.40862   0.41216   0.41495   0.42176   0.42328
 Alpha virt. eigenvalues --    0.43017   0.43098   0.43681   0.43722   0.44037
 Alpha virt. eigenvalues --    0.44604   0.45129   0.45482   0.45610   0.46118
 Alpha virt. eigenvalues --    0.46398   0.46494   0.46912   0.47544   0.47628
 Alpha virt. eigenvalues --    0.47998   0.48202   0.48505   0.48992   0.49557
 Alpha virt. eigenvalues --    0.49982   0.50545   0.50690   0.51001   0.51567
 Alpha virt. eigenvalues --    0.51938   0.52052   0.52191   0.52692   0.52956
 Alpha virt. eigenvalues --    0.53491   0.53601   0.54105   0.54482   0.54960
 Alpha virt. eigenvalues --    0.55425   0.55815   0.56493   0.57012   0.57603
 Alpha virt. eigenvalues --    0.58044   0.58465   0.58944   0.59741   0.59847
 Alpha virt. eigenvalues --    0.60639   0.60928   0.61734   0.61885   0.62665
 Alpha virt. eigenvalues --    0.62863   0.63293   0.65113   0.65286   0.65586
 Alpha virt. eigenvalues --    0.66560   0.66886   0.67285   0.67355   0.67902
 Alpha virt. eigenvalues --    0.68652   0.69465   0.70067   0.70237   0.71142
 Alpha virt. eigenvalues --    0.71777   0.73118   0.73257   0.73710   0.74078
 Alpha virt. eigenvalues --    0.74730   0.75181   0.76332   0.76755   0.76966
 Alpha virt. eigenvalues --    0.77323   0.78158   0.79220   0.80815   0.81257
 Alpha virt. eigenvalues --    0.81426   0.82025   0.82899   0.84080   0.84478
 Alpha virt. eigenvalues --    0.85621   0.86112   0.86682   0.86971   0.87749
 Alpha virt. eigenvalues --    0.88212   0.88422   0.88837   0.89485   0.90385
 Alpha virt. eigenvalues --    0.91018   0.91608   0.91807   0.92920   0.93593
 Alpha virt. eigenvalues --    0.94065   0.94840   0.95152   0.95882   0.96651
 Alpha virt. eigenvalues --    0.96933   0.97903   0.98485   0.98823   0.99602
 Alpha virt. eigenvalues --    1.00043   1.00870   1.01187   1.02513   1.03077
 Alpha virt. eigenvalues --    1.03547   1.04385   1.04966   1.05575   1.06635
 Alpha virt. eigenvalues --    1.07475   1.07864   1.08258   1.08805   1.09478
 Alpha virt. eigenvalues --    1.11037   1.11193   1.11891   1.12529   1.12712
 Alpha virt. eigenvalues --    1.13542   1.14590   1.15635   1.16512   1.16914
 Alpha virt. eigenvalues --    1.17665   1.19113   1.19342   1.19849   1.20275
 Alpha virt. eigenvalues --    1.20800   1.21477   1.22456   1.23197   1.24123
 Alpha virt. eigenvalues --    1.24468   1.25388   1.25922   1.27194   1.29174
 Alpha virt. eigenvalues --    1.29567   1.29937   1.30747   1.31108   1.32025
 Alpha virt. eigenvalues --    1.33400   1.33853   1.34155   1.35041   1.36425
 Alpha virt. eigenvalues --    1.37119   1.38141   1.38710   1.39110   1.40768
 Alpha virt. eigenvalues --    1.41520   1.42064   1.42724   1.42988   1.44844
 Alpha virt. eigenvalues --    1.45321   1.46159   1.48454   1.48752   1.49788
 Alpha virt. eigenvalues --    1.50223   1.50757   1.51132   1.51783   1.52924
 Alpha virt. eigenvalues --    1.53576   1.53787   1.54126   1.54854   1.55450
 Alpha virt. eigenvalues --    1.56115   1.56628   1.57164   1.57609   1.58388
 Alpha virt. eigenvalues --    1.58881   1.59248   1.59712   1.59890   1.60088
 Alpha virt. eigenvalues --    1.60579   1.61506   1.61899   1.61970   1.62396
 Alpha virt. eigenvalues --    1.62800   1.63608   1.64393   1.65363   1.65746
 Alpha virt. eigenvalues --    1.66036   1.66940   1.67448   1.67879   1.68594
 Alpha virt. eigenvalues --    1.69089   1.69184   1.69676   1.70137   1.71262
 Alpha virt. eigenvalues --    1.72279   1.73058   1.73478   1.73961   1.75034
 Alpha virt. eigenvalues --    1.75595   1.76359   1.76787   1.77720   1.78020
 Alpha virt. eigenvalues --    1.78798   1.79013   1.79306   1.80353   1.81352
 Alpha virt. eigenvalues --    1.82545   1.83542   1.84005   1.84708   1.84765
 Alpha virt. eigenvalues --    1.85050   1.85971   1.86757   1.87201   1.88330
 Alpha virt. eigenvalues --    1.88481   1.88997   1.89801   1.90927   1.92145
 Alpha virt. eigenvalues --    1.92995   1.93494   1.93895   1.94353   1.95234
 Alpha virt. eigenvalues --    1.95822   1.96484   1.97175   1.97625   1.98431
 Alpha virt. eigenvalues --    1.99182   1.99681   2.00196   2.01042   2.02776
 Alpha virt. eigenvalues --    2.02930   2.03588   2.04067   2.04774   2.06093
 Alpha virt. eigenvalues --    2.06362   2.06868   2.07713   2.07988   2.08800
 Alpha virt. eigenvalues --    2.09740   2.10854   2.11785   2.12141   2.12711
 Alpha virt. eigenvalues --    2.13792   2.15569   2.17028   2.17233   2.17702
 Alpha virt. eigenvalues --    2.18568   2.19588   2.19761   2.20430   2.20875
 Alpha virt. eigenvalues --    2.21393   2.22076   2.22897   2.23282   2.23621
 Alpha virt. eigenvalues --    2.24733   2.25208   2.26278   2.26706   2.27013
 Alpha virt. eigenvalues --    2.27628   2.28544   2.29187   2.30188   2.30651
 Alpha virt. eigenvalues --    2.32107   2.32614   2.33309   2.33363   2.34170
 Alpha virt. eigenvalues --    2.34925   2.35119   2.35936   2.36444   2.36685
 Alpha virt. eigenvalues --    2.36977   2.37639   2.38415   2.39354   2.39865
 Alpha virt. eigenvalues --    2.40355   2.41034   2.42049   2.42518   2.43531
 Alpha virt. eigenvalues --    2.43992   2.44599   2.45717   2.46335   2.47111
 Alpha virt. eigenvalues --    2.48508   2.49362   2.49675   2.50511   2.51410
 Alpha virt. eigenvalues --    2.52233   2.53769   2.54066   2.55467   2.55594
 Alpha virt. eigenvalues --    2.56114   2.57500   2.58005   2.58703   2.59194
 Alpha virt. eigenvalues --    2.59583   2.60200   2.60905   2.61446   2.61965
 Alpha virt. eigenvalues --    2.62660   2.63274   2.63702   2.64193   2.64642
 Alpha virt. eigenvalues --    2.65328   2.66088   2.66418   2.67219   2.67384
 Alpha virt. eigenvalues --    2.68584   2.69194   2.69890   2.70557   2.71679
 Alpha virt. eigenvalues --    2.72274   2.72672   2.73474   2.73798   2.74120
 Alpha virt. eigenvalues --    2.74693   2.75875   2.76747   2.77647   2.78564
 Alpha virt. eigenvalues --    2.79864   2.80804   2.81228   2.82245   2.82636
 Alpha virt. eigenvalues --    2.83479   2.83982   2.85319   2.85633   2.86443
 Alpha virt. eigenvalues --    2.86958   2.87340   2.88633   2.88994   2.89823
 Alpha virt. eigenvalues --    2.90246   2.91676   2.92021   2.92250   2.92373
 Alpha virt. eigenvalues --    2.93380   2.95069   2.95304   2.95666   2.97021
 Alpha virt. eigenvalues --    2.97967   2.98867   2.99580   3.00744   3.01487
 Alpha virt. eigenvalues --    3.01922   3.02774   3.03778   3.04452   3.05554
 Alpha virt. eigenvalues --    3.05647   3.06227   3.06820   3.07069   3.07277
 Alpha virt. eigenvalues --    3.08403   3.08765   3.09182   3.09489   3.09878
 Alpha virt. eigenvalues --    3.10952   3.11933   3.12105   3.12484   3.13393
 Alpha virt. eigenvalues --    3.14345   3.14763   3.14900   3.15083   3.16051
 Alpha virt. eigenvalues --    3.16482   3.17043   3.17404   3.17657   3.18397
 Alpha virt. eigenvalues --    3.18923   3.19346   3.19842   3.20170   3.21209
 Alpha virt. eigenvalues --    3.21310   3.22506   3.23273   3.24103   3.24770
 Alpha virt. eigenvalues --    3.25056   3.25806   3.26774   3.27245   3.27813
 Alpha virt. eigenvalues --    3.28618   3.28924   3.29684   3.31289   3.31657
 Alpha virt. eigenvalues --    3.32037   3.32504   3.33201   3.33524   3.34340
 Alpha virt. eigenvalues --    3.34938   3.35433   3.36047   3.36729   3.36874
 Alpha virt. eigenvalues --    3.37505   3.37906   3.38717   3.39353   3.40130
 Alpha virt. eigenvalues --    3.40879   3.41811   3.41934   3.43057   3.43541
 Alpha virt. eigenvalues --    3.44572   3.45177   3.45857   3.46260   3.46631
 Alpha virt. eigenvalues --    3.47041   3.47776   3.49243   3.49321   3.50000
 Alpha virt. eigenvalues --    3.50833   3.52312   3.52639   3.53399   3.55094
 Alpha virt. eigenvalues --    3.55176   3.55934   3.56335   3.56709   3.56871
 Alpha virt. eigenvalues --    3.58550   3.59360   3.60082   3.61081   3.61818
 Alpha virt. eigenvalues --    3.62178   3.62700   3.63913   3.65033   3.65517
 Alpha virt. eigenvalues --    3.65723   3.66874   3.67698   3.68252   3.68621
 Alpha virt. eigenvalues --    3.69736   3.71699   3.72258   3.74100   3.75020
 Alpha virt. eigenvalues --    3.75774   3.76160   3.77728   3.78595   3.79191
 Alpha virt. eigenvalues --    3.80274   3.81071   3.81992   3.82445   3.82824
 Alpha virt. eigenvalues --    3.85311   3.85523   3.87678   3.88684   3.89195
 Alpha virt. eigenvalues --    3.90604   3.91359   3.93610   3.93726   3.95099
 Alpha virt. eigenvalues --    3.96983   3.97288   3.97746   3.99462   4.00698
 Alpha virt. eigenvalues --    4.02100   4.02447   4.03764   4.05301   4.06799
 Alpha virt. eigenvalues --    4.09002   4.10332   4.10949   4.13682   4.14632
 Alpha virt. eigenvalues --    4.15630   4.16678   4.17703   4.18344   4.19221
 Alpha virt. eigenvalues --    4.19448   4.19805   4.21390   4.22028   4.24362
 Alpha virt. eigenvalues --    4.25561   4.26603   4.29467   4.30664   4.31646
 Alpha virt. eigenvalues --    4.32324   4.37345   4.37796   4.38634   4.38973
 Alpha virt. eigenvalues --    4.39225   4.40449   4.42461   4.43064   4.43970
 Alpha virt. eigenvalues --    4.44947   4.46502   4.47557   4.49325   4.51858
 Alpha virt. eigenvalues --    4.52691   4.53605   4.54481   4.57644   4.59368
 Alpha virt. eigenvalues --    4.62463   4.65056   4.66010   4.67152   4.69281
 Alpha virt. eigenvalues --    4.70118   4.70490   4.72676   4.72921   4.74808
 Alpha virt. eigenvalues --    4.75757   4.77179   4.80583   4.82399   4.84865
 Alpha virt. eigenvalues --    4.86875   4.88276   4.90019   4.90845   4.92829
 Alpha virt. eigenvalues --    4.94534   4.95227   4.98526   4.99657   5.00986
 Alpha virt. eigenvalues --    5.02466   5.03340   5.04706   5.07172   5.09348
 Alpha virt. eigenvalues --    5.12903   5.14103   5.16216   5.19658   5.20987
 Alpha virt. eigenvalues --    5.22401   5.24389   5.25331   5.27284   5.29223
 Alpha virt. eigenvalues --    5.30044   5.31576   5.31872   5.34493   5.38812
 Alpha virt. eigenvalues --    5.40409   5.42754   5.44428   5.47185   5.49061
 Alpha virt. eigenvalues --    5.50040   5.50922   5.53612   5.55104   5.56441
 Alpha virt. eigenvalues --    5.64656   5.68999   5.76161   5.77298   5.79717
 Alpha virt. eigenvalues --    5.80279   5.82376   5.83105   5.84159   5.89142
 Alpha virt. eigenvalues --    5.89761   5.92181   5.94044   5.96816   5.98252
 Alpha virt. eigenvalues --    5.99843   6.06245   6.07685   6.16709   6.18846
 Alpha virt. eigenvalues --    6.22001   6.25656   6.28450   6.30220   6.38845
 Alpha virt. eigenvalues --    6.39314   6.43588   6.45663   6.48808   6.54580
 Alpha virt. eigenvalues --    6.60255   6.62298   6.72957   6.76545   6.77493
 Alpha virt. eigenvalues --    6.77751   6.82840   6.84562   6.85601   6.86216
 Alpha virt. eigenvalues --    6.87190   6.98184   7.00577   7.05052   7.09244
 Alpha virt. eigenvalues --    7.11461   7.15062   7.16016   7.18348   7.22912
 Alpha virt. eigenvalues --    7.32355   7.36520   9.01873   9.39377   9.55371
 Alpha virt. eigenvalues --   19.98677  22.33084  22.47045  22.50547  22.52485
 Alpha virt. eigenvalues --   22.62053  22.66937  22.75397  22.77927  22.85246
 Alpha virt. eigenvalues --   22.92695  23.01484  23.02104  23.08928  23.10365
 Alpha virt. eigenvalues --   23.29053  23.52463  32.20842  33.24300  44.17146
 Alpha virt. eigenvalues --   44.19663  44.26511  44.30152  44.54644
          Condensed to atoms (all electrons):
               1          2          3          4          5          6
     1  C    5.158907   0.426512   0.409977   0.011915  -0.008039  -0.000250
     2  H    0.426512   0.498004  -0.015250  -0.002403   0.000441  -0.000005
     3  H    0.409977  -0.015250   0.519249  -0.000757   0.000341  -0.000011
     4  C    0.011915  -0.002403  -0.000757   5.628663   0.539114   0.182090
     5  H   -0.008039   0.000441   0.000341   0.539114   0.519842  -0.037059
     6  O   -0.000250  -0.000005  -0.000011   0.182090  -0.037059   8.153893
     7  H    0.000030  -0.000003  -0.000001  -0.057193  -0.008667   0.323278
     8  C   -0.011611   0.011060  -0.001212  -0.008549  -0.097986  -0.051498
     9  H    0.004936  -0.000356  -0.001659  -0.071985   0.002290   0.001034
    10  O    0.005479  -0.000188  -0.000033   0.057918   0.005698  -0.021915
[...]
 Center     Atomic                   Forces (Hartrees/Bohr)
 Number     Number              X              Y              Z
 -------------------------------------------------------------------
      1        6           0.000241786   -0.000096433    0.000010280
      2        1           0.000014256   -0.000007044   -0.000004135
      3        1          -0.000002581   -0.000034864    0.000000252
      4        6           0.000488217   -0.000178783   -0.000159408
      5        1           0.000015326   -0.000016425    0.000006460
      6        8           0.000565395   -0.000333954   -0.000082441
      7        1           0.000037476   -0.000072669    0.000057689
      8        6           0.000536167   -0.000091051   -0.000034967
      9        1           0.000038128   -0.000009404    0.000001227
     10        8           0.000710956   -0.000100171    0.000021143
     11        1           0.000047060   -0.000032832    0.000028739
     12        6           0.000355790   -0.000161197   -0.000235107
     13        1           0.000046984   -0.000011151   -0.000031679
     14        6           0.000571191   -0.000054016    0.000002883
     15        1           0.000048557   -0.000028126   -0.000007084
     16        8           0.001053528    0.000104474   -0.000054192
     17        7           0.000687258   -0.000223627   -0.000679141
     18        6          -0.000365995   -0.000326895    0.000571978
     19        1          -0.000192306   -0.000058171    0.000256458
     20        6           0.000302523   -0.000384358   -0.000406007
     21        1          -0.000032838   -0.000045750    0.000138078
     22        6           0.002113161    0.000036201   -0.004634022
     23        1           0.000588051   -0.000036885   -0.000410761
     24        1           0.000139194    0.000107379   -0.000882564
     25        6           0.001044070   -0.000110730   -0.002047022
     26        6           0.000438060   -0.000198685   -0.000878163
     27        1          -0.000030605   -0.000011424    0.000020758
     28        6           0.000496319    0.000056521   -0.000453295
     29        8          -0.000529435    0.000562325    0.001793603
     30        7           0.000712896   -0.000048446   -0.000195200
     31        1           0.000043202   -0.000034572   -0.000259983
     32        1           0.000186071   -0.000206181   -0.000662161
     33        1          -0.000026404    0.000013805    0.000016553
     34        6           0.000271312    0.000037975   -0.000666662
     35        6          -0.001464582    0.000255718    0.001467145
     36        6          -0.002438987    0.000479765    0.002468821
     37        6          -0.001280771   -0.000195613    0.000386007
     38        6          -0.003407704    0.000787459    0.004934848
     39        8          -0.001984146    0.000135789    0.001119600
     40       16           0.000306453    0.000652395   -0.000626678
     41        1           0.000067365   -0.000002985   -0.000098238
     42        1          -0.000022082   -0.000049014   -0.000089711
     43        1          -0.000237409   -0.000442814   -0.000319026
     44        1          -0.000150330    0.000058839    0.000237755
     45        1           0.000323677    0.000231010   -0.000213865
     46        1          -0.000306687    0.000008534    0.000611299
     47        1          -0.000042549    0.000055369    0.000040576
     48        1           0.000024979    0.000020711   -0.000060641
 -------------------------------------------------------------------
 Cartesian Forces:  Max     0.004934848 RMS     0.000862758
 Leave Link  716 at Sat Aug 13 20:21:32 2022, MaxMem=  2684354560 cpu:               0.4 elap:               0.0
 (Enter /storage/apps/GAUSSIAN/G16_RevA03/g16/l103.exe)

 GradGradGradGradGradGradGradGradGradGradGradGradGradGradGradGradGradGrad
 Berny optimization.
 Search for a local minimum.
 Step number   1 out of a maximum of    2
 All quantities printed in internal units (Hartrees-Bohrs-Radians)
 Second derivative matrix not updated -- first step.
 ITU=  0
     Eigenvalues ---    0.00036   0.00097   0.00104   0.00126   0.00186
     Eigenvalues ---    0.00247   0.00313   0.00388   0.00425   0.00457
     Eigenvalues ---    0.00578   0.00731   0.00833   0.00881   0.00923
     Eigenvalues ---    0.01025   0.01090   0.01195   0.01383   0.01512
     Eigenvalues ---    0.01706   0.01903   0.02349   0.02493   0.02618
     Eigenvalues ---    0.02974   0.03199   0.03382   0.03741   0.03848
     Eigenvalues ---    0.04368   0.04625   0.04930   0.05124   0.05263
     Eigenvalues ---    0.05383   0.05526   0.05749   0.05867   0.05881
     Eigenvalues ---    0.06095   0.06160   0.06357   0.06378   0.06701
     Eigenvalues ---    0.06947   0.07517   0.07715   0.07899   0.08067
     Eigenvalues ---    0.08458   0.08745   0.09113   0.09843   0.10285
     Eigenvalues ---    0.10547   0.11693   0.12134   0.12477   0.12585
     Eigenvalues ---    0.13002   0.13107   0.13219   0.13662   0.13707
     Eigenvalues ---    0.13930   0.14049   0.15367   0.15986   0.16621
     Eigenvalues ---    0.16765   0.18606   0.19166   0.19721   0.19822
     Eigenvalues ---    0.20036   0.20911   0.21781   0.21867   0.22236
     Eigenvalues ---    0.24703   0.27106   0.27459   0.28460   0.31102
     Eigenvalues ---    0.32985   0.34175   0.35110   0.35314   0.36929
     Eigenvalues ---    0.38151   0.38151   0.38151   0.38151   0.40288
     Eigenvalues ---    0.43119   0.45274   0.48048   0.56357   0.56710
     Eigenvalues ---    0.61647   0.66487   0.69530   0.69991   0.74276
     Eigenvalues ---    0.78914   0.82450   0.87587   0.89123   0.90991
     Eigenvalues ---    0.91323   0.91879   0.93939   0.94589   0.94857
     Eigenvalues ---    0.96183   0.97258   1.00061   1.01808   1.03027
     Eigenvalues ---    1.05651   1.06877   1.10072   1.11489   1.14373
     Eigenvalues ---    1.19488   1.19982   1.25560   1.26488   1.30177
     Eigenvalues ---    1.33640   1.43835   1.52083   1.63764   1.70349
     Eigenvalues ---    1.79527   2.18495   2.27962
 Quadratic step=4.485D+00 exceeds max=3.000D-01 adjusted using Lamda=-1.484D-02.
 Angle between NR and scaled steps=  54.50 degrees.
 Angle between quadratic step and forces=  48.56 degrees.
 Linear search not attempted -- first point.
 Variable       Old X    -DE/DX   Delta X   Delta X   Delta X     New X
                                 (Linear)    (Quad)   (Total)
    X1        6.80916   0.00024   0.00000  -0.00621  -0.00621   6.80295
    Y1       -6.83591  -0.00010   0.00000   0.00419   0.00419  -6.83172
    Z1       -0.83787   0.00001   0.00000   0.00261   0.00261  -0.83526
    X2        7.08953   0.00001   0.00000  -0.01390  -0.01390   7.07562
    Y2       -7.01802  -0.00001   0.00000   0.00413   0.00413  -7.01388
    Z2       -2.86892  -0.00000   0.00000   0.00205   0.00205  -2.86687
    X3        8.18911  -0.00000   0.00000  -0.00983  -0.00983   8.17927
    Y3       -8.02146  -0.00003   0.00000  -0.00069  -0.00069  -8.02215
    Z3        0.13049   0.00000   0.00000   0.00098   0.00098   0.13147
    X4        3.56355   0.00049   0.00000   0.00610   0.00610   3.56964
    Y4       -2.74090  -0.00018   0.00000  -0.00082  -0.00082  -2.74172
    Z4        2.32834  -0.00016   0.00000   0.00014   0.00014   2.32848
    X5        2.33137   0.00002   0.00000   0.00343   0.00343   2.33481
    Y5       -4.38623  -0.00002   0.00000  -0.00031  -0.00031  -4.38654
    Z5        2.07039   0.00001   0.00000   0.00791   0.00791   2.07830
    X6        2.82914   0.00057   0.00000   0.01283   0.01283   2.84197
    Y6       -1.30312  -0.00033   0.00000  -0.00252  -0.00252  -1.30564
    Z6        4.41691  -0.00008   0.00000   0.00347   0.00347   4.42038
    X7        1.07543   0.00004   0.00000   0.00883   0.00883   1.08426
    Y7       -0.79125  -0.00007   0.00000  -0.00718  -0.00718  -0.79843
    Z7        4.17605   0.00006   0.00000   0.01885   0.01885   4.19490
    X8        6.29949   0.00054   0.00000   0.00741   0.00741   6.30689
    Y8       -3.57200  -0.00009   0.00000   0.00132   0.00132  -3.57068
    Z8        2.65677  -0.00003   0.00000   0.00056   0.00056   2.65733
    X9        6.47653   0.00004   0.00000   0.00396   0.00396   6.48049
    Y9       -5.24626  -0.00001   0.00000   0.00185   0.00185  -5.24441
    Z9        3.85829   0.00000   0.00000   0.00216   0.00216   3.86044
   X10        7.73326   0.00071   0.00000   0.00927   0.00927   7.74253
   Y10       -1.54753  -0.00010   0.00000  -0.00013  -0.00013  -1.54766
   Z10        3.62139   0.00002   0.00000   0.00210   0.00210   3.62349
   X11        6.70670   0.00005   0.00000   0.00904   0.00904   6.71574
   Y11       -0.73457  -0.00003   0.00000  -0.00311  -0.00311  -0.73768
   Z11        4.89354   0.00003   0.00000   0.00482   0.00482   4.89836
   X12        3.71412   0.00036   0.00000   0.00144   0.00144   3.71556
   Y12       -1.25465  -0.00016   0.00000  -0.00197  -0.00197  -1.25662
   Z12       -0.16655  -0.00024   0.00000  -0.00310  -0.00310  -0.16965
   X13        4.28681   0.00005   0.00000  -0.00835  -0.00835   4.27846
   Y13        0.69141  -0.00001   0.00000   0.00011   0.00011   0.69152
   Z13        0.24130  -0.00003   0.00000   0.00293   0.00293   0.24424
   X14        7.11640   0.00057   0.00000   0.00677   0.00677   7.12317
   Y14       -4.09708  -0.00005   0.00000   0.00239   0.00239  -4.09470
   Z14       -0.05501   0.00000   0.00000   0.00139   0.00139  -0.05362
   X15        9.07049   0.00005   0.00000   0.00706   0.00706   9.07754
   Y15       -3.48432  -0.00003   0.00000  -0.00079  -0.00079  -3.48511
   Z15       -0.29819  -0.00001   0.00000   0.00371   0.00371  -0.29449
   X16        5.54842   0.00105   0.00000   0.01253   0.01253   5.56094
   Y16       -2.52955   0.00010   0.00000   0.00725   0.00725  -2.52230
   Z16       -1.61573  -0.00005   0.00000   0.00092   0.00092  -1.61481
   X17        1.39738   0.00069   0.00000   0.00425   0.00425   1.40163
   Y17       -1.13251  -0.00022   0.00000  -0.00548  -0.00548  -1.13800
   Z17       -1.58904  -0.00068   0.00000  -0.01309  -0.01309  -1.60214
   X18        0.35174  -0.00037   0.00000  -0.00843  -0.00843   0.34331
   Y18       -3.35729  -0.00033   0.00000  -0.00714  -0.00714  -3.36443
   Z18       -2.53155   0.00057   0.00000   0.00334   0.00334  -2.52822
   X19        1.46340  -0.00019   0.00000  -0.02722  -0.02722   1.43618
   Y19       -5.03663  -0.00006   0.00000  -0.01195  -0.01195  -5.04858
   Z19       -2.19540   0.00026   0.00000   0.03602   0.03602  -2.15938
   X20       -1.78649   0.00030   0.00000   0.00348   0.00348  -1.78301
   Y20       -3.40370  -0.00038   0.00000  -0.00492  -0.00492  -3.40862
   Z20       -3.84689  -0.00041   0.00000  -0.01769  -0.01769  -3.86458
   X21       -2.44336  -0.00003   0.00000  -0.01269  -0.01269  -2.45605
   Y21       -5.19650  -0.00005   0.00000  -0.00898  -0.00898  -5.20548
   Z21       -4.57582   0.00014   0.00000   0.00963   0.00963  -4.56619
   X22       -3.29429   0.00211   0.00000   0.02789   0.02789  -3.26640
   Y22       -1.06812   0.00004   0.00000   0.00063   0.00063  -1.06750
   Z22       -4.40005  -0.00463   0.00000  -0.06501  -0.06501  -4.46506
   X23       -3.70571   0.00059   0.00000   0.03684   0.03684  -3.66887
   Y23       -0.95110  -0.00004   0.00000  -0.00284  -0.00284  -0.95395
   Z23       -6.42860  -0.00041   0.00000  -0.06386  -0.06386  -6.49246
   X24       -5.14977   0.00014   0.00000   0.02038   0.02038  -5.12939
   Y24       -1.20377   0.00011   0.00000   0.01479   0.01479  -1.18898
   Z24       -3.48803  -0.00088   0.00000  -0.07202  -0.07202  -3.56005
   X25       -1.88307   0.00104   0.00000   0.01981   0.01981  -1.86326
   Y25        1.25258  -0.00011   0.00000  -0.00256  -0.00256   1.25002
   Z25       -3.54458  -0.00205   0.00000  -0.04413  -0.04413  -3.58871
   X26        0.29832   0.00044   0.00000   0.00783   0.00783   0.30614
   Y26        1.09948  -0.00020   0.00000  -0.00564  -0.00564   1.09383
   Z26       -2.25070  -0.00088   0.00000  -0.02308  -0.02308  -2.27377
   X27        1.25773  -0.00003   0.00000  -0.00859  -0.00859   1.24914
   Y27        2.81414  -0.00001   0.00000  -0.00471  -0.00471   2.80943
   Z27       -1.67149   0.00002   0.00000   0.00339   0.00339  -1.66809
   X28       -2.83314   0.00050   0.00000  -0.00479  -0.00479  -2.83793
   Y28        3.81449   0.00006   0.00000   0.00048   0.00048   3.81497
   Z28       -4.11605  -0.00045   0.00000   0.00629   0.00629  -4.10975
   X29       -1.60431  -0.00053   0.00000  -0.03598  -0.03598  -1.64029
   Y29        5.73746   0.00056   0.00000   0.01004   0.01004   5.74750
   Z29       -3.82691   0.00179   0.00000   0.07558   0.07558  -3.75134
   X30       -5.25246   0.00071   0.00000  -0.00638  -0.00638  -5.25884
   Y30        3.90489  -0.00005   0.00000  -0.00195  -0.00195   3.90294
   Z30       -5.03801  -0.00020   0.00000   0.00961   0.00961  -5.02839
   X31       -6.01098   0.00004   0.00000  -0.02171  -0.02171  -6.03269
   Y31        5.62790  -0.00003   0.00000  -0.00228  -0.00228   5.62562
   Z31       -5.30151  -0.00026   0.00000   0.04733   0.04733  -5.25418
   X32       -6.40150   0.00019   0.00000   0.00316   0.00316  -6.39834
   Y32        2.39603  -0.00021   0.00000  -0.01043  -0.01043   2.38560
   Z32       -4.97929  -0.00066   0.00000  -0.01420  -0.01420  -4.99349
   X33        4.92128  -0.00003   0.00000  -0.00882  -0.00882   4.91245
   Y33       -7.53266   0.00001   0.00000   0.01337   0.01337  -7.51929
   Z33       -0.37667   0.00002   0.00000   0.00862   0.00862  -0.36805
   X34        0.38023   0.00027   0.00000   0.02446   0.02446   0.40469
   Y34        4.15825   0.00004   0.00000   0.00067   0.00067   4.15892
   Z34        5.34450  -0.00067   0.00000  -0.02781  -0.02781   5.31669
   X35       -3.08393  -0.00146   0.00000  -0.03599  -0.03599  -3.11993
   Y35        1.72491   0.00026   0.00000   0.00226   0.00226   1.72718
   Z35        2.39272   0.00147   0.00000   0.04342   0.04342   2.43614
   X36       -5.45539  -0.00244   0.00000  -0.04074  -0.04074  -5.49614
   Y36        1.63654   0.00048   0.00000   0.00831   0.00831   1.64486
   Z36        0.94260   0.00247   0.00000   0.05426   0.05426   0.99687
   X37       -9.08089  -0.00128   0.00000   0.00541   0.00541  -9.07548
   Y37       -0.80373  -0.00020   0.00000  -0.00809  -0.00809  -0.81183
   Z37       -0.81528   0.00039   0.00000  -0.02269  -0.02269  -0.83797
   X38       -6.52952  -0.00341   0.00000  -0.03789  -0.03789  -6.56741
   Y38       -0.55866   0.00079   0.00000   0.00523   0.00523  -0.55343
   Z38        0.36182   0.00493   0.00000   0.06336   0.06336   0.42518
   X39       -1.85892  -0.00198   0.00000  -0.06525  -0.06525  -1.92416
   Y39       -0.13792   0.00014   0.00000  -0.00859  -0.00859  -0.14651
   Z39        2.95003   0.00112   0.00000   0.06994   0.06994   3.01998
   X40       -2.31429   0.00031   0.00000   0.04714   0.04714  -2.26715
   Y40        4.79554   0.00065   0.00000   0.01331   0.01331   4.80885
   Z40        3.37808  -0.00063   0.00000  -0.05771  -0.05771   3.32037
   X41        0.84051   0.00007   0.00000   0.02157   0.02157   0.86208
   Y41        5.92569  -0.00000   0.00000  -0.00242  -0.00242   5.92327
   Z41        6.28646  -0.00010   0.00000  -0.01979  -0.01979   6.26667
   X42        1.98082  -0.00002   0.00000   0.03444   0.03444   2.01526
   Y42        3.53234  -0.00005   0.00000  -0.00658  -0.00658   3.52576
   Z42        4.21880  -0.00009   0.00000  -0.00828  -0.00828   4.21053
   X43      -10.46322  -0.00024   0.00000  -0.03155  -0.03155 -10.49478
   Y43       -1.29249  -0.00044   0.00000  -0.03675  -0.03675  -1.32925
   Z43        0.64048  -0.00032   0.00000  -0.07077  -0.07077   0.56970
   X44       -9.68643  -0.00015   0.00000   0.02291   0.02291  -9.66352
   Y44        0.96464   0.00006   0.00000  -0.00382  -0.00382   0.96082
   Z44       -1.68321   0.00024   0.00000  -0.02645  -0.02645  -1.70966
   X45       -9.14286   0.00032   0.00000   0.07029   0.07029  -9.07257
   Y45       -2.30960   0.00023   0.00000   0.00763   0.00763  -2.30197
   Z45       -2.22153  -0.00021   0.00000  -0.04319  -0.04319  -2.26472
   X46       -5.52788  -0.00031   0.00000  -0.03051  -0.03051  -5.55839
   Y46       -2.27828   0.00001   0.00000   0.01006   0.01006  -2.26821
   Z46        0.87023   0.00061   0.00000   0.06897   0.06897   0.93920
   X47       -6.33925  -0.00004   0.00000  -0.01131  -0.01131  -6.35056
   Y47        3.42731   0.00006   0.00000   0.01035   0.01035   3.43766
   Z47        0.48154   0.00004   0.00000   0.00983   0.00983   0.49137
   X48       -0.09060   0.00002   0.00000   0.00557   0.00557  -0.08503
   Y48        2.72626   0.00002   0.00000   0.00375   0.00375   2.73002
   Z48        6.74263  -0.00006   0.00000  -0.02965  -0.02965   6.71298
         Item               Value     Threshold  Converged?
 Maximum Force            0.004935     0.000450     NO 
 RMS     Force            0.000863     0.000300     NO 
 Maximum Displacement     0.075576     0.001800     NO 
 RMS     Displacement     0.025006     0.001200     NO 
 Predicted change in Energy=-1.696372D-03
 GradGradGradGradGradGradGradGradGradGradGradGradGradGradGradGradGradGrad

 Leave Link  103 at Sat Aug 13 20:21:33 2022, MaxMem=  2684354560 cpu:               0.9 elap:               0.1
 (Enter /storage/apps/GAUSSIAN/G16_RevA03/g16/l9999.exe)

 Test job not archived.
 1\1\GINC-T075\Force\RM062X\def2TZVP\C16H24N2O5S1\LV87696\13-Aug-2022\0
 \\#P M062X/Def2TZVP scf=(direct,conver=8) EmpiricalDispersion=GD3 Forc
 e Charge Prop=(Field,Read)\\Gaussian run\\0,1\C,3.603253,-3.617409,-0.
 443383\H,3.751616,-3.713774,-1.518165\H,4.333488,-4.244774,0.06905\C,1
 .885747,-1.450424,1.232105\H,1.23371,-2.321095,1.095602\O,1.497115,-0.
 689581,2.337329\H,0.569093,-0.418711,2.209873\C,3.333545,-1.890223,1.4
 05902\H,3.427232,-2.776201,2.041717\O,4.092264,-0.81892,1.916355\H,3.5
 49031,-0.388718,2.589551\C,1.965428,-0.663933,-0.088135\H,2.268483,0.3
 65876,0.127693\C,3.765836,-2.168084,-0.029112\H,4.799896,-1.843823,-0.
 157796\O,2.936097,-1.338581,-0.855007\N,0.739463,-0.599301,-0.840885\C
 ,0.186135,-1.776603,-1.339641\H,0.774399,-2.665272,-1.161758\C,-0.9453
 69,-1.801158,-2.035687\H,-1.292969,-2.749869,-2.42142\C,-1.743262,-0.5
 65226,-2.328407\H,-1.960977,-0.503302,-3.401866\H,-2.725141,-0.637006,
 -1.845785\C,-0.996477,0.662836,-1.87571\C,0.157863,0.581818,-1.191017\
 H,0.665561,1.489179,-0.884512\C,-1.499232,2.018541,-2.178119\O,-0.8489
 64,3.036134,-2.025115\N,-2.779482,2.066378,-2.665999\H,-3.180873,2.978
 159,-2.805437\H,-3.387528,1.267925,-2.634928\H,2.604227,-3.986112,-0.1
 99325\C,0.20121,2.200452,2.828185\C,-1.631947,0.912785,1.266175\C,-2.8
 8687,0.866022,0.498805\C,-4.805399,-0.425318,-0.431425\C,-3.455273,-0.
 295632,0.191466\O,-0.983696,-0.072984,1.561091\S,-1.224672,2.53769,1.7
 87601\H,0.444781,3.13574,3.326652\H,1.048206,1.869234,2.232494\H,-5.53
 6899,-0.683958,0.338926\H,-5.125837,0.510464,-0.890716\H,-4.838192,-1.
 222186,-1.175582\H,-2.92523,-1.205612,0.460506\H,-3.354589,1.813654,0.
 254818\H,-0.047941,1.442677,3.568047\\Version=ES64L-G16RevA.03\State=1
 -A\HF=-1507.9278489\RMSD=1.473e-09\RMSF=8.628e-04\Dipole=-1.9002985,-1
 .1575259,0.463153\Quadrupole=7.0832358,-2.2537573,-4.8294785,-2.919605
 ,6.1904608,7.8962114\PG=C01 [X(C16H24N2O5S1)]\\@


 ON INDUCTION, OR "WHY DO YOU BELIEVE THE SUN WILL RISE TOMORROW?":

 ... THE FARMER WHO HAS FED THE CHICKEN EVERY DAY THROUGHOUT ITS
 LIFE AT LAST WRINGS ITS NECK INSTEAD, SHOWING THAT MORE REFINED VIEWS
 AS TO THE UNIFORMITY OF NATURE WOULD HAVE BEEN USEFUL TO THE CHICKEN.

                               -- BERTRAND RUSSELL
 Job cpu time:       0 days  3 hours 15 minutes 17.9 seconds.
 Elapsed time:       0 days  0 hours 12 minutes 14.1 seconds.
 File lengths (MBytes):  RWF=    435 Int=      0 D2E=      0 Chk=     48 Scr=      1
 Normal termination of Gaussian 16 at Sat Aug 13 20:21:33 2022.
