 Entering Gaussian System, Link 0=g16
 Initial command:
 /storage/apps/GAUSSIAN/G16_RevA03/g16/l1.exe "/scratch/tmp/1019183/Gau-103133.inp" -scrdir="/scratch/tmp/1019183/"
 Entering Link 1 = /storage/apps/GAUSSIAN/G16_RevA03/g16/l1.exe PID=    103137.
  
 Copyright (c) 1988,1990,1992,1993,1995,1998,2003,2009,2016,
            Gaussian, Inc.  All Rights Reserved.
  
 This is part of the Gaussian(R) 16 program.  It is based on
 the Gaussian(R) 09 system (copyright 2009, Gaussian, Inc.),
 the Gaussian(R) 03 system (copyright 2003, Gaussian, Inc.),
 the Gaussian(R) 98 system (copyright 1998, Gaussian, Inc.),
 the Gaussian(R) 94 system (copyright 1995, Gaussian, Inc.),
 the Gaussian 92(TM) system (copyright 1992, Gaussian, Inc.),
 the Gaussian 90(TM) system (copyright 1990, Gaussian, Inc.),
 the Gaussian 88(TM) system (copyright 1988, Gaussian, Inc.),
 the Gaussian 86(TM) system (copyright 1986, Carnegie Mellon
 University), and the Gaussian 82(TM) system (copyright 1983,
 Carnegie Mellon University). Gaussian is a federally registered
 trademark of Gaussian, Inc.
  
 This software contains proprietary and confidential information,
 including trade secrets, belonging to Gaussian, Inc.
  
 This software is provided under written license and may be
 used, copied, transmitted, or stored only in accord with that
 written license.
  
 The following legend is applicable only to US Government
 contracts under FAR:
  
                    RESTRICTED RIGHTS LEGEND
  
 Use, reproduction and disclosure by the US Government is
 subject to restrictions as set forth in subparagraphs (a)
 and (c) of the Commercial Computer Software - Restricted
 Rights clause in FAR 52.227-19.
  
 Gaussian, Inc.
 340 Quinnipiac St., Bldg. 40, Wallingford CT 06492
  
  
 ---------------------------------------------------------------
 Warning -- This program may not be used in any manner that
 competes with the business of Gaussian, Inc. or will provide
 assistance to any competitor of Gaussian, Inc.  The licensee
 of this program is prohibited from giving any competitor of
 Gaussian, Inc. access to this program.  By using this program,
 the user acknowledges that Gaussian, Inc. is engaged in the
 business of creating and licensing software in the field of
 computational chemistry and represents and warrants to the
 licensee that it is not a competitor of Gaussian, Inc. and that
 it will not use this program in any manner prohibited above.
 ---------------------------------------------------------------
  

 Cite this work as:
 Gaussian 16, Revision A.03,
 M. J. Frisch, G. W. Trucks, H. B. Schlegel, G. E. Scuseria, 
 M. A. Robb, J. R. Cheeseman, G. Scalmani, V. Barone, 
 G. A. Petersson, H. Nakatsuji, X. Li, M. Caricato, A. V. Marenich, 
 J. Bloino, B. G. Janesko, R. Gomperts, B. Mennucci, H. P. Hratchian, 
 J. V. Ortiz, A. F. Izmaylov, J. L. Sonnenberg, D. Williams-Young, 
 F. Ding, F. Lipparini, F. Egidi, J. Goings, B. Peng, A. Petrone, 
 T. Henderson, D. Ranasinghe, V. G. Zakrzewski, J. Gao, N. Rega, 
 G. Zheng, W. Liang, M. Hada, M. Ehara, K. Toyota, R. Fukuda, 
 J. Hasegawa, M. Ishida, T. Nakajima, Y. Honda, O. Kitao, H. Nakai, 
 T. Vreven, K. Throssell, J. A. Montgomery, Jr., J. E. Peralta, 
 F. Ogliaro, M. J. Bearpark, J. J. Heyd, E. N. Brothers, K. N. Kudin, 
 V. N. Staroverov, T. A. Keith, R. Kobayashi, J. Normand, 
 K. Raghavachari, A. P. Rendell, J. C. Burant, S. S. Iyengar, 
 J. Tomasi, M. Cossi, J. M. Millam, M. Klene, C. Adamo, R. Cammi, 
 J. W. Ochterski, R. L. Martin, K. Morokuma, O. Farkas, 
 J. B. Foresman, and D. J. Fox, Gaussian, Inc., Wallingford CT, 2016.
 
 ******************************************
 Gaussian 16:  ES64L-G16RevA.03 25-Dec-2016
                13-Aug-2022 
 ******************************************
 %NProcShared=16
 Will use up to   16 processors via shared memory.
 %mem=20GB
 ----------------------------------------------------------------------
 #P M062X/Def2TZVP scf=(direct,conver=8) EmpiricalDispersion=GD3 Force 
 Charge Prop=(Field,Read)
 ----------------------------------------------------------------------
 1/10=7,18=10,28=-2,30=1,38=1,125=101/1,3;
 2/12=2,17=6,18=5,29=2,40=1/2;
 3/5=44,7=101,11=2,25=1,30=1,71=1,74=-55,124=31/1,2,3;
 4//1;
 5/5=2,6=8,38=5/2;
 6/7=2,8=2,9=2,10=2,14=2,15=1,28=1/1,2;
 7/7=1,16=-2,29=1/1,2,3,16;
 1/10=7,18=10,28=-2,30=1/3;
 99/12=1/99;
 Leave Link    1 at Sat Aug 13 20:09:18 2022, MaxMem=  2684354560 cpu:               0.6 elap:               0.0
 (Enter /storage/apps/GAUSSIAN/G16_RevA03/g16/l101.exe)
 ------------
 Gaussian run
 ------------
 Symbolic Z-matrix:
 Charge =  0 Multiplicity = 1
 C                     3.60252  -3.61709  -0.44345 
 H                     3.75093  -3.71324  -1.51826 
 H                     4.3334   -4.24382   0.06883 
 C                     1.88405  -1.44981   1.23251 
 H                     1.2317   -2.32023   1.09546 
 O                     1.49552  -0.6887    2.33733 
 H                     0.56776  -0.41684   2.209 
 C                     3.33168  -1.88991   1.40605 
 H                     3.42544  -2.77587   2.04187 
 O                     4.09052  -0.81857   1.91625 
 H                     3.54714  -0.38802   2.58913 
 C                     1.96423  -0.66346  -0.08745 
 H                     2.26793   0.36622   0.12809 
 C                     3.76395  -2.16773  -0.02905 
 H                     4.79774  -1.84266  -0.1578 
 O                     2.93353  -1.33883  -0.85499 
 N                     0.73755  -0.59866  -0.83888 
 C                     0.18724  -1.77565  -1.34158 
 H                     0.78032  -2.66258  -1.17129 
 C                    -0.94622  -1.79987  -2.03442 
 H                    -1.29139  -2.74677  -2.42665 
 C                    -1.75027  -0.56539  -2.31232 
 H                    -1.98433  -0.50175  -3.38308 
 H                    -2.72478  -0.64066  -1.81626 
 C                    -1.00003   0.66326  -1.86911 
 C                     0.15665   0.5826   -1.18796 
 H                     0.66694   1.48966  -0.88493 
 C                    -1.50078   2.0183   -2.17674 
 O                    -0.84761   3.03465  -2.0293 
 N                    -2.78137   2.06671  -2.66563 
 H                    -3.1823    2.98021  -2.79615 
 H                    -3.39523   1.27387  -2.60963 
 H                     2.60386  -3.98674  -0.19928 
 C                     0.20029   2.2003    2.83019 
 C                    -1.6274    0.91186   1.2616 
 C                    -2.8791    0.86376   0.49062 
 C                    -4.80158  -0.42479  -0.43257 
 C                    -3.44356  -0.2979    0.1745 
 O                    -0.97902  -0.07337   1.55862 
 S                    -1.22498   2.53704   1.78843 
 H                     0.44244   3.1354    3.32972 
 H                     1.04815   1.87063   2.23487 
 H                    -5.52466  -0.66521   0.35131 
 H                    -5.12061   0.5079   -0.89928 
 H                    -4.85189  -1.23064  -1.16553 
 H                    -2.91058  -1.20827   0.43505 
 H                    -3.35294   1.81074   0.25605 
 H                    -0.04855   1.44158   3.56917 
 
 ITRead=  0  0  0  0  0  0  0  0  0  0  0  0  0  0  0  0  0  0  0  0
 ITRead=  0  0  0  0  0  0  0  0  0  0  0  0  0  0  0  0  0  0  0  0
 ITRead=  0  0  0  0  0  0  0  0
 MicOpt= -1 -1 -1 -1 -1 -1 -1 -1 -1 -1 -1 -1 -1 -1 -1 -1 -1 -1 -1 -1
 MicOpt= -1 -1 -1 -1 -1 -1 -1 -1 -1 -1 -1 -1 -1 -1 -1 -1 -1 -1 -1 -1
 MicOpt= -1 -1 -1 -1 -1 -1 -1 -1
 NAtoms=     48 NQM=       48 NQMF=       0 NMMI=      0 NMMIF=      0
                NMic=       0 NMicF=      0.
                    Isotopes and Nuclear Properties:
 (Nuclear quadrupole moments (NQMom) in fm**2, nuclear magnetic moments (NMagM)
  in nuclear magnetons)

  Atom         1           2           3           4           5           6           7           8           9          10
 IAtWgt=          12           1           1          12           1          16           1          12           1          16
 AtmWgt=  12.0000000   1.0078250   1.0078250  12.0000000   1.0078250  15.9949146   1.0078250  12.0000000   1.0078250  15.9949146
 NucSpn=           0           1           1           0           1           0           1           0           1           0
 AtZEff=  -0.0000000  -0.0000000  -0.0000000  -0.0000000  -0.0000000  -0.0000000  -0.0000000  -0.0000000  -0.0000000  -0.0000000
 NQMom=    0.0000000   0.0000000   0.0000000   0.0000000   0.0000000   0.0000000   0.0000000   0.0000000   0.0000000   0.0000000
 NMagM=    0.0000000   2.7928460   2.7928460   0.0000000   2.7928460   0.0000000   2.7928460   0.0000000   2.7928460   0.0000000
 AtZNuc=   6.0000000   1.0000000   1.0000000   6.0000000   1.0000000   8.0000000   1.0000000   6.0000000   1.0000000   8.0000000

  Atom        11          12          13          14          15          16          17          18          19          20
 IAtWgt=           1          12           1          12           1          16          14          12           1          12
 AtmWgt=   1.0078250  12.0000000   1.0078250  12.0000000   1.0078250  15.9949146  14.0030740  12.0000000   1.0078250  12.0000000
 NucSpn=           1           0           1           0           1           0           2           0           1           0
 AtZEff=  -0.0000000  -0.0000000  -0.0000000  -0.0000000  -0.0000000  -0.0000000  -0.0000000  -0.0000000  -0.0000000  -0.0000000
 NQMom=    0.0000000   0.0000000   0.0000000   0.0000000   0.0000000   0.0000000   2.0440000   0.0000000   0.0000000   0.0000000
 NMagM=    2.7928460   0.0000000   2.7928460   0.0000000   2.7928460   0.0000000   0.4037610   0.0000000   2.7928460   0.0000000
 AtZNuc=   1.0000000   6.0000000   1.0000000   6.0000000   1.0000000   8.0000000   7.0000000   6.0000000   1.0000000   6.0000000

  Atom        21          22          23          24          25          26          27          28          29          30
 IAtWgt=           1          12           1           1          12          12           1          12          16          14
 AtmWgt=   1.0078250  12.0000000   1.0078250   1.0078250  12.0000000  12.0000000   1.0078250  12.0000000  15.9949146  14.0030740
 NucSpn=           1           0           1           1           0           0           1           0           0           2
 AtZEff=  -0.0000000  -0.0000000  -0.0000000  -0.0000000  -0.0000000  -0.0000000  -0.0000000  -0.0000000  -0.0000000  -0.0000000
 NQMom=    0.0000000   0.0000000   0.0000000   0.0000000   0.0000000   0.0000000   0.0000000   0.0000000   0.0000000   2.0440000
 NMagM=    2.7928460   0.0000000   2.7928460   2.7928460   0.0000000   0.0000000   2.7928460   0.0000000   0.0000000   0.4037610
 AtZNuc=   1.0000000   6.0000000   1.0000000   1.0000000   6.0000000   6.0000000   1.0000000   6.0000000   8.0000000   7.0000000

  Atom        31          32          33          34          35          36          37          38          39          40
 IAtWgt=           1           1           1          12          12          12          12          12          16          32
 AtmWgt=   1.0078250   1.0078250   1.0078250  12.0000000  12.0000000  12.0000000  12.0000000  12.0000000  15.9949146  31.9720718
 NucSpn=           1           1           1           0           0           0           0           0           0           0
 AtZEff=  -0.0000000  -0.0000000  -0.0000000  -0.0000000  -0.0000000  -0.0000000  -0.0000000  -0.0000000  -0.0000000  -0.0000000
 NQMom=    0.0000000   0.0000000   0.0000000   0.0000000   0.0000000   0.0000000   0.0000000   0.0000000   0.0000000   0.0000000
 NMagM=    2.7928460   2.7928460   2.7928460   0.0000000   0.0000000   0.0000000   0.0000000   0.0000000   0.0000000   0.0000000
 AtZNuc=   1.0000000   1.0000000   1.0000000   6.0000000   6.0000000   6.0000000   6.0000000   6.0000000   8.0000000  16.0000000

  Atom        41          42          43          44          45          46          47          48
 IAtWgt=           1           1           1           1           1           1           1           1
 AtmWgt=   1.0078250   1.0078250   1.0078250   1.0078250   1.0078250   1.0078250   1.0078250   1.0078250
 NucSpn=           1           1           1           1           1           1           1           1
 AtZEff=  -0.0000000  -0.0000000  -0.0000000  -0.0000000  -0.0000000  -0.0000000  -0.0000000  -0.0000000
 NQMom=    0.0000000   0.0000000   0.0000000   0.0000000   0.0000000   0.0000000   0.0000000   0.0000000
 NMagM=    2.7928460   2.7928460   2.7928460   2.7928460   2.7928460   2.7928460   2.7928460   2.7928460
 AtZNuc=   1.0000000   1.0000000   1.0000000   1.0000000   1.0000000   1.0000000   1.0000000   1.0000000
 Background charge distribution read from input stream:
 Leave Link  101 at Sat Aug 13 20:09:18 2022, MaxMem=  2684354560 cpu:               1.7 elap:               0.1
 (Enter /storage/apps/GAUSSIAN/G16_RevA03/g16/l103.exe)

 GradGradGradGradGradGradGradGradGradGradGradGradGradGradGradGradGradGrad
 Berny optimization.
 Initialization pass.
 Trust Radius=3.00D-01 FncErr=1.00D-07 GrdErr=1.00D-07 EigMax=2.50D+02 EigMin=1.00D-04
 Number of steps in this run=      2 maximum allowed number of steps=      2.
 GradGradGradGradGradGradGradGradGradGradGradGradGradGradGradGradGradGrad

 Leave Link  103 at Sat Aug 13 20:09:18 2022, MaxMem=  2684354560 cpu:               0.4 elap:               0.1
 (Enter /storage/apps/GAUSSIAN/G16_RevA03/g16/l202.exe)
 ---------------------------------------------------------------------------------------------------
                            Z-MATRIX (ANGSTROMS AND DEGREES)
   CD    Cent   Atom    N1       Length/X        N2       Alpha/Y        N3        Beta/Z          J
 ---------------------------------------------------------------------------------------------------
      1      1  C        0   3.602518         -3.617094         -0.443451
      2      2  H        0   3.750930         -3.713237         -1.518257
      3      3  H        0   4.333398         -4.243821          0.068830
      4      4  C        0   1.884045         -1.449807          1.232512
      5      5  H        0   1.231697         -2.320233          1.095460
      6      6  O        0   1.495522         -0.688702          2.337331
      7      7  H        0   0.567761         -0.416843          2.209004
      8      8  C        0   3.331681         -1.889911          1.406049
      9      9  H        0   3.425439         -2.775871          2.041866
     10     10  O        0   4.090516         -0.818574          1.916251
     11     11  H        0   3.547143         -0.388018          2.589127
     12     12  C        0   1.964230         -0.663457         -0.087452
     13     13  H        0   2.267932          0.366217          0.128090
     14     14  C        0   3.763946         -2.167727         -0.029052
     15     15  H        0   4.797740         -1.842660         -0.157801
     16     16  O        0   2.933528         -1.338829         -0.854992
     17     17  N        0   0.737552         -0.598658         -0.838883
     18     18  C        0   0.187242         -1.775648         -1.341578
     19     19  H        0   0.780317         -2.662577         -1.171292
     20     20  C        0  -0.946216         -1.799871         -2.034418
     21     21  H        0  -1.291385         -2.746772         -2.426651
     22     22  C        0  -1.750271         -0.565392         -2.312322
     23     23  H        0  -1.984332         -0.501749         -3.383080
     24     24  H        0  -2.724776         -0.640658         -1.816261
     25     25  C        0  -1.000029          0.663260         -1.869105
     26     26  C        0   0.156645          0.582604         -1.187960
     27     27  H        0   0.666943          1.489657         -0.884928
     28     28  C        0  -1.500776          2.018302         -2.176736
     29     29  O        0  -0.847614          3.034652         -2.029297
     30     30  N        0  -2.781365          2.066709         -2.665632
     31     31  H        0  -3.182304          2.980206         -2.796150
     32     32  H        0  -3.395234          1.273867         -2.609630
     33     33  H        0   2.603864         -3.986737         -0.199280
     34     34  C        0   0.200294          2.200303          2.830188
     35     35  C        0  -1.627396          0.911861          1.261597
     36     36  C        0  -2.879098          0.863760          0.490616
     37     37  C        0  -4.801577         -0.424786         -0.432573
     38     38  C        0  -3.443560         -0.297895          0.174501
     39     39  O        0  -0.979023         -0.073367          1.558622
     40     40  S        0  -1.224977          2.537044          1.788426
     41     41  H        0   0.442436          3.135400          3.329716
     42     42  H        0   1.048148          1.870633          2.234871
     43     43  H        0  -5.524661         -0.665206          0.351307
     44     44  H        0  -5.120614          0.507900         -0.899278
     45     45  H        0  -4.851892         -1.230643         -1.165528
     46     46  H        0  -2.910576         -1.208265          0.435050
     47     47  H        0  -3.352938          1.810738          0.256046
     48     48  H        0  -0.048545          1.441581          3.569174
 ---------------------------------------------------------------------------------------------------
                         Z-Matrix orientation:                         
 ---------------------------------------------------------------------
 Center     Atomic      Atomic             Coordinates (Angstroms)
 Number     Number       Type             X           Y           Z
 ---------------------------------------------------------------------
      1          6           0        3.602518   -3.617094   -0.443451
      2          1           0        3.750930   -3.713237   -1.518257
      3          1           0        4.333398   -4.243821    0.068830
      4          6           0        1.884045   -1.449807    1.232512
      5          1           0        1.231697   -2.320233    1.095460
      6          8           0        1.495522   -0.688702    2.337331
      7          1           0        0.567761   -0.416843    2.209004
      8          6           0        3.331681   -1.889911    1.406049
      9          1           0        3.425439   -2.775871    2.041866
     10          8           0        4.090516   -0.818574    1.916251
     11          1           0        3.547143   -0.388018    2.589127
     12          6           0        1.964230   -0.663457   -0.087452
     13          1           0        2.267932    0.366217    0.128090
     14          6           0        3.763946   -2.167727   -0.029052
     15          1           0        4.797740   -1.842660   -0.157801
     16          8           0        2.933528   -1.338829   -0.854992
     17          7           0        0.737552   -0.598658   -0.838883
     18          6           0        0.187242   -1.775648   -1.341578
     19          1           0        0.780317   -2.662577   -1.171292
     20          6           0       -0.946216   -1.799871   -2.034418
     21          1           0       -1.291385   -2.746772   -2.426651
     22          6           0       -1.750271   -0.565392   -2.312322
     23          1           0       -1.984332   -0.501749   -3.383080
     24          1           0       -2.724776   -0.640658   -1.816261
     25          6           0       -1.000029    0.663260   -1.869105
     26          6           0        0.156645    0.582604   -1.187960
     27          1           0        0.666943    1.489657   -0.884928
     28          6           0       -1.500776    2.018302   -2.176736
     29          8           0       -0.847614    3.034652   -2.029297
     30          7           0       -2.781365    2.066709   -2.665632
     31          1           0       -3.182304    2.980206   -2.796150
     32          1           0       -3.395234    1.273867   -2.609630
     33          1           0        2.603864   -3.986737   -0.199280
     34          6           0        0.200294    2.200303    2.830188
     35          6           0       -1.627396    0.911861    1.261597
     36          6           0       -2.879098    0.863760    0.490616
     37          6           0       -4.801577   -0.424786   -0.432573
     38          6           0       -3.443560   -0.297895    0.174501
     39          8           0       -0.979023   -0.073367    1.558622
     40         16           0       -1.224977    2.537044    1.788426
     41          1           0        0.442436    3.135400    3.329716
     42          1           0        1.048148    1.870633    2.234871
     43          1           0       -5.524661   -0.665206    0.351307
     44          1           0       -5.120614    0.507900   -0.899278
     45          1           0       -4.851892   -1.230643   -1.165528
     46          1           0       -2.910576   -1.208265    0.435050
     47          1           0       -3.352938    1.810738    0.256046
     48          1           0       -0.048545    1.441581    3.569174
 ---------------------------------------------------------------------
                    Distance matrix (angstroms):
                    1          2          3          4          5
     1  C    0.000000
     2  H    1.089255   0.000000
     3  H    1.090598   1.771901   0.000000
     4  C    3.234058   4.021829   3.893584   0.000000
     5  H    3.109805   3.888253   3.791399   1.096350   0.000000
     6  O    4.554960   5.394463   5.083159   1.396730   2.067303
     7  H    5.146540   5.906882   5.779803   1.937306   2.302973
     8  C    2.545027   3.471578   2.886604   1.522976   2.166004
     9  H    2.629793   3.695819   2.621476   2.188469   2.432241
    10  O    3.692973   4.504469   3.899266   2.394675   3.331895
    11  H    4.430184   5.288593   4.673041   2.394514   3.365381
    12  C    3.396277   3.813221   4.296090   1.538532   2.163514
    13  H    4.239640   4.642379   5.051941   2.159875   3.037532
    14  C    1.516064   2.146276   2.154999   2.375075   2.774900
    15  H    2.158418   2.538840   2.456125   3.252218   3.809908
    16  O    2.409856   2.597283   3.354409   2.339103   2.768329
    17  N    4.180353   4.386639   5.200122   2.515865   2.636225
    18  C    3.982671   4.060214   5.027100   3.100202   2.706772
    19  H    3.066867   3.169986   4.081987   2.909863   2.336473
    20  C    5.150190   5.098095   6.186345   4.336560   3.848405
    21  H    5.351713   5.213845   6.332990   5.015471   4.353521
    22  C    6.438782   6.387698   7.497450   5.153280   4.856396
    23  H    7.039864   6.832602   8.113723   6.096462   5.805777
    24  H    7.125898   7.173863   8.145807   5.584888   5.191606
    25  C    6.444948   6.469036   7.502032   4.733177   4.761352
    26  C    5.483229   5.610903   6.505318   3.601845   3.846584
    27  H    5.906895   6.081298   6.872068   3.821693   4.330837
    28  C    7.797793   7.801574   8.848409   5.925181   6.082480
    29  O    8.158695   8.181795   9.177210   6.181564   6.539299
    30  N    8.831629   8.797450   9.895450   7.023351   7.035321
    31  H    9.751583   9.721364  10.811126   7.843661   7.919766
    32  H    8.808085   8.782366   9.866650   7.074690   6.932080
    33  H    1.092504   1.769255   1.768972   3.000697   2.517227
    34  C    7.492259   8.153891   8.138451   4.325609   4.950588
    35  C    7.125351   7.618760   7.970873   4.231848   4.318385
    36  C    7.934852   8.303116   8.847903   5.347012   5.234719
    37  C    8.989981   9.227025   9.913839   6.965681   6.505997
    38  C    7.813204   8.141909   8.721386   5.552447   5.176490
    39  O    6.128362   6.714782   6.916212   3.193445   3.185939
    40  S    8.133843   8.646376   8.934913   5.086260   5.487129
    41  H    8.355781   9.019579   8.956889   5.244104   5.948005
    42  H    6.619166   7.250559   7.271255   3.567740   4.346873
    43  H    9.625522   9.940943  10.491311   7.502069   6.995802
    44  H    9.660041   9.844055  10.625179   7.579076   7.233890
    45  H    8.814397   8.960817   9.745380   7.153424   6.580982
    46  H    6.999615   7.380105   7.862816   4.866485   4.339475
    47  H    8.850369   9.172099   9.786342   6.245849   6.228035
    48  H    7.417656   8.178638   7.986090   4.189871   4.680761
                    6          7          8          9         10
     6  O    0.000000
     7  H    0.975252   0.000000
     8  C    2.383625   3.233252   0.000000
     9  H    2.857998   3.709349   1.094522   0.000000
    10  O    2.632142   3.557653   1.408510   2.071019   0.000000
    11  H    2.088770   3.003671   1.924001   2.452784   0.966124
    12  C    2.469797   2.699010   2.367416   3.336378   2.925744
    13  H    2.567142   2.798923   2.802651   3.856822   2.814793
    14  C    3.596252   4.276691   1.524319   2.184749   2.389784
    15  H    4.296737   5.052469   2.144106   2.755472   2.418803
    16  O    3.561103   3.979319   2.361043   3.270910   3.047798
    17  N    3.266644   3.058022   3.665591   4.501523   4.345284
    18  C    4.053075   3.820704   4.177321   4.788952   5.173489
    19  H    4.088782   4.063853   3.707986   4.163399   4.887810
    20  C    5.129227   4.712910   5.490476   6.056404   6.476064
    21  H    5.890503   5.511288   6.066015   6.497455   7.179387
    22  C    5.671830   5.083083   6.434817   7.115697   7.215242
    23  H    6.698316   6.147503   7.288535   7.991701   8.067656
    24  H    5.921617   5.205156   6.973133   7.567656   7.772484
    25  C    5.074414   4.500618   6.000752   6.834331   6.514476
    26  C    3.979508   3.564727   4.787804   5.691761   5.203342
    27  H    3.976776   3.635518   4.875539   5.862606   4.989528
    28  C    6.056606   5.426186   7.173780   8.065252   7.487520
    29  O    6.198475   5.646176   7.315697   8.282242   7.402691
    30  N    7.135383   6.414573   8.342827   9.172542   8.748786
    31  H    7.854653   7.117197   9.154699  10.010049   9.462101
    32  H    7.227973   6.463982   8.449056   9.195563   8.994352
    33  H    4.305793   4.763370   2.739248   2.676550   4.089360
    34  C    3.204196   2.714840   5.344493   5.982083   5.008266
    35  C    3.670371   2.735279   5.697652   6.303914   6.009783
    36  C    4.995778   4.058773   6.855253   7.443150   7.310144
    37  C    6.884437   5.983960   8.466227   8.906977   9.205507
    38  C    5.406024   4.499339   7.067893   7.537278   7.750297
    39  O    2.666158   1.712750   4.680308   5.190023   5.136483
    40  S    4.255332   3.480840   6.364533   7.065244   6.287366
    41  H    4.088713   3.726947   6.107535   6.745368   5.562399
    42  H    2.600161   2.337517   4.476959   5.222908   4.073003
    43  H    7.295739   6.374192   9.002621   9.349716   9.742905
    44  H    7.461953   6.547838   9.083244   9.616054   9.722739
    45  H    7.270033   6.436022   8.603401   9.010511   9.467514
    46  H    4.827247   3.983979   6.353995   6.721929   7.166666
    47  H    5.838366   4.914066   7.726671   8.376905   8.066881
    48  H    2.905114   2.384038   5.215734   5.673459   4.997227
                   11         12         13         14         15
    11  H    0.000000
    12  C    3.121787   0.000000
    13  H    2.874362   1.094953   0.000000
    14  C    3.173205   2.346320   2.946799   0.000000
    15  H    3.350461   3.069894   3.370579   1.091318   0.000000
    16  O    3.625261   1.408823   2.077655   1.434867   2.053097
    17  N    4.437277   1.439995   2.051361   3.503836   4.300760
    18  C    5.353961   2.442844   3.328180   3.830047   4.760516
    19  H    5.193236   2.563755   3.615935   3.232898   4.223638
    20  C    6.600059   3.681414   4.438370   5.132488   6.042893
    21  H    7.357520   4.517863   5.374583   5.624957   6.560682
    22  C    7.219298   4.330956   4.792647   6.179595   7.010693
    23  H    8.141094   5.145722   5.582421   6.860589   7.628694
    24  H    7.668653   4.997607   5.451737   6.901418   7.796380
    25  C    6.454285   3.704227   3.841431   5.839156   6.543877
    26  C    5.167588   2.455840   2.497267   4.681881   5.336937
    27  H    4.887768   2.637200   2.202610   4.868307   5.356915
    28  C    7.347470   4.854195   4.716436   7.060643   7.658618
    29  O    7.235910   5.035200   4.634813   7.234101   7.691599
    30  N    8.584183   6.051569   6.015975   8.229404   8.889050
    31  H    9.253734   6.862954   6.714849   9.077909   9.690306
    32  H    8.830942   6.232051   6.355343   8.352114   9.102144
    33  H    4.649276   3.386123   4.378154   2.164155   3.067879
    34  C    4.237796   4.452551   3.865273   6.320962   6.812499
    35  C    5.497988   4.147449   4.093427   6.341625   7.133334
    36  C    6.875120   5.111201   5.183714   7.320519   8.165721
    37  C    8.878803   6.778806   7.135684   8.750363   9.707356
    38  C    7.396517   5.426458   5.750160   7.448882   8.391409
    39  O    4.652647   3.423522   3.575244   5.422436   6.280724
    40  S    5.654223   4.892154   4.435044   7.094184   7.696930
    41  H    4.754172   5.331436   4.609904   7.101895   7.477468
    42  H    3.387031   3.557246   2.861759   5.367426   5.794210
    43  H    9.347850   7.501733   7.863725   9.417030  10.401805
    44  H    9.386248   7.226766   7.460977   9.319425  10.220013
    45  H    9.238573   6.924122   7.410486   8.740845   9.721393
    46  H    6.856748   4.932906   5.421270   6.759083   7.757065
    47  H    7.608476   5.874684   5.804928   8.158401   8.941596
    48  H    4.151734   4.674758   4.285269   6.364701   6.939961
                   16         17         18         19         20
    16  O    0.000000
    17  N    2.317417   0.000000
    18  C    2.823059   1.393144   0.000000
    19  H    2.547287   2.090953   1.080453   0.000000
    20  C    4.081179   2.388994   1.328661   2.114276   0.000000
    21  H    4.722532   3.354398   2.075284   2.423833   1.081485
    22  C    4.965882   2.891607   2.482140   3.479082   1.499224
    23  H    5.592609   3.727061   3.241340   4.147827   2.140489
    24  H    5.781685   3.597881   3.161230   4.097538   2.134161
    25  C    4.528759   2.381802   2.763362   3.836374   2.469259
    26  C    3.393207   1.361869   2.363448   3.304610   2.758438
    27  H    3.624726   2.090016   3.331795   4.163641   3.839870
    28  C    5.716676   3.694380   4.235676   5.303294   3.860860
    29  O    5.899438   4.138934   4.968186   5.987049   4.835531
    30  N    6.894643   4.777444   5.032838   6.106126   4.326274
    31  H    7.734698   5.657246   6.007309   7.084033   5.331928
    32  H    7.068109   4.870505   4.872539   5.916049   3.971955
    33  H    2.747736   3.920624   3.468980   2.454288   4.555566
    34  C    5.794530   4.645956   5.762984   6.324229   6.401583
    35  C    5.508864   3.505234   4.158381   4.949004   4.322177
    36  C    6.359928   4.121455   4.441379   5.346804   4.148103
    37  C    7.800369   5.556732   5.247803   6.058957   4.395518
    38  C    6.542985   4.312668   4.202972   5.024342   3.656772
    39  O    4.768121   2.995094   3.559367   4.153519   3.986456
    40  S    6.269228   4.537279   5.512767   6.310087   5.787977
    41  H    6.613323   5.604239   6.782662   7.347773   7.420188
    42  H    4.837619   3.954976   5.179528   5.676590   5.973016
    43  H    8.570291   6.374660   6.060097   6.786792   5.285954
    44  H    8.263266   5.962066   5.795132   6.704245   4.903055
    45  H    7.792362   5.634535   5.071577   5.811389   4.041447
    46  H    5.986218   3.911951   3.615910   4.279959   3.210449
    47  H    7.118556   4.871978   5.286534   6.255529   4.906632
    48  H    6.016368   4.920517   5.875512   6.324804   6.535524
                   21         22         23         24         25
    21  H    0.000000
    22  C    2.232054   0.000000
    23  H    2.536742   1.097888   0.000000
    24  H    2.619714   1.096085   1.738527   0.000000
    25  C    3.467573   1.506284   2.149004   2.162810   0.000000
    26  C    3.836130   2.493675   3.252408   3.192760   1.344752
    27  H    4.915210   3.479023   4.151593   4.112102   2.104835
    28  C    4.776215   2.599251   2.835445   2.949269   1.476998
    29  O    5.812029   3.722259   3.953604   4.132436   2.381678
    30  N    5.044477   2.848849   2.783338   2.838040   2.403598
    31  H    6.042382   3.854358   3.728758   3.778911   3.315113
    32  H    4.541498   2.485391   2.396181   2.178154   2.580354
    33  H    4.655283   5.926976   6.582801   6.496559   6.115458
    34  C    7.371093   6.156231   7.118875   6.181956   5.087891
    35  C    5.205927   3.869144   4.868133   3.617702   3.202606
    36  C    4.905835   3.342632   4.203658   2.758400   3.023141
    37  C    4.657189   3.586599   4.080231   2.504854   4.207046
    38  C    4.170713   3.020442   3.850621   2.144125   3.327309
    39  O    4.809061   3.977577   5.061084   3.841784   3.506048
    40  S    6.759438   5.168866   6.046103   5.033980   4.115726
    41  H    8.410817   7.094816   8.011222   7.125372   5.934637
    42  H    6.965891   5.868759   6.810690   6.078915   4.742931
    43  H    5.474540   4.620704   5.148426   3.540948   5.212230
    44  H    5.252500   3.808919   4.126128   2.810709   4.236027
    45  H    4.070171   3.373092   3.697529   2.301338   4.349568
    46  H    3.630167   3.050844   3.991893   2.329185   3.530145
    47  H    5.676069   3.848513   4.523706   3.270839   3.371818
    48  H    7.418684   6.443276   7.473797   6.364027   5.575481
                   26         27         28         29         30
    26  C    0.000000
    27  H    1.083964   0.000000
    28  C    2.405400   2.578224   0.000000
    29  O    2.780094   2.447544   1.217097   0.000000
    30  N    3.608044   3.923611   1.371594   2.254158   0.000000
    31  H    4.413995   4.548759   2.033831   2.458008   1.006113
    32  H    3.887780   4.418421   2.080998   3.150796   1.004276
    33  H    5.276859   5.849160   7.537831   8.035021   8.469226
    34  C    4.331786   3.811150   5.291130   5.040719   6.253973
    35  C    3.048203   3.194591   3.614191   3.993030   4.253051
    36  C    3.480288   3.854643   3.216754   3.897392   3.379133
    37  C    5.115605   5.811577   4.461622   5.490998   3.908370
    38  C    3.948804   4.605862   3.829816   4.764612   3.754492
    39  O    3.043641   3.335144   4.312795   4.748706   5.066822
    40  S    3.819370   3.438488   4.008450   3.868466   4.741539
    41  H    5.196907   4.530132   5.945166   5.513021   6.890515
    42  H    3.764249   3.166008   5.097165   4.809572   6.222423
    43  H    6.016944   6.671407   5.457460   6.421136   4.908254
    44  H    5.285677   5.870253   4.125099   5.091164   3.319936
    45  H    5.326707   6.159246   4.775789   5.913804   4.172520
    46  H    3.905025   4.671163   4.384027   5.322703   4.511804
    47  H    3.988814   4.190985   3.064639   3.605192   2.988046
    48  H    4.838416   4.511459   5.954583   5.875310   6.836073
                   31         32         33         34         35
    31  H    0.000000
    32  H    1.729659   0.000000
    33  H    9.421346   8.335042   0.000000
    34  C    6.611044   6.586177   7.296183   0.000000
    35  C    4.812598   4.271147   6.635811   2.731485   0.000000
    36  C    3.920983   3.169560   7.352969   4.091772   1.470878
    37  C    4.450001   3.098838   8.220856   6.523451   3.838263
    38  C    4.431588   3.197524   7.093561   5.154739   2.437978
    39  O    5.756978   5.002743   5.589433   2.859588   1.216259
    40  S    5.004584   5.064438   7.821171   1.797237   1.755195
    41  H    7.119625   7.312240   8.237137   1.087459   3.674976
    42  H    6.666262   6.600679   6.531013   1.087171   3.004171
    43  H    5.355572   4.130570   8.798218   6.865210   4.301679
    44  H    3.669805   2.547341   8.964336   6.714552   4.127364
    45  H    4.814323   3.237260   8.007371   7.298063   4.569314
    46  H    5.296959   3.958023   6.207361   5.199282   2.612406
    47  H    3.273022   2.915839   8.324754   4.404932   2.190116
    48  H    7.259832   7.028945   7.120615   1.087971   2.845749
                   36         37         38         39         40
    36  C    0.000000
    37  C    2.491697   0.000000
    38  C    1.329657   1.492933   0.000000
    39  O    2.372579   4.324381   2.835515   0.000000
    40  S    2.687063   5.147557   3.945091   2.632024   0.000000
    41  H    4.924777   7.370849   6.069914   3.931095   2.348163
    42  H    4.413556   6.826675   5.396580   2.888922   2.410501
    43  H    3.058782   1.093215   2.120651   4.740328   5.550405
    44  H    2.661360   1.090643   2.148213   4.850971   5.149482
    45  H    3.319827   1.090486   2.156176   4.874361   6.006315
    46  H    2.073009   2.223172   1.086615   2.506253   4.324374
    47  H    1.084580   2.751421   2.112154   3.298792   2.721016
    48  H    4.221780   6.487574   5.106438   2.683873   2.398978
                   41         42         43         44         45
    41  H    0.000000
    42  H    1.779103   0.000000
    43  H    7.676052   7.292469   0.000000
    44  H    7.465633   7.052202   1.761645   0.000000
    45  H    8.203625   7.482720   1.753033   1.779222   0.000000
    46  H    6.203967   5.328270   2.671211   3.099987   2.516159
    47  H    5.060340   4.825857   3.294807   2.481298   3.676647
    48  H    1.779726   1.779659   6.691866   6.823834   7.254676
                   46         47         48
    46  H    0.000000
    47  H    3.056486   0.000000
    48  H    5.003563   4.693837   0.000000
 Stoichiometry    C16H24N2O5S
 Framework group  C1[X(C16H24N2O5S)]
 Deg. of freedom   138
 Full point group                 C1      NOp   1
 Largest Abelian subgroup         C1      NOp   1
 Largest concise Abelian subgroup C1      NOp   1
                         Standard orientation:                         
 ---------------------------------------------------------------------
 Center     Atomic      Atomic             Coordinates (Angstroms)
 Number     Number       Type             X           Y           Z
 ---------------------------------------------------------------------
      1          6           0       -4.677881   -1.975052   -0.543254
      2          1           0       -4.631088   -2.920437   -0.004240
      3          1           0       -5.701868   -1.815475   -0.882946
      4          6           0       -2.539898    0.447563   -0.681443
      5          1           0       -2.346509   -0.183788   -1.556645
      6          8           0       -2.080357    1.751478   -0.880147
      7          1           0       -1.127002    1.711173   -1.081657
      8          6           0       -4.029313    0.479491   -0.365089
      9          1           0       -4.646138    0.553208   -1.266239
     10          8           0       -4.298865    1.540999    0.520599
     11          1           0       -3.768741    2.292369    0.224278
     12          6           0       -1.979643   -0.241768    0.574749
     13          1           0       -1.814454    0.511619    1.351951
     14          6           0       -4.237839   -0.842862    0.363917
     15          1           0       -4.956921   -0.693797    1.171182
     16          8           0       -2.971111   -1.167877    0.954348
     17          7           0       -0.735490   -0.942165    0.387362
     18          6           0       -0.696280   -2.036258   -0.474189
     19          1           0       -1.650539   -2.314611   -0.897613
     20          6           0        0.414481   -2.726817   -0.708026
     21          1           0        0.359141   -3.588712   -1.358935
     22          6           0        1.732484   -2.372114   -0.087761
     23          1           0        2.182550   -3.260752    0.373890
     24          1           0        2.439830   -2.073880   -0.870142
     25          6           0        1.556125   -1.284306    0.939109
     26          6           0        0.379601   -0.657374    1.115479
     27          1           0        0.292025    0.121725    1.864020
     28          6           0        2.673057   -0.865710    1.810179
     29          8           0        2.543719   -0.148070    2.784648
     30          7           0        3.902783   -1.357806    1.453966
     31          1           0        4.694892   -1.015989    1.971642
     32          1           0        4.059060   -1.781970    0.557176
     33          1           0       -4.033171   -2.047531   -1.422265
     34          6           0        0.263570    3.594132    0.293526
     35          6           0        1.574167    1.436666   -0.749876
     36          6           0        2.792216    0.657789   -1.020414
     37          6           0        4.053114   -0.963158   -2.431521
     38          6           0        2.812637   -0.271955   -1.970756
     39          8           0        0.501170    1.217586   -1.278994
     40         16           0        1.863372    2.776855    0.346009
     41          1           0        0.380741    4.531780    0.831721
     42          1           0       -0.499541    2.986799    0.773891
     43          1           0        4.408562   -0.489127   -3.350255
     44          1           0        4.851742   -0.887976   -1.692574
     45          1           0        3.876841   -2.013299   -2.666663
     46          1           0        1.881207   -0.491564   -2.485480
     47          1           0        3.683959    0.923612   -0.463237
     48          1           0       -0.019614    3.794207   -0.737714
 ---------------------------------------------------------------------
 Rotational constants (GHZ):           0.3311160           0.1637751           0.1395891
 Leave Link  202 at Sat Aug 13 20:09:19 2022, MaxMem=  2684354560 cpu:               0.4 elap:               0.1
 (Enter /storage/apps/GAUSSIAN/G16_RevA03/g16/l301.exe)
 Standard basis: def2TZVP (5D, 7F)
 Ernie: Thresh=  0.10000D-02 Tol=  0.10000D-05 Strict=F.
 There are  1014 symmetry adapted cartesian basis functions of A   symmetry.
 There are   894 symmetry adapted basis functions of A   symmetry.
   894 basis functions,  1434 primitive gaussians,  1014 cartesian basis functions
    95 alpha electrons       95 beta electrons
       nuclear repulsion energy      2491.5586661769 Hartrees.
 IExCor= 4336 DFT=T Ex+Corr=M062X ExCW=0 ScaHFX=  0.540000
 ScaDFX=  1.000000  1.000000  1.000000  1.000000 ScalE2=  1.000000  1.000000
 IRadAn=      5 IRanWt=     -1 IRanGd=            0 ICorTp=0 IEmpDi=131
 NAtoms=   48 NActive=   48 NUniq=   48 SFac= 1.00D+00 NAtFMM=   60 NAOKFM=F Big=F
 Integral buffers will be    131072 words long.
 Raffenetti 2 integral format.
 Two-electron integral symmetry is turned on.
 R6Disp:  Grimme-D3 Dispersion energy=       -0.0042915585 Hartrees.
 Nuclear repulsion after empirical dispersion term =     2491.5543746184 Hartrees.
 Leave Link  301 at Sat Aug 13 20:09:19 2022, MaxMem=  2684354560 cpu:               1.7 elap:               0.1
 (Enter /storage/apps/GAUSSIAN/G16_RevA03/g16/l302.exe)
 NPDir=0 NMtPBC=     1 NCelOv=     1 NCel=       1 NClECP=     1 NCelD=      1
         NCelK=      1 NCelE2=     1 NClLst=     1 CellRange=     0.0.
 One-electron integrals computed using PRISM.
 One-electron integral symmetry used in STVInt
   1 Symmetry operations used in ECPInt.
 ECPInt:  NShTT=   65703 NPrTT=  200010 LenC2=   56905 LenP2D=  121275.
 LDataN:  DoStor=T MaxTD1= 6 Len=  172
 NBasis=   894 RedAO= T EigKep=  2.70D-05  NBF=   894
 NBsUse=   894 1.00D-06 EigRej= -1.00D+00 NBFU=   894
 Precomputing XC quadrature grid using
 IXCGrd= 4 IRadAn=           5 IRanWt=          -1 IRanGd=           0 AccXCQ= 0.00D+00.
 Generated NRdTot=       0 NPtTot=           0 NUsed=           0 NTot=          32
 NSgBfM=   998   998   998   998   998 MxSgAt=    48 MxSgA2=    48.
 Leave Link  302 at Sat Aug 13 20:09:20 2022, MaxMem=  2684354560 cpu:              19.2 elap:               1.3
 (Enter /storage/apps/GAUSSIAN/G16_RevA03/g16/l303.exe)
 DipDrv:  MaxL=1.
 Leave Link  303 at Sat Aug 13 20:09:20 2022, MaxMem=  2684354560 cpu:               3.0 elap:               0.3
 (Enter /storage/apps/GAUSSIAN/G16_RevA03/g16/l401.exe)
 ExpMin= 9.52D-02 ExpMax= 6.07D+04 ExpMxC= 2.07D+03 IAcc=3 IRadAn=         5 AccDes= 0.00D+00
 Harris functional with IExCor= 1009 and IRadAn=       5 diagonalized for initial guess.
 HarFok:  IExCor= 1009 AccDes= 0.00D+00 IRadAn=         5 IDoV= 1 UseB2=F ITyADJ=14
 ICtDFT=  3500011 ScaDFX=  1.000000  1.000000  1.000000  1.000000
 FoFCou: FMM=F IPFlag=           0 FMFlag=      100000 FMFlg1=           0
         NFxFlg=           0 DoJE=T BraDBF=F KetDBF=T FulRan=T
         wScrn=  0.000000 ICntrl=       500 IOpCl=  0 I1Cent=   200000004 NGrid=           0
         NMat0=    1 NMatS0=      1 NMatT0=    0 NMatD0=    1 NMtDS0=    0 NMtDT0=    0
 Petite list used in FoFCou.
 Harris En= -1507.24916966532    
 JPrj=0 DoOrth=F DoCkMO=F.
 Leave Link  401 at Sat Aug 13 20:09:24 2022, MaxMem=  2684354560 cpu:              61.1 elap:               3.9
 (Enter /storage/apps/GAUSSIAN/G16_RevA03/g16/l502.exe)
 Integral symmetry usage will be decided dynamically.
 Closed shell SCF:
 Using DIIS extrapolation, IDIIS=  1040.
 NGot=  2684354560 LenX=  2682272944 LenY=  2681243734
 Requested convergence on RMS density matrix=1.00D-08 within 128 cycles.
 Requested convergence on MAX density matrix=1.00D-06.
 Requested convergence on             energy=1.00D-06.
 No special actions if energy rises.
 Fock matrices will be formed incrementally for  20 cycles.
 Integral accuracy reduced to 1.0D-05 until final iterations.

 Cycle   1  Pass 0  IDiag  1:
 FoFJK:  IHMeth= 1 ICntrl=       0 DoSepK=F KAlg= 0 I1Cent=           0 FoldK=F
 IRaf= 790000000 NMat=       1 IRICut=       1 DoRegI=T DoRafI=F ISym2E= 0 IDoP0=0 IntGTp=1.
 FoFCou: FMM=F IPFlag=           0 FMFlag=      100000 FMFlg1=           0
         NFxFlg=           0 DoJE=F BraDBF=F KetDBF=F FulRan=T
         wScrn=  0.000000 ICntrl=         0 IOpCl=  0 I1Cent=           0 NGrid=           0
         NMat0=    1 NMatS0=      1 NMatT0=    0 NMatD0=    1 NMtDS0=    0 NMtDT0=    0
 Symmetry not used in FoFCou.
 E= -1507.18437979703    
 DIIS: error= 1.51D-02 at cycle   1 NSaved=   1.
 NSaved= 1 IEnMin= 1 EnMin= -1507.18437979703     IErMin= 1 ErrMin= 1.51D-02
 ErrMax= 1.51D-02  0.00D+00 EMaxC= 1.00D-01 BMatC= 1.00D+00 BMatP= 1.00D+00
 IDIUse=3 WtCom= 8.49D-01 WtEn= 1.51D-01
 Coeff-Com:  0.100D+01
 Coeff-En:   0.100D+01
 Coeff:      0.100D+01
 Gap=     0.309 Goal=   None    Shift=    0.000
 GapD=    0.309 DampG=1.000 DampE=0.500 DampFc=0.5000 IDamp=-1.
 Damping current iteration by 5.00D-01
 RMSDP=4.57D-03 MaxDP=1.84D+00              OVMax= 2.19D-01

 Cycle   2  Pass 0  IDiag  1:
 RMSU=  2.28D-03    CP:  1.02D+00
 E= -1507.52833740327     Delta-E=       -0.343957606243 Rises=F Damp=T
 DIIS: error= 3.67D-03 at cycle   2 NSaved=   2.
 NSaved= 2 IEnMin= 2 EnMin= -1507.52833740327     IErMin= 2 ErrMin= 3.67D-03
 ErrMax= 3.67D-03  0.00D+00 EMaxC= 1.00D-01 BMatC= 8.64D-02 BMatP= 1.00D+00
 IDIUse=3 WtCom= 9.63D-01 WtEn= 3.67D-02
 Coeff-Com: -0.178D-01 0.102D+01
 Coeff-En:   0.146D-01 0.985D+00
 Coeff:     -0.166D-01 0.102D+01
 Gap=     0.321 Goal=   None    Shift=    0.000
 RMSDP=1.42D-03 MaxDP=5.58D-01 DE=-3.44D-01 OVMax= 1.70D-01

 Cycle   3  Pass 0  IDiag  1:
 RMSU=  1.10D-03    CP:  1.00D+00  6.10D-01
 E= -1507.88618744005     Delta-E=       -0.357850036779 Rises=F Damp=F
 DIIS: error= 3.93D-03 at cycle   3 NSaved=   3.
 NSaved= 3 IEnMin= 3 EnMin= -1507.88618744005     IErMin= 2 ErrMin= 3.67D-03
 ErrMax= 3.93D-03  0.00D+00 EMaxC= 1.00D-01 BMatC= 5.09D-02 BMatP= 8.64D-02
 IDIUse=3 WtCom= 9.61D-01 WtEn= 3.93D-02
 Coeff-Com: -0.842D-01 0.457D+00 0.627D+00
 Coeff-En:   0.000D+00 0.000D+00 0.100D+01
 Coeff:     -0.809D-01 0.439D+00 0.642D+00
 Gap=     0.209 Goal=   None    Shift=    0.000
 RMSDP=3.80D-04 MaxDP=7.69D-02 DE=-3.58D-01 OVMax= 6.71D-02

 Cycle   4  Pass 0  IDiag  1:
 RMSU=  3.19D-04    CP:  1.00D+00  6.92D-01  9.20D-01
 E= -1507.91905614928     Delta-E=       -0.032868709228 Rises=F Damp=F
 DIIS: error= 1.84D-03 at cycle   4 NSaved=   4.
 NSaved= 4 IEnMin= 4 EnMin= -1507.91905614928     IErMin= 4 ErrMin= 1.84D-03
 ErrMax= 1.84D-03  0.00D+00 EMaxC= 1.00D-01 BMatC= 1.01D-02 BMatP= 5.09D-02
 IDIUse=3 WtCom= 9.82D-01 WtEn= 1.84D-02
 Coeff-Com: -0.373D-01 0.100D+00 0.347D+00 0.591D+00
 Coeff-En:   0.000D+00 0.000D+00 0.134D+00 0.866D+00
 Coeff:     -0.366D-01 0.982D-01 0.343D+00 0.596D+00
 Gap=     0.208 Goal=   None    Shift=    0.000
 RMSDP=1.29D-04 MaxDP=1.88D-02 DE=-3.29D-02 OVMax= 1.67D-02

 Cycle   5  Pass 0  IDiag  1:
 RMSU=  8.06D-05    CP:  1.00D+00  6.76D-01  9.47D-01  7.22D-01
 E= -1507.92652815709     Delta-E=       -0.007472007818 Rises=F Damp=F
 DIIS: error= 3.12D-04 at cycle   5 NSaved=   5.
 NSaved= 5 IEnMin= 5 EnMin= -1507.92652815709     IErMin= 5 ErrMin= 3.12D-04
 ErrMax= 3.12D-04  0.00D+00 EMaxC= 1.00D-01 BMatC= 4.11D-04 BMatP= 1.01D-02
 IDIUse=3 WtCom= 9.97D-01 WtEn= 3.12D-03
 Coeff-Com: -0.108D-01 0.188D-01 0.121D+00 0.266D+00 0.605D+00
 Coeff-En:   0.000D+00 0.000D+00 0.000D+00 0.000D+00 0.100D+01
 Coeff:     -0.107D-01 0.187D-01 0.120D+00 0.266D+00 0.606D+00
 Gap=     0.208 Goal=   None    Shift=    0.000
 RMSDP=4.92D-05 MaxDP=1.68D-02 DE=-7.47D-03 OVMax= 3.97D-03

 Cycle   6  Pass 0  IDiag  1:
 RMSU=  3.26D-05    CP:  1.00D+00  6.62D-01  9.58D-01  7.36D-01  9.05D-01
 E= -1507.92685607215     Delta-E=       -0.000327915053 Rises=F Damp=F
 DIIS: error= 1.29D-04 at cycle   6 NSaved=   6.
 NSaved= 6 IEnMin= 6 EnMin= -1507.92685607215     IErMin= 6 ErrMin= 1.29D-04
 ErrMax= 1.29D-04  0.00D+00 EMaxC= 1.00D-01 BMatC= 5.33D-05 BMatP= 4.11D-04
 IDIUse=3 WtCom= 9.99D-01 WtEn= 1.29D-03
 Coeff-Com:  0.109D-03-0.408D-02 0.131D-01 0.439D-01 0.274D+00 0.673D+00
 Coeff-En:   0.000D+00 0.000D+00 0.000D+00 0.000D+00 0.000D+00 0.100D+01
 Coeff:      0.109D-03-0.408D-02 0.130D-01 0.438D-01 0.273D+00 0.674D+00
 Gap=     0.209 Goal=   None    Shift=    0.000
 RMSDP=2.15D-05 MaxDP=4.54D-03 DE=-3.28D-04 OVMax= 3.37D-03

 Cycle   7  Pass 0  IDiag  1:
 RMSU=  1.76D-05    CP:  1.00D+00  6.58D-01  9.63D-01  7.41D-01  9.84D-01
                    CP:  1.00D+00
 E= -1507.92691920773     Delta-E=       -0.000063135579 Rises=F Damp=F
 DIIS: error= 6.46D-05 at cycle   7 NSaved=   7.
 NSaved= 7 IEnMin= 7 EnMin= -1507.92691920773     IErMin= 7 ErrMin= 6.46D-05
 ErrMax= 6.46D-05  0.00D+00 EMaxC= 1.00D-01 BMatC= 9.15D-06 BMatP= 5.33D-05
 IDIUse=1 WtCom= 1.00D+00 WtEn= 0.00D+00
 Coeff-Com:  0.183D-02-0.500D-02-0.120D-01-0.244D-01 0.139D-01 0.291D+00
 Coeff-Com:  0.734D+00
 Coeff:      0.183D-02-0.500D-02-0.120D-01-0.244D-01 0.139D-01 0.291D+00
 Coeff:      0.734D+00
 Gap=     0.209 Goal=   None    Shift=    0.000
 RMSDP=1.82D-05 MaxDP=5.14D-03 DE=-6.31D-05 OVMax= 1.86D-03

 Cycle   8  Pass 0  IDiag  1:
 RMSU=  1.22D-05    CP:  1.00D+00  6.54D-01  9.65D-01  7.47D-01  1.05D+00
                    CP:  1.19D+00  1.26D+00
 E= -1507.92692606507     Delta-E=       -0.000006857343 Rises=F Damp=F
 DIIS: error= 2.71D-05 at cycle   8 NSaved=   8.
 NSaved= 8 IEnMin= 8 EnMin= -1507.92692606507     IErMin= 8 ErrMin= 2.71D-05
 ErrMax= 2.71D-05  0.00D+00 EMaxC= 1.00D-01 BMatC= 2.10D-06 BMatP= 9.15D-06
 IDIUse=1 WtCom= 1.00D+00 WtEn= 0.00D+00
 Coeff-Com:  0.968D-03-0.181D-02-0.808D-02-0.223D-01-0.461D-01 0.140D-01
 Coeff-Com:  0.361D+00 0.703D+00
 Coeff:      0.968D-03-0.181D-02-0.808D-02-0.223D-01-0.461D-01 0.140D-01
 Coeff:      0.361D+00 0.703D+00
 Gap=     0.209 Goal=   None    Shift=    0.000
 RMSDP=2.01D-05 MaxDP=2.98D-03 DE=-6.86D-06 OVMax= 6.87D-04

 Cycle   9  Pass 0  IDiag  1:
 RMSU=  9.57D-06    CP:  1.00D+00  6.51D-01  9.65D-01  7.46D-01  1.10D+00
                    CP:  1.31D+00  1.74D+00  2.10D+00
 E= -1507.92691391613     Delta-E=        0.000012148937 Rises=F Damp=F
 DIIS: error= 2.67D-05 at cycle   9 NSaved=   9.
 NSaved= 9 IEnMin= 8 EnMin= -1507.92692606507     IErMin= 9 ErrMin= 2.67D-05
 ErrMax= 2.67D-05  0.00D+00 EMaxC= 1.00D-01 BMatC= 6.18D-07 BMatP= 2.10D-06
 IDIUse=1 WtCom= 1.00D+00 WtEn= 0.00D+00
 Coeff-Com:  0.443D-03-0.757D-03-0.360D-02-0.114D-01-0.260D-01-0.949D-02
 Coeff-Com:  0.161D+00 0.401D+00 0.489D+00
 Coeff:      0.443D-03-0.757D-03-0.360D-02-0.114D-01-0.260D-01-0.949D-02
 Coeff:      0.161D+00 0.401D+00 0.489D+00
 Gap=     0.209 Goal=   None    Shift=    0.000
 RMSDP=1.97D-05 MaxDP=2.18D-03 DE= 1.21D-05 OVMax= 1.46D-04

 Cycle  10  Pass 0  IDiag  1:
 RMSU=  4.83D-06    CP:  1.00D+00  6.50D-01  9.65D-01  7.46D-01  1.13D+00
                    CP:  1.41D+00  2.15D+00  3.00D+00  2.12D+00
 E= -1507.92690155100     Delta-E=        0.000012365133 Rises=F Damp=F
 DIIS: error= 3.97D-05 at cycle  10 NSaved=  10.
 NSaved=10 IEnMin= 8 EnMin= -1507.92692606507     IErMin= 9 ErrMin= 2.67D-05
 ErrMax= 3.97D-05  0.00D+00 EMaxC= 1.00D-01 BMatC= 1.07D-06 BMatP= 6.18D-07
 IDIUse=1 WtCom= 1.00D+00 WtEn= 0.00D+00
 Coeff-Com:  0.398D-03-0.542D-03-0.337D-02-0.121D-01-0.322D-01-0.332D-01
 Coeff-Com:  0.141D+00 0.497D+00 0.120D+01-0.753D+00
 Coeff:      0.398D-03-0.542D-03-0.337D-02-0.121D-01-0.322D-01-0.332D-01
 Coeff:      0.141D+00 0.497D+00 0.120D+01-0.753D+00
 Gap=     0.209 Goal=   None    Shift=    0.000
 RMSDP=2.99D-05 MaxDP=3.86D-03 DE= 1.24D-05 OVMax= 6.47D-05

 Problem detected with inexpensive integrals.
 Switching to full accuracy and repeating last cycle.
 Cycle  11  Pass 1  IDiag  1:
 E= -1507.92685650968     Delta-E=        0.000045041321 Rises=F Damp=F
 DIIS: error= 3.24D-04 at cycle   1 NSaved=   1.
 NSaved= 1 IEnMin= 1 EnMin= -1507.92685650968     IErMin= 1 ErrMin= 3.24D-04
 ErrMax= 3.24D-04  0.00D+00 EMaxC= 1.00D-01 BMatC= 8.60D-05 BMatP= 8.60D-05
 IDIUse=3 WtCom= 9.97D-01 WtEn= 3.24D-03
 Coeff-Com:  0.100D+01
 Coeff-En:   0.100D+01
 Coeff:      0.100D+01
 Gap=     0.209 Goal=   None    Shift=    0.000
 RMSDP=4.24D-04 MaxDP=3.49D-02 DE= 4.50D-05 OVMax= 9.50D-04

 Cycle  12  Pass 1  IDiag  1:
 RMSU=  4.23D-04    CP:  9.95D-01
 E= -1507.92691023995     Delta-E=       -0.000053730268 Rises=F Damp=F
 DIIS: error= 9.47D-06 at cycle   2 NSaved=   2.
 NSaved= 2 IEnMin= 2 EnMin= -1507.92691023995     IErMin= 2 ErrMin= 9.47D-06
 ErrMax= 9.47D-06  0.00D+00 EMaxC= 1.00D-01 BMatC= 7.69D-08 BMatP= 8.60D-05
 IDIUse=1 WtCom= 1.00D+00 WtEn= 0.00D+00
 Coeff-Com: -0.161D-01 0.102D+01
 Coeff:     -0.161D-01 0.102D+01
 Gap=     0.209 Goal=   None    Shift=    0.000
 RMSDP=1.56D-05 MaxDP=1.34D-03 DE=-5.37D-05 OVMax= 8.67D-05

 Cycle  13  Pass 1  IDiag  1:
 RMSU=  5.29D-06    CP:  9.94D-01  1.03D+00
 E= -1507.92691029295     Delta-E=       -0.000000053000 Rises=F Damp=F
 DIIS: error= 5.28D-06 at cycle   3 NSaved=   3.
 NSaved= 3 IEnMin= 3 EnMin= -1507.92691029295     IErMin= 3 ErrMin= 5.28D-06
 ErrMax= 5.28D-06  0.00D+00 EMaxC= 1.00D-01 BMatC= 6.86D-08 BMatP= 7.69D-08
 IDIUse=1 WtCom= 1.00D+00 WtEn= 0.00D+00
 Coeff-Com: -0.911D-02 0.542D+00 0.467D+00
 Coeff:     -0.911D-02 0.542D+00 0.467D+00
 Gap=     0.209 Goal=   None    Shift=    0.000
 RMSDP=5.86D-07 MaxDP=1.77D-04 DE=-5.30D-08 OVMax= 3.71D-05

 Cycle  14  Pass 1  IDiag  1:
 RMSU=  5.29D-07    CP:  9.94D-01  1.04D+00  1.01D+00
 E= -1507.92691034285     Delta-E=       -0.000000049906 Rises=F Damp=F
 DIIS: error= 1.40D-06 at cycle   4 NSaved=   4.
 NSaved= 4 IEnMin= 4 EnMin= -1507.92691034285     IErMin= 4 ErrMin= 1.40D-06
 ErrMax= 1.40D-06  0.00D+00 EMaxC= 1.00D-01 BMatC= 3.24D-09 BMatP= 6.86D-08
 IDIUse=1 WtCom= 1.00D+00 WtEn= 0.00D+00
 Coeff-Com: -0.111D-03-0.424D-02 0.160D+00 0.844D+00
 Coeff:     -0.111D-03-0.424D-02 0.160D+00 0.844D+00
 Gap=     0.209 Goal=   None    Shift=    0.000
 RMSDP=3.49D-07 MaxDP=2.79D-05 DE=-4.99D-08 OVMax= 2.53D-05

 Cycle  15  Pass 1  IDiag  1:
 RMSU=  1.45D-07    CP:  9.94D-01  1.04D+00  1.05D+00  1.07D+00
 E= -1507.92691034580     Delta-E=       -0.000000002945 Rises=F Damp=F
 DIIS: error= 5.19D-07 at cycle   5 NSaved=   5.
 NSaved= 5 IEnMin= 5 EnMin= -1507.92691034580     IErMin= 5 ErrMin= 5.19D-07
 ErrMax= 5.19D-07  0.00D+00 EMaxC= 1.00D-01 BMatC= 6.61D-10 BMatP= 3.24D-09
 IDIUse=1 WtCom= 1.00D+00 WtEn= 0.00D+00
 Coeff-Com:  0.555D-03-0.387D-01 0.458D-01 0.433D+00 0.559D+00
 Coeff:      0.555D-03-0.387D-01 0.458D-01 0.433D+00 0.559D+00
 Gap=     0.209 Goal=   None    Shift=    0.000
 RMSDP=6.18D-08 MaxDP=1.00D-05 DE=-2.94D-09 OVMax= 7.94D-06

 Cycle  16  Pass 1  IDiag  1:
 RMSU=  4.46D-08    CP:  9.94D-01  1.04D+00  1.05D+00  1.12D+00  1.04D+00
 E= -1507.92691034644     Delta-E=       -0.000000000644 Rises=F Damp=F
 DIIS: error= 1.39D-07 at cycle   6 NSaved=   6.
 NSaved= 6 IEnMin= 6 EnMin= -1507.92691034644     IErMin= 6 ErrMin= 1.39D-07
 ErrMax= 1.39D-07  0.00D+00 EMaxC= 1.00D-01 BMatC= 4.59D-11 BMatP= 6.61D-10
 IDIUse=1 WtCom= 1.00D+00 WtEn= 0.00D+00
 Coeff-Com:  0.198D-03-0.119D-01-0.127D-01 0.157D-01 0.156D+00 0.853D+00
 Coeff:      0.198D-03-0.119D-01-0.127D-01 0.157D-01 0.156D+00 0.853D+00
 Gap=     0.209 Goal=   None    Shift=    0.000
 RMSDP=3.29D-08 MaxDP=1.06D-05 DE=-6.44D-10 OVMax= 5.34D-06

 Cycle  17  Pass 1  IDiag  1:
 RMSU=  2.07D-08    CP:  9.94D-01  1.04D+00  1.05D+00  1.16D+00  1.12D+00
                    CP:  1.18D+00
 E= -1507.92691034656     Delta-E=       -0.000000000118 Rises=F Damp=F
 DIIS: error= 9.63D-08 at cycle   7 NSaved=   7.
 NSaved= 7 IEnMin= 7 EnMin= -1507.92691034656     IErMin= 7 ErrMin= 9.63D-08
 ErrMax= 9.63D-08  0.00D+00 EMaxC= 1.00D-01 BMatC= 2.12D-11 BMatP= 4.59D-11
 IDIUse=1 WtCom= 1.00D+00 WtEn= 0.00D+00
 Coeff-Com: -0.221D-04 0.254D-02-0.180D-01-0.856D-01-0.527D-01 0.478D+00
 Coeff-Com:  0.675D+00
 Coeff:     -0.221D-04 0.254D-02-0.180D-01-0.856D-01-0.527D-01 0.478D+00
 Coeff:      0.675D+00
 Gap=     0.209 Goal=   None    Shift=    0.000
 RMSDP=1.47D-08 MaxDP=3.22D-06 DE=-1.18D-10 OVMax= 2.84D-06

 Cycle  18  Pass 1  IDiag  1:
 RMSU=  9.44D-09    CP:  9.94D-01  1.04D+00  1.05D+00  1.17D+00  1.15D+00
                    CP:  1.31D+00  1.01D+00
 E= -1507.92691034661     Delta-E=       -0.000000000047 Rises=F Damp=F
 DIIS: error= 2.55D-08 at cycle   8 NSaved=   8.
 NSaved= 8 IEnMin= 8 EnMin= -1507.92691034661     IErMin= 8 ErrMin= 2.55D-08
 ErrMax= 2.55D-08  0.00D+00 EMaxC= 1.00D-01 BMatC= 2.06D-12 BMatP= 2.12D-11
 IDIUse=1 WtCom= 1.00D+00 WtEn= 0.00D+00
 Coeff-Com: -0.364D-04 0.279D-02-0.760D-02-0.444D-01-0.490D-01 0.126D+00
 Coeff-Com:  0.317D+00 0.656D+00
 Coeff:     -0.364D-04 0.279D-02-0.760D-02-0.444D-01-0.490D-01 0.126D+00
 Coeff:      0.317D+00 0.656D+00
 Gap=     0.209 Goal=   None    Shift=    0.000
 RMSDP=5.85D-09 MaxDP=2.23D-06 DE=-4.73D-11 OVMax= 5.84D-07

 Cycle  19  Pass 1  IDiag  1:
 RMSU=  3.31D-09    CP:  9.94D-01  1.04D+00  1.05D+00  1.18D+00  1.16D+00
                    CP:  1.35D+00  1.11D+00  1.11D+00
 E= -1507.92691034661     Delta-E=       -0.000000000001 Rises=F Damp=F
 DIIS: error= 6.98D-09 at cycle   9 NSaved=   9.
 NSaved= 9 IEnMin= 9 EnMin= -1507.92691034661     IErMin= 9 ErrMin= 6.98D-09
 ErrMax= 6.98D-09  0.00D+00 EMaxC= 1.00D-01 BMatC= 1.58D-13 BMatP= 2.06D-12
 IDIUse=1 WtCom= 1.00D+00 WtEn= 0.00D+00
 Coeff-Com: -0.987D-05 0.636D-03-0.201D-03-0.335D-02-0.101D-01-0.177D-01
 Coeff-Com:  0.203D-01 0.229D+00 0.782D+00
 Coeff:     -0.987D-05 0.636D-03-0.201D-03-0.335D-02-0.101D-01-0.177D-01
 Coeff:      0.203D-01 0.229D+00 0.782D+00
 Gap=     0.209 Goal=   None    Shift=    0.000
 RMSDP=1.51D-09 MaxDP=2.18D-07 DE=-9.09D-13 OVMax= 2.64D-07

 SCF Done:  E(RM062X) =  -1507.92691035     A.U. after   19 cycles
            NFock= 19  Conv=0.15D-08     -V/T= 2.0037
 KE= 1.502442765048D+03 PE=-8.521474924570D+03 EE= 3.019550874557D+03
 Leave Link  502 at Sat Aug 13 20:18:28 2022, MaxMem=  2684354560 cpu:            8690.6 elap:             544.0
 (Enter /storage/apps/GAUSSIAN/G16_RevA03/g16/l601.exe)
 Copying SCF densities to generalized density rwf, IOpCl= 0 IROHF=0.

 **********************************************************************

            Population analysis using the SCF density.

 **********************************************************************

 Orbital symmetries:
       Occupied  (A) (A) (A) (A) (A) (A) (A) (A) (A) (A) (A) (A)
                 (A) (A) (A) (A) (A) (A) (A) (A) (A) (A) (A) (A)
                 (A) (A) (A) (A) (A) (A) (A) (A) (A) (A) (A) (A)
                 (A) (A) (A) (A) (A) (A) (A) (A) (A) (A) (A) (A)
                 (A) (A) (A) (A) (A) (A) (A) (A) (A) (A) (A) (A)
                 (A) (A) (A) (A) (A) (A) (A) (A) (A) (A) (A) (A)
                 (A) (A) (A) (A) (A) (A) (A) (A) (A) (A) (A) (A)
                 (A) (A) (A) (A) (A) (A) (A) (A) (A) (A) (A)
       Virtual   (A) (A) (A) (A) (A) (A) (A) (A) (A) (A) (A) (A)
                 (A) (A) (A) (A) (A) (A) (A) (A) (A) (A) (A) (A)
                 (A) (A) (A) (A) (A) (A) (A) (A) (A) (A) (A) (A)
                 (A) (A) (A) (A) (A) (A) (A) (A) (A) (A) (A) (A)
                 (A) (A) (A) (A) (A) (A) (A) (A) (A) (A) (A) (A)
                 (A) (A) (A) (A) (A) (A) (A) (A) (A) (A) (A) (A)
                 (A) (A) (A) (A) (A) (A) (A) (A) (A) (A) (A) (A)
                 (A) (A) (A) (A) (A) (A) (A) (A) (A) (A) (A) (A)
                 (A) (A) (A) (A) (A) (A) (A) (A) (A) (A) (A) (A)
                 (A) (A) (A) (A) (A) (A) (A) (A) (A) (A) (A) (A)
                 (A) (A) (A) (A) (A) (A) (A) (A) (A) (A) (A) (A)
                 (A) (A) (A) (A) (A) (A) (A) (A) (A) (A) (A) (A)
                 (A) (A) (A) (A) (A) (A) (A) (A) (A) (A) (A) (A)
                 (A) (A) (A) (A) (A) (A) (A) (A) (A) (A) (A) (A)
                 (A) (A) (A) (A) (A) (A) (A) (A) (A) (A) (A) (A)
                 (A) (A) (A) (A) (A) (A) (A) (A) (A) (A) (A) (A)
                 (A) (A) (A) (A) (A) (A) (A) (A) (A) (A) (A) (A)
                 (A) (A) (A) (A) (A) (A) (A) (A) (A) (A) (A) (A)
                 (A) (A) (A) (A) (A) (A) (A) (A) (A) (A) (A) (A)
                 (A) (A) (A) (A) (A) (A) (A) (A) (A) (A) (A) (A)
                 (A) (A) (A) (A) (A) (A) (A) (A) (A) (A) (A) (A)
                 (A) (A) (A) (A) (A) (A) (A) (A) (A) (A) (A) (A)
                 (A) (A) (A) (A) (A) (A) (A) (A) (A) (A) (A) (A)
                 (A) (A) (A) (A) (A) (A) (A) (A) (A) (A) (A) (A)
                 (A) (A) (A) (A) (A) (A) (A) (A) (A) (A) (A) (A)
                 (A) (A) (A) (A) (A) (A) (A) (A) (A) (A) (A) (A)
                 (A) (A) (A) (A) (A) (A) (A) (A) (A) (A) (A) (A)
                 (A) (A) (A) (A) (A) (A) (A) (A) (A) (A) (A) (A)
                 (A) (A) (A) (A) (A) (A) (A) (A) (A) (A) (A) (A)
                 (A) (A) (A) (A) (A) (A) (A) (A) (A) (A) (A) (A)
                 (A) (A) (A) (A) (A) (A) (A) (A) (A) (A) (A) (A)
                 (A) (A) (A) (A) (A) (A) (A) (A) (A) (A) (A) (A)
                 (A) (A) (A) (A) (A) (A) (A) (A) (A) (A) (A) (A)
                 (A) (A) (A) (A) (A) (A) (A) (A) (A) (A) (A) (A)
                 (A) (A) (A) (A) (A) (A) (A) (A) (A) (A) (A) (A)
                 (A) (A) (A) (A) (A) (A) (A) (A) (A) (A) (A) (A)
                 (A) (A) (A) (A) (A) (A) (A) (A) (A) (A) (A) (A)
                 (A) (A) (A) (A) (A) (A) (A) (A) (A) (A) (A) (A)
                 (A) (A) (A) (A) (A) (A) (A) (A) (A) (A) (A) (A)
                 (A) (A) (A) (A) (A) (A) (A) (A) (A) (A) (A) (A)
                 (A) (A) (A) (A) (A) (A) (A) (A) (A) (A) (A) (A)
                 (A) (A) (A) (A) (A) (A) (A) (A) (A) (A) (A) (A)
                 (A) (A) (A) (A) (A) (A) (A) (A) (A) (A) (A) (A)
                 (A) (A) (A) (A) (A) (A) (A) (A) (A) (A) (A) (A)
                 (A) (A) (A) (A) (A) (A) (A) (A) (A) (A) (A) (A)
                 (A) (A) (A) (A) (A) (A) (A) (A) (A) (A) (A) (A)
                 (A) (A) (A) (A) (A) (A) (A) (A) (A) (A) (A) (A)
                 (A) (A) (A) (A) (A) (A) (A) (A) (A) (A) (A) (A)
                 (A) (A) (A) (A) (A) (A) (A) (A) (A) (A) (A) (A)
                 (A) (A) (A) (A) (A) (A) (A) (A) (A) (A) (A) (A)
                 (A) (A) (A) (A) (A) (A) (A) (A) (A) (A) (A) (A)
                 (A) (A) (A) (A) (A) (A) (A) (A) (A) (A) (A) (A)
                 (A) (A) (A) (A) (A) (A) (A) (A) (A) (A) (A) (A)
                 (A) (A) (A) (A) (A) (A) (A) (A) (A) (A) (A) (A)
                 (A) (A) (A) (A) (A) (A) (A) (A) (A) (A) (A) (A)
                 (A) (A) (A) (A) (A) (A) (A) (A) (A) (A) (A) (A)
                 (A) (A) (A) (A) (A) (A) (A) (A) (A) (A) (A) (A)
                 (A) (A) (A) (A) (A) (A) (A) (A) (A) (A) (A) (A)
                 (A) (A) (A) (A) (A) (A) (A) (A) (A) (A) (A) (A)
                 (A) (A) (A) (A) (A) (A) (A) (A) (A) (A) (A) (A)
                 (A) (A) (A) (A) (A) (A) (A) (A) (A) (A) (A) (A)
                 (A) (A) (A) (A) (A) (A) (A) (A) (A) (A) (A) (A)
                 (A) (A) (A) (A) (A) (A) (A) (A) (A) (A) (A) (A)
                 (A) (A) (A) (A) (A) (A) (A) (A) (A) (A) (A) (A)
                 (A) (A) (A) (A) (A) (A) (A) (A) (A) (A) (A) (A)
                 (A) (A) (A) (A) (A) (A) (A) (A) (A) (A) (A) (A)
                 (A) (A) (A) (A) (A) (A) (A)
 The electronic state is 1-A.
 Alpha  occ. eigenvalues --  -89.92349 -19.63830 -19.63296 -19.62498 -19.62131
 Alpha  occ. eigenvalues --  -19.57703 -14.78988 -14.76105 -10.66477 -10.63432
 Alpha  occ. eigenvalues --  -10.62892 -10.59396 -10.59046 -10.58938 -10.58347
 Alpha  occ. eigenvalues --  -10.57513 -10.57340 -10.57229 -10.55781 -10.55669
 Alpha  occ. eigenvalues --  -10.55015 -10.53803 -10.53440 -10.53244  -8.28282
 Alpha  occ. eigenvalues --   -6.20221  -6.19986  -6.19790  -1.19529  -1.19034
 Alpha  occ. eigenvalues --   -1.15906  -1.14999  -1.13632  -1.08408  -1.00740
 Alpha  occ. eigenvalues --   -0.93380  -0.91851  -0.90584  -0.88471  -0.87550
 Alpha  occ. eigenvalues --   -0.85534  -0.83433  -0.78888  -0.77035  -0.75549
 Alpha  occ. eigenvalues --   -0.73465  -0.70749  -0.67974  -0.67645  -0.66506
 Alpha  occ. eigenvalues --   -0.63893  -0.63299  -0.61979  -0.60465  -0.58818
 Alpha  occ. eigenvalues --   -0.58210  -0.57483  -0.56577  -0.56260  -0.55253
 Alpha  occ. eigenvalues --   -0.54615  -0.52974  -0.52562  -0.52035  -0.51439
 Alpha  occ. eigenvalues --   -0.50726  -0.50395  -0.50192  -0.49256  -0.49203
 Alpha  occ. eigenvalues --   -0.48805  -0.48592  -0.47752  -0.47125  -0.46981
 Alpha  occ. eigenvalues --   -0.46046  -0.44696  -0.44376  -0.44148  -0.43787
 Alpha  occ. eigenvalues --   -0.43409  -0.43128  -0.41701  -0.41457  -0.37800
 Alpha  occ. eigenvalues --   -0.36149  -0.35560  -0.34748  -0.34684  -0.33680
 Alpha  occ. eigenvalues --   -0.33504  -0.32759  -0.32361  -0.31321  -0.24432
 Alpha virt. eigenvalues --   -0.03508   0.00373   0.04220   0.04338   0.06002
 Alpha virt. eigenvalues --    0.06839   0.07181   0.07543   0.08618   0.09157
 Alpha virt. eigenvalues --    0.09405   0.09719   0.10432   0.10639   0.10901
 Alpha virt. eigenvalues --    0.12051   0.12096   0.12307   0.12586   0.12948
 Alpha virt. eigenvalues --    0.13402   0.13787   0.13824   0.14067   0.14510
 Alpha virt. eigenvalues --    0.15071   0.15725   0.16205   0.17097   0.17494
 Alpha virt. eigenvalues --    0.17946   0.18660   0.19057   0.19169   0.19420
 Alpha virt. eigenvalues --    0.20508   0.20777   0.21435   0.22165   0.22913
 Alpha virt. eigenvalues --    0.23092   0.23358   0.23995   0.24256   0.24700
 Alpha virt. eigenvalues --    0.24944   0.25541   0.25651   0.26419   0.27164
 Alpha virt. eigenvalues --    0.27449   0.27949   0.28264   0.28667   0.29159
 Alpha virt. eigenvalues --    0.29848   0.30307   0.30396   0.30744   0.31077
 Alpha virt. eigenvalues --    0.31209   0.32182   0.33261   0.33817   0.33992
 Alpha virt. eigenvalues --    0.34346   0.35343   0.35531   0.35870   0.36362
 Alpha virt. eigenvalues --    0.36624   0.37390   0.37763   0.38197   0.38419
 Alpha virt. eigenvalues --    0.38632   0.39322   0.39832   0.40210   0.40412
 Alpha virt. eigenvalues --    0.40880   0.41213   0.41490   0.42199   0.42336
 Alpha virt. eigenvalues --    0.43064   0.43107   0.43667   0.43716   0.44047
 Alpha virt. eigenvalues --    0.44602   0.45132   0.45455   0.45631   0.46120
 Alpha virt. eigenvalues --    0.46416   0.46479   0.46885   0.47519   0.47654
 Alpha virt. eigenvalues --    0.48004   0.48218   0.48458   0.48993   0.49547
 Alpha virt. eigenvalues --    0.49986   0.50547   0.50680   0.50981   0.51586
 Alpha virt. eigenvalues --    0.51950   0.52002   0.52183   0.52706   0.52977
 Alpha virt. eigenvalues --    0.53586   0.53603   0.54121   0.54502   0.54958
 Alpha virt. eigenvalues --    0.55419   0.55779   0.56510   0.57071   0.57597
 Alpha virt. eigenvalues --    0.58020   0.58449   0.58961   0.59743   0.59841
 Alpha virt. eigenvalues --    0.60614   0.60936   0.61756   0.61829   0.62691
 Alpha virt. eigenvalues --    0.62842   0.63319   0.65058   0.65245   0.65678
 Alpha virt. eigenvalues --    0.66547   0.66882   0.67210   0.67444   0.67923
 Alpha virt. eigenvalues --    0.68692   0.69504   0.70123   0.70327   0.71082
 Alpha virt. eigenvalues --    0.71845   0.73148   0.73293   0.73687   0.74066
 Alpha virt. eigenvalues --    0.74858   0.75157   0.76347   0.76765   0.76808
 Alpha virt. eigenvalues --    0.77338   0.78256   0.79180   0.80899   0.81266
 Alpha virt. eigenvalues --    0.81394   0.82085   0.82943   0.84080   0.84482
 Alpha virt. eigenvalues --    0.85555   0.86138   0.86713   0.87080   0.87549
 Alpha virt. eigenvalues --    0.88362   0.88471   0.88947   0.89520   0.90322
 Alpha virt. eigenvalues --    0.91025   0.91624   0.91775   0.92920   0.93624
 Alpha virt. eigenvalues --    0.94230   0.94733   0.95150   0.95887   0.96806
 Alpha virt. eigenvalues --    0.97109   0.97876   0.98494   0.98686   0.99653
 Alpha virt. eigenvalues --    1.00176   1.00903   1.01243   1.02601   1.03110
 Alpha virt. eigenvalues --    1.03585   1.04368   1.04941   1.05564   1.06669
 Alpha virt. eigenvalues --    1.07417   1.07903   1.08200   1.08941   1.09581
 Alpha virt. eigenvalues --    1.11014   1.11174   1.11911   1.12639   1.12785
 Alpha virt. eigenvalues --    1.13600   1.14632   1.15723   1.16564   1.16946
 Alpha virt. eigenvalues --    1.17748   1.19154   1.19408   1.19792   1.20484
 Alpha virt. eigenvalues --    1.20803   1.21548   1.22520   1.23244   1.24149
 Alpha virt. eigenvalues --    1.24666   1.25435   1.25946   1.27233   1.29222
 Alpha virt. eigenvalues --    1.29676   1.29920   1.30756   1.31136   1.32114
 Alpha virt. eigenvalues --    1.33360   1.33854   1.34206   1.34998   1.36282
 Alpha virt. eigenvalues --    1.37193   1.38223   1.38605   1.39162   1.40635
 Alpha virt. eigenvalues --    1.41473   1.42066   1.42845   1.43021   1.44836
 Alpha virt. eigenvalues --    1.45359   1.46104   1.48403   1.48757   1.49863
 Alpha virt. eigenvalues --    1.50219   1.50745   1.51094   1.51837   1.52944
 Alpha virt. eigenvalues --    1.53598   1.53791   1.54107   1.54891   1.55506
 Alpha virt. eigenvalues --    1.56101   1.56650   1.57171   1.57684   1.58316
 Alpha virt. eigenvalues --    1.58878   1.59251   1.59768   1.59949   1.60188
 Alpha virt. eigenvalues --    1.60597   1.61555   1.61942   1.61970   1.62399
 Alpha virt. eigenvalues --    1.62782   1.63667   1.64385   1.65429   1.65653
 Alpha virt. eigenvalues --    1.66043   1.66881   1.67499   1.67934   1.68563
 Alpha virt. eigenvalues --    1.69074   1.69200   1.69577   1.70141   1.71274
 Alpha virt. eigenvalues --    1.72340   1.73064   1.73400   1.73994   1.75139
 Alpha virt. eigenvalues --    1.75530   1.76252   1.76834   1.77795   1.78046
 Alpha virt. eigenvalues --    1.78796   1.79114   1.79321   1.80471   1.81473
 Alpha virt. eigenvalues --    1.82606   1.83501   1.84039   1.84752   1.84784
 Alpha virt. eigenvalues --    1.85113   1.86094   1.86707   1.87279   1.88370
 Alpha virt. eigenvalues --    1.88567   1.89160   1.89783   1.90922   1.92015
 Alpha virt. eigenvalues --    1.93145   1.93597   1.93865   1.94470   1.95553
 Alpha virt. eigenvalues --    1.95943   1.96538   1.97201   1.97733   1.98542
 Alpha virt. eigenvalues --    1.99197   1.99807   2.00215   2.01132   2.02801
 Alpha virt. eigenvalues --    2.03018   2.03581   2.04092   2.04852   2.06096
 Alpha virt. eigenvalues --    2.06406   2.07092   2.07628   2.08200   2.08940
 Alpha virt. eigenvalues --    2.09777   2.11010   2.11948   2.12190   2.12796
 Alpha virt. eigenvalues --    2.13916   2.15669   2.17062   2.17338   2.17771
 Alpha virt. eigenvalues --    2.18556   2.19564   2.19773   2.20389   2.20889
 Alpha virt. eigenvalues --    2.21419   2.22082   2.22997   2.23415   2.23586
 Alpha virt. eigenvalues --    2.24742   2.25328   2.26245   2.26790   2.27010
 Alpha virt. eigenvalues --    2.27469   2.28537   2.29237   2.30227   2.30602
 Alpha virt. eigenvalues --    2.32288   2.32730   2.33343   2.33479   2.34163
 Alpha virt. eigenvalues --    2.34880   2.35273   2.36039   2.36582   2.36712
 Alpha virt. eigenvalues --    2.36940   2.37770   2.38370   2.39396   2.39824
 Alpha virt. eigenvalues --    2.40567   2.41061   2.42018   2.42554   2.43737
 Alpha virt. eigenvalues --    2.44122   2.44568   2.45832   2.46387   2.47131
 Alpha virt. eigenvalues --    2.48525   2.49618   2.49893   2.50569   2.51514
 Alpha virt. eigenvalues --    2.52229   2.53835   2.54098   2.55510   2.55662
 Alpha virt. eigenvalues --    2.56282   2.57536   2.58052   2.58689   2.59198
 Alpha virt. eigenvalues --    2.59643   2.60136   2.60963   2.61417   2.61854
 Alpha virt. eigenvalues --    2.62449   2.63251   2.63705   2.64180   2.64468
 Alpha virt. eigenvalues --    2.65334   2.66098   2.66352   2.67290   2.67408
 Alpha virt. eigenvalues --    2.68689   2.69213   2.69955   2.70777   2.71646
 Alpha virt. eigenvalues --    2.72395   2.72762   2.73559   2.74009   2.74264
 Alpha virt. eigenvalues --    2.74691   2.75929   2.76654   2.77654   2.78494
 Alpha virt. eigenvalues --    2.79943   2.80842   2.81210   2.82247   2.82639
 Alpha virt. eigenvalues --    2.83528   2.84049   2.85379   2.85734   2.86486
 Alpha virt. eigenvalues --    2.86936   2.87345   2.88662   2.89058   2.89846
 Alpha virt. eigenvalues --    2.90174   2.91729   2.92025   2.92219   2.92470
 Alpha virt. eigenvalues --    2.93385   2.95005   2.95313   2.95804   2.96977
 Alpha virt. eigenvalues --    2.97995   2.98876   2.99835   3.00787   3.01475
 Alpha virt. eigenvalues --    3.02054   3.02716   3.03716   3.04489   3.05620
 Alpha virt. eigenvalues --    3.05749   3.06254   3.06909   3.07050   3.07371
 Alpha virt. eigenvalues --    3.08507   3.08857   3.09150   3.09525   3.10004
 Alpha virt. eigenvalues --    3.10950   3.11936   3.12108   3.12539   3.13373
 Alpha virt. eigenvalues --    3.14637   3.14904   3.15026   3.15256   3.16138
 Alpha virt. eigenvalues --    3.16575   3.17060   3.17441   3.17755   3.18420
 Alpha virt. eigenvalues --    3.18846   3.19301   3.19980   3.20294   3.21217
 Alpha virt. eigenvalues --    3.21457   3.22592   3.23381   3.24159   3.24799
 Alpha virt. eigenvalues --    3.25169   3.26101   3.26679   3.27428   3.28007
 Alpha virt. eigenvalues --    3.28788   3.29051   3.29713   3.31378   3.31637
 Alpha virt. eigenvalues --    3.32106   3.32548   3.33228   3.33635   3.34208
 Alpha virt. eigenvalues --    3.35098   3.35505   3.36087   3.36767   3.37050
 Alpha virt. eigenvalues --    3.37504   3.37943   3.38802   3.39402   3.40312
 Alpha virt. eigenvalues --    3.40966   3.41880   3.42054   3.43251   3.43630
 Alpha virt. eigenvalues --    3.44653   3.45158   3.45912   3.46380   3.46580
 Alpha virt. eigenvalues --    3.47046   3.47912   3.49262   3.49382   3.50009
 Alpha virt. eigenvalues --    3.50803   3.52420   3.52687   3.53467   3.55070
 Alpha virt. eigenvalues --    3.55248   3.55969   3.56396   3.56698   3.56906
 Alpha virt. eigenvalues --    3.58562   3.59354   3.60087   3.61094   3.61856
 Alpha virt. eigenvalues --    3.62139   3.62714   3.64030   3.65045   3.65465
 Alpha virt. eigenvalues --    3.65886   3.67081   3.67453   3.68166   3.68751
 Alpha virt. eigenvalues --    3.69797   3.71752   3.72421   3.74226   3.75031
 Alpha virt. eigenvalues --    3.75966   3.76174   3.77894   3.78678   3.79264
 Alpha virt. eigenvalues --    3.80463   3.81174   3.82020   3.82506   3.82911
 Alpha virt. eigenvalues --    3.85393   3.85463   3.87847   3.88893   3.89227
 Alpha virt. eigenvalues --    3.90511   3.91387   3.93605   3.93875   3.95102
 Alpha virt. eigenvalues --    3.97184   3.97406   3.97911   3.99432   4.00690
 Alpha virt. eigenvalues --    4.01980   4.02422   4.03633   4.05286   4.06760
 Alpha virt. eigenvalues --    4.09106   4.10334   4.10843   4.13775   4.14905
 Alpha virt. eigenvalues --    4.15876   4.16725   4.17731   4.18442   4.19254
 Alpha virt. eigenvalues --    4.19651   4.19862   4.21485   4.22099   4.24418
 Alpha virt. eigenvalues --    4.25627   4.26638   4.29436   4.30628   4.31598
 Alpha virt. eigenvalues --    4.32298   4.37576   4.37920   4.38694   4.39225
 Alpha virt. eigenvalues --    4.39485   4.40466   4.42453   4.43135   4.43852
 Alpha virt. eigenvalues --    4.44860   4.46925   4.47681   4.49374   4.51965
 Alpha virt. eigenvalues --    4.52707   4.53681   4.54586   4.57681   4.59357
 Alpha virt. eigenvalues --    4.62702   4.65219   4.66009   4.67140   4.69600
 Alpha virt. eigenvalues --    4.70475   4.70799   4.72947   4.73082   4.74830
 Alpha virt. eigenvalues --    4.75912   4.77371   4.80777   4.82432   4.84874
 Alpha virt. eigenvalues --    4.86964   4.88285   4.90054   4.90929   4.92803
 Alpha virt. eigenvalues --    4.94454   4.95321   4.98406   4.99614   5.00831
 Alpha virt. eigenvalues --    5.02545   5.03239   5.04724   5.07073   5.09407
 Alpha virt. eigenvalues --    5.12789   5.14209   5.16494   5.19790   5.21015
 Alpha virt. eigenvalues --    5.22466   5.24305   5.25336   5.27393   5.29099
 Alpha virt. eigenvalues --    5.29960   5.31590   5.31923   5.34823   5.38872
 Alpha virt. eigenvalues --    5.40451   5.42782   5.44421   5.47228   5.49052
 Alpha virt. eigenvalues --    5.50031   5.50922   5.53595   5.55091   5.56509
 Alpha virt. eigenvalues --    5.64675   5.68963   5.76177   5.77314   5.79740
 Alpha virt. eigenvalues --    5.80276   5.82401   5.83122   5.84183   5.89132
 Alpha virt. eigenvalues --    5.89781   5.92162   5.94077   5.96798   5.98198
 Alpha virt. eigenvalues --    5.99818   6.06093   6.07705   6.16773   6.18866
 Alpha virt. eigenvalues --    6.22027   6.25691   6.28448   6.30236   6.38853
 Alpha virt. eigenvalues --    6.39377   6.43575   6.45848   6.48828   6.54630
 Alpha virt. eigenvalues --    6.60456   6.62294   6.73006   6.76549   6.77504
 Alpha virt. eigenvalues --    6.77759   6.82852   6.84650   6.85640   6.86216
 Alpha virt. eigenvalues --    6.87193   6.98144   7.00598   7.05119   7.09255
 Alpha virt. eigenvalues --    7.11435   7.15045   7.16199   7.18374   7.22919
 Alpha virt. eigenvalues --    7.32509   7.36637   9.01858   9.39397   9.55407
 Alpha virt. eigenvalues --   19.98399  22.33091  22.47204  22.50661  22.52582
 Alpha virt. eigenvalues --   22.62587  22.66974  22.75316  22.77868  22.85351
 Alpha virt. eigenvalues --   22.92819  23.01616  23.02093  23.08966  23.10443
 Alpha virt. eigenvalues --   23.29063  23.52379  32.20929  33.24273  44.17093
 Alpha virt. eigenvalues --   44.19782  44.26537  44.30325  44.54638
          Condensed to atoms (all electrons):
               1          2          3          4          5          6
     1  C    5.159290   0.426625   0.410013   0.011873  -0.008040  -0.000250
     2  H    0.426625   0.497913  -0.015187  -0.002410   0.000439  -0.000005
     3  H    0.410013  -0.015187   0.518939  -0.000743   0.000341  -0.000011
     4  C    0.011873  -0.002410  -0.000743   5.628380   0.538916   0.181982
     5  H   -0.008040   0.000439   0.000341   0.538916   0.519672  -0.037043
     6  O   -0.000250  -0.000005  -0.000011   0.181982  -0.037043   8.154706
     7  H    0.000028  -0.000003  -0.000001  -0.057340  -0.008668   0.323406
     8  C   -0.011563   0.011070  -0.001216  -0.008253  -0.098037  -0.051405
     9  H    0.004912  -0.000357  -0.001653  -0.072020   0.002313   0.001021
    10  O    0.005476  -0.000188  -0.000032   0.058127   0.005704  -0.021976
[...]
 (Enter /storage/apps/GAUSSIAN/G16_RevA03/g16/l716.exe)
 Dipole        = 1.01192872D+00-3.68453010D-01-2.00200105D+00
 ***** Axes restored to original set *****
 -------------------------------------------------------------------
 Center     Atomic                   Forces (Hartrees/Bohr)
 Number     Number              X              Y              Z
 -------------------------------------------------------------------
      1        6           0.000231599   -0.000104345    0.000016978
      2        1           0.000012092   -0.000007650   -0.000002665
      3        1          -0.000005050   -0.000038154    0.000001275
      4        6           0.000545516   -0.000208702   -0.000135751
      5        1           0.000015748   -0.000015477    0.000010739
      6        8           0.000724110   -0.000387782    0.000041995
      7        1           0.000074618   -0.000085883    0.000071405
      8        6           0.000593496   -0.000118468   -0.000028089
      9        1           0.000044459   -0.000011925    0.000001414
     10        8           0.000729244   -0.000099220    0.000044248
     11        1           0.000045979   -0.000036224    0.000030228
     12        6           0.000369272   -0.000151920   -0.000220147
     13        1           0.000049613   -0.000009569   -0.000026251
     14        6           0.000611091   -0.000064872    0.000006184
     15        1           0.000053897   -0.000030263   -0.000007209
     16        8           0.001127224    0.000108152   -0.000013063
     17        7           0.000824204   -0.000206081   -0.000764696
     18        6          -0.000370972   -0.000328626    0.000593333
     19        1          -0.000192043   -0.000059592    0.000264132
     20        6           0.000320352   -0.000506601   -0.000319743
     21        1          -0.000025190   -0.000070003    0.000158090
     22        6           0.002388621    0.000045152   -0.006254632
     23        1           0.000721394   -0.000076992    0.000081558
     24        1           0.000086543    0.000107158   -0.001151717
     25        6           0.000983013   -0.000163316   -0.002084027
     26        6           0.000365980   -0.000231358   -0.001014926
     27        1          -0.000038252   -0.000005643    0.000007013
     28        6           0.000523312    0.000075517   -0.000448612
     29        8          -0.000540248    0.000719173    0.001729082
     30        7           0.000835628   -0.000022736   -0.000072881
     31        1           0.000031924   -0.000049194   -0.000279522
     32        1           0.000160987   -0.000283940   -0.000708899
     33        1          -0.000029074    0.000015757    0.000016664
     34        6           0.000227094    0.000042009   -0.000659119
     35        6          -0.001439625    0.000292508    0.001568508
     36        6          -0.002766859    0.000618329    0.002809613
     37        6          -0.001201564   -0.000164352    0.000281083
     38        6          -0.004073137    0.001259900    0.006107060
     39        8          -0.002045003    0.000170349    0.000968592
     40       16           0.000338767    0.000463405   -0.000746070
     41        1           0.000057509   -0.000001673   -0.000097030
     42        1          -0.000022352   -0.000048032   -0.000086454
     43        1          -0.000380272   -0.000543947   -0.000308978
     44        1          -0.000128068    0.000069440    0.000241558
     45        1           0.000410544    0.000187150   -0.000328751
     46        1          -0.000225942   -0.000143380    0.000743322
     47        1          -0.000038782    0.000082008    0.000024640
     48        1           0.000018599    0.000019912   -0.000059481
 -------------------------------------------------------------------
 Cartesian Forces:  Max     0.006254632 RMS     0.001024158
 Leave Link  716 at Sat Aug 13 20:21:45 2022, MaxMem=  2684354560 cpu:               0.4 elap:               0.0
 (Enter /storage/apps/GAUSSIAN/G16_RevA03/g16/l103.exe)

 GradGradGradGradGradGradGradGradGradGradGradGradGradGradGradGradGradGrad
 Berny optimization.
 Search for a local minimum.
 Step number   1 out of a maximum of    2
 All quantities printed in internal units (Hartrees-Bohrs-Radians)
 Second derivative matrix not updated -- first step.
 ITU=  0
     Eigenvalues ---    0.00036   0.00098   0.00104   0.00127   0.00185
     Eigenvalues ---    0.00248   0.00314   0.00388   0.00425   0.00458
     Eigenvalues ---    0.00581   0.00731   0.00833   0.00879   0.00925
     Eigenvalues ---    0.01022   0.01094   0.01196   0.01382   0.01511
     Eigenvalues ---    0.01708   0.01906   0.02349   0.02492   0.02616
     Eigenvalues ---    0.02981   0.03197   0.03383   0.03734   0.03845
     Eigenvalues ---    0.04367   0.04626   0.04929   0.05127   0.05263
     Eigenvalues ---    0.05385   0.05522   0.05752   0.05870   0.05884
     Eigenvalues ---    0.06094   0.06161   0.06358   0.06374   0.06704
     Eigenvalues ---    0.06943   0.07512   0.07717   0.07881   0.08043
     Eigenvalues ---    0.08441   0.08753   0.09114   0.09844   0.10285
     Eigenvalues ---    0.10552   0.11699   0.12133   0.12482   0.12600
     Eigenvalues ---    0.13002   0.13106   0.13219   0.13650   0.13692
     Eigenvalues ---    0.13927   0.14047   0.15365   0.15982   0.16617
     Eigenvalues ---    0.16751   0.18599   0.19174   0.19717   0.19803
     Eigenvalues ---    0.20034   0.20845   0.21734   0.21855   0.22233
     Eigenvalues ---    0.24556   0.27091   0.27461   0.28464   0.31116
     Eigenvalues ---    0.32976   0.34120   0.35140   0.35308   0.36981
     Eigenvalues ---    0.38147   0.38147   0.38147   0.38147   0.40284
     Eigenvalues ---    0.43185   0.45292   0.48054   0.56433   0.56728
     Eigenvalues ---    0.61644   0.66473   0.69534   0.70047   0.74305
     Eigenvalues ---    0.78927   0.82443   0.87584   0.89068   0.90959
     Eigenvalues ---    0.91326   0.91870   0.93943   0.94601   0.94876
     Eigenvalues ---    0.96245   0.97263   1.00098   1.01840   1.03041
     Eigenvalues ---    1.05649   1.06892   1.10113   1.11491   1.14448
     Eigenvalues ---    1.19468   1.20000   1.25452   1.26314   1.30164
     Eigenvalues ---    1.33698   1.43527   1.52100   1.63613   1.70400
     Eigenvalues ---    1.79529   2.18382   2.28012
 Quadratic step=5.006D+00 exceeds max=3.000D-01 adjusted using Lamda=-1.742D-02.
 Angle between NR and scaled steps=  55.23 degrees.
 Angle between quadratic step and forces=  49.44 degrees.
 Linear search not attempted -- first point.
 Variable       Old X    -DE/DX   Delta X   Delta X   Delta X     New X
                                 (Linear)    (Quad)   (Total)
    X1        6.80777   0.00023   0.00000  -0.00625  -0.00625   6.80152
    Y1       -6.83532  -0.00010   0.00000   0.00417   0.00417  -6.83115
    Z1       -0.83800   0.00002   0.00000   0.00218   0.00218  -0.83582
    X2        7.08823   0.00001   0.00000  -0.01382  -0.01382   7.07441
    Y2       -7.01700  -0.00001   0.00000   0.00497   0.00497  -7.01203
    Z2       -2.86909  -0.00000   0.00000   0.00149   0.00149  -2.86760
    X3        8.18894  -0.00001   0.00000  -0.00940  -0.00940   8.17953
    Y3       -8.01966  -0.00004   0.00000  -0.00071  -0.00071  -8.02037
    Z3        0.13007   0.00000   0.00000  -0.00016  -0.00016   0.12991
    X4        3.56033   0.00055   0.00000   0.00641   0.00641   3.56674
    Y4       -2.73974  -0.00021   0.00000  -0.00116  -0.00116  -2.74089
    Z4        2.32911  -0.00014   0.00000   0.00188   0.00188   2.33099
    X5        2.32757   0.00002   0.00000   0.00329   0.00329   2.33086
    Y5       -4.38460  -0.00002   0.00000  -0.00025  -0.00025  -4.38486
    Z5        2.07012   0.00001   0.00000   0.00918   0.00918   2.07930
    X6        2.82613   0.00072   0.00000   0.01468   0.01468   2.84081
    Y6       -1.30146  -0.00039   0.00000  -0.00369  -0.00369  -1.30515
    Z6        4.41692   0.00004   0.00000   0.00638   0.00638   4.42329
    X7        1.07291   0.00007   0.00000   0.01103   0.01103   1.08395
    Y7       -0.78772  -0.00009   0.00000  -0.00711  -0.00711  -0.79483
    Z7        4.17441   0.00007   0.00000   0.02143   0.02143   4.19584
    X8        6.29596   0.00059   0.00000   0.00768   0.00768   6.30364
    Y8       -3.57141  -0.00012   0.00000   0.00058   0.00058  -3.57083
    Z8        2.65705  -0.00003   0.00000   0.00136   0.00136   2.65840
    X9        6.47314   0.00004   0.00000   0.00442   0.00442   6.47756
    Y9       -5.24564  -0.00001   0.00000   0.00082   0.00082  -5.24482
    Z9        3.85857   0.00000   0.00000   0.00240   0.00240   3.86097
   X10        7.72995   0.00073   0.00000   0.00933   0.00933   7.73929
   Y10       -1.54688  -0.00010   0.00000  -0.00080  -0.00080  -1.54768
   Z10        3.62119   0.00004   0.00000   0.00313   0.00313   3.62432
   X11        6.70313   0.00005   0.00000   0.00863   0.00863   6.71176
   Y11       -0.73325  -0.00004   0.00000  -0.00349  -0.00349  -0.73673
   Z11        4.89274   0.00003   0.00000   0.00525   0.00525   4.89799
   X12        3.71186   0.00037   0.00000   0.00086   0.00086   3.71272
   Y12       -1.25375  -0.00015   0.00000  -0.00163  -0.00163  -1.25538
   Z12       -0.16526  -0.00022   0.00000  -0.00137  -0.00137  -0.16663
   X13        4.28577   0.00005   0.00000  -0.00852  -0.00852   4.27725
   Y13        0.69205  -0.00001   0.00000   0.00040   0.00040   0.69245
   Z13        0.24206  -0.00003   0.00000   0.00449   0.00449   0.24654
   X14        7.11283   0.00061   0.00000   0.00639   0.00639   7.11921
   Y14       -4.09641  -0.00006   0.00000   0.00224   0.00224  -4.09417
   Z14       -0.05490   0.00001   0.00000   0.00192   0.00192  -0.05298
   X15        9.06641   0.00005   0.00000   0.00642   0.00642   9.07283
   Y15       -3.48212  -0.00003   0.00000  -0.00050  -0.00050  -3.48262
   Z15       -0.29820  -0.00001   0.00000   0.00347   0.00347  -0.29473
   X16        5.54356   0.00113   0.00000   0.01170   0.01170   5.55527
   Y16       -2.53002   0.00011   0.00000   0.00748   0.00748  -2.52254
   Z16       -1.61570  -0.00001   0.00000   0.00237   0.00237  -1.61333
   X17        1.39377   0.00082   0.00000   0.00367   0.00367   1.39744
   Y17       -1.13130  -0.00021   0.00000  -0.00508  -0.00508  -1.13638
   Z17       -1.58526  -0.00076   0.00000  -0.01203  -0.01203  -1.59729
   X18        0.35384  -0.00037   0.00000  -0.00849  -0.00849   0.34534
   Y18       -3.35549  -0.00033   0.00000  -0.00692  -0.00692  -3.36241
   Z18       -2.53521   0.00059   0.00000   0.00401   0.00401  -2.53121
   X19        1.47459  -0.00019   0.00000  -0.02620  -0.02620   1.44839
   Y19       -5.03154  -0.00006   0.00000  -0.01144  -0.01144  -5.04298
   Z19       -2.21342   0.00026   0.00000   0.03601   0.03601  -2.17741
   X20       -1.78809   0.00032   0.00000   0.00385   0.00385  -1.78424
   Y20       -3.40126  -0.00051   0.00000  -0.00550  -0.00550  -3.40676
   Z20       -3.84449  -0.00032   0.00000  -0.01803  -0.01803  -3.86252
   X21       -2.44036  -0.00003   0.00000  -0.01156  -0.01156  -2.45193
   Y21       -5.19065  -0.00007   0.00000  -0.01017  -0.01017  -5.20082
   Z21       -4.58571   0.00016   0.00000   0.00988   0.00988  -4.57582
   X22       -3.30753   0.00239   0.00000   0.02867   0.02867  -3.27886
   Y22       -1.06844   0.00005   0.00000   0.00026   0.00026  -1.06818
   Z22       -4.36966  -0.00625   0.00000  -0.06989  -0.06989  -4.43955
   X23       -3.74984   0.00072   0.00000   0.03769   0.03769  -3.71215
   Y23       -0.94817  -0.00008   0.00000  -0.00275  -0.00275  -0.95092
   Z23       -6.39309   0.00008   0.00000  -0.06669  -0.06669  -6.45978
   X24       -5.14908   0.00009   0.00000   0.01997   0.01997  -5.12911
   Y24       -1.21067   0.00011   0.00000   0.01421   0.01421  -1.19645
   Z24       -3.43224  -0.00115   0.00000  -0.07795  -0.07795  -3.51018
   X25       -1.88978   0.00098   0.00000   0.01890   0.01890  -1.87088
   Y25        1.25338  -0.00016   0.00000  -0.00281  -0.00281   1.25057
   Z25       -3.53210  -0.00208   0.00000  -0.04492  -0.04492  -3.57702
   X26        0.29602   0.00037   0.00000   0.00629   0.00629   0.30231
   Y26        1.10096  -0.00023   0.00000  -0.00566  -0.00566   1.09530
   Z26       -2.24492  -0.00101   0.00000  -0.02243  -0.02243  -2.26735
   X27        1.26034  -0.00004   0.00000  -0.01066  -0.01066   1.24968
   Y27        2.81504  -0.00001   0.00000  -0.00434  -0.00434   2.81070
   Z27       -1.67227   0.00001   0.00000   0.00455   0.00455  -1.66772
   X28       -2.83606   0.00052   0.00000  -0.00485  -0.00485  -2.84091
   Y28        3.81404   0.00008   0.00000   0.00088   0.00088   3.81492
   Z28       -4.11343  -0.00045   0.00000   0.00529   0.00529  -4.10814
   X29       -1.60176  -0.00054   0.00000  -0.03441  -0.03441  -1.63617
   Y29        5.73466   0.00072   0.00000   0.01077   0.01077   5.74543
   Z29       -3.83482   0.00173   0.00000   0.06901   0.06901  -3.76580
   X30       -5.25602   0.00084   0.00000  -0.00738  -0.00738  -5.26340
   Y30        3.90551  -0.00002   0.00000  -0.00134  -0.00134   3.90418
   Z30       -5.03731  -0.00007   0.00000   0.01161   0.01161  -5.02571
   X31       -6.01368   0.00003   0.00000  -0.02152  -0.02152  -6.03520
   Y31        5.63177  -0.00005   0.00000  -0.00191  -0.00191   5.62987
   Z31       -5.28396  -0.00028   0.00000   0.04632   0.04632  -5.23764
   X32       -6.41606   0.00016   0.00000   0.00125   0.00125  -6.41481
   Y32        2.40726  -0.00028   0.00000  -0.00993  -0.00993   2.39733
   Z32       -4.93149  -0.00071   0.00000  -0.00899  -0.00899  -4.94048
   X33        4.92059  -0.00003   0.00000  -0.00867  -0.00867   4.91192
   Y33       -7.53384   0.00002   0.00000   0.01255   0.01255  -7.52130
   Z33       -0.37658   0.00002   0.00000   0.00770   0.00770  -0.36889
   X34        0.37850   0.00023   0.00000   0.02317   0.02317   0.40167
   Y34        4.15797   0.00004   0.00000  -0.00015  -0.00015   4.15782
   Z34        5.34828  -0.00066   0.00000  -0.02652  -0.02652   5.32176
   X35       -3.07533  -0.00144   0.00000  -0.03368  -0.03368  -3.10901
   Y35        1.72317   0.00029   0.00000   0.00299   0.00299   1.72616
   Z35        2.38407   0.00157   0.00000   0.03943   0.03943   2.42350
   X36       -5.44071  -0.00277   0.00000  -0.04283  -0.04283  -5.48353
   Y36        1.63227   0.00062   0.00000   0.00958   0.00958   1.64185
   Z36        0.92713   0.00281   0.00000   0.05796   0.05796   0.98509
   X37       -9.07367  -0.00120   0.00000   0.00459   0.00459  -9.06908
   Y37       -0.80273  -0.00016   0.00000  -0.00841  -0.00841  -0.81114
   Z37       -0.81744   0.00028   0.00000  -0.02147  -0.02147  -0.83892
   X38       -6.50739  -0.00407   0.00000  -0.04111  -0.04111  -6.54850
   Y38       -0.56294   0.00126   0.00000   0.00617   0.00617  -0.55677
   Z38        0.32976   0.00611   0.00000   0.07165   0.07165   0.40141
   X39       -1.85009  -0.00205   0.00000  -0.05718  -0.05718  -1.90726
   Y39       -0.13864   0.00017   0.00000  -0.00718  -0.00718  -0.14583
   Z39        2.94537   0.00097   0.00000   0.05532   0.05532   3.00069
   X40       -2.31487   0.00034   0.00000   0.04583   0.04583  -2.26905
   Y40        4.79432   0.00046   0.00000   0.01271   0.01271   4.80703
   Z40        3.37964  -0.00075   0.00000  -0.05576  -0.05576   3.32388
   X41        0.83608   0.00006   0.00000   0.01985   0.01985   0.85593
   Y41        5.92505  -0.00000   0.00000  -0.00334  -0.00334   5.92170
   Z41        6.29225  -0.00010   0.00000  -0.01817  -0.01817   6.27408
   X42        1.98071  -0.00002   0.00000   0.03292   0.03292   2.01363
   Y42        3.53498  -0.00005   0.00000  -0.00641  -0.00641   3.52857
   Z42        4.22329  -0.00009   0.00000  -0.00784  -0.00784   4.21545
   X43      -10.44010  -0.00038   0.00000  -0.03576  -0.03576 -10.47585
   Y43       -1.25706  -0.00054   0.00000  -0.03765  -0.03765  -1.29471
   Z43        0.66387  -0.00031   0.00000  -0.07099  -0.07099   0.59288
   X44       -9.67656  -0.00013   0.00000   0.02452   0.02452  -9.65204
   Y44        0.95979   0.00007   0.00000  -0.00404  -0.00404   0.95575
   Z44       -1.69939   0.00024   0.00000  -0.02675  -0.02675  -1.72614
   X45       -9.16875   0.00041   0.00000   0.07224   0.07224  -9.09650
   Y45       -2.32558   0.00019   0.00000   0.00675   0.00675  -2.31883
   Z45       -2.20253  -0.00033   0.00000  -0.04413  -0.04413  -2.24666
   X46       -5.50019  -0.00023   0.00000  -0.03057  -0.03057  -5.53077
   Y46       -2.28329  -0.00014   0.00000   0.01080   0.01080  -2.27249
   Z46        0.82213   0.00074   0.00000   0.07318   0.07318   0.89531
   X47       -6.33613  -0.00004   0.00000  -0.01171  -0.01171  -6.34785
   Y47        3.42180   0.00008   0.00000   0.01209   0.01209   3.43389
   Z47        0.48386   0.00002   0.00000   0.01039   0.01039   0.49425
   X48       -0.09174   0.00002   0.00000   0.00517   0.00517  -0.08656
   Y48        2.72419   0.00002   0.00000   0.00220   0.00220   2.72639
   Z48        6.74476  -0.00006   0.00000  -0.02877  -0.02877   6.71599
         Item               Value     Threshold  Converged?
 Maximum Force            0.006255     0.000450     NO 
 RMS     Force            0.001024     0.000300     NO 
 Maximum Displacement     0.077946     0.001800     NO 
 RMS     Displacement     0.025036     0.001200     NO 
 Predicted change in Energy=-1.986777D-03
 GradGradGradGradGradGradGradGradGradGradGradGradGradGradGradGradGradGrad

 Leave Link  103 at Sat Aug 13 20:21:45 2022, MaxMem=  2684354560 cpu:               0.9 elap:               0.1
 (Enter /storage/apps/GAUSSIAN/G16_RevA03/g16/l9999.exe)

 Test job not archived.
 1\1\GINC-T073\Force\RM062X\def2TZVP\C16H24N2O5S1\LV87696\13-Aug-2022\0
 \\#P M062X/Def2TZVP scf=(direct,conver=8) EmpiricalDispersion=GD3 Forc
 e Charge Prop=(Field,Read)\\Gaussian run\\0,1\C,3.602518,-3.617094,-0.
 443451\H,3.75093,-3.713237,-1.518257\H,4.333398,-4.243821,0.06883\C,1.
 884045,-1.449807,1.232512\H,1.231697,-2.320233,1.09546\O,1.495522,-0.6
 88702,2.337331\H,0.567761,-0.416843,2.209004\C,3.331681,-1.889911,1.40
 6049\H,3.425439,-2.775871,2.041866\O,4.090516,-0.818574,1.916251\H,3.5
 47143,-0.388018,2.589127\C,1.96423,-0.663457,-0.087452\H,2.267932,0.36
 6217,0.12809\C,3.763946,-2.167727,-0.029052\H,4.79774,-1.84266,-0.1578
 01\O,2.933528,-1.338829,-0.854992\N,0.737552,-0.598658,-0.838883\C,0.1
 87242,-1.775648,-1.341578\H,0.780317,-2.662577,-1.171292\C,-0.946216,-
 1.799871,-2.034418\H,-1.291385,-2.746772,-2.426651\C,-1.750271,-0.5653
 92,-2.312322\H,-1.984332,-0.501749,-3.38308\H,-2.724776,-0.640658,-1.8
 16261\C,-1.000029,0.66326,-1.869105\C,0.156645,0.582604,-1.18796\H,0.6
 66943,1.489657,-0.884928\C,-1.500776,2.018302,-2.176736\O,-0.847614,3.
 034652,-2.029297\N,-2.781365,2.066709,-2.665632\H,-3.182304,2.980206,-
 2.79615\H,-3.395234,1.273867,-2.60963\H,2.603864,-3.986737,-0.19928\C,
 0.200294,2.200303,2.830188\C,-1.627396,0.911861,1.261597\C,-2.879098,0
 .86376,0.490616\C,-4.801577,-0.424786,-0.432573\C,-3.44356,-0.297895,0
 .174501\O,-0.979023,-0.073367,1.558622\S,-1.224977,2.537044,1.788426\H
 ,0.442436,3.1354,3.329716\H,1.048148,1.870633,2.234871\H,-5.524661,-0.
 665206,0.351307\H,-5.120614,0.5079,-0.899278\H,-4.851892,-1.230643,-1.
 165528\H,-2.910576,-1.208265,0.43505\H,-3.352938,1.810738,0.256046\H,-
 0.048545,1.441581,3.569174\\Version=ES64L-G16RevA.03\State=1-A\HF=-150
 7.9269103\RMSD=1.506e-09\RMSF=1.024e-03\Dipole=-1.8963819,-1.1590196,0
 .4776765\Quadrupole=7.1829206,-2.1680354,-5.0148853,-2.9432197,6.04388
 01,7.9891413\PG=C01 [X(C16H24N2O5S1)]\\@


 THE MOLECULE ALSO HAS A BODY.  WHEN THIS BODY IS HIT, THE MOLECULE
 FEELS HURT ALL OVER -- A. KITAIGORODSKI
 Job cpu time:       0 days  3 hours 18 minutes 37.9 seconds.
 Elapsed time:       0 days  0 hours 12 minutes 26.6 seconds.
 File lengths (MBytes):  RWF=    435 Int=      0 D2E=      0 Chk=     48 Scr=      1
 Normal termination of Gaussian 16 at Sat Aug 13 20:21:45 2022.
