 Entering Gaussian System, Link 0=g16
 Initial command:
 /storage/apps/GAUSSIAN/G16_RevA03/g16/l1.exe "/scratch/tmp/2140815/Gau-177024.inp" -scrdir="/scratch/tmp/2140815/"
 Entering Link 1 = /storage/apps/GAUSSIAN/G16_RevA03/g16/l1.exe PID=    177025.
  
 Copyright (c) 1988,1990,1992,1993,1995,1998,2003,2009,2016,
            Gaussian, Inc.  All Rights Reserved.
  
 This is part of the Gaussian(R) 16 program.  It is based on
 the Gaussian(R) 09 system (copyright 2009, Gaussian, Inc.),
 the Gaussian(R) 03 system (copyright 2003, Gaussian, Inc.),
 the Gaussian(R) 98 system (copyright 1998, Gaussian, Inc.),
 the Gaussian(R) 94 system (copyright 1995, Gaussian, Inc.),
 the Gaussian 92(TM) system (copyright 1992, Gaussian, Inc.),
 the Gaussian 90(TM) system (copyright 1990, Gaussian, Inc.),
 the Gaussian 88(TM) system (copyright 1988, Gaussian, Inc.),
 the Gaussian 86(TM) system (copyright 1986, Carnegie Mellon
 University), and the Gaussian 82(TM) system (copyright 1983,
 Carnegie Mellon University). Gaussian is a federally registered
 trademark of Gaussian, Inc.
  
 This software contains proprietary and confidential information,
 including trade secrets, belonging to Gaussian, Inc.
  
 This software is provided under written license and may be
 used, copied, transmitted, or stored only in accord with that
 written license.
  
 The following legend is applicable only to US Government
 contracts under FAR:
  
                    RESTRICTED RIGHTS LEGEND
  
 Use, reproduction and disclosure by the US Government is
 subject to restrictions as set forth in subparagraphs (a)
 and (c) of the Commercial Computer Software - Restricted
 Rights clause in FAR 52.227-19.
  
 Gaussian, Inc.
 340 Quinnipiac St., Bldg. 40, Wallingford CT 06492
  
  
 ---------------------------------------------------------------
 Warning -- This program may not be used in any manner that
 competes with the business of Gaussian, Inc. or will provide
 assistance to any competitor of Gaussian, Inc.  The licensee
 of this program is prohibited from giving any competitor of
 Gaussian, Inc. access to this program.  By using this program,
 the user acknowledges that Gaussian, Inc. is engaged in the
 business of creating and licensing software in the field of
 computational chemistry and represents and warrants to the
 licensee that it is not a competitor of Gaussian, Inc. and that
 it will not use this program in any manner prohibited above.
 ---------------------------------------------------------------
  

 Cite this work as:
 Gaussian 16, Revision A.03,
 M. J. Frisch, G. W. Trucks, H. B. Schlegel, G. E. Scuseria, 
 M. A. Robb, J. R. Cheeseman, G. Scalmani, V. Barone, 
 G. A. Petersson, H. Nakatsuji, X. Li, M. Caricato, A. V. Marenich, 
 J. Bloino, B. G. Janesko, R. Gomperts, B. Mennucci, H. P. Hratchian, 
 J. V. Ortiz, A. F. Izmaylov, J. L. Sonnenberg, D. Williams-Young, 
 F. Ding, F. Lipparini, F. Egidi, J. Goings, B. Peng, A. Petrone, 
 T. Henderson, D. Ranasinghe, V. G. Zakrzewski, J. Gao, N. Rega, 
 G. Zheng, W. Liang, M. Hada, M. Ehara, K. Toyota, R. Fukuda, 
 J. Hasegawa, M. Ishida, T. Nakajima, Y. Honda, O. Kitao, H. Nakai, 
 T. Vreven, K. Throssell, J. A. Montgomery, Jr., J. E. Peralta, 
 F. Ogliaro, M. J. Bearpark, J. J. Heyd, E. N. Brothers, K. N. Kudin, 
 V. N. Staroverov, T. A. Keith, R. Kobayashi, J. Normand, 
 K. Raghavachari, A. P. Rendell, J. C. Burant, S. S. Iyengar, 
 J. Tomasi, M. Cossi, J. M. Millam, M. Klene, C. Adamo, R. Cammi, 
 J. W. Ochterski, R. L. Martin, K. Morokuma, O. Farkas, 
 J. B. Foresman, and D. J. Fox, Gaussian, Inc., Wallingford CT, 2016.
 
 ******************************************
 Gaussian 16:  ES64L-G16RevA.03 25-Dec-2016
                22-Jun-2024 
 ******************************************
 %chk=gau_job.chk
 %NProcShared=16
 Will use up to   16 processors via shared memory.
 %mem=20GB
 ----------------------------------------------------------------------
 #P M062X/Def2TZVP scf=(direct,conver=8) EmpiricalDispersion=GD3 NoSymm
  force Charge Prop=(Field,Read)
 ----------------------------------------------------------------------
 1/10=7,18=10,28=-2,30=1,38=1,125=101/1,3;
 2/12=2,15=1,17=6,18=5,29=2,40=1/2;
 3/5=44,7=101,11=2,25=1,30=1,71=1,74=-55,124=31/1,2,3;
 4//1;
 5/5=2,6=8,38=5/2;
 6/7=2,8=2,9=2,10=2,14=2,15=1,28=1/1,2;
 7/7=1,16=-2,29=1,30=1/1,2,3,16;
 1/10=7,18=10,28=-2,30=1/3;
 99/12=1/99;
 Leave Link    1 at Sat Jun 22 17:17:12 2024, MaxMem=  2684354560 cpu:               0.8 elap:               0.1
 (Enter /storage/apps/GAUSSIAN/G16_RevA03/g16/l101.exe)
 ----------------------------------------------------------------------
 Gaussian run using SANDER external interface, route from template gau_
 job.tpl
 ----------------------------------------------------------------------
 Symbolic Z-matrix:
 Charge =  1 Multiplicity = 1
 C                    -4.15116   0.37064   6.7409 
 H                    -3.98976   0.4436    7.7488 
 O                    -2.96039  -0.21598   6.12041 
 C                    -4.2928    1.75664   6.10797 
 H                    -5.26049   2.09911   6.08348 
 O                    -3.47174   2.74541   6.78176 
 H                    -3.652     2.79546   7.74173 
 C                    -3.66904   1.57012   4.71543 
 H                    -4.32698   1.14462   4.05446 
 O                    -3.22169   2.81527   4.1712 
 H                    -3.01683   3.38447   4.93737 
 C                    -2.48046   0.62387   5.02914 
 H                    -1.67125   1.16566   5.35628 
 N                    -2.03304  -0.22844   3.92289 
 C                    -0.68344  -0.3058    3.63967 
 H                    -0.09135   0.25199   4.25129 
 C                    -0.17544  -1.08165   2.66453 
 C                    -1.10169  -1.82287   1.74243 
 H                    -0.7425   -2.74361   1.48692 
 H                    -1.08973  -1.32481   0.83968 
 C                    -2.50593  -1.855     2.24695 
 H                    -3.16173  -2.50433   1.81614 
 C                    -2.91591  -1.08396   3.25441 
 H                    -3.87339  -1.10544   3.60266 
 C                     1.27459  -1.30082   2.46786 
 O                     1.69192  -2.15892   1.643 
 N                     2.18917  -0.57185   3.18749 
 H                     1.91053   0.0711    3.92514 
 H                     3.1536   -0.90294   3.20299 
 N                     2.16049  -3.14775  -1.93436 
 C                     3.2833   -2.45039  -2.25529 
 N                     4.41013  -3.10934  -2.60578 
 H                     4.45313  -4.1238   -2.55495 
 H                     5.26049  -2.58305  -2.87202 
 N                     3.32635  -1.07223  -2.26591 
 H                     4.25153  -0.60899  -2.39867 
 C                     2.2329   -0.28213  -1.93288 
 O                     2.35051   0.98349  -1.90074 
 C                     1.03077  -1.00159  -1.65609 
 N                    -0.13043  -0.32806  -1.26343 
 H                    -0.04991   0.69077  -1.18669 
 C                    -1.24769  -0.9356   -0.86129 
 C                    -1.39487  -2.3962   -1.29143 
 H                    -2.03075  -2.88196  -0.65893 
 H                    -1.81955  -2.42025  -2.22662 
 N                    -0.09854  -3.07942  -1.28657 
 H                    -0.08306  -4.09521  -1.23689 
 C                     1.04554  -2.42181  -1.63165 
 C                    -2.54654  -0.09689  -0.79662 
 H                    -2.86858  -0.0149    0.17041 
 H                    -3.26637  -0.6144   -1.30972 
 N                    -2.3936    1.25861  -1.32586 
 H                    -2.73659   1.99321  -0.7054 
 C                    -2.23156   2.13517  -5.43406 
 C                    -2.3905    3.15895  -4.46932 
 H                    -2.44072   4.1238   -4.79183 
 C                    -2.45195   2.87628  -3.14279 
 H                    -2.55671   3.62924  -2.46414 
 C                    -2.36937   1.53544  -2.68944 
 C                    -2.22672   0.51272  -3.6518 
 H                    -2.18116  -0.46317  -3.36338 
 C                    -2.15921   0.81589  -4.97742 
 H                    -2.06435   0.05004  -5.64271 
 C                    -2.13614   2.48419  -6.85684 
 O                    -2.40424   3.66272  -7.2772 
 N                    -1.73497   1.52928  -7.7488 
 H                    -1.57482   0.56975  -7.46046 
 H                    -5.0085   -0.27614   6.55451 
 H                    -1.65184   1.69528  -8.82288 
 
 ITRead=  0  0  0  0  0  0  0  0  0  0  0  0  0  0  0  0  0  0  0  0
 ITRead=  0  0  0  0  0  0  0  0  0  0  0  0  0  0  0  0  0  0  0  0
 ITRead=  0  0  0  0  0  0  0  0  0  0  0  0  0  0  0  0  0  0  0  0
 ITRead=  0  0  0  0  0  0  0  0  0
 MicOpt= -1 -1 -1 -1 -1 -1 -1 -1 -1 -1 -1 -1 -1 -1 -1 -1 -1 -1 -1 -1
 MicOpt= -1 -1 -1 -1 -1 -1 -1 -1 -1 -1 -1 -1 -1 -1 -1 -1 -1 -1 -1 -1
 MicOpt= -1 -1 -1 -1 -1 -1 -1 -1 -1 -1 -1 -1 -1 -1 -1 -1 -1 -1 -1 -1
 MicOpt= -1 -1 -1 -1 -1 -1 -1 -1 -1
 NAtoms=     69 NQM=       69 NQMF=       0 NMMI=      0 NMMIF=      0
                NMic=       0 NMicF=      0.
                    Isotopes and Nuclear Properties:
 (Nuclear quadrupole moments (NQMom) in fm**2, nuclear magnetic moments (NMagM)
  in nuclear magnetons)

  Atom         1           2           3           4           5           6           7           8           9          10
 IAtWgt=          12           1          16          12           1          16           1          12           1          16
 AtmWgt=  12.0000000   1.0078250  15.9949146  12.0000000   1.0078250  15.9949146   1.0078250  12.0000000   1.0078250  15.9949146
 NucSpn=           0           1           0           0           1           0           1           0           1           0
 AtZEff=  -0.0000000  -0.0000000  -0.0000000  -0.0000000  -0.0000000  -0.0000000  -0.0000000  -0.0000000  -0.0000000  -0.0000000
 NQMom=    0.0000000   0.0000000   0.0000000   0.0000000   0.0000000   0.0000000   0.0000000   0.0000000   0.0000000   0.0000000
 NMagM=    0.0000000   2.7928460   0.0000000   0.0000000   2.7928460   0.0000000   2.7928460   0.0000000   2.7928460   0.0000000
 AtZNuc=   6.0000000   1.0000000   8.0000000   6.0000000   1.0000000   8.0000000   1.0000000   6.0000000   1.0000000   8.0000000

  Atom        11          12          13          14          15          16          17          18          19          20
 IAtWgt=           1          12           1          14          12           1          12          12           1           1
 AtmWgt=   1.0078250  12.0000000   1.0078250  14.0030740  12.0000000   1.0078250  12.0000000  12.0000000   1.0078250   1.0078250
 NucSpn=           1           0           1           2           0           1           0           0           1           1
 AtZEff=  -0.0000000  -0.0000000  -0.0000000  -0.0000000  -0.0000000  -0.0000000  -0.0000000  -0.0000000  -0.0000000  -0.0000000
 NQMom=    0.0000000   0.0000000   0.0000000   2.0440000   0.0000000   0.0000000   0.0000000   0.0000000   0.0000000   0.0000000
 NMagM=    2.7928460   0.0000000   2.7928460   0.4037610   0.0000000   2.7928460   0.0000000   0.0000000   2.7928460   2.7928460
 AtZNuc=   1.0000000   6.0000000   1.0000000   7.0000000   6.0000000   1.0000000   6.0000000   6.0000000   1.0000000   1.0000000

  Atom        21          22          23          24          25          26          27          28          29          30
 IAtWgt=          12           1          12           1          12          16          14           1           1          14
 AtmWgt=  12.0000000   1.0078250  12.0000000   1.0078250  12.0000000  15.9949146  14.0030740   1.0078250   1.0078250  14.0030740
 NucSpn=           0           1           0           1           0           0           2           1           1           2
 AtZEff=  -0.0000000  -0.0000000  -0.0000000  -0.0000000  -0.0000000  -0.0000000  -0.0000000  -0.0000000  -0.0000000  -0.0000000
 NQMom=    0.0000000   0.0000000   0.0000000   0.0000000   0.0000000   0.0000000   2.0440000   0.0000000   0.0000000   2.0440000
 NMagM=    0.0000000   2.7928460   0.0000000   2.7928460   0.0000000   0.0000000   0.4037610   2.7928460   2.7928460   0.4037610
 AtZNuc=   6.0000000   1.0000000   6.0000000   1.0000000   6.0000000   8.0000000   7.0000000   1.0000000   1.0000000   7.0000000

  Atom        31          32          33          34          35          36          37          38          39          40
 IAtWgt=          12          14           1           1          14           1          12          16          12          14
 AtmWgt=  12.0000000  14.0030740   1.0078250   1.0078250  14.0030740   1.0078250  12.0000000  15.9949146  12.0000000  14.0030740
 NucSpn=           0           2           1           1           2           1           0           0           0           2
 AtZEff=  -0.0000000  -0.0000000  -0.0000000  -0.0000000  -0.0000000  -0.0000000  -0.0000000  -0.0000000  -0.0000000  -0.0000000
 NQMom=    0.0000000   2.0440000   0.0000000   0.0000000   2.0440000   0.0000000   0.0000000   0.0000000   0.0000000   2.0440000
 NMagM=    0.0000000   0.4037610   2.7928460   2.7928460   0.4037610   2.7928460   0.0000000   0.0000000   0.0000000   0.4037610
 AtZNuc=   6.0000000   7.0000000   1.0000000   1.0000000   7.0000000   1.0000000   6.0000000   8.0000000   6.0000000   7.0000000

  Atom        41          42          43          44          45          46          47          48          49          50
 IAtWgt=           1          12          12           1           1          14           1          12          12           1
 AtmWgt=   1.0078250  12.0000000  12.0000000   1.0078250   1.0078250  14.0030740   1.0078250  12.0000000  12.0000000   1.0078250
 NucSpn=           1           0           0           1           1           2           1           0           0           1
 AtZEff=  -0.0000000  -0.0000000  -0.0000000  -0.0000000  -0.0000000  -0.0000000  -0.0000000  -0.0000000  -0.0000000  -0.0000000
 NQMom=    0.0000000   0.0000000   0.0000000   0.0000000   0.0000000   2.0440000   0.0000000   0.0000000   0.0000000   0.0000000
 NMagM=    2.7928460   0.0000000   0.0000000   2.7928460   2.7928460   0.4037610   2.7928460   0.0000000   0.0000000   2.7928460
 AtZNuc=   1.0000000   6.0000000   6.0000000   1.0000000   1.0000000   7.0000000   1.0000000   6.0000000   6.0000000   1.0000000

  Atom        51          52          53          54          55          56          57          58          59          60
 IAtWgt=           1          14           1          12          12           1          12           1          12          12
 AtmWgt=   1.0078250  14.0030740   1.0078250  12.0000000  12.0000000   1.0078250  12.0000000   1.0078250  12.0000000  12.0000000
 NucSpn=           1           2           1           0           0           1           0           1           0           0
 AtZEff=  -0.0000000  -0.0000000  -0.0000000  -0.0000000  -0.0000000  -0.0000000  -0.0000000  -0.0000000  -0.0000000  -0.0000000
 NQMom=    0.0000000   2.0440000   0.0000000   0.0000000   0.0000000   0.0000000   0.0000000   0.0000000   0.0000000   0.0000000
 NMagM=    2.7928460   0.4037610   2.7928460   0.0000000   0.0000000   2.7928460   0.0000000   2.7928460   0.0000000   0.0000000
 AtZNuc=   1.0000000   7.0000000   1.0000000   6.0000000   6.0000000   1.0000000   6.0000000   1.0000000   6.0000000   6.0000000

  Atom        61          62          63          64          65          66          67          68          69
 IAtWgt=           1          12           1          12          16          14           1           1           1
 AtmWgt=   1.0078250  12.0000000   1.0078250  12.0000000  15.9949146  14.0030740   1.0078250   1.0078250   1.0078250
 NucSpn=           1           0           1           0           0           2           1           1           1
 AtZEff=  -0.0000000  -0.0000000  -0.0000000  -0.0000000  -0.0000000  -0.0000000  -0.0000000  -0.0000000  -0.0000000
 NQMom=    0.0000000   0.0000000   0.0000000   0.0000000   0.0000000   2.0440000   0.0000000   0.0000000   0.0000000
 NMagM=    2.7928460   0.0000000   2.7928460   0.0000000   0.0000000   0.4037610   2.7928460   2.7928460   2.7928460
 AtZNuc=   1.0000000   6.0000000   1.0000000   6.0000000   8.0000000   7.0000000   1.0000000   1.0000000   1.0000000
 Background charge distribution read from input stream:
 Leave Link  101 at Sat Jun 22 17:17:12 2024, MaxMem=  2684354560 cpu:               1.9 elap:               0.2
 (Enter /storage/apps/GAUSSIAN/G16_RevA03/g16/l103.exe)

 GradGradGradGradGradGradGradGradGradGradGradGradGradGradGradGradGradGrad
 Berny optimization.
 Initialization pass.
 Trust Radius=3.00D-01 FncErr=1.00D-07 GrdErr=1.00D-07 EigMax=2.50D+02 EigMin=1.00D-04
 Number of steps in this run=      2 maximum allowed number of steps=      2.
 GradGradGradGradGradGradGradGradGradGradGradGradGradGradGradGradGradGrad

 Leave Link  103 at Sat Jun 22 17:17:12 2024, MaxMem=  2684354560 cpu:               0.3 elap:               0.1
 (Enter /storage/apps/GAUSSIAN/G16_RevA03/g16/l202.exe)
 Symmetry turned off by external request.
 Stoichiometry    C24H30N9O6(1+)
 Framework group  C1[X(C24H30N9O6)]
 Deg. of freedom   201
 Full point group                 C1      NOp   1
                          Input orientation:                          
 ---------------------------------------------------------------------
 Center     Atomic      Atomic             Coordinates (Angstroms)
 Number     Number       Type             X           Y           Z
 ---------------------------------------------------------------------
      1          6           0       -4.151156    0.370642    6.740904
      2          1           0       -3.989761    0.443600    7.748803
      3          8           0       -2.960385   -0.215979    6.120415
      4          6           0       -4.292802    1.756641    6.107968
      5          1           0       -5.260492    2.099113    6.083481
      6          8           0       -3.471736    2.745414    6.781762
      7          1           0       -3.651998    2.795457    7.741727
      8          6           0       -3.669040    1.570119    4.715427
      9          1           0       -4.326978    1.144615    4.054462
     10          8           0       -3.221687    2.815274    4.171200
     11          1           0       -3.016833    3.384468    4.937365
     12          6           0       -2.480458    0.623873    5.029142
     13          1           0       -1.671250    1.165661    5.356279
     14          7           0       -2.033037   -0.228436    3.922889
     15          6           0       -0.683437   -0.305799    3.639674
     16          1           0       -0.091354    0.251986    4.251286
     17          6           0       -0.175441   -1.081653    2.664526
     18          6           0       -1.101692   -1.822873    1.742432
     19          1           0       -0.742502   -2.743614    1.486915
     20          1           0       -1.089729   -1.324815    0.839678
     21          6           0       -2.505929   -1.854997    2.246954
     22          1           0       -3.161727   -2.504333    1.816137
     23          6           0       -2.915909   -1.083955    3.254415
     24          1           0       -3.873389   -1.105444    3.602663
     25          6           0        1.274594   -1.300824    2.467858
     26          8           0        1.691923   -2.158923    1.642996
     27          7           0        2.189169   -0.571849    3.187493
     28          1           0        1.910532    0.071099    3.925140
     29          1           0        3.153604   -0.902937    3.202992
     30          7           0        2.160493   -3.147753   -1.934360
     31          6           0        3.283302   -2.450388   -2.255288
     32          7           0        4.410133   -3.109338   -2.605782
     33          1           0        4.453125   -4.123795   -2.554950
     34          1           0        5.260492   -2.583052   -2.872019
     35          7           0        3.326350   -1.072235   -2.265911
     36          1           0        4.251527   -0.608989   -2.398674
     37          6           0        2.232904   -0.282127   -1.932878
     38          8           0        2.350507    0.983493   -1.900740
     39          6           0        1.030769   -1.001586   -1.656086
     40          7           0       -0.130430   -0.328060   -1.263427
     41          1           0       -0.049911    0.690768   -1.186693
     42          6           0       -1.247694   -0.935603   -0.861287
     43          6           0       -1.394873   -2.396200   -1.291430
     44          1           0       -2.030747   -2.881958   -0.658925
     45          1           0       -1.819555   -2.420248   -2.226615
     46          7           0       -0.098539   -3.079423   -1.286568
     47          1           0       -0.083057   -4.095210   -1.236893
     48          6           0        1.045538   -2.421810   -1.631647
     49          6           0       -2.546543   -0.096890   -0.796615
     50          1           0       -2.868577   -0.014900    0.170412
     51          1           0       -3.266370   -0.614395   -1.309716
     52          7           0       -2.393600    1.258613   -1.325857
     53          1           0       -2.736587    1.993205   -0.705402
     54          6           0       -2.231558    2.135168   -5.434063
     55          6           0       -2.390500    3.158952   -4.469320
     56          1           0       -2.440720    4.123795   -4.791827
     57          6           0       -2.451952    2.876284   -3.142790
     58          1           0       -2.556707    3.629238   -2.464141
     59          6           0       -2.369365    1.535445   -2.689438
     60          6           0       -2.226722    0.512723   -3.651802
     61          1           0       -2.181162   -0.463166   -3.363378
     62          6           0       -2.159206    0.815892   -4.977418
     63          1           0       -2.064347    0.050045   -5.642711
     64          6           0       -2.136143    2.484193   -6.856843
     65          8           0       -2.404244    3.662723   -7.277199
     66          7           0       -1.734968    1.529280   -7.748803
     67          1           0       -1.574825    0.569747   -7.460465
     68          1           0       -5.008496   -0.276139    6.554511
     69          1           0       -1.651838    1.695284   -8.822876
 ---------------------------------------------------------------------
 Rotational constants (GHZ):           0.1092694           0.0516192           0.0389805
 Leave Link  202 at Sat Jun 22 17:17:12 2024, MaxMem=  2684354560 cpu:               0.3 elap:               0.0
 (Enter /storage/apps/GAUSSIAN/G16_RevA03/g16/l301.exe)
 Standard basis: def2TZVP (5D, 7F)
 Ernie: Thresh=  0.10000D-02 Tol=  0.10000D-05 Strict=F.
  1389 basis functions,  2229 primitive gaussians,  1584 cartesian basis functions
   142 alpha electrons      142 beta electrons
       nuclear repulsion energy      4430.6256833375 Hartrees.
 IExCor= 4336 DFT=T Ex+Corr=M062X ExCW=0 ScaHFX=  0.540000
 ScaDFX=  1.000000  1.000000  1.000000  1.000000 ScalE2=  1.000000  1.000000
 IRadAn=      5 IRanWt=     -1 IRanGd=            0 ICorTp=0 IEmpDi=131
 NAtoms=   69 NActive=   69 NUniq=   69 SFac= 1.00D+00 NAtFMM=   60 NAOKFM=T Big=T
 Integral buffers will be    131072 words long.
 Raffenetti 2 integral format.
 Two-electron integral symmetry is turned off.
 R6Disp:  Grimme-D3 Dispersion energy=       -0.0065007625 Hartrees.
 Nuclear repulsion after empirical dispersion term =     4430.6191825750 Hartrees.
 Leave Link  301 at Sat Jun 22 17:17:13 2024, MaxMem=  2684354560 cpu:               1.3 elap:               0.1
 (Enter /storage/apps/GAUSSIAN/G16_RevA03/g16/l302.exe)
 NPDir=0 NMtPBC=     1 NCelOv=     1 NCel=       1 NClECP=     1 NCelD=      1
         NCelK=      1 NCelE2=     1 NClLst=     1 CellRange=     0.0.
 One-electron integrals computed using PRISM.
   1 Symmetry operations used in ECPInt.
 ECPInt:  NShTT=  150975 NPrTT=  462228 LenC2=  107130 LenP2D=  216690.
 LDataN:  DoStor=T MaxTD1= 6 Len=  172
 NBasis=  1389 RedAO= T EigKep=  5.90D-06  NBF=  1389
 NBsUse=  1389 1.00D-06 EigRej= -1.00D+00 NBFU=  1389
 Precomputing XC quadrature grid using
 IXCGrd= 4 IRadAn=           5 IRanWt=          -1 IRanGd=           0 AccXCQ= 0.00D+00.
 Generated NRdTot=       0 NPtTot=           0 NUsed=           0 NTot=          32
 NSgBfM=  1476  1463  1469  1470  1476 MxSgAt=    69 MxSgA2=    69.
 Leave Link  302 at Sat Jun 22 17:17:15 2024, MaxMem=  2684354560 cpu:              45.5 elap:               2.9
 (Enter /storage/apps/GAUSSIAN/G16_RevA03/g16/l303.exe)
 DipDrv:  MaxL=1.
 Leave Link  303 at Sat Jun 22 17:17:16 2024, MaxMem=  2684354560 cpu:               4.0 elap:               0.3
 (Enter /storage/apps/GAUSSIAN/G16_RevA03/g16/l401.exe)
 ExpMin= 9.52D-02 ExpMax= 2.70D+04 ExpMxC= 9.22D+02 IAcc=3 IRadAn=         5 AccDes= 0.00D+00
 Harris functional with IExCor= 1009 and IRadAn=       5 diagonalized for initial guess.
 HarFok:  IExCor= 1009 AccDes= 0.00D+00 IRadAn=         5 IDoV= 1 UseB2=F ITyADJ=14
 ICtDFT=  3500011 ScaDFX=  1.000000  1.000000  1.000000  1.000000
 FoFCou: FMM=F IPFlag=           0 FMFlag=      100000 FMFlg1=        2001
         NFxFlg=           0 DoJE=T BraDBF=F KetDBF=T FulRan=T
         wScrn=  0.000000 ICntrl=       500 IOpCl=  0 I1Cent=   200000004 NGrid=           0
         NMat0=    1 NMatS0=      1 NMatT0=    0 NMatD0=    1 NMtDS0=    0 NMtDT0=    0
 Symmetry not used in FoFCou.
 Harris En= -1875.50087043920    
 JPrj=0 DoOrth=F DoCkMO=F.
 Leave Link  401 at Sat Jun 22 17:17:23 2024, MaxMem=  2684354560 cpu:             105.9 elap:               6.7
 (Enter /storage/apps/GAUSSIAN/G16_RevA03/g16/l502.exe)
 Two-electron integral symmetry not used.
 Closed shell SCF:
 Using DIIS extrapolation, IDIIS=  1040.
 NGot=  2684354560 LenX=  2679300873 LenY=  2676790233
 Requested convergence on RMS density matrix=1.00D-08 within 128 cycles.
 Requested convergence on MAX density matrix=1.00D-06.
 Requested convergence on             energy=1.00D-06.
 No special actions if energy rises.
 Fock matrices will be formed incrementally for  20 cycles.
 Integral accuracy reduced to 1.0D-05 until final iterations.

 Cycle   1  Pass 0  IDiag  1:
 FoFJK:  IHMeth= 1 ICntrl=       0 DoSepK=F KAlg= 0 I1Cent=           0 FoldK=F
 IRaf= 690000000 NMat=       1 IRICut=       1 DoRegI=T DoRafI=F ISym2E= 0 IDoP0=0 IntGTp=1.
 FoFCou: FMM=T IPFlag=           0 FMFlag=      100000 FMFlg1=        2001
         NFxFlg=           0 DoJE=F BraDBF=F KetDBF=F FulRan=T
         wScrn=  0.000000 ICntrl=         0 IOpCl=  0 I1Cent=           0 NGrid=           0
         NMat0=    1 NMatS0=      1 NMatT0=    0 NMatD0=    1 NMtDS0=    0 NMtDT0=    0
 Symmetry not used in FoFCou.
 FMM levels:  10  Number of levels for PrismC:   9
 E= -1875.47529866777    
 DIIS: error= 1.54D-02 at cycle   1 NSaved=   1.
 NSaved= 1 IEnMin= 1 EnMin= -1875.47529866777     IErMin= 1 ErrMin= 1.54D-02
 ErrMax= 1.54D-02  0.00D+00 EMaxC= 1.00D-01 BMatC= 1.37D+00 BMatP= 1.37D+00
 IDIUse=3 WtCom= 8.46D-01 WtEn= 1.54D-01
 Coeff-Com:  0.100D+01
 Coeff-En:   0.100D+01
 Coeff:      0.100D+01
 Gap=     0.174 Goal=   None    Shift=    0.000
 GapD=    0.174 DampG=1.000 DampE=0.500 DampFc=0.5000 IDamp=-1.
 Damping current iteration by 5.00D-01
 RMSDP=5.70D+01 MaxDP=1.16D+04              OVMax= 9.98D-01

 Problem detected with inexpensive integrals.
 Switching to full accuracy and repeating last cycle.
 Cycle   2  Pass 1  IDiag  1:
 E= -1875.47549571935     Delta-E=       -0.000197051575 Rises=F Damp=F
 DIIS: error= 1.54D-02 at cycle   1 NSaved=   1.
 NSaved= 1 IEnMin= 1 EnMin= -1875.47549571935     IErMin= 1 ErrMin= 1.54D-02
 ErrMax= 1.54D-02  0.00D+00 EMaxC= 1.00D-01 BMatC= 1.37D+00 BMatP= 1.37D+00
 IDIUse=3 WtCom= 8.46D-01 WtEn= 1.54D-01
 Coeff-Com:  0.100D+01
 Coeff-En:   0.100D+01
 Coeff:      0.100D+01
 Gap=     0.174 Goal=   None    Shift=    0.000
 GapD=    0.174 DampG=1.000 DampE=0.500 DampFc=0.5000 IDamp=-1.
 Damping current iteration by 5.00D-01
 RMSDP=3.77D-03 MaxDP=1.11D+00 DE=-1.97D-04 OVMax= 2.97D-01

 Cycle   3  Pass 1  IDiag  1:
 RMSU=  1.88D-03    CP:  1.03D+00
 E= -1875.89283521240     Delta-E=       -0.417339493052 Rises=F Damp=T
 DIIS: error= 4.26D-03 at cycle   2 NSaved=   2.
 NSaved= 2 IEnMin= 2 EnMin= -1875.89283521240     IErMin= 2 ErrMin= 4.26D-03
 ErrMax= 4.26D-03  0.00D+00 EMaxC= 1.00D-01 BMatC= 1.57D-01 BMatP= 1.37D+00
 IDIUse=3 WtCom= 9.57D-01 WtEn= 4.26D-02
 Coeff-Com:  0.309D-02 0.997D+00
 Coeff-En:   0.626D-01 0.937D+00
 Coeff:      0.562D-02 0.994D+00
 Gap=     0.257 Goal=   None    Shift=    0.000
 GapD=    0.257 DampG=1.000 DampE=1.000 DampFc=1.0000 IDamp=-1.
 RMSDP=1.31D-03 MaxDP=3.89D-01 DE=-4.17D-01 OVMax= 1.57D-01

 Cycle   4  Pass 1  IDiag  1:
 RMSU=  9.77D-04    CP:  1.00D+00  5.43D-01
 E= -1876.34415835027     Delta-E=       -0.451323137875 Rises=F Damp=F
 DIIS: error= 6.54D-03 at cycle   3 NSaved=   3.
 NSaved= 3 IEnMin= 3 EnMin= -1876.34415835027     IErMin= 2 ErrMin= 4.26D-03
 ErrMax= 6.54D-03  0.00D+00 EMaxC= 1.00D-01 BMatC= 1.18D-01 BMatP= 1.57D-01
 IDIUse=3 WtCom= 9.35D-01 WtEn= 6.54D-02
 Coeff-Com: -0.104D+00 0.505D+00 0.598D+00
 Coeff-En:   0.000D+00 0.000D+00 0.100D+01
 Coeff:     -0.968D-01 0.472D+00 0.624D+00
 Gap=     0.177 Goal=   None    Shift=    0.000
 RMSDP=4.30D-04 MaxDP=1.25D-01 DE=-4.51D-01 OVMax= 6.81D-02

 Cycle   5  Pass 1  IDiag  1:
 RMSU=  3.01D-04    CP:  1.01D+00  6.90D-01  8.61D-01
 E= -1876.42231295960     Delta-E=       -0.078154609325 Rises=F Damp=F
 DIIS: error= 2.04D-03 at cycle   4 NSaved=   4.
 NSaved= 4 IEnMin= 4 EnMin= -1876.42231295960     IErMin= 4 ErrMin= 2.04D-03
 ErrMax= 2.04D-03  0.00D+00 EMaxC= 1.00D-01 BMatC= 1.61D-02 BMatP= 1.18D-01
 IDIUse=3 WtCom= 9.80D-01 WtEn= 2.04D-02
 Coeff-Com: -0.450D-01 0.121D+00 0.321D+00 0.603D+00
 Coeff-En:   0.000D+00 0.000D+00 0.857D-01 0.914D+00
 Coeff:     -0.441D-01 0.118D+00 0.316D+00 0.610D+00
 Gap=     0.173 Goal=   None    Shift=    0.000
 RMSDP=1.66D-04 MaxDP=5.02D-02 DE=-7.82D-02 OVMax= 2.25D-02

 Cycle   6  Pass 1  IDiag  1:
 RMSU=  7.66D-05    CP:  1.00D+00  6.41D-01  9.31D-01  7.01D-01
 E= -1876.43412883666     Delta-E=       -0.011815877057 Rises=F Damp=F
 DIIS: error= 4.74D-04 at cycle   5 NSaved=   5.
 NSaved= 5 IEnMin= 5 EnMin= -1876.43412883666     IErMin= 5 ErrMin= 4.74D-04
 ErrMax= 4.74D-04  0.00D+00 EMaxC= 1.00D-01 BMatC= 7.24D-04 BMatP= 1.61D-02
 IDIUse=3 WtCom= 9.95D-01 WtEn= 4.74D-03
 Coeff-Com: -0.142D-01 0.268D-01 0.105D+00 0.276D+00 0.606D+00
 Coeff-En:   0.000D+00 0.000D+00 0.000D+00 0.000D+00 0.100D+01
 Coeff:     -0.141D-01 0.266D-01 0.105D+00 0.275D+00 0.608D+00
 Gap=     0.176 Goal=   None    Shift=    0.000
 RMSDP=3.04D-05 MaxDP=4.85D-03 DE=-1.18D-02 OVMax= 9.20D-03

 Cycle   7  Pass 1  IDiag  1:
 RMSU=  2.72D-05    CP:  1.00D+00  6.41D-01  9.32D-01  7.01D-01  8.22D-01
 E= -1876.43470911695     Delta-E=       -0.000580280294 Rises=F Damp=F
 DIIS: error= 1.69D-04 at cycle   6 NSaved=   6.
 NSaved= 6 IEnMin= 6 EnMin= -1876.43470911695     IErMin= 6 ErrMin= 1.69D-04
 ErrMax= 1.69D-04  0.00D+00 EMaxC= 1.00D-01 BMatC= 8.89D-05 BMatP= 7.24D-04
 IDIUse=3 WtCom= 9.98D-01 WtEn= 1.69D-03
 Coeff-Com: -0.218D-02 0.102D-02 0.166D-01 0.647D-01 0.296D+00 0.623D+00
 Coeff-En:   0.000D+00 0.000D+00 0.000D+00 0.000D+00 0.000D+00 0.100D+01
 Coeff:     -0.218D-02 0.102D-02 0.165D-01 0.646D-01 0.296D+00 0.624D+00
 Gap=     0.175 Goal=   None    Shift=    0.000
 RMSDP=1.82D-05 MaxDP=5.08D-03 DE=-5.80D-04 OVMax= 2.93D-03

 Cycle   8  Pass 1  IDiag  1:
 RMSU=  1.16D-05    CP:  1.00D+00  6.37D-01  9.37D-01  7.11D-01  9.49D-01
                    CP:  8.67D-01
 E= -1876.43479432554     Delta-E=       -0.000085208584 Rises=F Damp=F
 DIIS: error= 6.31D-05 at cycle   7 NSaved=   7.
 NSaved= 7 IEnMin= 7 EnMin= -1876.43479432554     IErMin= 7 ErrMin= 6.31D-05
 ErrMax= 6.31D-05  0.00D+00 EMaxC= 1.00D-01 BMatC= 1.11D-05 BMatP= 8.89D-05
 IDIUse=1 WtCom= 1.00D+00 WtEn= 0.00D+00
 Coeff-Com:  0.121D-02-0.371D-02-0.862D-02-0.152D-01 0.483D-01 0.271D+00
 Coeff-Com:  0.707D+00
 Coeff:      0.121D-02-0.371D-02-0.862D-02-0.152D-01 0.483D-01 0.271D+00
 Coeff:      0.707D+00
 Gap=     0.176 Goal=   None    Shift=    0.000
 RMSDP=9.21D-06 MaxDP=1.67D-03 DE=-8.52D-05 OVMax= 2.18D-03

 Cycle   9  Pass 1  IDiag  1:
 RMSU=  4.54D-06    CP:  1.00D+00  6.34D-01  9.39D-01  7.10D-01  9.82D-01
                    CP:  1.00D+00  1.07D+00
 E= -1876.43480770522     Delta-E=       -0.000013379682 Rises=F Damp=F
 DIIS: error= 2.38D-05 at cycle   8 NSaved=   8.
 NSaved= 8 IEnMin= 8 EnMin= -1876.43480770522     IErMin= 8 ErrMin= 2.38D-05
 ErrMax= 2.38D-05  0.00D+00 EMaxC= 1.00D-01 BMatC= 2.64D-06 BMatP= 1.11D-05
 IDIUse=1 WtCom= 1.00D+00 WtEn= 0.00D+00
 Coeff-Com:  0.109D-02-0.215D-02-0.723D-02-0.212D-01-0.322D-01-0.171D-02
 Coeff-Com:  0.355D+00 0.709D+00
 Coeff:      0.109D-02-0.215D-02-0.723D-02-0.212D-01-0.322D-01-0.171D-02
 Coeff:      0.355D+00 0.709D+00
 Gap=     0.176 Goal=   None    Shift=    0.000
 RMSDP=4.28D-06 MaxDP=1.25D-03 DE=-1.34D-05 OVMax= 9.42D-04

 Cycle  10  Pass 1  IDiag  1:
 RMSU=  2.06D-06    CP:  1.00D+00  6.33D-01  9.40D-01  7.08D-01  1.01D+00
                    CP:  1.04D+00  1.23D+00  9.14D-01
 E= -1876.43481108538     Delta-E=       -0.000003380158 Rises=F Damp=F
 DIIS: error= 6.64D-06 at cycle   9 NSaved=   9.
 NSaved= 9 IEnMin= 9 EnMin= -1876.43481108538     IErMin= 9 ErrMin= 6.64D-06
 ErrMax= 6.64D-06  0.00D+00 EMaxC= 1.00D-01 BMatC= 2.79D-07 BMatP= 2.64D-06
 IDIUse=1 WtCom= 1.00D+00 WtEn= 0.00D+00
 Coeff-Com:  0.305D-03-0.469D-03-0.172D-02-0.674D-02-0.164D-01-0.340D-01
 Coeff-Com:  0.683D-01 0.282D+00 0.709D+00
 Coeff:      0.305D-03-0.469D-03-0.172D-02-0.674D-02-0.164D-01-0.340D-01
 Coeff:      0.683D-01 0.282D+00 0.709D+00
 Gap=     0.176 Goal=   None    Shift=    0.000
 RMSDP=1.31D-06 MaxDP=2.46D-04 DE=-3.38D-06 OVMax= 3.07D-04

 Cycle  11  Pass 1  IDiag  1:
 RMSU=  6.89D-07    CP:  1.00D+00  6.33D-01  9.41D-01  7.07D-01  1.01D+00
                    CP:  1.05D+00  1.28D+00  1.04D+00  1.09D+00
 E= -1876.43481145969     Delta-E=       -0.000000374310 Rises=F Damp=F
 DIIS: error= 3.27D-06 at cycle  10 NSaved=  10.
 NSaved=10 IEnMin=10 EnMin= -1876.43481145969     IErMin=10 ErrMin= 3.27D-06
 ErrMax= 3.27D-06  0.00D+00 EMaxC= 1.00D-01 BMatC= 5.01D-08 BMatP= 2.79D-07
 IDIUse=1 WtCom= 1.00D+00 WtEn= 0.00D+00
 Coeff-Com: -0.928D-04 0.237D-03 0.794D-03 0.144D-02-0.142D-03-0.168D-01
 Coeff-Com: -0.414D-01-0.305D-01 0.298D+00 0.788D+00
 Coeff:     -0.928D-04 0.237D-03 0.794D-03 0.144D-02-0.142D-03-0.168D-01
 Coeff:     -0.414D-01-0.305D-01 0.298D+00 0.788D+00
 Gap=     0.176 Goal=   None    Shift=    0.000
 RMSDP=6.79D-07 MaxDP=1.71D-04 DE=-3.74D-07 OVMax= 2.62D-04

 Cycle  12  Pass 1  IDiag  1:
 RMSU=  3.08D-07    CP:  1.00D+00  6.32D-01  9.41D-01  7.07D-01  1.01D+00
                    CP:  1.05D+00  1.30D+00  1.06D+00  1.27D+00  1.06D+00
 E= -1876.43481154348     Delta-E=       -0.000000083798 Rises=F Damp=F
 DIIS: error= 1.53D-06 at cycle  11 NSaved=  11.
 NSaved=11 IEnMin=11 EnMin= -1876.43481154348     IErMin=11 ErrMin= 1.53D-06
 ErrMax= 1.53D-06  0.00D+00 EMaxC= 1.00D-01 BMatC= 1.07D-08 BMatP= 5.01D-08
 IDIUse=1 WtCom= 1.00D+00 WtEn= 0.00D+00
 Coeff-Com: -0.696D-04 0.148D-03 0.527D-03 0.135D-02 0.172D-02-0.472D-02
 Coeff-Com: -0.244D-01-0.481D-01 0.437D-01 0.389D+00 0.641D+00
 Coeff:     -0.696D-04 0.148D-03 0.527D-03 0.135D-02 0.172D-02-0.472D-02
 Coeff:     -0.244D-01-0.481D-01 0.437D-01 0.389D+00 0.641D+00
 Gap=     0.176 Goal=   None    Shift=    0.000
 RMSDP=2.11D-07 MaxDP=2.96D-05 DE=-8.38D-08 OVMax= 5.70D-05

 Cycle  13  Pass 1  IDiag  1:
 RMSU=  1.04D-07    CP:  1.00D+00  6.32D-01  9.41D-01  7.07D-01  1.01D+00
                    CP:  1.05D+00  1.31D+00  1.07D+00  1.31D+00  1.24D+00
                    CP:  9.41D-01
 E= -1876.43481155669     Delta-E=       -0.000000013204 Rises=F Damp=F
 DIIS: error= 6.35D-07 at cycle  12 NSaved=  12.
 NSaved=12 IEnMin=12 EnMin= -1876.43481155669     IErMin=12 ErrMin= 6.35D-07
 ErrMax= 6.35D-07  0.00D+00 EMaxC= 1.00D-01 BMatC= 1.39D-09 BMatP= 1.07D-08
 IDIUse=1 WtCom= 1.00D+00 WtEn= 0.00D+00
 Coeff-Com: -0.140D-04 0.240D-04 0.962D-04 0.359D-03 0.858D-03 0.586D-03
 Coeff-Com: -0.203D-02-0.172D-01-0.411D-01 0.430D-01 0.283D+00 0.732D+00
 Coeff:     -0.140D-04 0.240D-04 0.962D-04 0.359D-03 0.858D-03 0.586D-03
 Coeff:     -0.203D-02-0.172D-01-0.411D-01 0.430D-01 0.283D+00 0.732D+00
 Gap=     0.176 Goal=   None    Shift=    0.000
 RMSDP=8.38D-08 MaxDP=9.24D-06 DE=-1.32D-08 OVMax= 3.26D-05

 Cycle  14  Pass 1  IDiag  1:
 RMSU=  4.18D-08    CP:  1.00D+00  6.32D-01  9.41D-01  7.07D-01  1.01D+00
                    CP:  1.05D+00  1.31D+00  1.07D+00  1.33D+00  1.28D+00
                    CP:  1.07D+00  1.11D+00
 E= -1876.43481155884     Delta-E=       -0.000000002154 Rises=F Damp=F
 DIIS: error= 2.40D-07 at cycle  13 NSaved=  13.
 NSaved=13 IEnMin=13 EnMin= -1876.43481155884     IErMin=13 ErrMin= 2.40D-07
 ErrMax= 2.40D-07  0.00D+00 EMaxC= 1.00D-01 BMatC= 1.86D-10 BMatP= 1.39D-09
 IDIUse=1 WtCom= 1.00D+00 WtEn= 0.00D+00
 Coeff-Com:  0.568D-05-0.140D-04-0.439D-04-0.672D-04 0.696D-04 0.765D-03
 Coeff-Com:  0.344D-02 0.151D-03-0.246D-01-0.382D-01 0.325D-02 0.261D+00
 Coeff-Com:  0.794D+00
 Coeff:      0.568D-05-0.140D-04-0.439D-04-0.672D-04 0.696D-04 0.765D-03
 Coeff:      0.344D-02 0.151D-03-0.246D-01-0.382D-01 0.325D-02 0.261D+00
 Coeff:      0.794D+00
 Gap=     0.176 Goal=   None    Shift=    0.000
 RMSDP=4.20D-08 MaxDP=9.70D-06 DE=-2.15D-09 OVMax= 1.32D-05

 Cycle  15  Pass 1  IDiag  1:
 RMSU=  2.03D-08    CP:  1.00D+00  6.32D-01  9.41D-01  7.07D-01  1.01D+00
                    CP:  1.05D+00  1.31D+00  1.07D+00  1.34D+00  1.31D+00
                    CP:  1.11D+00  1.28D+00  1.25D+00
 E= -1876.43481155924     Delta-E=       -0.000000000396 Rises=F Damp=F
 DIIS: error= 1.98D-07 at cycle  14 NSaved=  14.
 NSaved=14 IEnMin=14 EnMin= -1876.43481155924     IErMin=14 ErrMin= 1.98D-07
 ErrMax= 1.98D-07  0.00D+00 EMaxC= 1.00D-01 BMatC= 3.75D-11 BMatP= 1.86D-10
 IDIUse=1 WtCom= 1.00D+00 WtEn= 0.00D+00
 Coeff-Com:  0.460D-05-0.951D-05-0.343D-04-0.846D-04-0.109D-03 0.146D-03
 Coeff-Com:  0.198D-02 0.284D-02-0.328D-02-0.204D-01-0.486D-01-0.108D-01
 Coeff-Com:  0.360D+00 0.718D+00
 Coeff:      0.460D-05-0.951D-05-0.343D-04-0.846D-04-0.109D-03 0.146D-03
 Coeff:      0.198D-02 0.284D-02-0.328D-02-0.204D-01-0.486D-01-0.108D-01
 Coeff:      0.360D+00 0.718D+00
 Gap=     0.176 Goal=   None    Shift=    0.000
 RMSDP=1.34D-08 MaxDP=1.97D-06 DE=-3.96D-10 OVMax= 4.93D-06

 Cycle  16  Pass 1  IDiag  1:
 RMSU=  6.92D-09    CP:  1.00D+00  6.32D-01  9.41D-01  7.07D-01  1.01D+00
                    CP:  1.05D+00  1.31D+00  1.07D+00  1.34D+00  1.32D+00
                    CP:  1.13D+00  1.33D+00  1.40D+00  9.79D-01
 E= -1876.43481155928     Delta-E=       -0.000000000046 Rises=F Damp=F
 DIIS: error= 4.41D-08 at cycle  15 NSaved=  15.
 NSaved=15 IEnMin=15 EnMin= -1876.43481155928     IErMin=15 ErrMin= 4.41D-08
 ErrMax= 4.41D-08  0.00D+00 EMaxC= 1.00D-01 BMatC= 7.37D-12 BMatP= 3.75D-11
 IDIUse=1 WtCom= 1.00D+00 WtEn= 0.00D+00
 Coeff-Com:  0.134D-05-0.256D-05-0.119D-04-0.310D-04-0.674D-04-0.468D-04
 Coeff-Com:  0.503D-03 0.119D-02 0.147D-02-0.442D-02-0.239D-01-0.408D-01
 Coeff-Com:  0.453D-01 0.340D+00 0.681D+00
 Coeff:      0.134D-05-0.256D-05-0.119D-04-0.310D-04-0.674D-04-0.468D-04
 Coeff:      0.503D-03 0.119D-02 0.147D-02-0.442D-02-0.239D-01-0.408D-01
 Coeff:      0.453D-01 0.340D+00 0.681D+00
 Gap=     0.176 Goal=   None    Shift=    0.000
 RMSDP=6.77D-09 MaxDP=1.63D-06 DE=-4.64D-11 OVMax= 1.99D-06

 Cycle  17  Pass 1  IDiag  1:
 RMSU=  3.12D-09    CP:  1.00D+00  6.32D-01  9.41D-01  7.07D-01  1.01D+00
                    CP:  1.05D+00  1.31D+00  1.07D+00  1.34D+00  1.32D+00
                    CP:  1.13D+00  1.35D+00  1.46D+00  1.13D+00  8.92D-01
 E= -1876.43481155927     Delta-E=        0.000000000012 Rises=F Damp=F
 DIIS: error= 1.75D-08 at cycle  16 NSaved=  16.
 NSaved=16 IEnMin=15 EnMin= -1876.43481155928     IErMin=16 ErrMin= 1.75D-08
 ErrMax= 1.75D-08  0.00D+00 EMaxC= 1.00D-01 BMatC= 1.33D-12 BMatP= 7.37D-12
 IDIUse=1 WtCom= 1.00D+00 WtEn= 0.00D+00
 Coeff-Com: -0.415D-06 0.977D-06 0.106D-05 0.336D-05-0.106D-04-0.579D-04
 Coeff-Com: -0.139D-03 0.138D-04 0.164D-02 0.260D-02-0.202D-02-0.190D-01
 Coeff-Com: -0.587D-01 0.294D-01 0.330D+00 0.716D+00
 Coeff:     -0.415D-06 0.977D-06 0.106D-05 0.336D-05-0.106D-04-0.579D-04
 Coeff:     -0.139D-03 0.138D-04 0.164D-02 0.260D-02-0.202D-02-0.190D-01
 Coeff:     -0.587D-01 0.294D-01 0.330D+00 0.716D+00
 Gap=     0.176 Goal=   None    Shift=    0.000
 RMSDP=2.92D-09 MaxDP=9.65D-07 DE= 1.18D-11 OVMax= 8.01D-07

 SCF Done:  E(RM062X) =  -1876.43481156     A.U. after   17 cycles
            NFock= 17  Conv=0.29D-08     -V/T= 2.0048
 KE= 1.867506581281D+03 PE=-1.321215626481D+04 EE= 5.037595689391D+03
 Leave Link  502 at Sat Jun 22 17:39:23 2024, MaxMem=  2684354560 cpu:           21091.3 elap:            1320.9
 (Enter /storage/apps/GAUSSIAN/G16_RevA03/g16/l601.exe)
 Copying SCF densities to generalized density rwf, IOpCl= 0 IROHF=0.

 **********************************************************************

            Population analysis using the SCF density.

 **********************************************************************

 Alpha  occ. eigenvalues --  -19.73417 -19.72745 -19.71588 -19.69523 -19.67950
 Alpha  occ. eigenvalues --  -19.64272 -14.96875 -14.92599 -14.90752 -14.90737
 Alpha  occ. eigenvalues --  -14.90161 -14.88429 -14.86380 -14.85588 -14.83930
 Alpha  occ. eigenvalues --  -10.80605 -10.77057 -10.76762 -10.76562 -10.74202
 Alpha  occ. eigenvalues --  -10.72761 -10.72259 -10.71248 -10.71226 -10.69664
 Alpha  occ. eigenvalues --  -10.69360 -10.69332 -10.69250 -10.68971 -10.68132
 Alpha  occ. eigenvalues --  -10.67911 -10.64932 -10.64281 -10.63969 -10.63046
 Alpha  occ. eigenvalues --  -10.62846 -10.62799 -10.62104 -10.61955  -1.27216
 Alpha  occ. eigenvalues --   -1.27011  -1.24304  -1.24075  -1.22842  -1.22303
 Alpha  occ. eigenvalues --   -1.22116  -1.18499  -1.18436  -1.18280  -1.16104
 Alpha  occ. eigenvalues --   -1.13113  -1.10977  -1.09265  -1.06469  -1.05019
 Alpha  occ. eigenvalues --   -1.03344  -1.02184  -0.98925  -0.97058  -0.96282
 Alpha  occ. eigenvalues --   -0.95467  -0.94790  -0.94195  -0.91675  -0.88379
 Alpha  occ. eigenvalues --   -0.87724  -0.86753  -0.84996  -0.82490  -0.81843
 Alpha  occ. eigenvalues --   -0.81571  -0.80431  -0.79710  -0.78958  -0.76003
 Alpha  occ. eigenvalues --   -0.75359  -0.74904  -0.74456  -0.74313  -0.73210
 Alpha  occ. eigenvalues --   -0.72288  -0.71794  -0.70991  -0.70451  -0.69832
 Alpha  occ. eigenvalues --   -0.69419  -0.69136  -0.68597  -0.68114  -0.67533
 Alpha  occ. eigenvalues --   -0.67227  -0.66182  -0.65949  -0.65641  -0.64840
 Alpha  occ. eigenvalues --   -0.63675  -0.63521  -0.63008  -0.62755  -0.62578
 Alpha  occ. eigenvalues --   -0.61745  -0.61536  -0.60430  -0.60018  -0.59655
 Alpha  occ. eigenvalues --   -0.59354  -0.58976  -0.58823  -0.58088  -0.57908
 Alpha  occ. eigenvalues --   -0.57494  -0.57193  -0.56264  -0.56060  -0.55459
 Alpha  occ. eigenvalues --   -0.55278  -0.54429  -0.53968  -0.53639  -0.53010
 Alpha  occ. eigenvalues --   -0.52699  -0.52545  -0.52025  -0.49783  -0.49159
 Alpha  occ. eigenvalues --   -0.47748  -0.46924  -0.46539  -0.46020  -0.44952
 Alpha  occ. eigenvalues --   -0.44676  -0.44075  -0.43528  -0.43413  -0.42571
 Alpha  occ. eigenvalues --   -0.42275  -0.40759  -0.38921  -0.38804  -0.37874
 Alpha  occ. eigenvalues --   -0.35638  -0.34681
 Alpha virt. eigenvalues --   -0.17112  -0.10585  -0.09099  -0.08755  -0.06601
 Alpha virt. eigenvalues --   -0.06463  -0.06118  -0.05768  -0.05143  -0.03762
 Alpha virt. eigenvalues --   -0.03250  -0.03154  -0.02559  -0.02163  -0.01536
 Alpha virt. eigenvalues --   -0.01283  -0.00963  -0.00260   0.00178   0.00706
 Alpha virt. eigenvalues --    0.01248   0.01388   0.01740   0.02299   0.02617
 Alpha virt. eigenvalues --    0.02703   0.03195   0.03467   0.03838   0.03977
 Alpha virt. eigenvalues --    0.04363   0.04696   0.05088   0.05442   0.05812
 Alpha virt. eigenvalues --    0.06062   0.06303   0.06517   0.06844   0.07519
 Alpha virt. eigenvalues --    0.07807   0.08143   0.08375   0.08805   0.08944
 Alpha virt. eigenvalues --    0.09616   0.09982   0.10301   0.10398   0.10637
 Alpha virt. eigenvalues --    0.11073   0.11440   0.11824   0.12014   0.12199
 Alpha virt. eigenvalues --    0.12643   0.12905   0.13201   0.13456   0.13959
 Alpha virt. eigenvalues --    0.14114   0.14276   0.14533   0.14941   0.15317
 Alpha virt. eigenvalues --    0.15777   0.15869   0.16308   0.16767   0.16915
 Alpha virt. eigenvalues --    0.17652   0.17706   0.17905   0.18166   0.18572
 Alpha virt. eigenvalues --    0.18776   0.18971   0.19536   0.19894   0.20143
 Alpha virt. eigenvalues --    0.20282   0.20569   0.20919   0.21101   0.21448
 Alpha virt. eigenvalues --    0.21543   0.22099   0.22692   0.22803   0.22998
 Alpha virt. eigenvalues --    0.23316   0.23700   0.24011   0.24087   0.24422
 Alpha virt. eigenvalues --    0.24810   0.25330   0.25583   0.25875   0.26012
 Alpha virt. eigenvalues --    0.26168   0.26560   0.26739   0.27321   0.27611
 Alpha virt. eigenvalues --    0.27654   0.28117   0.28201   0.28522   0.28741
 Alpha virt. eigenvalues --    0.29066   0.29292   0.29467   0.29809   0.30062
 Alpha virt. eigenvalues --    0.30323   0.30840   0.31153   0.31346   0.31572
 Alpha virt. eigenvalues --    0.31670   0.32001   0.32427   0.32817   0.32934
 Alpha virt. eigenvalues --    0.33202   0.33538   0.33634   0.33971   0.34121
 Alpha virt. eigenvalues --    0.34435   0.34628   0.34810   0.35110   0.35345
 Alpha virt. eigenvalues --    0.35554   0.35746   0.35866   0.36266   0.36551
 Alpha virt. eigenvalues --    0.36669   0.36954   0.37040   0.37331   0.37608
 Alpha virt. eigenvalues --    0.37745   0.38126   0.38328   0.38667   0.38955
 Alpha virt. eigenvalues --    0.39251   0.39331   0.39514   0.39800   0.40163
 Alpha virt. eigenvalues --    0.40427   0.40463   0.40863   0.41209   0.41455
 Alpha virt. eigenvalues --    0.41617   0.41789   0.42159   0.42458   0.42765
 Alpha virt. eigenvalues --    0.42951   0.43236   0.43342   0.43835   0.43951
 Alpha virt. eigenvalues --    0.44350   0.44572   0.44635   0.44894   0.45635
 Alpha virt. eigenvalues --    0.46203   0.46263   0.46692   0.47006   0.47085
 Alpha virt. eigenvalues --    0.47271   0.47650   0.48225   0.48282   0.48798
 Alpha virt. eigenvalues --    0.49121   0.49327   0.49472   0.49949   0.50245
 Alpha virt. eigenvalues --    0.50695   0.50940   0.51198   0.51253   0.51813
 Alpha virt. eigenvalues --    0.52006   0.52544   0.52608   0.53361   0.53382
 Alpha virt. eigenvalues --    0.53657   0.54063   0.54601   0.54749   0.55005
 Alpha virt. eigenvalues --    0.55386   0.55643   0.56024   0.56317   0.57014
 Alpha virt. eigenvalues --    0.57199   0.57359   0.57891   0.57904   0.58123
 Alpha virt. eigenvalues --    0.58408   0.58905   0.59098   0.59429   0.59621
 Alpha virt. eigenvalues --    0.59832   0.60531   0.60750   0.61089   0.61300
 Alpha virt. eigenvalues --    0.61445   0.61892   0.62226   0.62668   0.62943
 Alpha virt. eigenvalues --    0.63276   0.63449   0.63983   0.64083   0.64556
 Alpha virt. eigenvalues --    0.64571   0.65750   0.66050   0.66296   0.66963
 Alpha virt. eigenvalues --    0.67253   0.67465   0.68105   0.68673   0.68983
 Alpha virt. eigenvalues --    0.69052   0.69483   0.69807   0.70787   0.71083
 Alpha virt. eigenvalues --    0.71334   0.71811   0.72495   0.72624   0.72901
 Alpha virt. eigenvalues --    0.73079   0.73564   0.73681   0.74242   0.74828
 Alpha virt. eigenvalues --    0.75221   0.75426   0.75891   0.76438   0.76792
 Alpha virt. eigenvalues --    0.77171   0.77642   0.78093   0.78279   0.78685
 Alpha virt. eigenvalues --    0.78797   0.79278   0.79434   0.80041   0.80263
 Alpha virt. eigenvalues --    0.80704   0.80905   0.81430   0.82393   0.82616
 Alpha virt. eigenvalues --    0.83382   0.84169   0.84557   0.84947   0.85294
 Alpha virt. eigenvalues --    0.85579   0.85661   0.86254   0.86480   0.88105
 Alpha virt. eigenvalues --    0.88382   0.88829   0.89172   0.89423   0.90109
 Alpha virt. eigenvalues --    0.90658   0.91146   0.91833   0.92046   0.92696
 Alpha virt. eigenvalues --    0.93110   0.93261   0.94212   0.94565   0.95003
 Alpha virt. eigenvalues --    0.95277   0.96142   0.96734   0.96897   0.97302
 Alpha virt. eigenvalues --    0.97808   0.98044   0.99061   0.99220   1.00078
 Alpha virt. eigenvalues --    1.00425   1.00668   1.01485   1.01929   1.02223
 Alpha virt. eigenvalues --    1.02561   1.03009   1.03439   1.03963   1.04485
 Alpha virt. eigenvalues --    1.05102   1.05574   1.06020   1.06271   1.06723
 Alpha virt. eigenvalues --    1.07346   1.07972   1.08634   1.09209   1.09637
 Alpha virt. eigenvalues --    1.09694   1.11032   1.11249   1.12227   1.12740
 Alpha virt. eigenvalues --    1.12956   1.13375   1.14155   1.14456   1.14742
 Alpha virt. eigenvalues --    1.15226   1.16015   1.16670   1.17444   1.17934
 Alpha virt. eigenvalues --    1.18408   1.19003   1.19140   1.19702   1.20272
 Alpha virt. eigenvalues --    1.20597   1.21238   1.21328   1.21980   1.22219
 Alpha virt. eigenvalues --    1.22359   1.22966   1.23649   1.23696   1.23907
 Alpha virt. eigenvalues --    1.24319   1.25197   1.25417   1.26131   1.26692
 Alpha virt. eigenvalues --    1.27048   1.27555   1.27892   1.28307   1.28806
 Alpha virt. eigenvalues --    1.29515   1.29682   1.30409   1.31012   1.31450
 Alpha virt. eigenvalues --    1.32029   1.32280   1.32701   1.33477   1.34113
 Alpha virt. eigenvalues --    1.34499   1.35117   1.35650   1.35981   1.36492
 Alpha virt. eigenvalues --    1.37063   1.37495   1.37737   1.38240   1.38946
 Alpha virt. eigenvalues --    1.39381   1.39731   1.40402   1.41150   1.41422
 Alpha virt. eigenvalues --    1.41610   1.42195   1.42752   1.42918   1.43678
 Alpha virt. eigenvalues --    1.43737   1.44083   1.44452   1.45383   1.45504
 Alpha virt. eigenvalues --    1.45883   1.46006   1.46872   1.47183   1.48153
 Alpha virt. eigenvalues --    1.48671   1.48818   1.48946   1.49341   1.49757
 Alpha virt. eigenvalues --    1.50429   1.50800   1.51216   1.51383   1.51670
 Alpha virt. eigenvalues --    1.52194   1.52697   1.52826   1.53218   1.53539
 Alpha virt. eigenvalues --    1.54000   1.54414   1.54670   1.54864   1.55433
 Alpha virt. eigenvalues --    1.55868   1.56032   1.56599   1.56844   1.56983
 Alpha virt. eigenvalues --    1.57258   1.57999   1.58164   1.58563   1.59114
 Alpha virt. eigenvalues --    1.59250   1.60053   1.60325   1.60791   1.61104
 Alpha virt. eigenvalues --    1.61195   1.61465   1.61901   1.62462   1.62953
 Alpha virt. eigenvalues --    1.63058   1.63222   1.63721   1.64050   1.64419
 Alpha virt. eigenvalues --    1.64757   1.65110   1.65722   1.66174   1.66430
 Alpha virt. eigenvalues --    1.67568   1.68028   1.68161   1.68638   1.68784
 Alpha virt. eigenvalues --    1.69478   1.70068   1.70423   1.70876   1.71207
 Alpha virt. eigenvalues --    1.72164   1.72760   1.73024   1.73207   1.73866
 Alpha virt. eigenvalues --    1.74030   1.74772   1.75297   1.75614   1.76346
 Alpha virt. eigenvalues --    1.77099   1.77388   1.77559   1.78002   1.79046
 Alpha virt. eigenvalues --    1.79476   1.79751   1.80022   1.80637   1.81086
 Alpha virt. eigenvalues --    1.81326   1.82278   1.83025   1.83243   1.83556
 Alpha virt. eigenvalues --    1.83702   1.83967   1.84539   1.84921   1.85227
 Alpha virt. eigenvalues --    1.85529   1.86236   1.86334   1.86914   1.87409
 Alpha virt. eigenvalues --    1.87786   1.88524   1.88984   1.89182   1.89581
 Alpha virt. eigenvalues --    1.89998   1.90443   1.90901   1.91719   1.92229
 Alpha virt. eigenvalues --    1.92769   1.93704   1.94230   1.94736   1.95098
 Alpha virt. eigenvalues --    1.95842   1.96149   1.96426   1.97718   1.97862
 Alpha virt. eigenvalues --    1.99215   1.99477   2.00062   2.00482   2.01027
 Alpha virt. eigenvalues --    2.01459   2.01731   2.02103   2.02408   2.02839
 Alpha virt. eigenvalues --    2.03162   2.03390   2.04358   2.04794   2.05019
 Alpha virt. eigenvalues --    2.05461   2.06067   2.07082   2.07430   2.07734
 Alpha virt. eigenvalues --    2.08389   2.08850   2.09035   2.10022   2.10478
 Alpha virt. eigenvalues --    2.11147   2.11902   2.12238   2.12599   2.13229
 Alpha virt. eigenvalues --    2.13865   2.14193   2.14486   2.14895   2.15200
 Alpha virt. eigenvalues --    2.16029   2.16591   2.16739   2.17580   2.18126
 Alpha virt. eigenvalues --    2.18158   2.18706   2.19160   2.19283   2.19909
 Alpha virt. eigenvalues --    2.20102   2.20776   2.21749   2.21806   2.22428
 Alpha virt. eigenvalues --    2.22749   2.23227   2.23855   2.24569   2.24773
 Alpha virt. eigenvalues --    2.25155   2.26009   2.26289   2.26767   2.27205
 Alpha virt. eigenvalues --    2.28223   2.29231   2.29867   2.30143   2.30474
 Alpha virt. eigenvalues --    2.30847   2.31034   2.32167   2.32767   2.33202
 Alpha virt. eigenvalues --    2.34000   2.34500   2.34765   2.34843   2.35857
 Alpha virt. eigenvalues --    2.36317   2.36954   2.37217   2.38217   2.38525
 Alpha virt. eigenvalues --    2.38979   2.39697   2.40526   2.41000   2.41844
 Alpha virt. eigenvalues --    2.42739   2.43133   2.43654   2.44013   2.44726
 Alpha virt. eigenvalues --    2.44910   2.45403   2.46140   2.46214   2.46764
 Alpha virt. eigenvalues --    2.47449   2.47852   2.48893   2.49871   2.50290
 Alpha virt. eigenvalues --    2.50311   2.50914   2.51422   2.51750   2.52853
 Alpha virt. eigenvalues --    2.53423   2.54002   2.54354   2.55116   2.55530
 Alpha virt. eigenvalues --    2.56168   2.56612   2.57020   2.57137   2.57403
 Alpha virt. eigenvalues --    2.57526   2.58138   2.58423   2.59261   2.59828
 Alpha virt. eigenvalues --    2.60279   2.60670   2.60905   2.61321   2.61444
 Alpha virt. eigenvalues --    2.62367   2.62526   2.63313   2.63692   2.64187
 Alpha virt. eigenvalues --    2.64431   2.65056   2.65320   2.65431   2.65922
 Alpha virt. eigenvalues --    2.66276   2.67067   2.67134   2.68010   2.68139
 Alpha virt. eigenvalues --    2.68520   2.68860   2.69336   2.69509   2.70362
 Alpha virt. eigenvalues --    2.71065   2.71796   2.72256   2.72601   2.73423
 Alpha virt. eigenvalues --    2.73524   2.73670   2.74044   2.74249   2.74421
 Alpha virt. eigenvalues --    2.74868   2.75962   2.76243   2.76660   2.77323
 Alpha virt. eigenvalues --    2.77409   2.78269   2.78441   2.78609   2.79327
 Alpha virt. eigenvalues --    2.79916   2.80491   2.80796   2.81436   2.81616
 Alpha virt. eigenvalues --    2.81809   2.82814   2.83241   2.83373   2.83613
 Alpha virt. eigenvalues --    2.84146   2.84420   2.84777   2.85046   2.85244
 Alpha virt. eigenvalues --    2.85795   2.86070   2.86731   2.86827   2.87719
 Alpha virt. eigenvalues --    2.87813   2.88065   2.88457   2.89216   2.89510
 Alpha virt. eigenvalues --    2.89775   2.90414   2.90790   2.91000   2.91272
 Alpha virt. eigenvalues --    2.91470   2.91895   2.92421   2.92619   2.92985
 Alpha virt. eigenvalues --    2.93340   2.93591   2.93988   2.94526   2.95247
 Alpha virt. eigenvalues --    2.95909   2.96324   2.96659   2.97070   2.97462
 Alpha virt. eigenvalues --    2.97616   2.97793   2.98344   2.98686   2.98959
 Alpha virt. eigenvalues --    2.99365   2.99874   3.00521   3.00807   3.01001
 Alpha virt. eigenvalues --    3.01294   3.02500   3.03050   3.03285   3.03663
 Alpha virt. eigenvalues --    3.03710   3.04255   3.04579   3.05289   3.05510
 Alpha virt. eigenvalues --    3.05833   3.06344   3.06760   3.06970   3.07374
 Alpha virt. eigenvalues --    3.07724   3.08289   3.08608   3.09172   3.09642
 Alpha virt. eigenvalues --    3.09737   3.10078   3.10835   3.11208   3.11299
 Alpha virt. eigenvalues --    3.11665   3.12220   3.12355   3.12606   3.12785
 Alpha virt. eigenvalues --    3.13133   3.13444   3.13781   3.14383   3.14569
 Alpha virt. eigenvalues --    3.15254   3.15481   3.15776   3.16089   3.16425
 Alpha virt. eigenvalues --    3.16496   3.16842   3.17263   3.17674   3.17859
 Alpha virt. eigenvalues --    3.18237   3.18715   3.18964   3.19280   3.19819
 Alpha virt. eigenvalues --    3.20213   3.21147   3.21407   3.21727   3.22043
 Alpha virt. eigenvalues --    3.22450   3.22914   3.23015   3.23943   3.24125
 Alpha virt. eigenvalues --    3.24630   3.25061   3.25309   3.25690   3.26164
 Alpha virt. eigenvalues --    3.26572   3.27408   3.27706   3.27947   3.28331
 Alpha virt. eigenvalues --    3.28800   3.29080   3.29457   3.29876   3.30727
 Alpha virt. eigenvalues --    3.31271   3.31540   3.31986   3.32366   3.32624
 Alpha virt. eigenvalues --    3.32762   3.33149   3.33311   3.33923   3.34315
 Alpha virt. eigenvalues --    3.34965   3.35444   3.35720   3.36064   3.36424
 Alpha virt. eigenvalues --    3.36875   3.37178   3.37815   3.38100   3.38554
 Alpha virt. eigenvalues --    3.38828   3.39536   3.39797   3.40007   3.40269
 Alpha virt. eigenvalues --    3.40565   3.40804   3.41260   3.41913   3.42140
 Alpha virt. eigenvalues --    3.42592   3.42923   3.43711   3.44185   3.45640
 Alpha virt. eigenvalues --    3.46458   3.46835   3.47328   3.47930   3.48745
 Alpha virt. eigenvalues --    3.49638   3.49889   3.50511   3.50945   3.51658
 Alpha virt. eigenvalues --    3.52504   3.53825   3.54007   3.54808   3.55709
 Alpha virt. eigenvalues --    3.55849   3.56151   3.56701   3.57072   3.57334
 Alpha virt. eigenvalues --    3.57418   3.58280   3.59111   3.60739   3.61981
 Alpha virt. eigenvalues --    3.62375   3.63145   3.63477   3.64210   3.64689
 Alpha virt. eigenvalues --    3.65629   3.65957   3.66753   3.67219   3.68316
 Alpha virt. eigenvalues --    3.69037   3.69941   3.70087   3.70956   3.72052
 Alpha virt. eigenvalues --    3.73034   3.73158   3.74093   3.74643   3.75359
 Alpha virt. eigenvalues --    3.75644   3.75844   3.77022   3.77316   3.77945
 Alpha virt. eigenvalues --    3.78133   3.79148   3.79649   3.79841   3.80529
 Alpha virt. eigenvalues --    3.81939   3.82812   3.83836   3.84137   3.84763
 Alpha virt. eigenvalues --    3.85411   3.86356   3.86580   3.87379   3.88581
 Alpha virt. eigenvalues --    3.88975   3.89834   3.91453   3.91678   3.92461
 Alpha virt. eigenvalues --    3.93332   3.94394   3.94894   3.95684   3.96361
 Alpha virt. eigenvalues --    3.96794   3.97525   3.97892   3.99633   4.00085
 Alpha virt. eigenvalues --    4.00370   4.00702   4.01619   4.02176   4.03164
 Alpha virt. eigenvalues --    4.03808   4.04407   4.04761   4.05149   4.06057
 Alpha virt. eigenvalues --    4.06660   4.07349   4.07505   4.08538   4.09260
 Alpha virt. eigenvalues --    4.09540   4.09922   4.10296   4.10598   4.11618
 Alpha virt. eigenvalues --    4.12308   4.12617   4.13637   4.15465   4.16255
 Alpha virt. eigenvalues --    4.16532   4.18510   4.18806   4.19450   4.19915
 Alpha virt. eigenvalues --    4.20560   4.21241   4.21911   4.23487   4.24389
 Alpha virt. eigenvalues --    4.24864   4.25831   4.27348   4.27813   4.28613
 Alpha virt. eigenvalues --    4.30443   4.30756   4.32366   4.32962   4.33827
 Alpha virt. eigenvalues --    4.34525   4.34545   4.35676   4.36236   4.36570
 Alpha virt. eigenvalues --    4.38262   4.40511   4.41049   4.42361   4.42954
 Alpha virt. eigenvalues --    4.44090   4.45432   4.45674   4.46266   4.47057
 Alpha virt. eigenvalues --    4.47801   4.49230   4.50229   4.50333   4.52503
 Alpha virt. eigenvalues --    4.52942   4.55117   4.56504   4.56849   4.57280
 Alpha virt. eigenvalues --    4.58008   4.58764   4.58852   4.59614   4.60030
 Alpha virt. eigenvalues --    4.60573   4.60699   4.61232   4.61937   4.62667
 Alpha virt. eigenvalues --    4.63601   4.64954   4.65372   4.65927   4.66200
 Alpha virt. eigenvalues --    4.66758   4.69231   4.69491   4.70730   4.71141
 Alpha virt. eigenvalues --    4.71767   4.72546   4.72901   4.73646   4.74165
 Alpha virt. eigenvalues --    4.74601   4.75956   4.76387   4.76946   4.77956
 Alpha virt. eigenvalues --    4.79447   4.80869   4.81056   4.81918   4.83151
 Alpha virt. eigenvalues --    4.83304   4.83981   4.85031   4.85319   4.85821
 Alpha virt. eigenvalues --    4.87195   4.88155   4.88820   4.90341   4.90910
 Alpha virt. eigenvalues --    4.92375   4.92896   4.93744   4.93882   4.94824
 Alpha virt. eigenvalues --    4.95118   4.96618   4.97584   4.98202   4.99009
 Alpha virt. eigenvalues --    4.99933   5.00234   5.00907   5.00935   5.01853
 Alpha virt. eigenvalues --    5.02337   5.02612   5.03122   5.03778   5.04631
 Alpha virt. eigenvalues --    5.05649   5.06806   5.07016   5.07356   5.08675
 Alpha virt. eigenvalues --    5.09456   5.09977   5.10109   5.10848   5.11609
 Alpha virt. eigenvalues --    5.12499   5.12955   5.13357   5.14009   5.15343
 Alpha virt. eigenvalues --    5.15576   5.16393   5.17360   5.17778   5.18510
 Alpha virt. eigenvalues --    5.19134   5.19415   5.19473   5.20020   5.21466
 Alpha virt. eigenvalues --    5.21932   5.22774   5.22860   5.23023   5.23459
 Alpha virt. eigenvalues --    5.25044   5.25442   5.27253   5.27654   5.28349
 Alpha virt. eigenvalues --    5.29808   5.29888   5.30645   5.31874   5.32272
 Alpha virt. eigenvalues --    5.33555   5.34949   5.35261   5.35554   5.38355
 Alpha virt. eigenvalues --    5.38635   5.39149   5.41529   5.41791   5.43176
 Alpha virt. eigenvalues --    5.43973   5.45154   5.47300   5.48398   5.50785
 Alpha virt. eigenvalues --    5.51133   5.52165   5.53493   5.55361   5.57296
 Alpha virt. eigenvalues --    5.58733   5.58942   5.60715   5.61082   5.63513
 Alpha virt. eigenvalues --    5.63914   5.64043   5.65056   5.65888   5.66042
 Alpha virt. eigenvalues --    5.68468   5.69782   5.70051   5.73074   5.74133
 Alpha virt. eigenvalues --    5.76157   5.76508   5.78181   5.78285   5.78493
 Alpha virt. eigenvalues --    5.81265   5.82749   5.83768   5.84593   5.86308
 Alpha virt. eigenvalues --    5.87284   5.89065   5.91711   5.93513   5.93565
 Alpha virt. eigenvalues --    5.95055   5.98066   5.99193   6.02544   6.13245
 Alpha virt. eigenvalues --    6.15522   6.16111   6.17273   6.17720   6.21577
 Alpha virt. eigenvalues --    6.30139   6.35206   6.35840   6.36013   6.42404
 Alpha virt. eigenvalues --    6.51305   6.51610   6.52392   6.55613   6.57685
 Alpha virt. eigenvalues --    6.59039   6.63669   6.66762   6.69699   6.70001
 Alpha virt. eigenvalues --    6.71640   6.71904   6.75138   6.76389   6.76846
 Alpha virt. eigenvalues --    6.80276   6.87116   6.89380   6.93162   6.96706
 Alpha virt. eigenvalues --    6.98570   7.01973   7.03075   7.04440   7.04876
 Alpha virt. eigenvalues --    7.06991   7.09309   7.16837  22.38212  22.43768
 Alpha virt. eigenvalues --   22.56094  22.60449  22.69261  22.70550  22.75327
 Alpha virt. eigenvalues --   22.75883  22.80301  22.81994  22.88770  22.91467
 Alpha virt. eigenvalues --   22.93229  22.95615  22.96021  23.03165  23.06691
 Alpha virt. eigenvalues --   23.10703  23.13575  23.14319  23.23152  23.33467
 Alpha virt. eigenvalues --   23.38110  23.47947  31.96778  32.06186  32.06444
 Alpha virt. eigenvalues --   32.36896  32.53983  32.58452  32.73826  32.88218
 Alpha virt. eigenvalues --   33.04737  44.01538  44.03228  44.04349  44.07849
 Alpha virt. eigenvalues --   44.09808  44.30709
          Condensed to atoms (all electrons):
 Mulliken charges:
               1
     1  C   -0.067676
     2  H    0.124642
     3  O   -0.308706
     4  C    0.009958
     5  H    0.164108
     6  O   -0.517387
     7  H    0.341813
     8  C   -0.003458
     9  H    0.162768
    10  O   -0.483939
    11  H    0.356618
    12  C    0.051857
    13  H    0.133770
    14  N   -0.040458
    15  C   -0.045197
    16  H    0.125355
    17  C    0.017196
    18  C   -0.202563
    19  H    0.213685
    20  H   -0.021228
    21  C   -0.267788
    22  H    0.166852
    23  C   -0.024685
    24  H    0.173699
    25  C    0.356585
    26  O   -0.439335
    27  N   -0.511751
    28  H    0.253157
    29  H    0.277324
    30  N   -0.368945
    31  C    0.484152
    32  N   -0.508731
    33  H    0.304025
    34  H    0.287007
    35  N   -0.319801
    36  H    0.280619
    37  C    0.285790
    38  O   -0.423372
    39  C   -0.065165
    40  N   -0.136084
    41  H    0.306597
    42  C    0.057307
    43  C   -0.208428
    44  H    0.215923
    45  H    0.185849
    46  N   -0.345168
    47  H    0.274746
    48  C    0.385282
    49  C   -0.236183
    50  H    0.222823
    51  H    0.232915
    52  N   -0.434515
    53  H    0.261432
    54  C    0.099409
    55  C   -0.176370
    56  H    0.182191
    57  C   -0.186545
    58  H    0.162185
    59  C    0.271511
    60  C   -0.208392
    61  H    0.121843
    62  C   -0.189679
    63  H    0.113834
    64  C    0.327476
    65  O   -0.422640
    66  N   -0.524595
    67  H    0.248271
    68  H    0.145848
    69  H    0.302364
 Sum of Mulliken charges =   1.00000
 Mulliken charges with hydrogens summed into heavy atoms:
               1
     1  C    0.202814
     3  O   -0.308706
     4  C    0.174067
     6  O   -0.175574
     8  C    0.159310
    10  O   -0.127321
    12  C    0.185628
    14  N   -0.040458
    15  C    0.080158
    17  C    0.017196
    18  C   -0.010106
    21  C   -0.100936
    23  C    0.149013
    25  C    0.356585
    26  O   -0.439335
    27  N    0.018731
    30  N   -0.368945
    31  C    0.484152
    32  N    0.082301
    35  N   -0.039182
    37  C    0.285790
    38  O   -0.423372
    39  C   -0.065165
    40  N    0.170513
    42  C    0.057307
    43  C    0.193343
    46  N   -0.070422
    48  C    0.385282
    49  C    0.219554
    52  N   -0.173083
    54  C    0.099409
    55  C    0.005821
    57  C   -0.024360
    59  C    0.271511
    60  C   -0.086549
    62  C   -0.075845
    64  C    0.327476
    65  O   -0.422640
    66  N    0.026040
 Electronic spatial extent (au):  <R**2>=          27394.3932
 Charge=              1.0000 electrons
 Dipole moment (field-independent basis, Debye):
    X=             -2.4412    Y=             -8.7653    Z=              5.3340  Tot=             10.5471
 Quadrupole moment (field-independent basis, Debye-Ang):
   XX=           -139.6620   YY=           -217.8800   ZZ=           -134.6432
   XY=            -12.5113   XZ=            -61.9799   YZ=             67.8868
 Traceless Quadrupole moment (field-independent basis, Debye-Ang):
   XX=             24.3997   YY=            -53.8182   ZZ=             29.4185
   XY=            -12.5113   XZ=            -61.9799   YZ=             67.8868
 Octapole moment (field-independent basis, Debye-Ang**2):
  XXX=            766.4589  YYY=           -132.8483  ZZZ=            501.0004  XYY=            266.2652
  XXY=           -134.7912  XXZ=            170.8023  XZZ=             68.3104  YZZ=           -100.4500
  YYZ=            107.3012  XYZ=            -69.4737
 Hexadecapole moment (field-independent basis, Debye-Ang**3):
 XXXX=          -6543.0683 YYYY=          -4863.4071 ZZZZ=         -15981.2247 XXXY=           1148.4260
 XXXZ=           -307.5434 YYYX=           1739.9683 YYYZ=           1399.0398 ZZZX=          -1128.2531
 ZZZY=           3447.5305 XXYY=          -1987.6314 XXZZ=          -3485.7906 YYZZ=          -5211.1699
 XXYZ=           1031.8522 YYXZ=            -49.1655 ZZXY=            489.1950
 N-N= 4.430619182575D+03 E-N=-1.321215626546D+04  KE= 1.867506581281D+03
 No NMR shielding tensors so no spin-rotation constants.
 Leave Link  601 at Sat Jun 22 17:39:24 2024, MaxMem=  2684354560 cpu:              10.0 elap:               0.8
 (Enter /storage/apps/GAUSSIAN/G16_RevA03/g16/l602.exe)

 **********************************************************************

            Electrostatic Properties Using The SCF Density

 **********************************************************************

       Atomic Center    1 is at  -4.151156  0.370642  6.740904
       Atomic Center    2 is at  -3.989761  0.443600  7.748803
       Atomic Center    3 is at  -2.960385 -0.215979  6.120415
       Atomic Center    4 is at  -4.292802  1.756641  6.107968
       Atomic Center    5 is at  -5.260492  2.099113  6.083481
       Atomic Center    6 is at  -3.471736  2.745414  6.781762
       Atomic Center    7 is at  -3.651998  2.795457  7.741727
       Atomic Center    8 is at  -3.669040  1.570119  4.715427
       Atomic Center    9 is at  -4.326978  1.144615  4.054462
       Atomic Center   10 is at  -3.221687  2.815274  4.171200
       Atomic Center   11 is at  -3.016833  3.384468  4.937365
       Atomic Center   12 is at  -2.480458  0.623873  5.029142
       Atomic Center   13 is at  -1.671250  1.165661  5.356279
       Atomic Center   14 is at  -2.033037 -0.228436  3.922889
       Atomic Center   15 is at  -0.683437 -0.305799  3.639674
       Atomic Center   16 is at  -0.091354  0.251986  4.251286
       Atomic Center   17 is at  -0.175441 -1.081653  2.664526
       Atomic Center   18 is at  -1.101692 -1.822873  1.742432
       Atomic Center   19 is at  -0.742502 -2.743614  1.486915
       Atomic Center   20 is at  -1.089729 -1.324815  0.839678
       Atomic Center   21 is at  -2.505929 -1.854997  2.246954
       Atomic Center   22 is at  -3.161727 -2.504333  1.816137
       Atomic Center   23 is at  -2.915909 -1.083955  3.254415
       Atomic Center   24 is at  -3.873389 -1.105444  3.602663
       Atomic Center   25 is at   1.274594 -1.300824  2.467858
       Atomic Center   26 is at   1.691923 -2.158923  1.642996
       Atomic Center   27 is at   2.189169 -0.571849  3.187493
       Atomic Center   28 is at   1.910532  0.071099  3.925140
       Atomic Center   29 is at   3.153604 -0.902937  3.202992
       Atomic Center   30 is at   2.160493 -3.147753 -1.934360
       Atomic Center   31 is at   3.283302 -2.450388 -2.255288
       Atomic Center   32 is at   4.410133 -3.109338 -2.605782
       Atomic Center   33 is at   4.453125 -4.123795 -2.554950
       Atomic Center   34 is at   5.260492 -2.583052 -2.872019
       Atomic Center   35 is at   3.326350 -1.072235 -2.265911
       Atomic Center   36 is at   4.251527 -0.608989 -2.398674
       Atomic Center   37 is at   2.232904 -0.282127 -1.932878
       Atomic Center   38 is at   2.350507  0.983493 -1.900740
       Atomic Center   39 is at   1.030769 -1.001586 -1.656086
       Atomic Center   40 is at  -0.130430 -0.328060 -1.263427
       Atomic Center   41 is at  -0.049911  0.690768 -1.186693
       Atomic Center   42 is at  -1.247694 -0.935603 -0.861287
       Atomic Center   43 is at  -1.394873 -2.396200 -1.291430
       Atomic Center   44 is at  -2.030747 -2.881958 -0.658925
       Atomic Center   45 is at  -1.819555 -2.420248 -2.226615
       Atomic Center   46 is at  -0.098539 -3.079423 -1.286568
       Atomic Center   47 is at  -0.083057 -4.095210 -1.236893
       Atomic Center   48 is at   1.045538 -2.421810 -1.631647
       Atomic Center   49 is at  -2.546543 -0.096890 -0.796615
       Atomic Center   50 is at  -2.868577 -0.014900  0.170412
       Atomic Center   51 is at  -3.266370 -0.614395 -1.309716
       Atomic Center   52 is at  -2.393600  1.258613 -1.325857
       Atomic Center   53 is at  -2.736587  1.993205 -0.705402
       Atomic Center   54 is at  -2.231558  2.135168 -5.434063
       Atomic Center   55 is at  -2.390500  3.158952 -4.469320
       Atomic Center   56 is at  -2.440720  4.123795 -4.791827
       Atomic Center   57 is at  -2.451952  2.876284 -3.142790
       Atomic Center   58 is at  -2.556707  3.629238 -2.464141
       Atomic Center   59 is at  -2.369365  1.535445 -2.689438
       Atomic Center   60 is at  -2.226722  0.512723 -3.651802
       Atomic Center   61 is at  -2.181162 -0.463166 -3.363378
       Atomic Center   62 is at  -2.159206  0.815892 -4.977418
       Atomic Center   63 is at  -2.064347  0.050045 -5.642711
       Atomic Center   64 is at  -2.136143  2.484193 -6.856843
       Atomic Center   65 is at  -2.404244  3.662723 -7.277199
       Atomic Center   66 is at  -1.734968  1.529280 -7.748803
       Atomic Center   67 is at  -1.574825  0.569747 -7.460465
       Atomic Center   68 is at  -5.008496 -0.276139  6.554511
       Atomic Center   69 is at  -1.651838  1.695284 -8.822876
 -----------------------------------------------------------------

              Electrostatic Properties (Atomic Units)

 -----------------------------------------------------------------
    Center     Electric         -------- Electric Field --------
               Potential          X             Y             Z
 -----------------------------------------------------------------
    1 Atom    -14.622670     -0.004805      0.007087     -0.005477
    2 Atom     -1.019123      0.012382      0.002666      0.072700
    3 Atom    -22.250419      0.016516     -0.029676      0.008696
    4 Atom    -14.608141      0.000387     -0.012145     -0.005551
    5 Atom     -1.017139     -0.067626      0.021686     -0.004388
    6 Atom    -22.240741      0.024857      0.018016     -0.023571
    7 Atom     -0.885303     -0.005010     -0.001202      0.007771
    8 Atom    -14.607538      0.004560     -0.003121      0.012231
    9 Atom     -1.004939     -0.047298     -0.029833     -0.045664
   10 Atom    -22.260186      0.001236      0.005047     -0.039189
   11 Atom     -0.909908      0.004524      0.010853      0.012130
   12 Atom    -14.572785     -0.008922      0.006584     -0.002407
   13 Atom     -1.006858      0.055000      0.038018      0.020284
   14 Atom    -18.224198     -0.000532      0.003346      0.001155
   15 Atom    -14.613872      0.000508     -0.010078     -0.009853
   16 Atom     -0.976316      0.041679      0.039959      0.045784
   17 Atom    -14.654247     -0.002314      0.001011      0.001820
   18 Atom    -14.660139     -0.001725      0.001968      0.011548
   19 Atom     -1.018931      0.028923     -0.072363     -0.013574
   20 Atom     -0.994847      0.002491      0.040393     -0.067266
   21 Atom    -14.666685      0.005054      0.009272      0.007548
   22 Atom     -1.001736     -0.049061     -0.046725     -0.029413
   23 Atom    -14.625491      0.007434     -0.006925     -0.010342
   24 Atom     -0.986602     -0.067547     -0.001512      0.026494
   25 Atom    -14.561101     -0.000025     -0.008813     -0.007642
   26 Atom    -22.301798      0.008305     -0.019208     -0.018450
   27 Atom    -18.271354     -0.003868      0.001309     -0.010569
   28 Atom     -0.920095     -0.001876      0.006750      0.008318
   29 Atom     -0.924277      0.010605     -0.004308     -0.002975
   30 Atom    -18.271928      0.000307     -0.027297     -0.000758
   31 Atom    -14.494842     -0.010201     -0.003636      0.003320
   32 Atom    -18.217808     -0.004440      0.002608     -0.000584
   33 Atom     -0.876264     -0.002117     -0.014087      0.001171
   34 Atom     -0.867630     -0.000829     -0.004050      0.000397
   35 Atom    -18.202381     -0.003770     -0.001803     -0.001107
   36 Atom     -0.859853     -0.007250      0.005804     -0.000074
   37 Atom    -14.534649     -0.008094      0.017658      0.003529
   38 Atom    -22.286802      0.002856      0.027056      0.000453
   39 Atom    -14.602771      0.009285     -0.008860     -0.002704
   40 Atom    -18.160937     -0.004227     -0.006457     -0.002212
   41 Atom     -0.853749     -0.000990      0.022589     -0.000799
   42 Atom    -14.534155     -0.003731      0.002331     -0.009895
   43 Atom    -14.578993      0.002572      0.006613      0.002995
   44 Atom     -0.960510     -0.047784     -0.036943      0.050253
   45 Atom     -0.967164     -0.030217      0.001913     -0.069319
   46 Atom    -18.217756      0.004334      0.005244      0.004700
   47 Atom     -0.884406      0.003840     -0.015487      0.000140
   48 Atom    -14.536882      0.004550      0.008462     -0.001314
   49 Atom    -14.588703      0.005070      0.000882     -0.002128
   50 Atom     -0.966641     -0.022643      0.004299      0.073447
   51 Atom     -0.971541     -0.052879     -0.040683     -0.040117
   52 Atom    -18.240407      0.011881     -0.001041     -0.000842
   53 Atom     -0.909100     -0.003096      0.009806      0.004969
   54 Atom    -14.676598     -0.000193     -0.001317      0.007388
   55 Atom    -14.689226      0.001258     -0.011262     -0.000986
   56 Atom     -1.041915     -0.004368      0.069873     -0.025057
   57 Atom    -14.686293      0.001511     -0.010423     -0.007360
   58 Atom     -1.021495     -0.007312      0.054577      0.049318
   59 Atom    -14.614040     -0.000169      0.003194     -0.014847
   60 Atom    -14.677986     -0.000274      0.013148     -0.000932
   61 Atom     -1.005769      0.003510     -0.069854      0.020523
   62 Atom    -14.678190     -0.001237      0.013388      0.004965
   63 Atom     -1.015458      0.006257     -0.055576     -0.046562
   64 Atom    -14.590445     -0.004823      0.018217     -0.003937
   65 Atom    -22.339437     -0.005359      0.022940     -0.007427
   66 Atom    -18.287148      0.000846      0.006605     -0.000681
   67 Atom     -0.945195      0.003746     -0.012284      0.003970
   68 Atom     -1.013717     -0.015102     -0.010702     -0.005649
   69 Atom     -0.927382     -0.006900      0.004143      0.041527
 -----------------------------------------------------------------
 Leave Link  602 at Sat Jun 22 17:39:25 2024, MaxMem=  2684354560 cpu:               3.6 elap:               0.3
 (Enter /storage/apps/GAUSSIAN/G16_RevA03/g16/l701.exe)
 ... and contract with generalized density number  0.
 Compute integral first derivatives.
 R6Disp: Adding Grimme-D3 dispersion energy 1st derivatives to the gradient.
   1 Symmetry operations used in ECPInt.
 ECPInt:  NShTT=  150975 NPrTT=  462228 LenC2=  107130 LenP2D=  216690.
 LDataN:  DoStor=T MaxTD1= 7 Len=  274
 Leave Link  701 at Sat Jun 22 17:39:26 2024, MaxMem=  2684354560 cpu:              16.5 elap:               1.1
 (Enter /storage/apps/GAUSSIAN/G16_RevA03/g16/l702.exe)
 L702 exits ... SP integral derivatives will be done elsewhere.
 Leave Link  702 at Sat Jun 22 17:39:26 2024, MaxMem=  2684354560 cpu:               0.3 elap:               0.0
 (Enter /storage/apps/GAUSSIAN/G16_RevA03/g16/l703.exe)
 Integral derivatives from FoFJK, PRISM(SPDF).
 Compute integral first derivatives, UseDBF=F ICtDFT=           0.
 Calling FoFJK, ICntrl=      2127 FMM=T ISym2X=0 I1Cent= 0 IOpClX= 0 NMat=1 NMatS=1 NMatT=0.
 FoFJK:  IHMeth= 1 ICntrl=    2127 DoSepK=F KAlg= 0 I1Cent=           0 FoldK=F
 IRaf=         0 NMat=       1 IRICut=       1 DoRegI=T DoRafI=F ISym2E= 0 IDoP0=0 IntGTp=1.
 FoFCou: FMM=T IPFlag=           0 FMFlag=      100000 FMFlg1=        2001
         NFxFlg=           0 DoJE=F BraDBF=F KetDBF=F FulRan=T
         wScrn=  0.000000 ICntrl=      2127 IOpCl=  0 I1Cent=           0 NGrid=           0
         NMat0=    1 NMatS0=      1 NMatT0=    0 NMatD0=    1 NMtDS0=    0 NMtDT0=    0
 Symmetry not used in FoFCou.
 FMM levels:  10  Number of levels for PrismC:   9
 Leave Link  703 at Sat Jun 22 17:45:04 2024, MaxMem=  2684354560 cpu:            5398.4 elap:             337.9
 (Enter /storage/apps/GAUSSIAN/G16_RevA03/g16/l716.exe)
 Dipole        =-9.60461551D-01-3.44851678D+00 2.09854835D+00
 -------------------------------------------------------------------
 Center     Atomic                   Forces (Hartrees/Bohr)
 Number     Number              X              Y              Z
 -------------------------------------------------------------------
      1        6           0.013234896   -0.001154088   -0.063258789
      2        1           0.008834584    0.001678727    0.051997360
      3        8          -0.006726136    0.013822152   -0.009986336
      4        6           0.048501264   -0.012537466    0.014097356
      5        1          -0.047786737    0.014586549   -0.003779576
      6        8          -0.004483283   -0.011529188    0.000906182
      7        1          -0.001177945   -0.003316244   -0.017194704
[...]
     Eigenvalues ---    1.57842   1.62809   1.63255   1.67269   1.68773
     Eigenvalues ---    1.76588   1.76979   1.82070   1.89295   1.96604
     Eigenvalues ---    1.98052
 Quadratic step=8.890D+00 exceeds max=3.000D-01 adjusted using Lamda=-4.214D-01.
 Angle between NR and scaled steps=  84.31 degrees.
 Angle between quadratic step and forces=  22.85 degrees.
 Linear search not attempted -- first point.
 Variable       Old X    -DE/DX   Delta X   Delta X   Delta X     New X
                                 (Linear)    (Quad)   (Total)
    X1       -7.84455   0.01323   0.00000   0.01505   0.01505  -7.82950
    Y1        0.70041  -0.00115   0.00000  -0.00207  -0.00207   0.69834
    Z1       12.73846  -0.06326   0.00000  -0.03685  -0.03685  12.70161
    X2       -7.53955   0.00883   0.00000   0.01186   0.01186  -7.52770
    Y2        0.83828   0.00168   0.00000  -0.00240  -0.00240   0.83588
    Z2       14.64312   0.05200   0.00000   0.04273   0.04273  14.68585
    X3       -5.59432  -0.00673   0.00000  -0.01101  -0.01101  -5.60533
    Y3       -0.40814   0.01382   0.00000   0.00177   0.00177  -0.40638
    Z3       11.56591  -0.00999   0.00000  -0.01469  -0.01469  11.55122
    X4       -8.11222   0.04850   0.00000   0.02548   0.02548  -8.08674
    Y4        3.31957  -0.01254   0.00000  -0.00394  -0.00394   3.31563
    Z4       11.54239   0.01410   0.00000   0.01213   0.01213  11.55451
    X5       -9.94089  -0.04779   0.00000  -0.04422  -0.04422  -9.98511
    Y5        3.96675   0.01459   0.00000   0.01132   0.01132   3.97807
    Z5       11.49611  -0.00378   0.00000  -0.00527  -0.00527  11.49084
    X6       -6.56063  -0.00448   0.00000   0.00324   0.00324  -6.55739
    Y6        5.18808  -0.01153   0.00000  -0.01557  -0.01557   5.17251
    Z6       12.81567   0.00091   0.00000  -0.00142  -0.00142  12.81425
    X7       -6.90128  -0.00118   0.00000  -0.00623  -0.00623  -6.90750
    Y7        5.28265  -0.00332   0.00000  -0.00743  -0.00743   5.27522
    Z7       14.62974  -0.01719   0.00000  -0.02055  -0.02055  14.60919
    X8       -6.93348   0.05107   0.00000   0.03035   0.03035  -6.90313
    Y8        2.96709   0.04374   0.00000   0.02490   0.02490   2.99200
    Z8        8.91086   0.03833   0.00000   0.02752   0.02752   8.93838
    X9       -8.17680  -0.03358   0.00000  -0.02629  -0.02629  -8.20310
    Y9        2.16301  -0.02150   0.00000  -0.01257  -0.01257   2.15044
    Z9        7.66182  -0.03212   0.00000  -0.02095  -0.02095   7.64087
   X10       -6.08811  -0.00548   0.00000  -0.00174  -0.00174  -6.08984
   Y10        5.32010  -0.01364   0.00000  -0.01111  -0.01111   5.30899
   Z10        7.88243   0.00818   0.00000   0.00688   0.00688   7.88931
   X11       -5.70099  -0.00083   0.00000   0.00077   0.00077  -5.70022
   Y11        6.39572  -0.00457   0.00000  -0.00411  -0.00411   6.39161
   Z11        9.33027  -0.00747   0.00000  -0.00981  -0.00981   9.32046
   X12       -4.68739  -0.05572   0.00000  -0.03214  -0.03214  -4.71953
   Y12        1.17895  -0.04648   0.00000  -0.02786  -0.02786   1.15109
   Z12        9.50370  -0.00439   0.00000   0.00291   0.00291   9.50661
   X13       -3.15821   0.03871   0.00000   0.03091   0.03091  -3.12729
   Y13        2.20278   0.02700   0.00000   0.01852   0.01852   2.22130
   Z13       10.12190   0.01324   0.00000   0.01058   0.01058  10.13248
   X14       -3.84188   0.00169   0.00000  -0.00510  -0.00510  -3.84699
   Y14       -0.43168   0.01064   0.00000   0.01055   0.01055  -0.42113
   Z14        7.41319   0.00554   0.00000   0.00357   0.00357   7.41676
   X15       -1.29151  -0.03829   0.00000  -0.02130  -0.02130  -1.31281
   Y15       -0.57788  -0.03070   0.00000  -0.01371  -0.01371  -0.59159
   Z15        6.87799  -0.02946   0.00000  -0.00804  -0.00804   6.86994
   X16       -0.17263   0.02950   0.00000   0.02424   0.02424  -0.14839
   Y16        0.47618   0.02873   0.00000   0.02555   0.02555   0.50174
   Z16        8.03377   0.03361   0.00000   0.03364   0.03364   8.06740
   X17       -0.33153  -0.00045   0.00000   0.00110   0.00110  -0.33044
   Y17       -2.04403  -0.00302   0.00000  -0.00652  -0.00652  -2.05055
   Z17        5.03522   0.00034   0.00000   0.00414   0.00414   5.03936
   X18       -2.08190  -0.01562   0.00000  -0.00045  -0.00045  -2.08234
   Y18       -3.44473   0.02209   0.00000   0.00879   0.00879  -3.43594
   Z18        3.29272   0.06309   0.00000   0.03113   0.03113   3.32385
   X19       -1.40313   0.02134   0.00000   0.02245   0.02245  -1.38068
   Y19       -5.18468  -0.05311   0.00000  -0.05636  -0.05636  -5.24104
   Z19        2.80986  -0.00853   0.00000   0.00139   0.00139   2.81125
   X20       -2.05929   0.00174   0.00000   0.00257   0.00257  -2.05672
   Y20       -2.50354   0.03051   0.00000   0.03570   0.03570  -2.46783
   Z20        1.58676  -0.05037   0.00000  -0.04675  -0.04675   1.54001
   X21       -4.73552   0.03303   0.00000   0.01828   0.01828  -4.71724
   Y21       -3.50544   0.03141   0.00000   0.01498   0.01498  -3.49046
   Z21        4.24613   0.02455   0.00000   0.01628   0.01628   4.26241
   X22       -5.97480  -0.03554   0.00000  -0.03319  -0.03319  -6.00799
   Y22       -4.73250  -0.03330   0.00000  -0.02859  -0.02859  -4.76109
   Z22        3.43200  -0.02080   0.00000  -0.01645  -0.01645   3.41555
   X23       -5.51027   0.05437   0.00000   0.02601   0.02601  -5.48426
   Y23       -2.04838   0.00665   0.00000   0.01314   0.01314  -2.03524
   Z23        6.14995  -0.01437   0.00000   0.00047   0.00047   6.15042
   X24       -7.31964  -0.04773   0.00000  -0.04255  -0.04255  -7.36220
   Y24       -2.08899  -0.00037   0.00000   0.00200   0.00200  -2.08698
   Z24        6.80805   0.01976   0.00000   0.02046   0.02046   6.82850
   X25        2.40863   0.03178   0.00000   0.01232   0.01232   2.42095
   Y25       -2.45820  -0.02809   0.00000  -0.00867  -0.00867  -2.46688
   Z25        4.66358  -0.02555   0.00000  -0.00378  -0.00378   4.65979
   X26        3.19727  -0.02411   0.00000  -0.02589  -0.02589   3.17138
   Y26       -4.07977   0.03556   0.00000   0.02447   0.02447  -4.05530
   Z26        3.10481   0.02979   0.00000   0.01425   0.01425   3.11906
   X27        4.13693  -0.00773   0.00000  -0.00998  -0.00998   4.12695
   Y27       -1.08064   0.00013   0.00000  -0.00526  -0.00526  -1.08590
   Z27        6.02349   0.00527   0.00000   0.00201   0.00201   6.02550
   X28        3.61038   0.00401   0.00000   0.00233   0.00233   3.61271
   Y28        0.13436  -0.00835   0.00000  -0.01116  -0.01116   0.12320
   Z28        7.41744  -0.00834   0.00000  -0.00858  -0.00858   7.40886
   X29        5.95945  -0.01165   0.00000  -0.01741  -0.01741   5.94204
   Y29       -1.70630   0.00311   0.00000   0.00422   0.00422  -1.70208
   Z29        6.05278  -0.00333   0.00000  -0.00684  -0.00684   6.04593
   X30        4.08274   0.01546   0.00000   0.00700   0.00700   4.08974
   Y30       -5.94839   0.02618   0.00000   0.02294   0.02294  -5.92545
   Z30       -3.65541  -0.00559   0.00000  -0.00580  -0.00580  -3.66121
   X31        6.20454  -0.02705   0.00000  -0.02029  -0.02029   6.18426
   Y31       -4.63056  -0.00964   0.00000  -0.00238  -0.00238  -4.63294
   Z31       -4.26188   0.00795   0.00000   0.00643   0.00643  -4.25544
   X32        8.33394   0.00527   0.00000  -0.01303  -0.01303   8.32091
   Y32       -5.87580   0.01521   0.00000   0.01300   0.01300  -5.86280
   Z32       -4.92421  -0.00013   0.00000   0.00523   0.00523  -4.91898
   X33        8.41519  -0.00344   0.00000  -0.00957  -0.00957   8.40561
   Y33       -7.79284   0.00942   0.00000   0.01741   0.01741  -7.77544
   Z33       -4.82816   0.00018   0.00000   0.00121   0.00121  -4.82694
   X34        9.94089  -0.01945   0.00000  -0.02653  -0.02653   9.91436
   Y34       -4.88126  -0.01481   0.00000  -0.01685  -0.01685  -4.89811
   Z34       -5.42733   0.00635   0.00000   0.00904   0.00904  -5.41829
   X35        6.28589   0.02148   0.00000  -0.00037  -0.00037   6.28552
   Y35       -2.02623  -0.01954   0.00000  -0.01439  -0.01439  -2.04062
   Z35       -4.28195  -0.00097   0.00000   0.00582   0.00582  -4.27613
   X36        8.03422  -0.02651   0.00000  -0.03593  -0.03593   7.99829
   Y36       -1.15082  -0.00435   0.00000  -0.00574  -0.00574  -1.15657
   Z36       -4.53284   0.00268   0.00000   0.00307   0.00307  -4.52976
   X37        4.21958  -0.00112   0.00000  -0.00549  -0.00549   4.21409
   Y37       -0.53314   0.07770   0.00000   0.02108   0.02108  -0.51206
   Z37       -3.65261   0.00299   0.00000   0.00184   0.00184  -3.65077
   X38        4.44181  -0.00901   0.00000  -0.01384  -0.01384   4.42798
   Y38        1.85853  -0.07062   0.00000  -0.04661  -0.04661   1.81193
   Z38       -3.59188  -0.00011   0.00000   0.00291   0.00291  -3.58897
   X39        1.94787   0.00068   0.00000   0.00319   0.00319   1.95106
   Y39       -1.89272  -0.02334   0.00000  -0.01480  -0.01480  -1.90752
   Z39       -3.12955   0.00075   0.00000   0.00447   0.00447  -3.12508
   X40       -0.24648  -0.01591   0.00000   0.00385   0.00385  -0.24263
   Y40       -0.61994  -0.02036   0.00000  -0.01305  -0.01305  -0.63300
   Z40       -2.38753   0.01860   0.00000   0.00944   0.00944  -2.37809
   X41       -0.09432  -0.00279   0.00000  -0.00410  -0.00410  -0.09842
   Y41        1.30536  -0.00057   0.00000  -0.00672  -0.00672   1.29864
   Z41       -2.24252  -0.00241   0.00000  -0.00273  -0.00273  -2.24525
   X42       -2.35780   0.01623   0.00000   0.00996   0.00996  -2.34784
   Y42       -1.76803   0.02209   0.00000   0.02387   0.02387  -1.74417
   Z42       -1.62760  -0.05232   0.00000  -0.07216  -0.07216  -1.69976
   X43       -2.63593   0.06573   0.00000   0.03857   0.03857  -2.59736
   Y43       -4.52816   0.02801   0.00000   0.01724   0.01724  -4.51092
   Z43       -2.44045   0.02241   0.00000   0.01194   0.01194  -2.42851
   X44       -3.83756  -0.03429   0.00000  -0.02631  -0.02631  -3.86387
   Y44       -5.44611  -0.02632   0.00000  -0.01988  -0.01988  -5.46599
   Z44       -1.24519   0.03740   0.00000   0.04438   0.04438  -1.20081
   X45       -3.43846  -0.02167   0.00000  -0.01426  -0.01426  -3.45273
   Y45       -4.57361   0.00306   0.00000   0.00651   0.00651  -4.56710
   Z45       -4.20769  -0.05014   0.00000  -0.04861  -0.04861  -4.25631
   X46       -0.18621   0.00809   0.00000   0.02001   0.02001  -0.16621
   Y46       -5.81927   0.00602   0.00000   0.01128   0.01128  -5.80799
   Z46       -2.43126  -0.00171   0.00000  -0.00037  -0.00037  -2.43164
   X47       -0.15695   0.00341   0.00000   0.00911   0.00911  -0.14784
   Y47       -7.73882   0.00799   0.00000   0.01487   0.01487  -7.72395
   Z47       -2.33739  -0.00134   0.00000  -0.00253  -0.00253  -2.33992
   X48        1.97578   0.01052   0.00000   0.01420   0.01420   1.98997
   Y48       -4.57656   0.00520   0.00000   0.00643   0.00643  -4.57012
   Z48       -3.08337  -0.00270   0.00000  -0.00370  -0.00370  -3.08707
   X49       -4.81227   0.06294   0.00000   0.03604   0.03604  -4.77623
   Y49       -0.18310   0.03541   0.00000   0.02235   0.02235  -0.16074
   Z49       -1.50538  -0.02339   0.00000  -0.01433  -0.01433  -1.51972
   X50       -5.42083  -0.01559   0.00000  -0.00433  -0.00433  -5.42515
   Y50       -0.02816   0.00232   0.00000   0.00127   0.00127  -0.02689
   Z50        0.32203   0.05363   0.00000   0.05470   0.05470   0.37673
   X51       -6.17255  -0.03726   0.00000  -0.02888  -0.02888  -6.20143
   Y51       -1.16104  -0.03020   0.00000  -0.02668  -0.02668  -1.18772
   Z51       -2.47500  -0.02985   0.00000  -0.03365  -0.03365  -2.50866
   X52       -4.52325   0.00049   0.00000   0.00723   0.00723  -4.51602
   Y52        2.37843  -0.00759   0.00000  -0.00069  -0.00069   2.37775
   Z52       -2.50551   0.01702   0.00000   0.00911   0.00911  -2.49640
   X53       -5.17140   0.00438   0.00000   0.00521   0.00521  -5.16619
   Y53        3.76661  -0.00712   0.00000  -0.00740  -0.00740   3.75921
   Z53       -1.33302  -0.00945   0.00000  -0.00950  -0.00950  -1.34252
   X54       -4.21703  -0.00019   0.00000  -0.00099  -0.00099  -4.21802
   Y54        4.03488  -0.00533   0.00000   0.00235   0.00235   4.03723
   Z54      -10.26889   0.02200   0.00000  -0.00456  -0.00456 -10.27345
   X55       -4.51739   0.00595   0.00000   0.00242   0.00242  -4.51497
   Y55        5.96955  -0.05393   0.00000  -0.03155  -0.03155   5.93800
   Z55       -8.44579  -0.01434   0.00000  -0.01559  -0.01559  -8.46138
   X56       -4.61229  -0.00328   0.00000  -0.00359  -0.00359  -4.61589
   Y56        7.79284   0.04981   0.00000   0.04378   0.04378   7.83662
   Z56       -9.05524  -0.01842   0.00000  -0.02132  -0.02132  -9.07656
   X57       -4.63352   0.00507   0.00000   0.00011   0.00011  -4.63340
   Y57        5.43539  -0.05671   0.00000  -0.03661  -0.03661   5.39878
   Z57       -5.93901  -0.01107   0.00000  -0.00087  -0.00087  -5.93989
   X58       -4.83148  -0.00524   0.00000  -0.00451  -0.00451  -4.83599
   Y58        6.85827   0.03891   0.00000   0.03189   0.03189   6.89016
   Z58       -4.65655   0.03588   0.00000   0.03491   0.03491  -4.62165
   X59       -4.47745  -0.00018   0.00000  -0.00342  -0.00342  -4.48087
   Y59        2.90157   0.00208   0.00000  -0.00116  -0.00116   2.90041
   Z59       -5.08230  -0.01498   0.00000   0.00231   0.00231  -5.08000
   X60       -4.20789  -0.00532   0.00000  -0.00655  -0.00655  -4.21444
   Y60        0.96891   0.05295   0.00000   0.02954   0.02954   0.99845
   Z60       -6.90091   0.01978   0.00000   0.01966   0.01966  -6.88125
   X61       -4.12180   0.00265   0.00000   0.00215   0.00215  -4.11965
   Y61       -0.87526  -0.05039   0.00000  -0.04545  -0.04545  -0.92070
   Z61       -6.35586   0.01538   0.00000   0.01914   0.01914  -6.33673
   X62       -4.08031  -0.00387   0.00000  -0.00444  -0.00444  -4.08475
   Y62        1.54181   0.05248   0.00000   0.03185   0.03185   1.57366
   Z62       -9.40596   0.00833   0.00000   0.00069   0.00069  -9.40526
   X63       -3.90105   0.00428   0.00000   0.00282   0.00282  -3.89823
   Y63        0.09457  -0.04002   0.00000  -0.03577  -0.03577   0.05880
   Z63      -10.66318  -0.03329   0.00000  -0.03106  -0.03106 -10.69424
   X64       -4.03673  -0.01371   0.00000  -0.00537  -0.00537  -4.04209
   Y64        4.69444   0.07647   0.00000   0.02558   0.02558   4.72002
   Z64      -12.95756  -0.05842   0.00000  -0.04149  -0.04149 -12.99905
   X65       -4.54336   0.01700   0.00000   0.00805   0.00805  -4.53531
   Y65        6.92154  -0.07237   0.00000  -0.03962  -0.03962   6.88193
   Z65      -13.75191   0.03234   0.00000   0.02186   0.02186 -13.73005
   X66       -3.27861   0.00482   0.00000  -0.00325  -0.00325  -3.28186
   Y66        2.88992  -0.00777   0.00000   0.00095   0.00095   2.89087
   Z66      -14.64312  -0.03867   0.00000  -0.02180  -0.02180 -14.66491
   X67       -2.97599   0.00003   0.00000   0.00084   0.00084  -2.97515
   Y67        1.07667   0.01004   0.00000   0.01467   0.01467   1.09134
   Z67      -14.09824  -0.00236   0.00000  -0.00609  -0.00609 -14.10433
   X68       -9.46468  -0.00102   0.00000   0.00072   0.00072  -9.46396
   Y68       -0.52183   0.00037   0.00000   0.00325   0.00325  -0.51858
   Z68       12.38623  -0.00264   0.00000  -0.01233  -0.01233  12.37390
   X69       -3.12152  -0.00851   0.00000  -0.01329  -0.01329  -3.13482
   Y69        3.20362   0.00128   0.00000   0.00690   0.00690   3.21052
   Z69      -16.67282   0.06088   0.00000   0.07010   0.07010 -16.60272
         Item               Value     Threshold  Converged?
 Maximum Force            0.077701     0.000450     NO 
 RMS     Force            0.027428     0.000300     NO 
 Maximum Displacement     0.072161     0.001800     NO 
 RMS     Displacement     0.020855     0.001200     NO 
 Predicted change in Energy=-7.352760D-02
 GradGradGradGradGradGradGradGradGradGradGradGradGradGradGradGradGradGrad

 Leave Link  103 at Sat Jun 22 17:45:04 2024, MaxMem=  2684354560 cpu:               7.5 elap:               0.5
 (Enter /storage/apps/GAUSSIAN/G16_RevA03/g16/l9999.exe)

 Test job not archived.
 1\1\GINC-T089\Force\RM062X\def2TZVP\C24H30N9O6(1+)\LV87696\22-Jun-2024
 \0\\#P M062X/Def2TZVP scf=(direct,conver=8) EmpiricalDispersion=GD3 No
 Symm force Charge Prop=(Field,Read)\\Gaussian run using SANDER externa
 l interface, route from template gau_job.tpl\\1,1\C,-4.1511556325,0.37
 06419788,6.7409037477\H,-3.989760572,0.443600207,7.7488033142\O,-2.960
 3852568,-0.2159789718,6.1204145522\C,-4.2928023738,1.7566406609,6.1079
 678344\H,-5.2604919269,2.0991128547,6.0834805897\O,-3.4717363913,2.745
 4138094,6.7817624612\H,-3.6519979219,2.7954571146,7.7417267565\C,-3.66
 90395631,1.5701190249,4.7154266555\H,-4.3269777987,1.1446151579,4.0544
 618796\O,-3.2216865329,2.815274316,4.1712003663\H,-3.0168332914,3.3844
 682035,4.9373654213\C,-2.4804579818,0.6238725619,5.0291423647\H,-1.671
 2502491,1.1656606857,5.3562790494\N,-2.0330367908,-0.2284359032,3.9228
 894977\C,-0.6834374017,-0.3057988397,3.6396736108\H,-0.0913535048,0.25
 19861192,4.2512857728\C,-0.1754405727,-1.0816526306,2.6645257861\C,-1.
 1016918626,-1.8228728893,1.7424316164\H,-0.7425021639,-2.7436143332,1.
 4869151625\H,-1.0897285721,-1.3248146697,0.8396775412\C,-2.5059285741,
 -1.8549965516,2.246953976\H,-3.1617273816,-2.504333166,1.8161365917\C,
 -2.9159086621,-1.0839554062,3.2544148738\H,-3.8733887391,-1.1054435963
 ,3.6026626587\C,1.2745937123,-1.3008238005,2.4678582185\O,1.6919231852
 ,-2.1589228682,1.6429962905\N,2.1891692125,-0.5718494029,3.1874929777\
 H,1.9105317628,0.0710992299,3.9251401376\H,3.1536041946,-0.9029374108,
 3.2029915614\N,2.1604926391,-3.1477529181,-1.9343595159\C,3.2833021665
 ,-2.4503876892,-2.2552878651\N,4.4101331931,-3.1093383109,-2.605781669
 1\H,4.4531250061,-4.123795137,-2.5549499773\H,5.2604919269,-2.58305201
 34,-2.8720194121\N,3.3263496576,-1.0722348484,-2.2659105383\H,4.251526
 7596,-0.6089886299,-2.3986744318\C,2.232904379,-0.2821272438,-1.932878
 0049\O,2.3505069242,0.9834932693,-1.9007403924\C,1.0307694992,-1.00158
 58258,-1.6560859377\N,-0.1304298338,-0.3280599939,-1.2634268078\H,-0.0
 49910596,0.690768266,-1.1866930525\C,-1.2476939008,-0.9356029794,-0.86
 12872314\C,-1.3948734172,-2.3961999366,-1.2914303945\H,-2.030746686,-2
 .8819581231,-0.6589253692\H,-1.8195548036,-2.4202479307,-2.2266153265\
 N,-0.0985389323,-3.0794228388,-1.2865682804\H,-0.0830569115,-4.0952096
 573,-1.2368926217\C,1.0455375001,-2.4218098214,-1.6316474217\C,-2.5465
 427015,-0.0968903791,-0.796615341\H,-2.8685770718,-0.0149001472,0.1704
 119067\H,-3.2663701812,-0.6143951774,-1.3097161629\N,-2.3936000112,1.2
 586134174,-1.3258569216\H,-2.7365872393,1.9932051916,-0.7054022141\C,-
 2.2315582957,2.135167863,-5.4340627132\C,-2.3904997044,3.1589524423,-4
 .469320403\H,-2.4407195699,4.123795137,-4.7918274678\C,-2.45195162,2.8
 762843025,-3.1427901026\H,-2.5567073591,3.6292382729,-2.4641409711\C,-
 2.3693650332,1.5354448375,-2.6894376131\C,-2.2267218139,0.5127232512,-
 3.6518022561\H,-2.1811621165,-0.4631659499,-3.3633784104\C,-2.15920577
 98,0.8158915441,-4.9774182862\H,-2.0643472331,0.0500448884,-5.64271064
 71\C,-2.1361433511,2.4841926638,-6.8568434351\O,-2.4042438353,3.662722
 5426,-7.2771991179\N,-1.7349675384,1.5292803644,-7.7488033142\H,-1.574
 8247208,0.5697473951,-7.4604649734\H,-5.0084955597,-0.2761392351,6.554
 5108546\H,-1.6518384204,1.6952841207,-8.8228760783\\Version=ES64L-G16R
 evA.03\HF=-1876.4348116\RMSD=2.925e-09\RMSF=2.743e-02\Dipole=0.8431691
 ,-3.4729709,2.1455189\Quadrupole=18.1406121,-40.0125446,21.8719325,-9.
 3018584,-46.080504,50.4721937\PG=C01 [X(C24H30N9O6)]\\@


 TWO ROADS DIVERGED IN A WOOD, AND I--
 I TOOK THE ONE LESS TRAVELED BY,
 AND THAT HAS MADE ALL THE DIFFERENCE.

                       -- ROBERT FROST
 Job cpu time:       0 days  7 hours 24 minutes 55.0 seconds.
 Elapsed time:       0 days  0 hours 27 minutes 52.5 seconds.
 File lengths (MBytes):  RWF=   1039 Int=      0 D2E=      0 Chk=    113 Scr=      1
 Normal termination of Gaussian 16 at Sat Jun 22 17:45:05 2024.
