 Entering Gaussian System, Link 0=g16
 Initial command:
 /storage/apps/GAUSSIAN/G16_RevA03/g16/l1.exe "/scratch/tmp/2140817/Gau-208839.inp" -scrdir="/scratch/tmp/2140817/"
 Entering Link 1 = /storage/apps/GAUSSIAN/G16_RevA03/g16/l1.exe PID=    208840.
  
 Copyright (c) 1988,1990,1992,1993,1995,1998,2003,2009,2016,
            Gaussian, Inc.  All Rights Reserved.
  
 This is part of the Gaussian(R) 16 program.  It is based on
 the Gaussian(R) 09 system (copyright 2009, Gaussian, Inc.),
 the Gaussian(R) 03 system (copyright 2003, Gaussian, Inc.),
 the Gaussian(R) 98 system (copyright 1998, Gaussian, Inc.),
 the Gaussian(R) 94 system (copyright 1995, Gaussian, Inc.),
 the Gaussian 92(TM) system (copyright 1992, Gaussian, Inc.),
 the Gaussian 90(TM) system (copyright 1990, Gaussian, Inc.),
 the Gaussian 88(TM) system (copyright 1988, Gaussian, Inc.),
 the Gaussian 86(TM) system (copyright 1986, Carnegie Mellon
 University), and the Gaussian 82(TM) system (copyright 1983,
 Carnegie Mellon University). Gaussian is a federally registered
 trademark of Gaussian, Inc.
  
 This software contains proprietary and confidential information,
 including trade secrets, belonging to Gaussian, Inc.
  
 This software is provided under written license and may be
 used, copied, transmitted, or stored only in accord with that
 written license.
  
 The following legend is applicable only to US Government
 contracts under FAR:
  
                    RESTRICTED RIGHTS LEGEND
  
 Use, reproduction and disclosure by the US Government is
 subject to restrictions as set forth in subparagraphs (a)
 and (c) of the Commercial Computer Software - Restricted
 Rights clause in FAR 52.227-19.
  
 Gaussian, Inc.
 340 Quinnipiac St., Bldg. 40, Wallingford CT 06492
  
  
 ---------------------------------------------------------------
 Warning -- This program may not be used in any manner that
 competes with the business of Gaussian, Inc. or will provide
 assistance to any competitor of Gaussian, Inc.  The licensee
 of this program is prohibited from giving any competitor of
 Gaussian, Inc. access to this program.  By using this program,
 the user acknowledges that Gaussian, Inc. is engaged in the
 business of creating and licensing software in the field of
 computational chemistry and represents and warrants to the
 licensee that it is not a competitor of Gaussian, Inc. and that
 it will not use this program in any manner prohibited above.
 ---------------------------------------------------------------
  

 Cite this work as:
 Gaussian 16, Revision A.03,
 M. J. Frisch, G. W. Trucks, H. B. Schlegel, G. E. Scuseria, 
 M. A. Robb, J. R. Cheeseman, G. Scalmani, V. Barone, 
 G. A. Petersson, H. Nakatsuji, X. Li, M. Caricato, A. V. Marenich, 
 J. Bloino, B. G. Janesko, R. Gomperts, B. Mennucci, H. P. Hratchian, 
 J. V. Ortiz, A. F. Izmaylov, J. L. Sonnenberg, D. Williams-Young, 
 F. Ding, F. Lipparini, F. Egidi, J. Goings, B. Peng, A. Petrone, 
 T. Henderson, D. Ranasinghe, V. G. Zakrzewski, J. Gao, N. Rega, 
 G. Zheng, W. Liang, M. Hada, M. Ehara, K. Toyota, R. Fukuda, 
 J. Hasegawa, M. Ishida, T. Nakajima, Y. Honda, O. Kitao, H. Nakai, 
 T. Vreven, K. Throssell, J. A. Montgomery, Jr., J. E. Peralta, 
 F. Ogliaro, M. J. Bearpark, J. J. Heyd, E. N. Brothers, K. N. Kudin, 
 V. N. Staroverov, T. A. Keith, R. Kobayashi, J. Normand, 
 K. Raghavachari, A. P. Rendell, J. C. Burant, S. S. Iyengar, 
 J. Tomasi, M. Cossi, J. M. Millam, M. Klene, C. Adamo, R. Cammi, 
 J. W. Ochterski, R. L. Martin, K. Morokuma, O. Farkas, 
 J. B. Foresman, and D. J. Fox, Gaussian, Inc., Wallingford CT, 2016.
 
 ******************************************
 Gaussian 16:  ES64L-G16RevA.03 25-Dec-2016
                22-Jun-2024 
 ******************************************
 %chk=gau_job.chk
 %NProcShared=16
 Will use up to   16 processors via shared memory.
 %mem=20GB
 ----------------------------------------------------------------------
 #P M062X/Def2TZVP scf=(direct,conver=8) EmpiricalDispersion=GD3 NoSymm
  force Charge Prop=(Field,Read)
 ----------------------------------------------------------------------
 1/10=7,18=10,28=-2,30=1,38=1,125=101/1,3;
 2/12=2,15=1,17=6,18=5,29=2,40=1/2;
 3/5=44,7=101,11=2,25=1,30=1,71=1,74=-55,124=31/1,2,3;
 4//1;
 5/5=2,6=8,38=5/2;
 6/7=2,8=2,9=2,10=2,14=2,15=1,28=1/1,2;
 7/7=1,16=-2,29=1,30=1/1,2,3,16;
 1/10=7,18=10,28=-2,30=1/3;
 99/12=1/99;
 Leave Link    1 at Sat Jun 22 17:18:31 2024, MaxMem=  2684354560 cpu:               0.8 elap:               0.1
 (Enter /storage/apps/GAUSSIAN/G16_RevA03/g16/l101.exe)
 ----------------------------------------------------------------------
 Gaussian run using SANDER external interface, route from template gau_
 job.tpl
 ----------------------------------------------------------------------
 Symbolic Z-matrix:
 Charge =  1 Multiplicity = 1
 C                    -4.14418   0.36909   6.71931 
 H                    -3.9605    0.42951   7.72403 
 O                    -2.96978  -0.22119   6.06627 
 C                    -4.28638   1.76436   6.10635 
 H                    -5.25303   2.10989   6.09261 
 O                    -3.45634   2.73983   6.7856 
 H                    -3.65258   2.80689   7.74187 
 C                    -3.67225   1.5971    4.70622 
 H                    -4.33408   1.18122   4.04301 
 O                    -3.21904   2.84442   4.1794 
 H                    -3.01627   3.40664   4.95157 
 C                    -2.48784   0.64019   5.00305 
 H                    -1.67353   1.16995   5.33716 
 N                    -2.04349  -0.20095   3.87847 
 C                    -0.70234  -0.24868   3.57435 
 H                    -0.11247   0.34435   4.15419 
 C                    -0.19571  -1.0594    2.62042 
 C                    -1.10937  -1.83253   1.76496 
 H                    -0.73014  -2.73252   1.46416 
 H                    -1.12883  -1.28567   0.61052 
 C                    -2.48813  -1.86915   2.24733 
 H                    -3.14064  -2.52515   1.82127 
 C                    -2.91597  -1.0681    3.23215 
 H                    -3.87531  -1.08842   3.5757 
 C                     1.26631  -1.29829   2.45034 
 O                     1.67444  -2.19803   1.67603 
 N                     2.17553  -0.5578    3.16168 
 H                     1.89612   0.11651   3.87038 
 H                     3.13739  -0.89719   3.19855 
 N                     2.15942  -3.12871  -1.93059 
 C                     3.27853  -2.43738  -2.26155 
 N                     4.40074  -3.10081  -2.63527 
 H                     4.4412   -4.11394  -2.57525 
 H                     5.25303  -2.5762   -2.89371 
 N                     3.3243   -1.06031  -2.26623 
 H                     4.24526  -0.59711  -2.41639 
 C                     2.24053  -0.27258  -1.89781 
 O                     2.36489   0.99801  -1.87181 
 C                     1.052    -0.98825  -1.57478 
 N                    -0.11061  -0.29867  -1.17067 
 H                    -0.01633   0.71307  -1.06442 
 C                    -1.23615  -0.93563  -0.74837 
 C                    -1.37751  -2.3647   -1.30564 
 H                    -2.0677   -2.87904  -0.75858 
 H                    -1.72416  -2.31273  -2.27057 
 N                    -0.0928   -3.06155  -1.24364 
 H                    -0.09316  -4.0758   -1.31219 
 C                     1.05456  -2.39314  -1.59364 
 C                    -2.55772  -0.1007   -0.77262 
 H                    -2.93026  -0.0099    0.17457 
 H                    -3.24301  -0.6302   -1.31897 
 N                    -2.40018   1.24762  -1.31701 
 H                    -2.69945   1.99785  -0.69465 
 C                    -2.22797   2.12955  -5.42513 
 C                    -2.3902    3.14807  -4.45685 
 H                    -2.44508   4.11394  -4.77552 
 C                    -2.44974   2.86189  -3.13074 
 H                    -2.55604   3.61276  -2.45003 
 C                    -2.36388   1.52125  -2.67751 
 C                    -2.21487   0.49786  -3.64253 
 H                    -2.15921  -0.47725  -3.35327 
 C                    -2.14684   0.80146  -4.96635 
 H                    -2.04513   0.03813  -5.63352 
 C                    -2.1351    2.48197  -6.8453 
 O                    -2.40811   3.66156  -7.26449 
 N                    -1.7321    1.5313   -7.74187 
 H                    -1.56428   0.57245  -7.45573 
 H                    -5.00907  -0.27057   6.54356 
 H                    -1.65128   1.70124  -8.8155 
 
 ITRead=  0  0  0  0  0  0  0  0  0  0  0  0  0  0  0  0  0  0  0  0
 ITRead=  0  0  0  0  0  0  0  0  0  0  0  0  0  0  0  0  0  0  0  0
 ITRead=  0  0  0  0  0  0  0  0  0  0  0  0  0  0  0  0  0  0  0  0
 ITRead=  0  0  0  0  0  0  0  0  0
 MicOpt= -1 -1 -1 -1 -1 -1 -1 -1 -1 -1 -1 -1 -1 -1 -1 -1 -1 -1 -1 -1
 MicOpt= -1 -1 -1 -1 -1 -1 -1 -1 -1 -1 -1 -1 -1 -1 -1 -1 -1 -1 -1 -1
 MicOpt= -1 -1 -1 -1 -1 -1 -1 -1 -1 -1 -1 -1 -1 -1 -1 -1 -1 -1 -1 -1
 MicOpt= -1 -1 -1 -1 -1 -1 -1 -1 -1
 NAtoms=     69 NQM=       69 NQMF=       0 NMMI=      0 NMMIF=      0
                NMic=       0 NMicF=      0.
                    Isotopes and Nuclear Properties:
 (Nuclear quadrupole moments (NQMom) in fm**2, nuclear magnetic moments (NMagM)
  in nuclear magnetons)

  Atom         1           2           3           4           5           6           7           8           9          10
 IAtWgt=          12           1          16          12           1          16           1          12           1          16
 AtmWgt=  12.0000000   1.0078250  15.9949146  12.0000000   1.0078250  15.9949146   1.0078250  12.0000000   1.0078250  15.9949146
 NucSpn=           0           1           0           0           1           0           1           0           1           0
 AtZEff=  -0.0000000  -0.0000000  -0.0000000  -0.0000000  -0.0000000  -0.0000000  -0.0000000  -0.0000000  -0.0000000  -0.0000000
 NQMom=    0.0000000   0.0000000   0.0000000   0.0000000   0.0000000   0.0000000   0.0000000   0.0000000   0.0000000   0.0000000
 NMagM=    0.0000000   2.7928460   0.0000000   0.0000000   2.7928460   0.0000000   2.7928460   0.0000000   2.7928460   0.0000000
 AtZNuc=   6.0000000   1.0000000   8.0000000   6.0000000   1.0000000   8.0000000   1.0000000   6.0000000   1.0000000   8.0000000

  Atom        11          12          13          14          15          16          17          18          19          20
 IAtWgt=           1          12           1          14          12           1          12          12           1           1
 AtmWgt=   1.0078250  12.0000000   1.0078250  14.0030740  12.0000000   1.0078250  12.0000000  12.0000000   1.0078250   1.0078250
 NucSpn=           1           0           1           2           0           1           0           0           1           1
 AtZEff=  -0.0000000  -0.0000000  -0.0000000  -0.0000000  -0.0000000  -0.0000000  -0.0000000  -0.0000000  -0.0000000  -0.0000000
 NQMom=    0.0000000   0.0000000   0.0000000   2.0440000   0.0000000   0.0000000   0.0000000   0.0000000   0.0000000   0.0000000
 NMagM=    2.7928460   0.0000000   2.7928460   0.4037610   0.0000000   2.7928460   0.0000000   0.0000000   2.7928460   2.7928460
 AtZNuc=   1.0000000   6.0000000   1.0000000   7.0000000   6.0000000   1.0000000   6.0000000   6.0000000   1.0000000   1.0000000

  Atom        21          22          23          24          25          26          27          28          29          30
 IAtWgt=          12           1          12           1          12          16          14           1           1          14
 AtmWgt=  12.0000000   1.0078250  12.0000000   1.0078250  12.0000000  15.9949146  14.0030740   1.0078250   1.0078250  14.0030740
 NucSpn=           0           1           0           1           0           0           2           1           1           2
 AtZEff=  -0.0000000  -0.0000000  -0.0000000  -0.0000000  -0.0000000  -0.0000000  -0.0000000  -0.0000000  -0.0000000  -0.0000000
 NQMom=    0.0000000   0.0000000   0.0000000   0.0000000   0.0000000   0.0000000   2.0440000   0.0000000   0.0000000   2.0440000
 NMagM=    0.0000000   2.7928460   0.0000000   2.7928460   0.0000000   0.0000000   0.4037610   2.7928460   2.7928460   0.4037610
 AtZNuc=   6.0000000   1.0000000   6.0000000   1.0000000   6.0000000   8.0000000   7.0000000   1.0000000   1.0000000   7.0000000

  Atom        31          32          33          34          35          36          37          38          39          40
 IAtWgt=          12          14           1           1          14           1          12          16          12          14
 AtmWgt=  12.0000000  14.0030740   1.0078250   1.0078250  14.0030740   1.0078250  12.0000000  15.9949146  12.0000000  14.0030740
 NucSpn=           0           2           1           1           2           1           0           0           0           2
 AtZEff=  -0.0000000  -0.0000000  -0.0000000  -0.0000000  -0.0000000  -0.0000000  -0.0000000  -0.0000000  -0.0000000  -0.0000000
 NQMom=    0.0000000   2.0440000   0.0000000   0.0000000   2.0440000   0.0000000   0.0000000   0.0000000   0.0000000   2.0440000
 NMagM=    0.0000000   0.4037610   2.7928460   2.7928460   0.4037610   2.7928460   0.0000000   0.0000000   0.0000000   0.4037610
 AtZNuc=   6.0000000   7.0000000   1.0000000   1.0000000   7.0000000   1.0000000   6.0000000   8.0000000   6.0000000   7.0000000

  Atom        41          42          43          44          45          46          47          48          49          50
 IAtWgt=           1          12          12           1           1          14           1          12          12           1
 AtmWgt=   1.0078250  12.0000000  12.0000000   1.0078250   1.0078250  14.0030740   1.0078250  12.0000000  12.0000000   1.0078250
 NucSpn=           1           0           0           1           1           2           1           0           0           1
 AtZEff=  -0.0000000  -0.0000000  -0.0000000  -0.0000000  -0.0000000  -0.0000000  -0.0000000  -0.0000000  -0.0000000  -0.0000000
 NQMom=    0.0000000   0.0000000   0.0000000   0.0000000   0.0000000   2.0440000   0.0000000   0.0000000   0.0000000   0.0000000
 NMagM=    2.7928460   0.0000000   0.0000000   2.7928460   2.7928460   0.4037610   2.7928460   0.0000000   0.0000000   2.7928460
 AtZNuc=   1.0000000   6.0000000   6.0000000   1.0000000   1.0000000   7.0000000   1.0000000   6.0000000   6.0000000   1.0000000

  Atom        51          52          53          54          55          56          57          58          59          60
 IAtWgt=           1          14           1          12          12           1          12           1          12          12
 AtmWgt=   1.0078250  14.0030740   1.0078250  12.0000000  12.0000000   1.0078250  12.0000000   1.0078250  12.0000000  12.0000000
 NucSpn=           1           2           1           0           0           1           0           1           0           0
 AtZEff=  -0.0000000  -0.0000000  -0.0000000  -0.0000000  -0.0000000  -0.0000000  -0.0000000  -0.0000000  -0.0000000  -0.0000000
 NQMom=    0.0000000   2.0440000   0.0000000   0.0000000   0.0000000   0.0000000   0.0000000   0.0000000   0.0000000   0.0000000
 NMagM=    2.7928460   0.4037610   2.7928460   0.0000000   0.0000000   2.7928460   0.0000000   2.7928460   0.0000000   0.0000000
 AtZNuc=   1.0000000   7.0000000   1.0000000   6.0000000   6.0000000   1.0000000   6.0000000   1.0000000   6.0000000   6.0000000

  Atom        61          62          63          64          65          66          67          68          69
 IAtWgt=           1          12           1          12          16          14           1           1           1
 AtmWgt=   1.0078250  12.0000000   1.0078250  12.0000000  15.9949146  14.0030740   1.0078250   1.0078250   1.0078250
 NucSpn=           1           0           1           0           0           2           1           1           1
 AtZEff=  -0.0000000  -0.0000000  -0.0000000  -0.0000000  -0.0000000  -0.0000000  -0.0000000  -0.0000000  -0.0000000
 NQMom=    0.0000000   0.0000000   0.0000000   0.0000000   0.0000000   2.0440000   0.0000000   0.0000000   0.0000000
 NMagM=    2.7928460   0.0000000   2.7928460   0.0000000   0.0000000   0.4037610   2.7928460   2.7928460   2.7928460
 AtZNuc=   1.0000000   6.0000000   1.0000000   6.0000000   8.0000000   7.0000000   1.0000000   1.0000000   1.0000000
 Background charge distribution read from input stream:
 Leave Link  101 at Sat Jun 22 17:18:32 2024, MaxMem=  2684354560 cpu:               2.1 elap:               0.2
 (Enter /storage/apps/GAUSSIAN/G16_RevA03/g16/l103.exe)

 GradGradGradGradGradGradGradGradGradGradGradGradGradGradGradGradGradGrad
 Berny optimization.
 Initialization pass.
 Trust Radius=3.00D-01 FncErr=1.00D-07 GrdErr=1.00D-07 EigMax=2.50D+02 EigMin=1.00D-04
 Number of steps in this run=      2 maximum allowed number of steps=      2.
 GradGradGradGradGradGradGradGradGradGradGradGradGradGradGradGradGradGrad

 Leave Link  103 at Sat Jun 22 17:18:32 2024, MaxMem=  2684354560 cpu:               0.4 elap:               0.1
 (Enter /storage/apps/GAUSSIAN/G16_RevA03/g16/l202.exe)
 Symmetry turned off by external request.
 Stoichiometry    C24H30N9O6(1+)
 Framework group  C1[X(C24H30N9O6)]
 Deg. of freedom   201
 Full point group                 C1      NOp   1
                          Input orientation:                          
 ---------------------------------------------------------------------
 Center     Atomic      Atomic             Coordinates (Angstroms)
 Number     Number       Type             X           Y           Z
 ---------------------------------------------------------------------
      1          6           0       -4.144176    0.369092    6.719308
      2          1           0       -3.960501    0.429515    7.724034
      3          8           0       -2.969781   -0.221190    6.066273
      4          6           0       -4.286383    1.764363    6.106351
      5          1           0       -5.253026    2.109887    6.092611
      6          8           0       -3.456344    2.739829    6.785596
      7          1           0       -3.652585    2.806890    7.741870
      8          6           0       -3.672255    1.597098    4.706215
      9          1           0       -4.334077    1.181219    4.043012
     10          8           0       -3.219037    2.844420    4.179400
     11          1           0       -3.016268    3.406644    4.951572
     12          6           0       -2.487839    0.640189    5.003046
     13          1           0       -1.673532    1.169954    5.337163
     14          7           0       -2.043487   -0.200953    3.878467
     15          6           0       -0.702338   -0.248677    3.574351
     16          1           0       -0.112471    0.344349    4.154194
     17          6           0       -0.195707   -1.059395    2.620416
     18          6           0       -1.109365   -1.832531    1.764962
     19          1           0       -0.730141   -2.732517    1.464156
     20          1           0       -1.128828   -1.285673    0.610525
     21          6           0       -2.488131   -1.869145    2.247330
     22          1           0       -3.140642   -2.525155    1.821271
     23          6           0       -2.915966   -1.068096    3.232150
     24          1           0       -3.875311   -1.088417    3.575698
     25          6           0        1.266311   -1.298293    2.450335
     26          8           0        1.674442   -2.198030    1.676033
     27          7           0        2.175534   -0.557798    3.161681
     28          1           0        1.896123    0.116507    3.870376
     29          1           0        3.137386   -0.897193    3.198548
     30          7           0        2.159421   -3.128709   -1.930590
     31          6           0        3.278532   -2.437377   -2.261549
     32          7           0        4.400742   -3.100811   -2.635265
     33          1           0        4.441199   -4.113943   -2.575253
     34          1           0        5.253026   -2.576195   -2.893711
     35          7           0        3.324304   -1.060307   -2.266235
     36          1           0        4.245260   -0.597110   -2.416392
     37          6           0        2.240533   -0.272583   -1.897811
     38          8           0        2.364886    0.998014   -1.871811
     39          6           0        1.051995   -0.988247   -1.574778
     40          7           0       -0.110606   -0.298667   -1.170666
     41          1           0       -0.016325    0.713068   -1.064424
     42          6           0       -1.236152   -0.935625   -0.748371
     43          6           0       -1.377509   -2.364695   -1.305639
     44          1           0       -2.067703   -2.879045   -0.758581
     45          1           0       -1.724163   -2.312734   -2.270573
     46          7           0       -0.092796   -3.061550   -1.243644
     47          1           0       -0.093158   -4.075800   -1.312189
     48          6           0        1.054559   -2.393143   -1.593637
     49          6           0       -2.557718   -0.100696   -0.772620
     50          1           0       -2.930262   -0.009896    0.174571
     51          1           0       -3.243015   -0.630202   -1.318970
     52          7           0       -2.400175    1.247620   -1.317007
     53          1           0       -2.699449    1.997846   -0.694655
     54          6           0       -2.227972    2.129555   -5.425134
     55          6           0       -2.390203    3.148073   -4.456852
     56          1           0       -2.445080    4.113943   -4.775517
     57          6           0       -2.449735    2.861886   -3.130744
     58          1           0       -2.556036    3.612757   -2.450027
     59          6           0       -2.363882    1.521253   -2.677512
     60          6           0       -2.214871    0.497860   -3.642530
     61          1           0       -2.159214   -0.477251   -3.353273
     62          6           0       -2.146840    0.801456   -4.966347
     63          1           0       -2.045127    0.038127   -5.633519
     64          6           0       -2.135100    2.481969   -6.845303
     65          8           0       -2.408113    3.661563   -7.264488
     66          7           0       -1.732096    1.531295   -7.741870
     67          1           0       -1.564278    0.572445   -7.455732
     68          1           0       -5.009070   -0.270572    6.543559
     69          1           0       -1.651282    1.701237   -8.815504
 ---------------------------------------------------------------------
 Rotational constants (GHZ):           0.1096142           0.0519265           0.0391979
 Leave Link  202 at Sat Jun 22 17:18:32 2024, MaxMem=  2684354560 cpu:               0.3 elap:               0.1
 (Enter /storage/apps/GAUSSIAN/G16_RevA03/g16/l301.exe)
 Standard basis: def2TZVP (5D, 7F)
 Ernie: Thresh=  0.10000D-02 Tol=  0.10000D-05 Strict=F.
  1389 basis functions,  2229 primitive gaussians,  1584 cartesian basis functions
   142 alpha electrons      142 beta electrons
       nuclear repulsion energy      4439.0746409771 Hartrees.
 IExCor= 4336 DFT=T Ex+Corr=M062X ExCW=0 ScaHFX=  0.540000
 ScaDFX=  1.000000  1.000000  1.000000  1.000000 ScalE2=  1.000000  1.000000
 IRadAn=      5 IRanWt=     -1 IRanGd=            0 ICorTp=0 IEmpDi=131
 NAtoms=   69 NActive=   69 NUniq=   69 SFac= 1.00D+00 NAtFMM=   60 NAOKFM=T Big=T
 Integral buffers will be    131072 words long.
 Raffenetti 2 integral format.
 Two-electron integral symmetry is turned off.
 R6Disp:  Grimme-D3 Dispersion energy=       -0.0064988360 Hartrees.
 Nuclear repulsion after empirical dispersion term =     4439.0681421411 Hartrees.
 Leave Link  301 at Sat Jun 22 17:18:32 2024, MaxMem=  2684354560 cpu:               1.4 elap:               0.1
 (Enter /storage/apps/GAUSSIAN/G16_RevA03/g16/l302.exe)
 NPDir=0 NMtPBC=     1 NCelOv=     1 NCel=       1 NClECP=     1 NCelD=      1
         NCelK=      1 NCelE2=     1 NClLst=     1 CellRange=     0.0.
 One-electron integrals computed using PRISM.
   1 Symmetry operations used in ECPInt.
 ECPInt:  NShTT=  150975 NPrTT=  462228 LenC2=  107344 LenP2D=  217213.
 LDataN:  DoStor=T MaxTD1= 6 Len=  172
 NBasis=  1389 RedAO= T EigKep=  5.90D-06  NBF=  1389
 NBsUse=  1389 1.00D-06 EigRej= -1.00D+00 NBFU=  1389
 Precomputing XC quadrature grid using
 IXCGrd= 4 IRadAn=           5 IRanWt=          -1 IRanGd=           0 AccXCQ= 0.00D+00.
 Generated NRdTot=       0 NPtTot=           0 NUsed=           0 NTot=          32
 NSgBfM=  1496  1487  1493  1495  1496 MxSgAt=    69 MxSgA2=    69.
 Leave Link  302 at Sat Jun 22 17:18:35 2024, MaxMem=  2684354560 cpu:              44.5 elap:               2.8
 (Enter /storage/apps/GAUSSIAN/G16_RevA03/g16/l303.exe)
 DipDrv:  MaxL=1.
 Leave Link  303 at Sat Jun 22 17:18:35 2024, MaxMem=  2684354560 cpu:               4.1 elap:               0.3
 (Enter /storage/apps/GAUSSIAN/G16_RevA03/g16/l401.exe)
 ExpMin= 9.52D-02 ExpMax= 2.70D+04 ExpMxC= 9.22D+02 IAcc=3 IRadAn=         5 AccDes= 0.00D+00
 Harris functional with IExCor= 1009 and IRadAn=       5 diagonalized for initial guess.
 HarFok:  IExCor= 1009 AccDes= 0.00D+00 IRadAn=         5 IDoV= 1 UseB2=F ITyADJ=14
 ICtDFT=  3500011 ScaDFX=  1.000000  1.000000  1.000000  1.000000
 FoFCou: FMM=F IPFlag=           0 FMFlag=      100000 FMFlg1=        2001
         NFxFlg=           0 DoJE=T BraDBF=F KetDBF=T FulRan=T
         wScrn=  0.000000 ICntrl=       500 IOpCl=  0 I1Cent=   200000004 NGrid=           0
         NMat0=    1 NMatS0=      1 NMatT0=    0 NMatD0=    1 NMtDS0=    0 NMtDT0=    0
 Symmetry not used in FoFCou.
 Harris En= -1875.48216174796    
 JPrj=0 DoOrth=F DoCkMO=F.
 Leave Link  401 at Sat Jun 22 17:18:42 2024, MaxMem=  2684354560 cpu:             105.4 elap:               6.7
 (Enter /storage/apps/GAUSSIAN/G16_RevA03/g16/l502.exe)
 Two-electron integral symmetry not used.
 Closed shell SCF:
 Using DIIS extrapolation, IDIIS=  1040.
 NGot=  2684354560 LenX=  2679300873 LenY=  2676790233
 Requested convergence on RMS density matrix=1.00D-08 within 128 cycles.
 Requested convergence on MAX density matrix=1.00D-06.
 Requested convergence on             energy=1.00D-06.
 No special actions if energy rises.
 Fock matrices will be formed incrementally for  20 cycles.
 Integral accuracy reduced to 1.0D-05 until final iterations.

 Cycle   1  Pass 0  IDiag  1:
 FoFJK:  IHMeth= 1 ICntrl=       0 DoSepK=F KAlg= 0 I1Cent=           0 FoldK=F
 IRaf= 700000000 NMat=       1 IRICut=       1 DoRegI=T DoRafI=F ISym2E= 0 IDoP0=0 IntGTp=1.
 FoFCou: FMM=T IPFlag=           0 FMFlag=      100000 FMFlg1=        2001
         NFxFlg=           0 DoJE=F BraDBF=F KetDBF=F FulRan=T
         wScrn=  0.000000 ICntrl=         0 IOpCl=  0 I1Cent=           0 NGrid=           0
         NMat0=    1 NMatS0=      1 NMatT0=    0 NMatD0=    1 NMtDS0=    0 NMtDT0=    0
 Symmetry not used in FoFCou.
 FMM levels:  10  Number of levels for PrismC:   9
 E= -1875.49104573528    
 DIIS: error= 1.33D-02 at cycle   1 NSaved=   1.
 NSaved= 1 IEnMin= 1 EnMin= -1875.49104573528     IErMin= 1 ErrMin= 1.33D-02
 ErrMax= 1.33D-02  0.00D+00 EMaxC= 1.00D-01 BMatC= 1.34D+00 BMatP= 1.34D+00
 IDIUse=3 WtCom= 8.67D-01 WtEn= 1.33D-01
 Coeff-Com:  0.100D+01
 Coeff-En:   0.100D+01
 Coeff:      0.100D+01
 Gap=     0.158 Goal=   None    Shift=    0.000
 GapD=    0.158 DampG=1.000 DampE=0.500 DampFc=0.5000 IDamp=-1.
 Damping current iteration by 5.00D-01
 RMSDP=5.95D+01 MaxDP=1.18D+04              OVMax= 9.98D-01

 Problem detected with inexpensive integrals.
 Switching to full accuracy and repeating last cycle.
 Cycle   2  Pass 1  IDiag  1:
 E= -1875.49125537052     Delta-E=       -0.000209635237 Rises=F Damp=F
 DIIS: error= 1.33D-02 at cycle   1 NSaved=   1.
 NSaved= 1 IEnMin= 1 EnMin= -1875.49125537052     IErMin= 1 ErrMin= 1.33D-02
 ErrMax= 1.33D-02  0.00D+00 EMaxC= 1.00D-01 BMatC= 1.34D+00 BMatP= 1.34D+00
 IDIUse=3 WtCom= 8.67D-01 WtEn= 1.33D-01
 Coeff-Com:  0.100D+01
 Coeff-En:   0.100D+01
 Coeff:      0.100D+01
 Gap=     0.158 Goal=   None    Shift=    0.000
 GapD=    0.158 DampG=1.000 DampE=0.500 DampFc=0.5000 IDamp=-1.
 Damping current iteration by 5.00D-01
 RMSDP=3.81D-03 MaxDP=1.16D+00 DE=-2.10D-04 OVMax= 2.93D-01

 Cycle   3  Pass 1  IDiag  1:
 RMSU=  1.90D-03    CP:  1.03D+00
 E= -1875.90113862348     Delta-E=       -0.409883252965 Rises=F Damp=T
 DIIS: error= 4.92D-03 at cycle   2 NSaved=   2.
 NSaved= 2 IEnMin= 2 EnMin= -1875.90113862348     IErMin= 2 ErrMin= 4.92D-03
 ErrMax= 4.92D-03  0.00D+00 EMaxC= 1.00D-01 BMatC= 1.56D-01 BMatP= 1.34D+00
 IDIUse=3 WtCom= 9.51D-01 WtEn= 4.92D-02
 Coeff-Com:  0.313D-02 0.997D+00
 Coeff-En:   0.591D-01 0.941D+00
 Coeff:      0.588D-02 0.994D+00
 Gap=     0.245 Goal=   None    Shift=    0.000
 GapD=    0.245 DampG=1.000 DampE=1.000 DampFc=1.0000 IDamp=-1.
 RMSDP=1.32D-03 MaxDP=4.02D-01 DE=-4.10D-01 OVMax= 1.50D-01

 Cycle   4  Pass 1  IDiag  1:
 RMSU=  1.00D-03    CP:  1.00D+00  5.50D-01
 E= -1876.34002769918     Delta-E=       -0.438889075694 Rises=F Damp=F
 DIIS: error= 5.94D-03 at cycle   3 NSaved=   3.
 NSaved= 3 IEnMin= 3 EnMin= -1876.34002769918     IErMin= 2 ErrMin= 4.92D-03
 ErrMax= 5.94D-03  0.00D+00 EMaxC= 1.00D-01 BMatC= 1.16D-01 BMatP= 1.56D-01
 IDIUse=3 WtCom= 9.41D-01 WtEn= 5.94D-02
 Coeff-Com: -0.104D+00 0.505D+00 0.599D+00
 Coeff-En:   0.000D+00 0.000D+00 0.100D+01
 Coeff:     -0.977D-01 0.475D+00 0.623D+00
 Gap=     0.167 Goal=   None    Shift=    0.000
 RMSDP=4.23D-04 MaxDP=1.16D-01 DE=-4.39D-01 OVMax= 6.56D-02

 Cycle   5  Pass 1  IDiag  1:
 RMSU=  2.96D-04    CP:  1.01D+00  6.88D-01  8.53D-01
 E= -1876.41701059326     Delta-E=       -0.076982894085 Rises=F Damp=F
 DIIS: error= 1.63D-03 at cycle   4 NSaved=   4.
 NSaved= 4 IEnMin= 4 EnMin= -1876.41701059326     IErMin= 4 ErrMin= 1.63D-03
 ErrMax= 1.63D-03  0.00D+00 EMaxC= 1.00D-01 BMatC= 1.61D-02 BMatP= 1.16D-01
 IDIUse=3 WtCom= 9.84D-01 WtEn= 1.63D-02
 Coeff-Com: -0.454D-01 0.121D+00 0.323D+00 0.601D+00
 Coeff-En:   0.000D+00 0.000D+00 0.941D-01 0.906D+00
 Coeff:     -0.446D-01 0.120D+00 0.319D+00 0.606D+00
 Gap=     0.162 Goal=   None    Shift=    0.000
 RMSDP=1.61D-04 MaxDP=4.33D-02 DE=-7.70D-02 OVMax= 2.05D-02

 Cycle   6  Pass 1  IDiag  1:
 RMSU=  7.05D-05    CP:  1.01D+00  6.42D-01  9.26D-01  7.02D-01
 E= -1876.42911417802     Delta-E=       -0.012103584755 Rises=F Damp=F
 DIIS: error= 3.34D-04 at cycle   5 NSaved=   5.
 NSaved= 5 IEnMin= 5 EnMin= -1876.42911417802     IErMin= 5 ErrMin= 3.34D-04
 ErrMax= 3.34D-04  0.00D+00 EMaxC= 1.00D-01 BMatC= 6.63D-04 BMatP= 1.61D-02
 IDIUse=3 WtCom= 9.97D-01 WtEn= 3.34D-03
 Coeff-Com: -0.139D-01 0.263D-01 0.106D+00 0.269D+00 0.612D+00
 Coeff-En:   0.000D+00 0.000D+00 0.000D+00 0.000D+00 0.100D+01
 Coeff:     -0.139D-01 0.263D-01 0.106D+00 0.268D+00 0.614D+00
 Gap=     0.165 Goal=   None    Shift=    0.000
 RMSDP=3.01D-05 MaxDP=4.87D-03 DE=-1.21D-02 OVMax= 8.29D-03

 Cycle   7  Pass 1  IDiag  1:
 RMSU=  2.81D-05    CP:  1.01D+00  6.41D-01  9.27D-01  7.07D-01  8.53D-01
 E= -1876.42967863904     Delta-E=       -0.000564461027 Rises=F Damp=F
 DIIS: error= 1.27D-04 at cycle   6 NSaved=   6.
 NSaved= 6 IEnMin= 6 EnMin= -1876.42967863904     IErMin= 6 ErrMin= 1.27D-04
 ErrMax= 1.27D-04  0.00D+00 EMaxC= 1.00D-01 BMatC= 8.22D-05 BMatP= 6.63D-04
 IDIUse=3 WtCom= 9.99D-01 WtEn= 1.27D-03
 Coeff-Com: -0.173D-02 0.156D-03 0.152D-01 0.564D-01 0.292D+00 0.638D+00
 Coeff-En:   0.000D+00 0.000D+00 0.000D+00 0.000D+00 0.000D+00 0.100D+01
 Coeff:     -0.173D-02 0.156D-03 0.152D-01 0.564D-01 0.292D+00 0.638D+00
 Gap=     0.164 Goal=   None    Shift=    0.000
 RMSDP=1.72D-05 MaxDP=4.90D-03 DE=-5.64D-04 OVMax= 2.64D-03

 Cycle   8  Pass 1  IDiag  1:
 RMSU=  1.09D-05    CP:  1.01D+00  6.37D-01  9.33D-01  7.13D-01  9.78D-01
                    CP:  9.00D-01
 E= -1876.42975984736     Delta-E=       -0.000081208317 Rises=F Damp=F
 DIIS: error= 4.72D-05 at cycle   7 NSaved=   7.
 NSaved= 7 IEnMin= 7 EnMin= -1876.42975984736     IErMin= 7 ErrMin= 4.72D-05
 ErrMax= 4.72D-05  0.00D+00 EMaxC= 1.00D-01 BMatC= 9.91D-06 BMatP= 8.22D-05
 IDIUse=1 WtCom= 1.00D+00 WtEn= 0.00D+00
 Coeff-Com:  0.143D-02-0.407D-02-0.913D-02-0.188D-01 0.436D-01 0.255D+00
 Coeff-Com:  0.732D+00
 Coeff:      0.143D-02-0.407D-02-0.913D-02-0.188D-01 0.436D-01 0.255D+00
 Coeff:      0.732D+00
 Gap=     0.164 Goal=   None    Shift=    0.000
 RMSDP=9.73D-06 MaxDP=1.96D-03 DE=-8.12D-05 OVMax= 2.29D-03

 Cycle   9  Pass 1  IDiag  1:
 RMSU=  4.68D-06    CP:  1.01D+00  6.33D-01  9.36D-01  7.12D-01  1.02D+00
                    CP:  1.03D+00  1.12D+00
 E= -1876.42977272240     Delta-E=       -0.000012875043 Rises=F Damp=F
 DIIS: error= 2.94D-05 at cycle   8 NSaved=   8.
 NSaved= 8 IEnMin= 8 EnMin= -1876.42977272240     IErMin= 8 ErrMin= 2.94D-05
 ErrMax= 2.94D-05  0.00D+00 EMaxC= 1.00D-01 BMatC= 3.15D-06 BMatP= 9.91D-06
 IDIUse=1 WtCom= 1.00D+00 WtEn= 0.00D+00
 Coeff-Com:  0.119D-02-0.234D-02-0.756D-02-0.224D-01-0.338D-01-0.132D-01
 Coeff-Com:  0.393D+00 0.685D+00
 Coeff:      0.119D-02-0.234D-02-0.756D-02-0.224D-01-0.338D-01-0.132D-01
 Coeff:      0.393D+00 0.685D+00
 Gap=     0.165 Goal=   None    Shift=    0.000
 RMSDP=4.72D-06 MaxDP=1.33D-03 DE=-1.29D-05 OVMax= 1.14D-03

 Cycle  10  Pass 1  IDiag  1:
 RMSU=  2.37D-06    CP:  1.01D+00  6.32D-01  9.37D-01  7.10D-01  1.04D+00
                    CP:  1.08D+00  1.30D+00  9.05D-01
 E= -1876.42977672051     Delta-E=       -0.000003998108 Rises=F Damp=F
 DIIS: error= 8.93D-06 at cycle   9 NSaved=   9.
 NSaved= 9 IEnMin= 9 EnMin= -1876.42977672051     IErMin= 9 ErrMin= 8.93D-06
 ErrMax= 8.93D-06  0.00D+00 EMaxC= 1.00D-01 BMatC= 3.69D-07 BMatP= 3.15D-06
 IDIUse=1 WtCom= 1.00D+00 WtEn= 0.00D+00
 Coeff-Com:  0.378D-03-0.599D-03-0.209D-02-0.791D-02-0.191D-01-0.422D-01
 Coeff-Com:  0.924D-01 0.302D+00 0.677D+00
 Coeff:      0.378D-03-0.599D-03-0.209D-02-0.791D-02-0.191D-01-0.422D-01
 Coeff:      0.924D-01 0.302D+00 0.677D+00
 Gap=     0.165 Goal=   None    Shift=    0.000
 RMSDP=1.38D-06 MaxDP=2.51D-04 DE=-4.00D-06 OVMax= 4.10D-04

 Cycle  11  Pass 1  IDiag  1:
 RMSU=  8.32D-07    CP:  1.01D+00  6.32D-01  9.38D-01  7.09D-01  1.05D+00
                    CP:  1.09D+00  1.35D+00  1.04D+00  1.06D+00
 E= -1876.42977721112     Delta-E=       -0.000000490608 Rises=F Damp=F
 DIIS: error= 3.83D-06 at cycle  10 NSaved=  10.
 NSaved=10 IEnMin=10 EnMin= -1876.42977721112     IErMin=10 ErrMin= 3.83D-06
 ErrMax= 3.83D-06  0.00D+00 EMaxC= 1.00D-01 BMatC= 6.71D-08 BMatP= 3.69D-07
 IDIUse=1 WtCom= 1.00D+00 WtEn= 0.00D+00
 Coeff-Com: -0.100D-03 0.261D-03 0.867D-03 0.152D-02-0.200D-03-0.187D-01
 Coeff-Com: -0.422D-01-0.249D-01 0.306D+00 0.777D+00
 Coeff:     -0.100D-03 0.261D-03 0.867D-03 0.152D-02-0.200D-03-0.187D-01
 Coeff:     -0.422D-01-0.249D-01 0.306D+00 0.777D+00
 Gap=     0.165 Goal=   None    Shift=    0.000
 RMSDP=8.24D-07 MaxDP=1.59D-04 DE=-4.91D-07 OVMax= 2.69D-04

 Cycle  12  Pass 1  IDiag  1:
 RMSU=  3.60D-07    CP:  1.01D+00  6.32D-01  9.38D-01  7.09D-01  1.05D+00
                    CP:  1.09D+00  1.39D+00  1.07D+00  1.26D+00  1.00D+00
 E= -1876.42977732611     Delta-E=       -0.000000114990 Rises=F Damp=F
 DIIS: error= 1.97D-06 at cycle  11 NSaved=  11.
 NSaved=11 IEnMin=11 EnMin= -1876.42977732611     IErMin=11 ErrMin= 1.97D-06
 ErrMax= 1.97D-06  0.00D+00 EMaxC= 1.00D-01 BMatC= 1.34D-08 BMatP= 6.71D-08
 IDIUse=1 WtCom= 1.00D+00 WtEn= 0.00D+00
 Coeff-Com: -0.789D-04 0.168D-03 0.588D-03 0.148D-02 0.192D-02-0.510D-02
 Coeff-Com: -0.275D-01-0.495D-01 0.493D-01 0.384D+00 0.645D+00
 Coeff:     -0.789D-04 0.168D-03 0.588D-03 0.148D-02 0.192D-02-0.510D-02
 Coeff:     -0.275D-01-0.495D-01 0.493D-01 0.384D+00 0.645D+00
 Gap=     0.165 Goal=   None    Shift=    0.000
 RMSDP=2.58D-07 MaxDP=4.35D-05 DE=-1.15D-07 OVMax= 8.45D-05

 Cycle  13  Pass 1  IDiag  1:
 RMSU=  1.07D-07    CP:  1.01D+00  6.32D-01  9.38D-01  7.09D-01  1.05D+00
                    CP:  1.09D+00  1.40D+00  1.08D+00  1.31D+00  1.20D+00
                    CP:  9.71D-01
 E= -1876.42977734444     Delta-E=       -0.000000018327 Rises=F Damp=F
 DIIS: error= 7.82D-07 at cycle  12 NSaved=  12.
 NSaved=12 IEnMin=12 EnMin= -1876.42977734444     IErMin=12 ErrMin= 7.82D-07
 ErrMax= 7.82D-07  0.00D+00 EMaxC= 1.00D-01 BMatC= 1.80D-09 BMatP= 1.34D-08
 IDIUse=1 WtCom= 1.00D+00 WtEn= 0.00D+00
 Coeff-Com: -0.189D-04 0.335D-04 0.128D-03 0.437D-03 0.102D-02 0.606D-03
 Coeff-Com: -0.372D-02-0.201D-01-0.368D-01 0.495D-01 0.296D+00 0.713D+00
 Coeff:     -0.189D-04 0.335D-04 0.128D-03 0.437D-03 0.102D-02 0.606D-03
 Coeff:     -0.372D-02-0.201D-01-0.368D-01 0.495D-01 0.296D+00 0.713D+00
 Gap=     0.165 Goal=   None    Shift=    0.000
 RMSDP=1.08D-07 MaxDP=1.65D-05 DE=-1.83D-08 OVMax= 3.02D-05

 Cycle  14  Pass 1  IDiag  1:
 RMSU=  5.02D-08    CP:  1.01D+00  6.32D-01  9.38D-01  7.09D-01  1.05D+00
                    CP:  1.09D+00  1.40D+00  1.09D+00  1.33D+00  1.24D+00
                    CP:  1.09D+00  1.13D+00
 E= -1876.42977734716     Delta-E=       -0.000000002719 Rises=F Damp=F
 DIIS: error= 2.24D-07 at cycle  13 NSaved=  13.
 NSaved=13 IEnMin=13 EnMin= -1876.42977734716     IErMin=13 ErrMin= 2.24D-07
 ErrMax= 2.24D-07  0.00D+00 EMaxC= 1.00D-01 BMatC= 2.64D-10 BMatP= 1.80D-09
 IDIUse=1 WtCom= 1.00D+00 WtEn= 0.00D+00
 Coeff-Com:  0.402D-05-0.113D-04-0.325D-04-0.285D-04 0.173D-03 0.888D-03
 Coeff-Com:  0.301D-02-0.220D-02-0.257D-01-0.327D-01 0.378D-01 0.307D+00
 Coeff-Com:  0.712D+00
 Coeff:      0.402D-05-0.113D-04-0.325D-04-0.285D-04 0.173D-03 0.888D-03
 Coeff:      0.301D-02-0.220D-02-0.257D-01-0.327D-01 0.378D-01 0.307D+00
 Coeff:      0.712D+00
 Gap=     0.165 Goal=   None    Shift=    0.000
 RMSDP=4.73D-08 MaxDP=1.31D-05 DE=-2.72D-09 OVMax= 1.69D-05

 Cycle  15  Pass 1  IDiag  1:
 RMSU=  2.42D-08    CP:  1.01D+00  6.32D-01  9.38D-01  7.09D-01  1.05D+00
                    CP:  1.09D+00  1.40D+00  1.09D+00  1.34D+00  1.26D+00
                    CP:  1.13D+00  1.30D+00  1.09D+00
 E= -1876.42977734753     Delta-E=       -0.000000000371 Rises=F Damp=F
 DIIS: error= 1.28D-07 at cycle  14 NSaved=  14.
 NSaved=14 IEnMin=14 EnMin= -1876.42977734753     IErMin=14 ErrMin= 1.28D-07
 ErrMax= 1.28D-07  0.00D+00 EMaxC= 1.00D-01 BMatC= 7.17D-11 BMatP= 2.64D-10
 IDIUse=1 WtCom= 1.00D+00 WtEn= 0.00D+00
 Coeff-Com:  0.587D-05-0.124D-04-0.431D-04-0.103D-03-0.126D-03 0.240D-03
 Coeff-Com:  0.248D-02 0.287D-02-0.511D-02-0.253D-01-0.440D-01-0.649D-02
 Coeff-Com:  0.380D+00 0.695D+00
 Coeff:      0.587D-05-0.124D-04-0.431D-04-0.103D-03-0.126D-03 0.240D-03
 Coeff:      0.248D-02 0.287D-02-0.511D-02-0.253D-01-0.440D-01-0.649D-02
 Coeff:      0.380D+00 0.695D+00
 Gap=     0.165 Goal=   None    Shift=    0.000
 RMSDP=2.17D-08 MaxDP=4.63D-06 DE=-3.71D-10 OVMax= 6.31D-06

 Cycle  16  Pass 1  IDiag  1:
 RMSU=  8.15D-09    CP:  1.01D+00  6.32D-01  9.38D-01  7.09D-01  1.05D+00
                    CP:  1.09D+00  1.40D+00  1.09D+00  1.34D+00  1.27D+00
                    CP:  1.15D+00  1.36D+00  1.30D+00  9.81D-01
 E= -1876.42977734770     Delta-E=       -0.000000000172 Rises=F Damp=F
 DIIS: error= 3.61D-08 at cycle  15 NSaved=  15.
 NSaved=15 IEnMin=15 EnMin= -1876.42977734770     IErMin=15 ErrMin= 3.61D-08
 ErrMax= 3.61D-08  0.00D+00 EMaxC= 1.00D-01 BMatC= 7.22D-12 BMatP= 7.17D-11
 IDIUse=1 WtCom= 1.00D+00 WtEn= 0.00D+00
 Coeff-Com:  0.171D-05-0.332D-05-0.142D-04-0.373D-04-0.761D-04-0.467D-04
 Coeff-Com:  0.687D-03 0.132D-02 0.135D-02-0.554D-02-0.228D-01-0.452D-01
 Coeff-Com:  0.705D-01 0.281D+00 0.719D+00
 Coeff:      0.171D-05-0.332D-05-0.142D-04-0.373D-04-0.761D-04-0.467D-04
 Coeff:      0.687D-03 0.132D-02 0.135D-02-0.554D-02-0.228D-01-0.452D-01
 Coeff:      0.705D-01 0.281D+00 0.719D+00
 Gap=     0.165 Goal=   None    Shift=    0.000
 RMSDP=6.58D-09 MaxDP=1.36D-06 DE=-1.72D-10 OVMax= 2.58D-06

 Cycle  17  Pass 1  IDiag  1:
 RMSU=  3.17D-09    CP:  1.01D+00  6.32D-01  9.38D-01  7.09D-01  1.05D+00
                    CP:  1.09D+00  1.40D+00  1.09D+00  1.34D+00  1.27D+00
                    CP:  1.15D+00  1.39D+00  1.34D+00  1.10D+00  9.62D-01
 E= -1876.42977734772     Delta-E=       -0.000000000024 Rises=F Damp=F
 DIIS: error= 2.36D-08 at cycle  16 NSaved=  16.
 NSaved=16 IEnMin=16 EnMin= -1876.42977734772     IErMin=16 ErrMin= 2.36D-08
 ErrMax= 2.36D-08  0.00D+00 EMaxC= 1.00D-01 BMatC= 1.70D-12 BMatP= 7.22D-12
 IDIUse=1 WtCom= 1.00D+00 WtEn= 0.00D+00
 Coeff-Com: -0.391D-06 0.933D-06 0.857D-06 0.246D-05-0.123D-04-0.685D-04
 Coeff-Com: -0.121D-03 0.386D-04 0.164D-02 0.231D-02-0.223D-02-0.213D-01
 Coeff-Com: -0.430D-01-0.171D-01 0.337D+00 0.743D+00
 Coeff:     -0.391D-06 0.933D-06 0.857D-06 0.246D-05-0.123D-04-0.685D-04
 Coeff:     -0.121D-03 0.386D-04 0.164D-02 0.231D-02-0.223D-02-0.213D-01
 Coeff:     -0.430D-01-0.171D-01 0.337D+00 0.743D+00
 Gap=     0.165 Goal=   None    Shift=    0.000
 RMSDP=3.88D-09 MaxDP=1.17D-06 DE=-2.36D-11 OVMax= 9.38D-07

 Cycle  18  Pass 1  IDiag  1:
 RMSU=  1.58D-09    CP:  1.01D+00  6.32D-01  9.38D-01  7.09D-01  1.05D+00
                    CP:  1.09D+00  1.40D+00  1.09D+00  1.35D+00  1.27D+00
                    CP:  1.16D+00  1.40D+00  1.38D+00  1.12D+00  1.13D+00
                    CP:  1.09D+00
 E= -1876.42977734765     Delta-E=        0.000000000075 Rises=F Damp=F
 DIIS: error= 6.60D-09 at cycle  17 NSaved=  17.
 NSaved=17 IEnMin=16 EnMin= -1876.42977734772     IErMin=17 ErrMin= 6.60D-09
 ErrMax= 6.60D-09  0.00D+00 EMaxC= 1.00D-01 BMatC= 1.52D-13 BMatP= 1.70D-12
 IDIUse=1 WtCom= 1.00D+00 WtEn= 0.00D+00
 Coeff-Com: -0.359D-06 0.774D-06 0.166D-05 0.493D-05 0.208D-05-0.257D-04
 Coeff-Com: -0.114D-03-0.125D-03 0.562D-03 0.155D-02 0.142D-02-0.408D-02
 Coeff-Com: -0.232D-01-0.360D-01 0.707D-01 0.291D+00 0.698D+00
 Coeff:     -0.359D-06 0.774D-06 0.166D-05 0.493D-05 0.208D-05-0.257D-04
 Coeff:     -0.114D-03-0.125D-03 0.562D-03 0.155D-02 0.142D-02-0.408D-02
 Coeff:     -0.232D-01-0.360D-01 0.707D-01 0.291D+00 0.698D+00
 Gap=     0.165 Goal=   None    Shift=    0.000
 RMSDP=7.64D-10 MaxDP=1.63D-07 DE= 7.46D-11 OVMax= 3.09D-07

 SCF Done:  E(RM062X) =  -1876.42977735     A.U. after   18 cycles
            NFock= 18  Conv=0.76D-09     -V/T= 2.0049
 KE= 1.867342288781D+03 PE=-1.322904212069D+04 EE= 5.046201912421D+03
 Leave Link  502 at Sat Jun 22 17:41:54 2024, MaxMem=  2684354560 cpu:           22227.1 elap:            1392.4
 (Enter /storage/apps/GAUSSIAN/G16_RevA03/g16/l601.exe)
 Copying SCF densities to generalized density rwf, IOpCl= 0 IROHF=0.

 **********************************************************************

            Population analysis using the SCF density.

 **********************************************************************

 Alpha  occ. eigenvalues --  -19.74545 -19.74489 -19.72773 -19.69180 -19.67923
 Alpha  occ. eigenvalues --  -19.63587 -14.93445 -14.92627 -14.91247 -14.89211
 Alpha  occ. eigenvalues --  -14.88855 -14.87437 -14.86868 -14.84899 -14.83292
 Alpha  occ. eigenvalues --  -10.78871 -10.75590 -10.75156 -10.75107 -10.74623
 Alpha  occ. eigenvalues --  -10.74369 -10.71858 -10.70782 -10.70732 -10.70587
 Alpha  occ. eigenvalues --  -10.70525 -10.70430 -10.70045 -10.69237 -10.68710
 Alpha  occ. eigenvalues --  -10.68146 -10.68010 -10.67452 -10.66353 -10.62299
 Alpha  occ. eigenvalues --  -10.62025 -10.61931 -10.61270 -10.61160  -1.28652
 Alpha  occ. eigenvalues --   -1.25685  -1.25426  -1.24328  -1.23548  -1.21528
 Alpha  occ. eigenvalues --   -1.21018  -1.20351  -1.17704  -1.16522  -1.14654
 Alpha  occ. eigenvalues --   -1.11605  -1.10594  -1.09373  -1.05733  -1.05359
 Alpha  occ. eigenvalues --   -1.03936  -1.01353  -1.00958  -0.98417  -0.95839
 Alpha  occ. eigenvalues --   -0.95047  -0.93965  -0.93595  -0.90407  -0.89051
 Alpha  occ. eigenvalues --   -0.87326  -0.86447  -0.85021  -0.83521  -0.81800
 Alpha  occ. eigenvalues --   -0.80834  -0.80598  -0.78743  -0.77745  -0.77320
 Alpha  occ. eigenvalues --   -0.76476  -0.74216  -0.73588  -0.73157  -0.72751
 Alpha  occ. eigenvalues --   -0.72282  -0.71636  -0.71189  -0.70570  -0.70032
 Alpha  occ. eigenvalues --   -0.69709  -0.69217  -0.68929  -0.68200  -0.67173
 Alpha  occ. eigenvalues --   -0.66833  -0.66084  -0.65585  -0.64969  -0.64761
 Alpha  occ. eigenvalues --   -0.64617  -0.64422  -0.63579  -0.63017  -0.62738
 Alpha  occ. eigenvalues --   -0.61844  -0.60702  -0.60667  -0.59937  -0.59733
 Alpha  occ. eigenvalues --   -0.59368  -0.58852  -0.58556  -0.58503  -0.57726
 Alpha  occ. eigenvalues --   -0.57364  -0.56161  -0.56028  -0.55947  -0.55594
 Alpha  occ. eigenvalues --   -0.55145  -0.55110  -0.54646  -0.54518  -0.54042
 Alpha  occ. eigenvalues --   -0.52506  -0.51405  -0.51051  -0.50820  -0.48270
 Alpha  occ. eigenvalues --   -0.47820  -0.46533  -0.46352  -0.45934  -0.45850
 Alpha  occ. eigenvalues --   -0.44997  -0.44578  -0.43911  -0.43394  -0.43110
 Alpha  occ. eigenvalues --   -0.41927  -0.39951  -0.39178  -0.38226  -0.38141
 Alpha  occ. eigenvalues --   -0.34596  -0.33599
 Alpha virt. eigenvalues --   -0.17140  -0.12555  -0.08107  -0.07968  -0.06127
 Alpha virt. eigenvalues --   -0.05616  -0.05563  -0.05123  -0.04997  -0.04375
 Alpha virt. eigenvalues --   -0.04208  -0.03561  -0.03189  -0.02001  -0.01265
 Alpha virt. eigenvalues --   -0.00641  -0.00496  -0.00243   0.00089   0.00512
 Alpha virt. eigenvalues --    0.01003   0.01402   0.01887   0.02269   0.02468
 Alpha virt. eigenvalues --    0.02555   0.03179   0.03386   0.03509   0.03825
 Alpha virt. eigenvalues --    0.04137   0.04404   0.04765   0.04914   0.05328
 Alpha virt. eigenvalues --    0.05693   0.06270   0.06427   0.07108   0.07305
 Alpha virt. eigenvalues --    0.08143   0.08206   0.08490   0.08826   0.09136
 Alpha virt. eigenvalues --    0.09585   0.09720   0.10214   0.10471   0.11107
 Alpha virt. eigenvalues --    0.11247   0.11449   0.11807   0.12130   0.12336
 Alpha virt. eigenvalues --    0.12418   0.12797   0.13087   0.13302   0.13660
 Alpha virt. eigenvalues --    0.14107   0.14598   0.14697   0.15048   0.15635
 Alpha virt. eigenvalues --    0.15865   0.16178   0.16336   0.16722   0.17075
 Alpha virt. eigenvalues --    0.17198   0.17477   0.17997   0.18280   0.18765
 Alpha virt. eigenvalues --    0.18883   0.19132   0.19649   0.19937   0.20226
 Alpha virt. eigenvalues --    0.20358   0.20606   0.20794   0.21382   0.21468
 Alpha virt. eigenvalues --    0.21929   0.22227   0.22640   0.22720   0.23072
 Alpha virt. eigenvalues --    0.23181   0.23819   0.24114   0.24307   0.24551
 Alpha virt. eigenvalues --    0.24860   0.25029   0.25508   0.26267   0.26349
 Alpha virt. eigenvalues --    0.26617   0.26739   0.26979   0.27344   0.27644
 Alpha virt. eigenvalues --    0.27698   0.27915   0.28140   0.28446   0.28570
 Alpha virt. eigenvalues --    0.28794   0.29375   0.29573   0.29724   0.29869
 Alpha virt. eigenvalues --    0.30173   0.30657   0.30987   0.31234   0.31294
 Alpha virt. eigenvalues --    0.31871   0.32110   0.32133   0.32693   0.32920
 Alpha virt. eigenvalues --    0.32992   0.33328   0.33697   0.33878   0.34114
 Alpha virt. eigenvalues --    0.34325   0.34569   0.34909   0.35086   0.35238
 Alpha virt. eigenvalues --    0.35507   0.35810   0.36015   0.36283   0.36399
 Alpha virt. eigenvalues --    0.36507   0.36762   0.36973   0.37240   0.37633
 Alpha virt. eigenvalues --    0.37900   0.38278   0.38554   0.38681   0.38829
 Alpha virt. eigenvalues --    0.38855   0.39579   0.39655   0.39921   0.40187
 Alpha virt. eigenvalues --    0.40294   0.40710   0.40869   0.40911   0.41276
 Alpha virt. eigenvalues --    0.41434   0.41696   0.42204   0.42635   0.43029
 Alpha virt. eigenvalues --    0.43201   0.43256   0.43360   0.43777   0.43915
 Alpha virt. eigenvalues --    0.44358   0.44451   0.44645   0.45241   0.45603
 Alpha virt. eigenvalues --    0.46022   0.46349   0.46574   0.46771   0.46946
 Alpha virt. eigenvalues --    0.47099   0.47755   0.47883   0.48563   0.48690
 Alpha virt. eigenvalues --    0.48993   0.49135   0.49521   0.49965   0.50078
 Alpha virt. eigenvalues --    0.50374   0.50705   0.51410   0.51613   0.51954
 Alpha virt. eigenvalues --    0.52207   0.52500   0.53023   0.53521   0.53697
 Alpha virt. eigenvalues --    0.53882   0.54107   0.54469   0.54788   0.55147
 Alpha virt. eigenvalues --    0.55397   0.55899   0.55979   0.56316   0.56448
 Alpha virt. eigenvalues --    0.57105   0.57187   0.57568   0.57721   0.58218
 Alpha virt. eigenvalues --    0.58807   0.59067   0.59167   0.59912   0.60199
 Alpha virt. eigenvalues --    0.60386   0.60663   0.60916   0.61120   0.61169
 Alpha virt. eigenvalues --    0.61704   0.61892   0.62296   0.62584   0.62769
 Alpha virt. eigenvalues --    0.63311   0.63606   0.63867   0.64430   0.64557
 Alpha virt. eigenvalues --    0.64996   0.65842   0.66146   0.66602   0.66929
 Alpha virt. eigenvalues --    0.67467   0.67543   0.68323   0.68785   0.69042
 Alpha virt. eigenvalues --    0.69430   0.69870   0.70169   0.70579   0.71036
 Alpha virt. eigenvalues --    0.71725   0.71835   0.72308   0.72628   0.72890
 Alpha virt. eigenvalues --    0.73189   0.73797   0.74093   0.74461   0.74682
 Alpha virt. eigenvalues --    0.75298   0.75722   0.76082   0.76737   0.77009
 Alpha virt. eigenvalues --    0.77105   0.77555   0.78283   0.78581   0.78988
 Alpha virt. eigenvalues --    0.79229   0.79333   0.79688   0.80308   0.80461
 Alpha virt. eigenvalues --    0.80730   0.81448   0.82143   0.82457   0.82844
 Alpha virt. eigenvalues --    0.83087   0.83810   0.84658   0.85071   0.85364
 Alpha virt. eigenvalues --    0.85485   0.86036   0.86542   0.86595   0.87842
 Alpha virt. eigenvalues --    0.88007   0.88778   0.89243   0.89726   0.90285
 Alpha virt. eigenvalues --    0.90513   0.91388   0.91551   0.92015   0.92295
 Alpha virt. eigenvalues --    0.93094   0.93393   0.93783   0.94150   0.94597
 Alpha virt. eigenvalues --    0.95147   0.96246   0.96342   0.96987   0.97495
 Alpha virt. eigenvalues --    0.98208   0.98431   0.99176   0.99411   0.99771
 Alpha virt. eigenvalues --    1.00401   1.00965   1.01382   1.01941   1.02162
 Alpha virt. eigenvalues --    1.02342   1.03016   1.03779   1.03971   1.04744
 Alpha virt. eigenvalues --    1.04877   1.05411   1.05918   1.06551   1.06826
 Alpha virt. eigenvalues --    1.07284   1.08331   1.08739   1.08935   1.09602
 Alpha virt. eigenvalues --    1.09978   1.10507   1.11354   1.11936   1.12283
 Alpha virt. eigenvalues --    1.13056   1.13454   1.14150   1.14559   1.14591
 Alpha virt. eigenvalues --    1.15012   1.15597   1.16094   1.17281   1.17563
 Alpha virt. eigenvalues --    1.18563   1.18786   1.19182   1.19764   1.20227
 Alpha virt. eigenvalues --    1.20547   1.21173   1.21471   1.22160   1.22459
 Alpha virt. eigenvalues --    1.22813   1.23078   1.23156   1.24040   1.24446
 Alpha virt. eigenvalues --    1.24847   1.25181   1.25444   1.26400   1.26893
 Alpha virt. eigenvalues --    1.27091   1.27508   1.27859   1.28376   1.29312
 Alpha virt. eigenvalues --    1.29808   1.30338   1.30817   1.31452   1.32296
 Alpha virt. eigenvalues --    1.32528   1.32958   1.33366   1.33730   1.34315
 Alpha virt. eigenvalues --    1.34817   1.35124   1.35820   1.36602   1.36741
 Alpha virt. eigenvalues --    1.37134   1.37449   1.38088   1.38667   1.39344
 Alpha virt. eigenvalues --    1.39775   1.40214   1.40818   1.41057   1.41563
 Alpha virt. eigenvalues --    1.42164   1.42420   1.42968   1.43121   1.43273
 Alpha virt. eigenvalues --    1.44072   1.44553   1.44752   1.45315   1.45531
 Alpha virt. eigenvalues --    1.45835   1.46540   1.46883   1.47049   1.47956
 Alpha virt. eigenvalues --    1.48283   1.48645   1.49688   1.49861   1.50191
 Alpha virt. eigenvalues --    1.50384   1.50653   1.51154   1.51535   1.51846
 Alpha virt. eigenvalues --    1.52312   1.52950   1.53063   1.53331   1.53796
 Alpha virt. eigenvalues --    1.53867   1.54162   1.54598   1.54941   1.55115
 Alpha virt. eigenvalues --    1.55932   1.56104   1.56301   1.56992   1.57281
 Alpha virt. eigenvalues --    1.57336   1.57886   1.58036   1.58774   1.59243
 Alpha virt. eigenvalues --    1.59891   1.60108   1.60300   1.60440   1.60943
 Alpha virt. eigenvalues --    1.61203   1.61843   1.62064   1.62377   1.62411
 Alpha virt. eigenvalues --    1.62963   1.63661   1.63922   1.64412   1.64762
 Alpha virt. eigenvalues --    1.64948   1.65251   1.66024   1.66367   1.66840
 Alpha virt. eigenvalues --    1.67547   1.67613   1.68724   1.68814   1.69282
 Alpha virt. eigenvalues --    1.69732   1.69954   1.70565   1.71309   1.71684
 Alpha virt. eigenvalues --    1.72271   1.72841   1.73267   1.73799   1.74120
 Alpha virt. eigenvalues --    1.74403   1.75005   1.75202   1.75320   1.76274
 Alpha virt. eigenvalues --    1.76601   1.77377   1.77865   1.78524   1.78977
 Alpha virt. eigenvalues --    1.79677   1.80283   1.80367   1.80808   1.81747
 Alpha virt. eigenvalues --    1.82049   1.82156   1.82593   1.82651   1.83290
 Alpha virt. eigenvalues --    1.83700   1.84367   1.84607   1.85120   1.85412
 Alpha virt. eigenvalues --    1.85979   1.86132   1.86459   1.86844   1.87534
 Alpha virt. eigenvalues --    1.88233   1.88278   1.88622   1.89149   1.89807
 Alpha virt. eigenvalues --    1.90409   1.90798   1.91195   1.92220   1.92869
 Alpha virt. eigenvalues --    1.93198   1.93467   1.94453   1.94615   1.94880
 Alpha virt. eigenvalues --    1.95314   1.95804   1.96288   1.97058   1.97850
 Alpha virt. eigenvalues --    1.98819   1.99549   2.00042   2.00644   2.01032
 Alpha virt. eigenvalues --    2.01173   2.01513   2.02128   2.02252   2.02433
 Alpha virt. eigenvalues --    2.03245   2.04010   2.04219   2.04558   2.05317
 Alpha virt. eigenvalues --    2.05552   2.05716   2.06682   2.07707   2.07885
 Alpha virt. eigenvalues --    2.08083   2.08973   2.09128   2.10306   2.10640
 Alpha virt. eigenvalues --    2.11046   2.11869   2.12277   2.12516   2.12949
 Alpha virt. eigenvalues --    2.13328   2.13839   2.14891   2.14952   2.15324
 Alpha virt. eigenvalues --    2.16035   2.16471   2.17234   2.17631   2.17981
 Alpha virt. eigenvalues --    2.18081   2.18250   2.19013   2.19483   2.19972
 Alpha virt. eigenvalues --    2.20006   2.20703   2.21178   2.22044   2.22672
 Alpha virt. eigenvalues --    2.23156   2.23583   2.23930   2.24353   2.24462
 Alpha virt. eigenvalues --    2.24896   2.25356   2.26053   2.27077   2.28149
 Alpha virt. eigenvalues --    2.28833   2.29219   2.29436   2.29853   2.30568
 Alpha virt. eigenvalues --    2.31229   2.31687   2.32399   2.32793   2.33387
 Alpha virt. eigenvalues --    2.33970   2.34456   2.35038   2.35605   2.36121
 Alpha virt. eigenvalues --    2.36384   2.36859   2.36989   2.37455   2.38713
 Alpha virt. eigenvalues --    2.39350   2.39748   2.40382   2.41310   2.42075
 Alpha virt. eigenvalues --    2.42266   2.42970   2.43458   2.43636   2.44172
 Alpha virt. eigenvalues --    2.45034   2.45343   2.45782   2.46373   2.46943
 Alpha virt. eigenvalues --    2.47746   2.48555   2.48855   2.49633   2.50114
 Alpha virt. eigenvalues --    2.50609   2.51104   2.51330   2.52490   2.52944
 Alpha virt. eigenvalues --    2.53328   2.54359   2.54723   2.55105   2.55515
 Alpha virt. eigenvalues --    2.55808   2.56029   2.57042   2.57463   2.58094
 Alpha virt. eigenvalues --    2.58245   2.58506   2.58762   2.59508   2.59667
 Alpha virt. eigenvalues --    2.59933   2.60193   2.61380   2.61481   2.62022
 Alpha virt. eigenvalues --    2.62307   2.63250   2.63605   2.63894   2.64241
 Alpha virt. eigenvalues --    2.64594   2.65188   2.65832   2.66123   2.66839
 Alpha virt. eigenvalues --    2.66909   2.67021   2.67357   2.67800   2.68484
 Alpha virt. eigenvalues --    2.68623   2.68824   2.69872   2.70160   2.70370
 Alpha virt. eigenvalues --    2.71338   2.71596   2.71860   2.72500   2.72569
 Alpha virt. eigenvalues --    2.73055   2.73774   2.74088   2.74345   2.74727
 Alpha virt. eigenvalues --    2.75705   2.75786   2.76227   2.76607   2.76886
 Alpha virt. eigenvalues --    2.77707   2.77862   2.78117   2.78686   2.79035
 Alpha virt. eigenvalues --    2.79693   2.80131   2.80240   2.81443   2.81686
 Alpha virt. eigenvalues --    2.81995   2.82766   2.83126   2.83372   2.83791
 Alpha virt. eigenvalues --    2.84169   2.84607   2.84772   2.85054   2.85902
 Alpha virt. eigenvalues --    2.86165   2.86332   2.86720   2.86794   2.87107
 Alpha virt. eigenvalues --    2.87791   2.88050   2.88675   2.88913   2.89377
 Alpha virt. eigenvalues --    2.89710   2.90495   2.90734   2.91355   2.91389
 Alpha virt. eigenvalues --    2.91965   2.92735   2.92802   2.92969   2.93254
 Alpha virt. eigenvalues --    2.93823   2.94434   2.94678   2.94769   2.95135
 Alpha virt. eigenvalues --    2.95678   2.96457   2.96726   2.96823   2.97407
 Alpha virt. eigenvalues --    2.97726   2.98104   2.98334   2.98520   2.98869
 Alpha virt. eigenvalues --    2.99540   3.00096   3.00651   3.01130   3.01674
 Alpha virt. eigenvalues --    3.01915   3.02531   3.02680   3.03090   3.03332
 Alpha virt. eigenvalues --    3.03863   3.04303   3.04501   3.04788   3.05251
 Alpha virt. eigenvalues --    3.05801   3.06343   3.06480   3.07306   3.07752
 Alpha virt. eigenvalues --    3.07917   3.08268   3.09077   3.09413   3.09610
 Alpha virt. eigenvalues --    3.10225   3.10559   3.10722   3.10914   3.11692
 Alpha virt. eigenvalues --    3.12127   3.12280   3.12790   3.12986   3.13368
 Alpha virt. eigenvalues --    3.13756   3.14079   3.14200   3.14622   3.14873
 Alpha virt. eigenvalues --    3.15161   3.15496   3.15784   3.15936   3.16424
 Alpha virt. eigenvalues --    3.16678   3.17139   3.17520   3.18205   3.18332
 Alpha virt. eigenvalues --    3.18398   3.18935   3.19102   3.19326   3.20024
 Alpha virt. eigenvalues --    3.20460   3.20849   3.21649   3.22212   3.22563
 Alpha virt. eigenvalues --    3.22791   3.23521   3.24055   3.24136   3.24840
 Alpha virt. eigenvalues --    3.25115   3.25498   3.25747   3.25987   3.26772
 Alpha virt. eigenvalues --    3.27262   3.27445   3.27971   3.28524   3.28716
 Alpha virt. eigenvalues --    3.28907   3.29268   3.29479   3.30017   3.30194
 Alpha virt. eigenvalues --    3.30902   3.31444   3.31639   3.32672   3.32860
 Alpha virt. eigenvalues --    3.33051   3.33533   3.33807   3.34012   3.34938
 Alpha virt. eigenvalues --    3.35065   3.35673   3.35948   3.36194   3.37332
 Alpha virt. eigenvalues --    3.37493   3.37806   3.38085   3.38413   3.38682
 Alpha virt. eigenvalues --    3.39161   3.39338   3.39874   3.40085   3.40402
 Alpha virt. eigenvalues --    3.40675   3.41038   3.41212   3.41533   3.42088
 Alpha virt. eigenvalues --    3.42381   3.42818   3.44010   3.45101   3.45787
 Alpha virt. eigenvalues --    3.46657   3.47628   3.48035   3.48567   3.49118
 Alpha virt. eigenvalues --    3.49815   3.50572   3.51057   3.51620   3.52204
 Alpha virt. eigenvalues --    3.52592   3.53563   3.53646   3.54286   3.54559
 Alpha virt. eigenvalues --    3.54697   3.55503   3.56200   3.57496   3.57713
 Alpha virt. eigenvalues --    3.58591   3.59196   3.60110   3.61040   3.62654
 Alpha virt. eigenvalues --    3.62854   3.62971   3.63733   3.64445   3.65262
 Alpha virt. eigenvalues --    3.65815   3.66227   3.66978   3.67691   3.68836
 Alpha virt. eigenvalues --    3.69736   3.70413   3.71157   3.71569   3.72104
 Alpha virt. eigenvalues --    3.72231   3.73085   3.73790   3.74744   3.75327
 Alpha virt. eigenvalues --    3.76027   3.76206   3.76483   3.77815   3.77981
 Alpha virt. eigenvalues --    3.78608   3.79430   3.80001   3.80742   3.81242
 Alpha virt. eigenvalues --    3.81743   3.82883   3.83342   3.84491   3.85069
 Alpha virt. eigenvalues --    3.85747   3.86171   3.87272   3.87784   3.88392
 Alpha virt. eigenvalues --    3.89430   3.91027   3.91290   3.92402   3.92465
 Alpha virt. eigenvalues --    3.93495   3.94332   3.94544   3.95883   3.96100
 Alpha virt. eigenvalues --    3.96629   3.97225   3.97608   3.98636   3.99809
 Alpha virt. eigenvalues --    4.00601   4.01388   4.02132   4.02602   4.03294
 Alpha virt. eigenvalues --    4.03831   4.04160   4.04409   4.05325   4.06464
 Alpha virt. eigenvalues --    4.07342   4.08135   4.08388   4.08865   4.08970
 Alpha virt. eigenvalues --    4.09992   4.10118   4.11031   4.11374   4.11748
 Alpha virt. eigenvalues --    4.12784   4.12989   4.14038   4.14807   4.15676
 Alpha virt. eigenvalues --    4.17243   4.18754   4.19061   4.20044   4.20496
 Alpha virt. eigenvalues --    4.21531   4.22224   4.22835   4.23396   4.24364
 Alpha virt. eigenvalues --    4.24666   4.25875   4.27296   4.27465   4.29149
 Alpha virt. eigenvalues --    4.29462   4.30010   4.30202   4.31395   4.33229
 Alpha virt. eigenvalues --    4.34732   4.34899   4.36417   4.36535   4.37274
 Alpha virt. eigenvalues --    4.38932   4.39079   4.41019   4.41260   4.43136
 Alpha virt. eigenvalues --    4.43604   4.45284   4.45668   4.46717   4.47412
 Alpha virt. eigenvalues --    4.47968   4.49136   4.49868   4.50401   4.53547
 Alpha virt. eigenvalues --    4.53886   4.55365   4.55909   4.56527   4.56960
 Alpha virt. eigenvalues --    4.57331   4.57777   4.58364   4.58954   4.59006
 Alpha virt. eigenvalues --    4.59832   4.60214   4.61075   4.62409   4.63057
 Alpha virt. eigenvalues --    4.63369   4.64184   4.65040   4.65498   4.66557
 Alpha virt. eigenvalues --    4.67218   4.68932   4.69765   4.70716   4.70813
 Alpha virt. eigenvalues --    4.71775   4.72137   4.72386   4.72915   4.74457
 Alpha virt. eigenvalues --    4.74487   4.75230   4.77499   4.77702   4.78776
 Alpha virt. eigenvalues --    4.79559   4.80996   4.81670   4.82440   4.83137
 Alpha virt. eigenvalues --    4.83798   4.84977   4.85266   4.85749   4.86692
 Alpha virt. eigenvalues --    4.87490   4.89501   4.90142   4.90787   4.91616
 Alpha virt. eigenvalues --    4.93277   4.93542   4.94563   4.94977   4.95687
 Alpha virt. eigenvalues --    4.95851   4.96448   4.97965   4.98531   4.99029
 Alpha virt. eigenvalues --    4.99517   5.00145   5.00700   5.01484   5.01827
 Alpha virt. eigenvalues --    5.01979   5.03209   5.04254   5.05073   5.05600
 Alpha virt. eigenvalues --    5.05783   5.06986   5.07619   5.07960   5.08501
 Alpha virt. eigenvalues --    5.09024   5.09650   5.10964   5.11370   5.11966
 Alpha virt. eigenvalues --    5.12089   5.12946   5.13738   5.14712   5.15268
 Alpha virt. eigenvalues --    5.16356   5.16638   5.16925   5.18210   5.18319
 Alpha virt. eigenvalues --    5.18541   5.19699   5.20320   5.21163   5.21719
 Alpha virt. eigenvalues --    5.23131   5.23416   5.23439   5.23781   5.23981
 Alpha virt. eigenvalues --    5.25068   5.25837   5.27156   5.28529   5.29115
 Alpha virt. eigenvalues --    5.29317   5.30540   5.30871   5.32773   5.32802
 Alpha virt. eigenvalues --    5.33094   5.33633   5.34948   5.36047   5.36967
 Alpha virt. eigenvalues --    5.38251   5.39813   5.40145   5.41674   5.42697
 Alpha virt. eigenvalues --    5.44385   5.45842   5.47883   5.49680   5.51550
 Alpha virt. eigenvalues --    5.51606   5.52090   5.53902   5.55571   5.57598
 Alpha virt. eigenvalues --    5.58670   5.59582   5.59652   5.61210   5.62406
 Alpha virt. eigenvalues --    5.62763   5.64309   5.64717   5.65271   5.66937
 Alpha virt. eigenvalues --    5.67128   5.68936   5.70579   5.72050   5.74589
 Alpha virt. eigenvalues --    5.75080   5.76814   5.77336   5.78780   5.79151
 Alpha virt. eigenvalues --    5.79976   5.82881   5.83884   5.84865   5.85764
 Alpha virt. eigenvalues --    5.87819   5.88812   5.92642   5.93833   5.94284
 Alpha virt. eigenvalues --    5.94915   5.97758   5.99590   6.01328   6.11949
 Alpha virt. eigenvalues --    6.14396   6.16895   6.17261   6.17985   6.21978
 Alpha virt. eigenvalues --    6.31472   6.35256   6.35361   6.35820   6.41240
 Alpha virt. eigenvalues --    6.51169   6.52788   6.52858   6.54242   6.57307
 Alpha virt. eigenvalues --    6.59406   6.62214   6.65771   6.68678   6.69947
 Alpha virt. eigenvalues --    6.70630   6.73091   6.73923   6.76168   6.76968
 Alpha virt. eigenvalues --    6.78721   6.85920   6.88364   6.94136   6.97209
 Alpha virt. eigenvalues --    6.97813   7.01498   7.03360   7.04399   7.05423
 Alpha virt. eigenvalues --    7.05815   7.07539   7.16036  22.39502  22.42352
 Alpha virt. eigenvalues --   22.56767  22.59272  22.68490  22.71920  22.72258
 Alpha virt. eigenvalues --   22.75812  22.78267  22.82051  22.82361  22.89825
 Alpha virt. eigenvalues --   22.92323  22.95597  22.96509  23.00713  23.04706
 Alpha virt. eigenvalues --   23.12734  23.14190  23.15347  23.23418  23.32116
 Alpha virt. eigenvalues --   23.39007  23.48111  31.98114  32.05378  32.07067
 Alpha virt. eigenvalues --   32.38405  32.55542  32.60320  32.75646  32.90041
 Alpha virt. eigenvalues --   33.01953  44.02154  44.03328  44.04671  44.06813
 Alpha virt. eigenvalues --   44.08676  44.29005
          Condensed to atoms (all electrons):
 Mulliken charges:
               1
     1  C   -0.064755
     2  H    0.128779
     3  O   -0.308429
     4  C    0.003454
     5  H    0.168435
     6  O   -0.515236
     7  H    0.344624
     8  C   -0.000142
     9  H    0.165035
    10  O   -0.478676
    11  H    0.359153
    12  C    0.052099
    13  H    0.138421
    14  N   -0.017178
    15  C   -0.036562
    16  H    0.136442
    17  C    0.028910
    18  C   -0.159408
    19  H    0.227131
    20  H   -0.083843
    21  C   -0.231764
    22  H    0.173217
    23  C   -0.013992
    24  H    0.182495
    25  C    0.368118
    26  O   -0.410815
    27  N   -0.509389
    28  H    0.253710
    29  H    0.283558
    30  N   -0.373519
    31  C    0.473694
    32  N   -0.520073
    33  H    0.299013
    34  H    0.282184
    35  N   -0.316773
    36  H    0.276088
    37  C    0.272351
    38  O   -0.437596
    39  C   -0.063540
    40  N   -0.205266
    41  H    0.293137
    42  C    0.120985
    43  C   -0.227046
    44  H    0.204148
    45  H    0.186814
    46  N   -0.363357
    47  H    0.265946
    48  C    0.381277
    49  C   -0.252524
    50  H    0.201589
    51  H    0.229569
    52  N   -0.425843
    53  H    0.255877
    54  C    0.097504
    55  C   -0.180228
    56  H    0.179855
    57  C   -0.187710
    58  H    0.157254
    59  C    0.281813
    60  C   -0.197350
    61  H    0.112706
    62  C   -0.190175
    63  H    0.112605
    64  C    0.326436
    65  O   -0.427583
    66  N   -0.525267
    67  H    0.248327
    68  H    0.150645
    69  H    0.300642
 Sum of Mulliken charges =   1.00000
 Mulliken charges with hydrogens summed into heavy atoms:
               1
     1  C    0.214669
     3  O   -0.308429
     4  C    0.171889
     6  O   -0.170612
     8  C    0.164893
    10  O   -0.119523
    12  C    0.190520
    14  N   -0.017178
    15  C    0.099880
    17  C    0.028910
    18  C   -0.016120
    21  C   -0.058547
    23  C    0.168503
    25  C    0.368118
    26  O   -0.410815
    27  N    0.027879
    30  N   -0.373519
    31  C    0.473694
    32  N    0.061124
    35  N   -0.040686
    37  C    0.272351
    38  O   -0.437596
    39  C   -0.063540
    40  N    0.087870
    42  C    0.120985
    43  C    0.163916
    46  N   -0.097411
    48  C    0.381277
    49  C    0.178634
    52  N   -0.169966
    54  C    0.097504
    55  C   -0.000373
    57  C   -0.030456
    59  C    0.281813
    60  C   -0.084644
    62  C   -0.077570
    64  C    0.326436
    65  O   -0.427583
    66  N    0.023702
 Electronic spatial extent (au):  <R**2>=          27252.7151
 Charge=              1.0000 electrons
 Dipole moment (field-independent basis, Debye):
    X=             -4.0291    Y=             -8.4150    Z=             10.1383  Tot=             13.7779
 Quadrupole moment (field-independent basis, Debye-Ang):
   XX=           -139.6682   YY=           -220.5061   ZZ=           -127.2309
   XY=             -9.9739   XZ=            -68.4046   YZ=             67.6807
 Traceless Quadrupole moment (field-independent basis, Debye-Ang):
   XX=             22.8002   YY=            -58.0377   ZZ=             35.2375
   XY=             -9.9739   XZ=            -68.4046   YZ=             67.6807
 Octapole moment (field-independent basis, Debye-Ang**2):
  XXX=            735.7065  YYY=           -127.5354  ZZZ=            588.8818  XYY=            255.5628
  XXY=           -129.0531  XXZ=            212.7742  XZZ=             37.7852  YZZ=           -100.5231
  YYZ=            128.3957  XYZ=            -81.0393
 Hexadecapole moment (field-independent basis, Debye-Ang**3):
 XXXX=          -6537.3853 YYYY=          -4898.8545 ZZZZ=         -15614.0576 XXXY=           1187.6438
 XXXZ=           -384.9940 YYYX=           1768.4303 YYYZ=           1398.9327 ZZZX=          -1377.2559
 ZZZY=           3524.0294 XXYY=          -2002.1266 XXZZ=          -3367.5858 YYZZ=          -5165.5145
 XXYZ=           1031.7426 YYXZ=            -77.4069 ZZXY=            487.8169
 N-N= 4.439068142141D+03 E-N=-1.322904212160D+04  KE= 1.867342288781D+03
 No NMR shielding tensors so no spin-rotation constants.
 Leave Link  601 at Sat Jun 22 17:41:55 2024, MaxMem=  2684354560 cpu:              10.3 elap:               0.8
 (Enter /storage/apps/GAUSSIAN/G16_RevA03/g16/l602.exe)

 **********************************************************************

            Electrostatic Properties Using The SCF Density

 **********************************************************************

       Atomic Center    1 is at  -4.144176  0.369092  6.719308
       Atomic Center    2 is at  -3.960501  0.429515  7.724034
       Atomic Center    3 is at  -2.969781 -0.221190  6.066273
       Atomic Center    4 is at  -4.286383  1.764363  6.106351
       Atomic Center    5 is at  -5.253026  2.109887  6.092611
       Atomic Center    6 is at  -3.456344  2.739829  6.785596
       Atomic Center    7 is at  -3.652585  2.806890  7.741870
       Atomic Center    8 is at  -3.672255  1.597098  4.706215
       Atomic Center    9 is at  -4.334077  1.181219  4.043012
       Atomic Center   10 is at  -3.219037  2.844420  4.179400
       Atomic Center   11 is at  -3.016268  3.406644  4.951572
       Atomic Center   12 is at  -2.487839  0.640189  5.003046
       Atomic Center   13 is at  -1.673532  1.169954  5.337163
       Atomic Center   14 is at  -2.043487 -0.200953  3.878467
       Atomic Center   15 is at  -0.702338 -0.248677  3.574351
       Atomic Center   16 is at  -0.112471  0.344349  4.154194
       Atomic Center   17 is at  -0.195707 -1.059395  2.620416
       Atomic Center   18 is at  -1.109365 -1.832531  1.764962
       Atomic Center   19 is at  -0.730141 -2.732517  1.464156
       Atomic Center   20 is at  -1.128828 -1.285673  0.610525
       Atomic Center   21 is at  -2.488131 -1.869145  2.247330
       Atomic Center   22 is at  -3.140642 -2.525155  1.821271
       Atomic Center   23 is at  -2.915966 -1.068096  3.232150
       Atomic Center   24 is at  -3.875311 -1.088417  3.575698
       Atomic Center   25 is at   1.266311 -1.298293  2.450335
       Atomic Center   26 is at   1.674442 -2.198030  1.676033
       Atomic Center   27 is at   2.175534 -0.557798  3.161681
       Atomic Center   28 is at   1.896123  0.116507  3.870376
       Atomic Center   29 is at   3.137386 -0.897193  3.198548
       Atomic Center   30 is at   2.159421 -3.128709 -1.930590
       Atomic Center   31 is at   3.278532 -2.437377 -2.261549
       Atomic Center   32 is at   4.400742 -3.100811 -2.635265
       Atomic Center   33 is at   4.441199 -4.113943 -2.575253
       Atomic Center   34 is at   5.253026 -2.576195 -2.893711
       Atomic Center   35 is at   3.324304 -1.060307 -2.266235
       Atomic Center   36 is at   4.245260 -0.597110 -2.416392
       Atomic Center   37 is at   2.240533 -0.272583 -1.897811
       Atomic Center   38 is at   2.364886  0.998014 -1.871811
       Atomic Center   39 is at   1.051995 -0.988247 -1.574778
       Atomic Center   40 is at  -0.110606 -0.298667 -1.170666
       Atomic Center   41 is at  -0.016325  0.713068 -1.064424
       Atomic Center   42 is at  -1.236152 -0.935625 -0.748371
       Atomic Center   43 is at  -1.377509 -2.364695 -1.305639
       Atomic Center   44 is at  -2.067703 -2.879045 -0.758581
       Atomic Center   45 is at  -1.724163 -2.312734 -2.270573
       Atomic Center   46 is at  -0.092796 -3.061550 -1.243644
       Atomic Center   47 is at  -0.093158 -4.075800 -1.312189
       Atomic Center   48 is at   1.054559 -2.393143 -1.593637
       Atomic Center   49 is at  -2.557718 -0.100696 -0.772620
       Atomic Center   50 is at  -2.930262 -0.009896  0.174571
       Atomic Center   51 is at  -3.243015 -0.630202 -1.318970
       Atomic Center   52 is at  -2.400175  1.247620 -1.317007
       Atomic Center   53 is at  -2.699449  1.997846 -0.694655
       Atomic Center   54 is at  -2.227972  2.129555 -5.425134
       Atomic Center   55 is at  -2.390203  3.148073 -4.456852
       Atomic Center   56 is at  -2.445080  4.113943 -4.775517
       Atomic Center   57 is at  -2.449735  2.861886 -3.130744
       Atomic Center   58 is at  -2.556036  3.612757 -2.450027
       Atomic Center   59 is at  -2.363882  1.521253 -2.677512
       Atomic Center   60 is at  -2.214871  0.497860 -3.642530
       Atomic Center   61 is at  -2.159214 -0.477251 -3.353273
       Atomic Center   62 is at  -2.146840  0.801456 -4.966347
       Atomic Center   63 is at  -2.045127  0.038127 -5.633519
       Atomic Center   64 is at  -2.135100  2.481969 -6.845303
       Atomic Center   65 is at  -2.408113  3.661563 -7.264488
       Atomic Center   66 is at  -1.732096  1.531295 -7.741870
       Atomic Center   67 is at  -1.564278  0.572445 -7.455732
       Atomic Center   68 is at  -5.009070 -0.270572  6.543559
       Atomic Center   69 is at  -1.651282  1.701237 -8.815504
 -----------------------------------------------------------------

              Electrostatic Properties (Atomic Units)

 -----------------------------------------------------------------
    Center     Electric         -------- Electric Field --------
               Potential          X             Y             Z
 -----------------------------------------------------------------
    1 Atom    -14.609521     -0.005369      0.007368     -0.004937
    2 Atom     -1.006828      0.014209      0.001678      0.072398
    3 Atom    -22.232839      0.015784     -0.030507      0.008307
    4 Atom    -14.595375      0.000240     -0.011887     -0.005556
    5 Atom     -1.004747     -0.067706      0.021819     -0.003776
    6 Atom    -22.229429      0.025843      0.017245     -0.023188
    7 Atom     -0.874062     -0.005292     -0.000929      0.007440
    8 Atom    -14.592995      0.004393     -0.002887      0.012047
    9 Atom     -0.990849     -0.047889     -0.029009     -0.045976
   10 Atom    -22.248345      0.001419      0.005768     -0.039260
   11 Atom     -0.898005      0.004377      0.010847      0.012250
   12 Atom    -14.554412     -0.009452      0.007605     -0.001119
   13 Atom     -0.989008      0.055454      0.037349      0.020542
   14 Atom    -18.192525     -0.000278      0.002481      0.001333
   15 Atom    -14.589212     -0.000235     -0.009930     -0.008453
   16 Atom     -0.953752      0.041322      0.042105      0.043631
   17 Atom    -14.629451     -0.001464      0.000083      0.000910
   18 Atom    -14.616752     -0.001614      0.003525      0.006802
   19 Atom     -0.992683      0.030037     -0.065913     -0.024185
   20 Atom     -0.950515      0.002878      0.002759      0.005010
   21 Atom    -14.643293      0.005167      0.008479      0.006094
   22 Atom     -0.981930     -0.047981     -0.047437     -0.029019
   23 Atom    -14.599861      0.007420     -0.006199     -0.009070
   24 Atom     -0.963622     -0.067476     -0.001240      0.026099
   25 Atom    -14.547046      0.001148     -0.010157     -0.007728
   26 Atom    -22.290067      0.008395     -0.020561     -0.017932
   27 Atom    -18.258506     -0.003543      0.000710     -0.010275
   28 Atom     -0.907180     -0.001452      0.007505      0.007803
   29 Atom     -0.912191      0.010370     -0.004177     -0.002877
   30 Atom    -18.286692      0.000265     -0.026778     -0.001214
   31 Atom    -14.512005     -0.010935     -0.003935      0.003744
   32 Atom    -18.233020     -0.004827      0.002684     -0.001446
   33 Atom     -0.890394     -0.001859     -0.014261      0.001144
   34 Atom     -0.881884     -0.000450     -0.003914      0.000157
   35 Atom    -18.216012     -0.004270     -0.001908     -0.000940
   36 Atom     -0.873351     -0.006612      0.006139     -0.000374
   37 Atom    -14.551164     -0.007832      0.017421      0.003823
   38 Atom    -22.302575      0.002610      0.026625      0.000239
   39 Atom    -14.619738      0.007579     -0.008083     -0.002287
   40 Atom    -18.201206     -0.003118     -0.004800     -0.005075
   41 Atom     -0.885559     -0.000662      0.020281     -0.000936
   42 Atom    -14.550707     -0.004708     -0.000049     -0.006930
   43 Atom    -14.597522      0.002811      0.007613      0.002485
   44 Atom     -0.974700     -0.051727     -0.039634      0.043774
   45 Atom     -0.984942     -0.024448      0.006903     -0.070974
   46 Atom    -18.236922      0.004380      0.005319      0.009149
   47 Atom     -0.902056      0.003715     -0.015857     -0.001727
   48 Atom    -14.558722      0.004529      0.008701     -0.001383
   49 Atom    -14.600494      0.006136      0.000116     -0.002810
   50 Atom     -0.977873     -0.026508      0.005854      0.071599
   51 Atom     -0.984357     -0.050414     -0.040937     -0.042179
   52 Atom    -18.250099      0.010485     -0.001810     -0.001297
   53 Atom     -0.917856     -0.003199      0.010287      0.004854
   54 Atom    -14.684068     -0.000111     -0.002127      0.007824
   55 Atom    -14.697029      0.001349     -0.011369     -0.001106
   56 Atom     -1.049263     -0.004619      0.069927     -0.024877
   57 Atom    -14.694677      0.001451     -0.010658     -0.007383
   58 Atom     -1.028984     -0.007531      0.054556      0.049324
   59 Atom    -14.622276     -0.000026      0.003184     -0.014718
   60 Atom    -14.687150     -0.000274      0.013005     -0.000833
   61 Atom     -1.015959      0.004389     -0.069208      0.020824
   62 Atom    -14.685398     -0.001387      0.014197      0.004885
   63 Atom     -1.023397      0.006780     -0.055436     -0.046664
   64 Atom    -14.597048     -0.004899      0.018201     -0.003821
   65 Atom    -22.346213     -0.005407      0.022775     -0.007320
   66 Atom    -18.293523      0.000696      0.006611     -0.000561
   67 Atom     -0.951720      0.003856     -0.012330      0.004019
   68 Atom     -1.000751     -0.014931     -0.010458     -0.005534
   69 Atom     -0.933585     -0.006817      0.003967      0.041711
 -----------------------------------------------------------------
 Leave Link  602 at Sat Jun 22 17:41:55 2024, MaxMem=  2684354560 cpu:               3.8 elap:               0.3
 (Enter /storage/apps/GAUSSIAN/G16_RevA03/g16/l701.exe)
 ... and contract with generalized density number  0.
 Compute integral first derivatives.
 R6Disp: Adding Grimme-D3 dispersion energy 1st derivatives to the gradient.
   1 Symmetry operations used in ECPInt.
 ECPInt:  NShTT=  150975 NPrTT=  462228 LenC2=  107344 LenP2D=  217213.
 LDataN:  DoStor=T MaxTD1= 7 Len=  274
 Leave Link  701 at Sat Jun 22 17:41:57 2024, MaxMem=  2684354560 cpu:              16.9 elap:               1.2
 (Enter /storage/apps/GAUSSIAN/G16_RevA03/g16/l702.exe)
 L702 exits ... SP integral derivatives will be done elsewhere.
 Leave Link  702 at Sat Jun 22 17:41:57 2024, MaxMem=  2684354560 cpu:               0.3 elap:               0.0
 (Enter /storage/apps/GAUSSIAN/G16_RevA03/g16/l703.exe)
 Integral derivatives from FoFJK, PRISM(SPDF).
 Compute integral first derivatives, UseDBF=F ICtDFT=           0.
 Calling FoFJK, ICntrl=      2127 FMM=T ISym2X=0 I1Cent= 0 IOpClX= 0 NMat=1 NMatS=1 NMatT=0.
 FoFJK:  IHMeth= 1 ICntrl=    2127 DoSepK=F KAlg= 0 I1Cent=           0 FoldK=F
 IRaf=         0 NMat=       1 IRICut=       1 DoRegI=T DoRafI=F ISym2E= 0 IDoP0=0 IntGTp=1.
 FoFCou: FMM=T IPFlag=           0 FMFlag=      100000 FMFlg1=        2001
         NFxFlg=           0 DoJE=F BraDBF=F KetDBF=F FulRan=T
         wScrn=  0.000000 ICntrl=      2127 IOpCl=  0 I1Cent=           0 NGrid=           0
[...]
   1                    0.21969   0.19345  -0.17981   0.17645   0.17397
                          X11       X10       Y33       Y32       Y36
   1                    0.17336   0.16759   0.16623   0.16525   0.15811
 Quadratic step=5.708D+00 exceeds max=3.000D-01 adjusted using Lamda=-3.626D-01.
 Angle between NR and scaled steps=  82.21 degrees.
 Angle between quadratic step and forces=  23.41 degrees.
 Linear search not attempted -- first point.
 Variable       Old X    -DE/DX   Delta X   Delta X   Delta X     New X
                                 (Linear)    (Quad)   (Total)
    X1       -7.83136   0.01064   0.00000   0.01495   0.01495  -7.81641
    Y1        0.69748  -0.00035   0.00000  -0.00180  -0.00180   0.69568
    Z1       12.69765  -0.06309   0.00000  -0.03736  -0.03736  12.66029
    X2       -7.48426   0.01022   0.00000   0.01494   0.01494  -7.46932
    Y2        0.81167   0.00091   0.00000  -0.00363  -0.00363   0.80804
    Z2       14.59631   0.05171   0.00000   0.04543   0.04543  14.64174
    X3       -5.61207  -0.00572   0.00000  -0.01153  -0.01153  -5.62360
    Y3       -0.41799   0.01355   0.00000   0.00060   0.00060  -0.41738
    Z3       11.46359  -0.00991   0.00000  -0.01518  -0.01518  11.44842
    X4       -8.10009   0.04886   0.00000   0.02618   0.02618  -8.07391
    Y4        3.33416  -0.01279   0.00000  -0.00404  -0.00404   3.33012
    Z4       11.53933   0.01371   0.00000   0.01291   0.01291  11.55224
    X5       -9.92678  -0.04787   0.00000  -0.04731  -0.04731  -9.97409
    Y5        3.98711   0.01464   0.00000   0.01197   0.01197   3.99908
    Z5       11.51337  -0.00340   0.00000  -0.00548  -0.00548  11.50789
    X6       -6.53154  -0.00451   0.00000   0.00487   0.00487  -6.52667
    Y6        5.17753  -0.01132   0.00000  -0.01737  -0.01737   5.16016
    Z6       12.82292   0.00103   0.00000  -0.00166  -0.00166  12.82125
    X7       -6.90239  -0.00108   0.00000  -0.00725  -0.00725  -6.90963
    Y7        5.30425  -0.00348   0.00000  -0.00793  -0.00793   5.29632
    Z7       14.63001  -0.01740   0.00000  -0.02304  -0.02304  14.60698
    X8       -6.93956   0.05180   0.00000   0.03159   0.03159  -6.90797
    Y8        3.01808   0.04336   0.00000   0.02541   0.02541   3.04348
    Z8        8.89346   0.03817   0.00000   0.02893   0.02893   8.92238
    X9       -8.19022  -0.03406   0.00000  -0.02841  -0.02841  -8.21863
    Y9        2.23218  -0.02090   0.00000  -0.01250  -0.01250   2.21968
    Z9        7.64019  -0.03238   0.00000  -0.02171  -0.02171   7.61847
   X10       -6.08310  -0.00559   0.00000  -0.00150  -0.00150  -6.08460
   Y10        5.37517  -0.01368   0.00000  -0.01202  -0.01202   5.36316
   Z10        7.89792   0.00763   0.00000   0.00629   0.00629   7.90421
   X11       -5.69992  -0.00091   0.00000   0.00071   0.00071  -5.69921
   Y11        6.43762  -0.00441   0.00000  -0.00405  -0.00405   6.43358
   Z11        9.35712  -0.00749   0.00000  -0.01130  -0.01130   9.34582
   X12       -4.70133  -0.05741   0.00000  -0.03374  -0.03374  -4.73508
   Y12        1.20978  -0.04380   0.00000  -0.02678  -0.02678   1.18300
   Z12        9.45439  -0.00221   0.00000   0.00539   0.00539   9.45978
   X13       -3.16252   0.03908   0.00000   0.03360   0.03360  -3.12891
   Y13        2.21089   0.02656   0.00000   0.01983   0.01983   2.23072
   Z13       10.08578   0.01329   0.00000   0.01145   0.01145  10.09723
   X14       -3.86163   0.00358   0.00000  -0.00462  -0.00462  -3.86625
   Y14       -0.37975   0.00751   0.00000   0.00967   0.00967  -0.37007
   Z14        7.32924   0.00219   0.00000   0.00280   0.00280   7.33204
   X15       -1.32723  -0.04242   0.00000  -0.02404  -0.02404  -1.35126
   Y15       -0.46993  -0.03022   0.00000  -0.01345  -0.01345  -0.48338
   Z15        6.75455  -0.02480   0.00000  -0.00735  -0.00735   6.74719
   X16       -0.21254   0.02918   0.00000   0.02467   0.02467  -0.18787
   Y16        0.65072   0.03008   0.00000   0.02754   0.02754   0.67826
   Z16        7.85029   0.03211   0.00000   0.03594   0.03594   7.88623
   X17       -0.36983   0.00228   0.00000   0.00207   0.00207  -0.36776
   Y17       -2.00197  -0.00208   0.00000  -0.00066  -0.00066  -2.00263
   Z17        4.95187  -0.00656   0.00000  -0.00772  -0.00772   4.94415
   X18       -2.09640  -0.01614   0.00000  -0.00073  -0.00073  -2.09712
   Y18       -3.46298   0.04590   0.00000   0.02365   0.02365  -3.43933
   Z18        3.33530   0.01587   0.00000   0.00224   0.00224   3.33753
   X19       -1.37977   0.02201   0.00000   0.02491   0.02491  -1.35486
   Y19       -5.16371  -0.04684   0.00000  -0.04605  -0.04605  -5.20976
   Z19        2.76685  -0.01844   0.00000  -0.02236  -0.02236   2.74450
   X20       -2.13318   0.00211   0.00000   0.00550   0.00550  -2.12768
   Y20       -2.42957  -0.00089   0.00000   0.00805   0.00805  -2.42152
   Z20        1.15372   0.00893   0.00000   0.00668   0.00668   1.16041
   X21       -4.70189   0.03231   0.00000   0.01798   0.01798  -4.68391
   Y21       -3.53217   0.03233   0.00000   0.02091   0.02091  -3.51126
   Z21        4.24684   0.01800   0.00000   0.00582   0.00582   4.25265
   X22       -5.93495  -0.03451   0.00000  -0.03411  -0.03411  -5.96906
   Y22       -4.77185  -0.03383   0.00000  -0.03194  -0.03194  -4.80379
   Z22        3.44170  -0.02044   0.00000  -0.01756  -0.01756   3.42415
   X23       -5.51038   0.05476   0.00000   0.02750   0.02750  -5.48287
   Y23       -2.01841   0.00943   0.00000   0.01489   0.01489  -2.00352
   Z23        6.10788  -0.01050   0.00000   0.00168   0.00168   6.10956
   X24       -7.32328  -0.04758   0.00000  -0.04422  -0.04422  -7.36749
   Y24       -2.05681  -0.00014   0.00000   0.00211   0.00211  -2.05470
   Z24        6.75709   0.01944   0.00000   0.02338   0.02338   6.78047
   X25        2.39298   0.03195   0.00000   0.01234   0.01234   2.40533
   Y25       -2.45342  -0.03122   0.00000  -0.01022  -0.01022  -2.46364
   Z25        4.63046  -0.02449   0.00000  -0.00386  -0.00386   4.62660
   X26        3.16424  -0.02412   0.00000  -0.02730  -0.02730   3.13694
   Y26       -4.15367   0.03729   0.00000   0.02482   0.02482  -4.12885
   Z26        3.16724   0.02823   0.00000   0.01322   0.01322   3.18046
   X27        4.11116  -0.00921   0.00000  -0.01277  -0.01277   4.09839
   Y27       -1.05408   0.00053   0.00000  -0.00587  -0.00587  -1.05995
   Z27        5.97471   0.00514   0.00000   0.00243   0.00243   5.97714
   X28        3.58315   0.00438   0.00000   0.00264   0.00264   3.58579
   Y28        0.22017  -0.00831   0.00000  -0.01121  -0.01121   0.20896
   Z28        7.31395  -0.00816   0.00000  -0.00922  -0.00922   7.30473
   X29        5.92880  -0.01178   0.00000  -0.01991  -0.01991   5.90890
   Y29       -1.69545   0.00341   0.00000   0.00535   0.00535  -1.69010
   Z29        6.04438  -0.00371   0.00000  -0.00836  -0.00836   6.03602
   X30        4.08071   0.01810   0.00000   0.00942   0.00942   4.09013
   Y30       -5.91240   0.02655   0.00000   0.02373   0.02373  -5.88867
   Z30       -3.64829  -0.00655   0.00000  -0.00721  -0.00721  -3.65549
   X31        6.19553  -0.02861   0.00000  -0.02191  -0.02191   6.17362
   Y31       -4.60597  -0.01139   0.00000  -0.00323  -0.00323  -4.60921
   Z31       -4.27371   0.00823   0.00000   0.00678   0.00678  -4.26693
   X32        8.31620   0.00592   0.00000  -0.01386  -0.01386   8.30234
   Y32       -5.85968   0.01519   0.00000   0.01412   0.01412  -5.84557
   Z32       -4.97993   0.00017   0.00000   0.00639   0.00639  -4.97354
   X33        8.39265  -0.00309   0.00000  -0.01003  -0.01003   8.38262
   Y33       -7.77422   0.00927   0.00000   0.01913   0.01913  -7.75510
   Z33       -4.86652  -0.00003   0.00000   0.00094   0.00094  -4.86558
   X34        9.92678  -0.01914   0.00000  -0.02827  -0.02827   9.89851
   Y34       -4.86830  -0.01469   0.00000  -0.01760  -0.01760  -4.88590
   Z34       -5.46832   0.00603   0.00000   0.00962   0.00962  -5.45870
   X35        6.28202   0.02031   0.00000  -0.00229  -0.00229   6.27974
   Y35       -2.00369  -0.01979   0.00000  -0.01575  -0.01575  -2.01943
   Z35       -4.28256  -0.00076   0.00000   0.00792   0.00792  -4.27464
   X36        8.02238  -0.02588   0.00000  -0.03921  -0.03921   7.98317
   Y36       -1.12837  -0.00406   0.00000  -0.00597  -0.00597  -1.13434
   Z36       -4.56632   0.00278   0.00000   0.00345   0.00345  -4.56287
   X37        4.23399   0.00205   0.00000  -0.00497  -0.00497   4.22902
   Y37       -0.51511   0.07944   0.00000   0.02241   0.02241  -0.49270
   Z37       -3.58634   0.00318   0.00000   0.00356   0.00356  -3.58278
   X38        4.46899  -0.00970   0.00000  -0.01521  -0.01521   4.45377
   Y38        1.88597  -0.07210   0.00000  -0.05051  -0.05051   1.83546
   Z38       -3.53721   0.00069   0.00000   0.00503   0.00503  -3.53218
   X39        1.98798  -0.00667   0.00000  -0.00165  -0.00165   1.98634
   Y39       -1.86752  -0.01608   0.00000  -0.00969  -0.00969  -1.87720
   Z39       -2.97590   0.00192   0.00000   0.00334   0.00334  -2.97256
   X40       -0.20902  -0.00474   0.00000   0.00548   0.00548  -0.20354
   Y40       -0.56440  -0.01452   0.00000  -0.01281  -0.01281  -0.57721
   Z40       -2.21224   0.00915   0.00000   0.00484   0.00484  -2.20740
   X41       -0.03085  -0.00279   0.00000  -0.00464  -0.00464  -0.03549
   Y41        1.34750  -0.00283   0.00000  -0.00958  -0.00958   1.33792
   Z41       -2.01147  -0.00310   0.00000  -0.00664  -0.00664  -2.01811
   X42       -2.33599   0.01091   0.00000   0.01556   0.01556  -2.32043
   Y42       -1.76808   0.01254   0.00000   0.01372   0.01372  -1.75435
   Z42       -1.41422  -0.03056   0.00000  -0.03186  -0.03186  -1.44608
   X43       -2.60312   0.06390   0.00000   0.03873   0.03873  -2.56438
   Y43       -4.46863   0.02648   0.00000   0.01640   0.01640  -4.45223
   Z43       -2.46730   0.02407   0.00000   0.01255   0.01255  -2.45476
   X44       -3.90739  -0.03713   0.00000  -0.02981  -0.02981  -3.93720
   Y44       -5.44061  -0.02851   0.00000  -0.02571  -0.02571  -5.46631
   Z44       -1.43351   0.03271   0.00000   0.04165   0.04165  -1.39186
   X45       -3.25820  -0.01746   0.00000  -0.01084  -0.01084  -3.26904
   Y45       -4.37043   0.00635   0.00000   0.01261   0.01261  -4.35782
   Z45       -4.29076  -0.05108   0.00000  -0.05403  -0.05403  -4.34479
   X46       -0.17536   0.00571   0.00000   0.02003   0.02003  -0.15533
   Y46       -5.78549   0.00481   0.00000   0.01003   0.01003  -5.77546
   Z46       -2.35015  -0.00215   0.00000  -0.00110  -0.00110  -2.35125
   X47       -0.17604   0.00363   0.00000   0.01061   0.01061  -0.16543
   Y47       -7.70215   0.00770   0.00000   0.01511   0.01511  -7.68704
   Z47       -2.47968  -0.00064   0.00000  -0.00233  -0.00233  -2.48201
   X48        1.99283   0.01180   0.00000   0.01590   0.01590   2.00872
   Y48       -4.52238   0.00149   0.00000   0.00489   0.00489  -4.51749
   Z48       -3.01154  -0.00229   0.00000  -0.00304  -0.00304  -3.01457
   X49       -4.83339   0.06424   0.00000   0.03962   0.03962  -4.79377
   Y49       -0.19029   0.03452   0.00000   0.01992   0.01992  -0.17037
   Z49       -1.46004  -0.02414   0.00000  -0.01430  -0.01430  -1.47434
   X50       -5.53739  -0.01844   0.00000  -0.00835  -0.00835  -5.54574
   Y50       -0.01870   0.00375   0.00000   0.00483   0.00483  -0.01387
   Z50        0.32989   0.05221   0.00000   0.05538   0.05538   0.38527
   X51       -6.12841  -0.03561   0.00000  -0.02783  -0.02783  -6.15624
   Y51       -1.19091  -0.03015   0.00000  -0.02918  -0.02918  -1.22009
   Z51       -2.49249  -0.03115   0.00000  -0.03820  -0.03820  -2.53069
   X52       -4.53567   0.00010   0.00000   0.00876   0.00876  -4.52692
   Y52        2.35766  -0.00735   0.00000  -0.00175  -0.00175   2.35591
   Z52       -2.48878   0.01724   0.00000   0.00954   0.00954  -2.47925
   X53       -5.10122   0.00329   0.00000   0.00367   0.00367  -5.09755
   Y53        3.77538  -0.00701   0.00000  -0.00805  -0.00805   3.76733
   Z53       -1.31271  -0.00965   0.00000  -0.01117  -0.01117  -1.32388
   X54       -4.21026   0.00029   0.00000  -0.00057  -0.00057  -4.21082
   Y54        4.02428  -0.01113   0.00000  -0.00117  -0.00117   4.02310
   Z54      -10.25202   0.02458   0.00000  -0.00427  -0.00427 -10.25629
   X55       -4.51683   0.00625   0.00000   0.00281   0.00281  -4.51401
   Y55        5.94900  -0.05387   0.00000  -0.03321  -0.03321   5.91578
   Z55       -8.42223  -0.01488   0.00000  -0.01718  -0.01718  -8.43941
   X56       -4.62053  -0.00343   0.00000  -0.00372  -0.00372  -4.62425
   Y56        7.77422   0.04986   0.00000   0.04608   0.04608   7.82030
   Z56       -9.02442  -0.01832   0.00000  -0.02378  -0.02378  -9.04820
   X57       -4.62933   0.00518   0.00000  -0.00013  -0.00013  -4.62946
   Y57        5.40818  -0.05713   0.00000  -0.03819  -0.03819   5.36999
   Z57       -5.91625  -0.01106   0.00000  -0.00057  -0.00057  -5.91682
   X58       -4.83021  -0.00543   0.00000  -0.00515  -0.00515  -4.83536
   Y58        6.82712   0.03895   0.00000   0.03380   0.03380   6.86092
   Z58       -4.62988   0.03586   0.00000   0.03706   0.03706  -4.59282
   X59       -4.46709   0.00003   0.00000  -0.00329  -0.00329  -4.47038
   Y59        2.87475   0.00225   0.00000  -0.00134  -0.00134   2.87341
   Z59       -5.05976  -0.01527   0.00000   0.00298   0.00298  -5.05679
   X60       -4.18550  -0.00589   0.00000  -0.00713  -0.00713  -4.19263
   Y60        0.94082   0.05326   0.00000   0.03169   0.03169   0.97251
   Z60       -6.88338   0.02061   0.00000   0.02076   0.02076  -6.86262
   X61       -4.08032   0.00328   0.00000   0.00327   0.00327  -4.07706
   Y61       -0.90187  -0.04969   0.00000  -0.04675  -0.04675  -0.94862
   Z61       -6.33677   0.01562   0.00000   0.02092   0.02092  -6.31584
   X62       -4.05694  -0.00480   0.00000  -0.00535  -0.00535  -4.06229
   Y62        1.51453   0.05859   0.00000   0.03720   0.03720   1.55173
   Z62       -9.38504   0.00634   0.00000  -0.00080  -0.00080  -9.38583
   X63       -3.86473   0.00465   0.00000   0.00335   0.00335  -3.86138
   Y63        0.07205  -0.03993   0.00000  -0.03626  -0.03626   0.03579
   Z63      -10.64581  -0.03336   0.00000  -0.03327  -0.03327 -10.67908
   X64       -4.03475  -0.01415   0.00000  -0.00568  -0.00568  -4.04043
   Y64        4.69024   0.07699   0.00000   0.02521   0.02521   4.71545
   Z64      -12.93575  -0.05878   0.00000  -0.04291  -0.04291 -12.97866
   X65       -4.55067   0.01741   0.00000   0.00890   0.00890  -4.54178
   Y65        6.91935  -0.07297   0.00000  -0.04243  -0.04243   6.87692
   Z65      -13.72789   0.03235   0.00000   0.02359   0.02359 -13.70431
   X66       -3.27319   0.00473   0.00000  -0.00358  -0.00358  -3.27676
   Y66        2.89373  -0.00750   0.00000   0.00136   0.00136   2.89509
   Z66      -14.63001  -0.03853   0.00000  -0.02181  -0.02181 -14.65183
   X67       -2.95606  -0.00004   0.00000   0.00140   0.00140  -2.95466
   Y67        1.08176   0.00997   0.00000   0.01599   0.01599   1.09775
   Z67      -14.08929  -0.00227   0.00000  -0.00689  -0.00689 -14.09618
   X68       -9.46577  -0.00067   0.00000   0.00156   0.00156  -9.46421
   Y68       -0.51131   0.00046   0.00000   0.00402   0.00402  -0.50729
   Z68       12.36553  -0.00271   0.00000  -0.01380  -0.01380  12.35173
   X69       -3.12047  -0.00839   0.00000  -0.01425  -0.01425  -3.13472
   Y69        3.21487   0.00103   0.00000   0.00835   0.00835   3.22322
   Z69      -16.65889   0.06106   0.00000   0.07614   0.07614 -16.58275
         Item               Value     Threshold  Converged?
 Maximum Force            0.079441     0.000450     NO 
 RMS     Force            0.026743     0.000300     NO 
 Maximum Displacement     0.076141     0.001800     NO 
 RMS     Displacement     0.020899     0.001200     NO 
 Predicted change in Energy=-6.947828D-02
 GradGradGradGradGradGradGradGradGradGradGradGradGradGradGradGradGradGrad

 Leave Link  103 at Sat Jun 22 17:47:38 2024, MaxMem=  2684354560 cpu:               3.3 elap:               0.2
 (Enter /storage/apps/GAUSSIAN/G16_RevA03/g16/l9999.exe)

 Test job not archived.
 1\1\GINC-T120\Force\RM062X\def2TZVP\C24H30N9O6(1+)\LV87696\22-Jun-2024
 \0\\#P M062X/Def2TZVP scf=(direct,conver=8) EmpiricalDispersion=GD3 No
 Symm force Charge Prop=(Field,Read)\\Gaussian run using SANDER externa
 l interface, route from template gau_job.tpl\\1,1\C,-4.1441761271,0.36
 90918844,6.7193083011\H,-3.9605008614,0.4295146249,7.7240343694\O,-2.9
 697806443,-0.2211896761,6.0662725755\C,-4.2863834969,1.7643626941,6.10
 63505821\H,-5.2530259765,2.1098871862,6.0926107935\O,-3.4563435839,2.7
 398293035,6.7855956332\H,-3.6525849301,2.8068896859,7.7418702055\C,-3.
 6722548766,1.5970976706,4.706215499\H,-4.3340774869,1.1812189114,4.043
 0122725\O,-3.2190372624,2.844419862,4.1794001629\H,-3.0162679272,3.406
 6441761,4.9515722415\C,-2.487839323,0.6401893267,5.0030460162\H,-1.673
 5319894,1.1699541379,5.3371625809\N,-2.0434874097,-0.2009526481,3.8784
 665214\C,-0.702337592,-0.2486773389,3.5743514577\H,-0.1124712148,0.344
 3486257,4.1541936192\C,-0.1957073411,-1.0593950431,2.620415853\C,-1.10
 9365185,-1.8325314217,1.7649623416\H,-0.7301409332,-2.7325166052,1.464
 1559033\H,-1.1288279191,-1.2856727656,0.6105247172\C,-2.4881307112,-1.
 86914507,2.2473297869\H,-3.1406424979,-2.5251548334,1.8212712946\C,-2.
 9159664298,-1.0680960572,3.232149698\H,-3.8753110264,-1.0884167387,3.5
 756981904\C,1.2663112177,-1.298292655,2.4503354032\O,1.6744421361,-2.1
 980301033,1.6760328534\N,2.1755336169,-0.557797694,3.1616806616\H,1.89
 61230993,0.1165070039,3.8703758503\H,3.1373863047,-0.8971929462,3.1985
 481553\N,2.1594207803,-3.1287085889,-1.93058958\C,3.278532359,-2.43737
 67286,-2.2615493396\N,4.4007417763,-3.1008111368,-2.6352651688\H,4.441
 1990964,-4.1139426252,-2.5752532342\H,5.2530259765,-2.5761950364,-2.89
 37106347\N,3.324304433,-1.0603065766,-2.2662346343\H,4.2452600407,-0.5
 971096335,-2.4163918117\C,2.2405326869,-0.2725826192,-1.8978106276\O,2
 .3648862342,0.9980140734,-1.8718108658\C,1.0519950401,-0.9882473615,-1
 .5747779786\N,-0.1106062712,-0.2986671194,-1.1706663583\H,-0.016325386
 7,0.7130677834,-1.0644243698\C,-1.2361517294,-0.9356250561,-0.74837088
 95\C,-1.377509477,-2.3646953698,-1.3056393152\H,-2.0677032083,-2.87904
 46699,-0.7585807168\H,-1.7241633988,-2.3127336269,-2.2705732864\N,-0.0
 927960419,-3.0615499747,-1.2436442353\H,-0.09315829,-4.0757999694,-1.3
 121890248\C,1.0545585403,-2.3931429031,-1.593637478\C,-2.5577183327,-0
 .1006964131,-0.7726203592\H,-2.9302620877,-0.0098956652,0.1745710947\H
 ,-3.2430149048,-0.630202182,-1.318969872\N,-2.4001753257,1.2476200079,
 -1.3170073258\H,-2.6994488723,1.9978456794,-0.6946548479\C,-2.22797231
 04,2.1295547774,-5.425133767\C,-2.3902025785,3.1480729231,-4.456852077
 9\H,-2.4450796024,4.1139426252,-4.7755170345\C,-2.4497351519,2.8618859
 338,-3.1307439835\H,-2.5560356625,3.6127567909,-2.4500270146\C,-2.3638
 824946,1.521252891,-2.6775118871\C,-2.2148706428,0.4978600698,-3.64252
 95084\H,-2.1592141058,-0.4772513289,-3.3532727925\C,-2.1468400409,0.80
 14559672,-4.9663467347\H,-2.0451271222,0.0381265952,-5.633519111\C,-2.
 1350997934,2.4819691953,-6.8453034676\O,-2.408113428,3.6615628875,-7.2
 644878717\N,-1.732095778,1.5312954498,-7.7418702055\H,-1.5642783889,0.
 5724452353,-7.4557320285\H,-5.0090701058,-0.2705724848,6.5435587622\H,
 -1.6512819082,1.7012373132,-8.8155037004\\Version=ES64L-G16RevA.03\HF=
 -1876.4297773\RMSD=7.644e-10\RMSF=2.674e-02\Dipole=0.2164541,-3.348473
 7,4.0286435\Quadrupole=16.9513893,-43.1496143,26.198225,-7.4153406,-50
 .8571697,50.3189617\PG=C01 [X(C24H30N9O6)]\\@


 THERE'S NOTHING SO GREAT AS THE GREAT OUTDOORS.

                                       -- ZIGGY
 Job cpu time:       0 days  7 hours 44 minutes 31.2 seconds.
 Elapsed time:       0 days  0 hours 29 minutes  6.5 seconds.
 File lengths (MBytes):  RWF=   1039 Int=      0 D2E=      0 Chk=    113 Scr=      1
 Normal termination of Gaussian 16 at Sat Jun 22 17:47:38 2024.
