 Entering Gaussian System, Link 0=g16
 Initial command:
 /storage/apps/GAUSSIAN/G16_RevA03/g16/l1.exe "/scratch/tmp/2140818/Gau-127048.inp" -scrdir="/scratch/tmp/2140818/"
 Entering Link 1 = /storage/apps/GAUSSIAN/G16_RevA03/g16/l1.exe PID=    127049.
  
 Copyright (c) 1988,1990,1992,1993,1995,1998,2003,2009,2016,
            Gaussian, Inc.  All Rights Reserved.
  
 This is part of the Gaussian(R) 16 program.  It is based on
 the Gaussian(R) 09 system (copyright 2009, Gaussian, Inc.),
 the Gaussian(R) 03 system (copyright 2003, Gaussian, Inc.),
 the Gaussian(R) 98 system (copyright 1998, Gaussian, Inc.),
 the Gaussian(R) 94 system (copyright 1995, Gaussian, Inc.),
 the Gaussian 92(TM) system (copyright 1992, Gaussian, Inc.),
 the Gaussian 90(TM) system (copyright 1990, Gaussian, Inc.),
 the Gaussian 88(TM) system (copyright 1988, Gaussian, Inc.),
 the Gaussian 86(TM) system (copyright 1986, Carnegie Mellon
 University), and the Gaussian 82(TM) system (copyright 1983,
 Carnegie Mellon University). Gaussian is a federally registered
 trademark of Gaussian, Inc.
  
 This software contains proprietary and confidential information,
 including trade secrets, belonging to Gaussian, Inc.
  
 This software is provided under written license and may be
 used, copied, transmitted, or stored only in accord with that
 written license.
  
 The following legend is applicable only to US Government
 contracts under FAR:
  
                    RESTRICTED RIGHTS LEGEND
  
 Use, reproduction and disclosure by the US Government is
 subject to restrictions as set forth in subparagraphs (a)
 and (c) of the Commercial Computer Software - Restricted
 Rights clause in FAR 52.227-19.
  
 Gaussian, Inc.
 340 Quinnipiac St., Bldg. 40, Wallingford CT 06492
  
  
 ---------------------------------------------------------------
 Warning -- This program may not be used in any manner that
 competes with the business of Gaussian, Inc. or will provide
 assistance to any competitor of Gaussian, Inc.  The licensee
 of this program is prohibited from giving any competitor of
 Gaussian, Inc. access to this program.  By using this program,
 the user acknowledges that Gaussian, Inc. is engaged in the
 business of creating and licensing software in the field of
 computational chemistry and represents and warrants to the
 licensee that it is not a competitor of Gaussian, Inc. and that
 it will not use this program in any manner prohibited above.
 ---------------------------------------------------------------
  

 Cite this work as:
 Gaussian 16, Revision A.03,
 M. J. Frisch, G. W. Trucks, H. B. Schlegel, G. E. Scuseria, 
 M. A. Robb, J. R. Cheeseman, G. Scalmani, V. Barone, 
 G. A. Petersson, H. Nakatsuji, X. Li, M. Caricato, A. V. Marenich, 
 J. Bloino, B. G. Janesko, R. Gomperts, B. Mennucci, H. P. Hratchian, 
 J. V. Ortiz, A. F. Izmaylov, J. L. Sonnenberg, D. Williams-Young, 
 F. Ding, F. Lipparini, F. Egidi, J. Goings, B. Peng, A. Petrone, 
 T. Henderson, D. Ranasinghe, V. G. Zakrzewski, J. Gao, N. Rega, 
 G. Zheng, W. Liang, M. Hada, M. Ehara, K. Toyota, R. Fukuda, 
 J. Hasegawa, M. Ishida, T. Nakajima, Y. Honda, O. Kitao, H. Nakai, 
 T. Vreven, K. Throssell, J. A. Montgomery, Jr., J. E. Peralta, 
 F. Ogliaro, M. J. Bearpark, J. J. Heyd, E. N. Brothers, K. N. Kudin, 
 V. N. Staroverov, T. A. Keith, R. Kobayashi, J. Normand, 
 K. Raghavachari, A. P. Rendell, J. C. Burant, S. S. Iyengar, 
 J. Tomasi, M. Cossi, J. M. Millam, M. Klene, C. Adamo, R. Cammi, 
 J. W. Ochterski, R. L. Martin, K. Morokuma, O. Farkas, 
 J. B. Foresman, and D. J. Fox, Gaussian, Inc., Wallingford CT, 2016.
 
 ******************************************
 Gaussian 16:  ES64L-G16RevA.03 25-Dec-2016
                22-Jun-2024 
 ******************************************
 %chk=gau_job.chk
 %NProcShared=16
 Will use up to   16 processors via shared memory.
 %mem=20GB
 ----------------------------------------------------------------------
 #P M062X/Def2TZVP scf=(direct,conver=8) EmpiricalDispersion=GD3 NoSymm
  force Charge Prop=(Field,Read)
 ----------------------------------------------------------------------
 1/10=7,18=10,28=-2,30=1,38=1,125=101/1,3;
 2/12=2,15=1,17=6,18=5,29=2,40=1/2;
 3/5=44,7=101,11=2,25=1,30=1,71=1,74=-55,124=31/1,2,3;
 4//1;
 5/5=2,6=8,38=5/2;
 6/7=2,8=2,9=2,10=2,14=2,15=1,28=1/1,2;
 7/7=1,16=-2,29=1,30=1/1,2,3,16;
 1/10=7,18=10,28=-2,30=1/3;
 99/12=1/99;
 Leave Link    1 at Sat Jun 22 17:18:31 2024, MaxMem=  2684354560 cpu:               0.8 elap:               0.1
 (Enter /storage/apps/GAUSSIAN/G16_RevA03/g16/l101.exe)
 ----------------------------------------------------------------------
 Gaussian run using SANDER external interface, route from template gau_
 job.tpl
 ----------------------------------------------------------------------
 Symbolic Z-matrix:
 Charge =  1 Multiplicity = 1
 C                    -4.14346   0.36963   6.71701 
 H                    -3.95813   0.42959   7.72146 
 O                    -2.96971  -0.21964   6.0616 
 C                    -4.28694   1.76525   6.10537 
 H                    -5.25368   2.11059   6.09341 
 O                    -3.45617   2.73998   6.78475 
 H                    -3.64993   2.80425   7.74175 
 C                    -3.67452   1.59975   4.70406 
 H                    -4.33713   1.185     4.04094 
 O                    -3.22159   2.84782   4.17888 
 H                    -3.01813   3.40865   4.95193 
 C                    -2.48942   0.64272   4.99835 
 H                    -1.67503   1.17296   5.33155 
 N                    -2.04585  -0.19859   3.87306 
 C                    -0.70506  -0.24703   3.56762 
 H                    -0.11399   0.34716   4.14505 
 C                    -0.19913  -1.06114   2.61597 
 C                    -1.11289  -1.83755   1.76455 
 H                    -0.73366  -2.73707   1.46234 
 H                    -1.1345   -1.29194   0.60372 
 C                    -2.49003  -1.87408   2.24912 
 H                    -3.14164  -2.53347   1.82716 
 C                    -2.91802  -1.06898   3.231 
 H                    -3.87676  -1.08931   3.57597 
 C                     1.26331  -1.29901   2.4465 
 O                     1.67304  -2.19678   1.67093 
 N                     2.17043  -0.55996   3.16176 
 H                     1.88977   0.11445   3.86989 
 H                     3.13384  -0.89476   3.19578 
 N                     2.15803  -3.1313   -1.93826 
 C                     3.27789  -2.43884  -2.26445 
 N                     4.40188  -3.10031  -2.6366 
 H                     4.44308  -4.11363  -2.5816 
 H                     5.25368  -2.574    -2.89367 
 N                     3.32385  -1.06182  -2.26374 
 H                     4.2447   -0.59808  -2.41256 
 C                     2.24043  -0.27523  -1.89208 
 O                     2.36549   0.99533  -1.86236 
 C                     1.05217  -0.99199  -1.57037 
 N                    -0.11163  -0.30317  -1.16804 
 H                    -0.01868   0.7085   -1.06009 
 C                    -1.23874  -0.94123  -0.74933 
 C                    -1.37915  -2.36893  -1.31249 
 H                    -2.07058  -2.8855   -0.76927 
 H                    -1.72293  -2.31506  -2.27849 
 N                    -0.09432  -3.06582  -1.24864 
 H                    -0.09446  -4.0804   -1.31347 
 C                     1.05364  -2.39676  -1.5967 
 C                    -2.55784  -0.10181  -0.77065 
 H                    -2.92421  -0.00836   0.17855 
 H                    -3.24915  -0.62838  -1.31236 
 N                    -2.39776   1.2469   -1.3151 
 H                    -2.7057    1.99511  -0.69432 
 C                    -2.22775   2.12941  -5.42433 
 C                    -2.39111   3.14764  -4.45566 
 H                    -2.44768   4.11363  -4.77366 
 C                    -2.45045   2.86136  -3.12946 
 H                    -2.55861   3.61236  -2.44916 
 C                    -2.36259   1.52092  -2.67589 
 C                    -2.21299   0.49799  -3.64101 
 H                    -2.15712  -0.47705  -3.3516 
 C                    -2.14607   0.80142  -4.96497 
 H                    -2.0455    0.0378   -5.63197 
 C                    -2.13513   2.48119  -6.84504 
 O                    -2.40806   3.66061  -7.26472 
 N                    -1.7326    1.53023  -7.74175 
 H                    -1.56512   0.57132  -7.4556 
 H                    -5.00868  -0.26993   6.5425 
 H                    -1.65182   1.69982  -8.81544 
 
 ITRead=  0  0  0  0  0  0  0  0  0  0  0  0  0  0  0  0  0  0  0  0
 ITRead=  0  0  0  0  0  0  0  0  0  0  0  0  0  0  0  0  0  0  0  0
 ITRead=  0  0  0  0  0  0  0  0  0  0  0  0  0  0  0  0  0  0  0  0
 ITRead=  0  0  0  0  0  0  0  0  0
 MicOpt= -1 -1 -1 -1 -1 -1 -1 -1 -1 -1 -1 -1 -1 -1 -1 -1 -1 -1 -1 -1
 MicOpt= -1 -1 -1 -1 -1 -1 -1 -1 -1 -1 -1 -1 -1 -1 -1 -1 -1 -1 -1 -1
 MicOpt= -1 -1 -1 -1 -1 -1 -1 -1 -1 -1 -1 -1 -1 -1 -1 -1 -1 -1 -1 -1
 MicOpt= -1 -1 -1 -1 -1 -1 -1 -1 -1
 NAtoms=     69 NQM=       69 NQMF=       0 NMMI=      0 NMMIF=      0
                NMic=       0 NMicF=      0.
                    Isotopes and Nuclear Properties:
 (Nuclear quadrupole moments (NQMom) in fm**2, nuclear magnetic moments (NMagM)
  in nuclear magnetons)

  Atom         1           2           3           4           5           6           7           8           9          10
 IAtWgt=          12           1          16          12           1          16           1          12           1          16
 AtmWgt=  12.0000000   1.0078250  15.9949146  12.0000000   1.0078250  15.9949146   1.0078250  12.0000000   1.0078250  15.9949146
 NucSpn=           0           1           0           0           1           0           1           0           1           0
 AtZEff=  -0.0000000  -0.0000000  -0.0000000  -0.0000000  -0.0000000  -0.0000000  -0.0000000  -0.0000000  -0.0000000  -0.0000000
 NQMom=    0.0000000   0.0000000   0.0000000   0.0000000   0.0000000   0.0000000   0.0000000   0.0000000   0.0000000   0.0000000
 NMagM=    0.0000000   2.7928460   0.0000000   0.0000000   2.7928460   0.0000000   2.7928460   0.0000000   2.7928460   0.0000000
 AtZNuc=   6.0000000   1.0000000   8.0000000   6.0000000   1.0000000   8.0000000   1.0000000   6.0000000   1.0000000   8.0000000

  Atom        11          12          13          14          15          16          17          18          19          20
 IAtWgt=           1          12           1          14          12           1          12          12           1           1
 AtmWgt=   1.0078250  12.0000000   1.0078250  14.0030740  12.0000000   1.0078250  12.0000000  12.0000000   1.0078250   1.0078250
 NucSpn=           1           0           1           2           0           1           0           0           1           1
 AtZEff=  -0.0000000  -0.0000000  -0.0000000  -0.0000000  -0.0000000  -0.0000000  -0.0000000  -0.0000000  -0.0000000  -0.0000000
 NQMom=    0.0000000   0.0000000   0.0000000   2.0440000   0.0000000   0.0000000   0.0000000   0.0000000   0.0000000   0.0000000
 NMagM=    2.7928460   0.0000000   2.7928460   0.4037610   0.0000000   2.7928460   0.0000000   0.0000000   2.7928460   2.7928460
 AtZNuc=   1.0000000   6.0000000   1.0000000   7.0000000   6.0000000   1.0000000   6.0000000   6.0000000   1.0000000   1.0000000

  Atom        21          22          23          24          25          26          27          28          29          30
 IAtWgt=          12           1          12           1          12          16          14           1           1          14
 AtmWgt=  12.0000000   1.0078250  12.0000000   1.0078250  12.0000000  15.9949146  14.0030740   1.0078250   1.0078250  14.0030740
 NucSpn=           0           1           0           1           0           0           2           1           1           2
 AtZEff=  -0.0000000  -0.0000000  -0.0000000  -0.0000000  -0.0000000  -0.0000000  -0.0000000  -0.0000000  -0.0000000  -0.0000000
 NQMom=    0.0000000   0.0000000   0.0000000   0.0000000   0.0000000   0.0000000   2.0440000   0.0000000   0.0000000   2.0440000
 NMagM=    0.0000000   2.7928460   0.0000000   2.7928460   0.0000000   0.0000000   0.4037610   2.7928460   2.7928460   0.4037610
 AtZNuc=   6.0000000   1.0000000   6.0000000   1.0000000   6.0000000   8.0000000   7.0000000   1.0000000   1.0000000   7.0000000

  Atom        31          32          33          34          35          36          37          38          39          40
 IAtWgt=          12          14           1           1          14           1          12          16          12          14
 AtmWgt=  12.0000000  14.0030740   1.0078250   1.0078250  14.0030740   1.0078250  12.0000000  15.9949146  12.0000000  14.0030740
 NucSpn=           0           2           1           1           2           1           0           0           0           2
 AtZEff=  -0.0000000  -0.0000000  -0.0000000  -0.0000000  -0.0000000  -0.0000000  -0.0000000  -0.0000000  -0.0000000  -0.0000000
 NQMom=    0.0000000   2.0440000   0.0000000   0.0000000   2.0440000   0.0000000   0.0000000   0.0000000   0.0000000   2.0440000
 NMagM=    0.0000000   0.4037610   2.7928460   2.7928460   0.4037610   2.7928460   0.0000000   0.0000000   0.0000000   0.4037610
 AtZNuc=   6.0000000   7.0000000   1.0000000   1.0000000   7.0000000   1.0000000   6.0000000   8.0000000   6.0000000   7.0000000

  Atom        41          42          43          44          45          46          47          48          49          50
 IAtWgt=           1          12          12           1           1          14           1          12          12           1
 AtmWgt=   1.0078250  12.0000000  12.0000000   1.0078250   1.0078250  14.0030740   1.0078250  12.0000000  12.0000000   1.0078250
 NucSpn=           1           0           0           1           1           2           1           0           0           1
 AtZEff=  -0.0000000  -0.0000000  -0.0000000  -0.0000000  -0.0000000  -0.0000000  -0.0000000  -0.0000000  -0.0000000  -0.0000000
 NQMom=    0.0000000   0.0000000   0.0000000   0.0000000   0.0000000   2.0440000   0.0000000   0.0000000   0.0000000   0.0000000
 NMagM=    2.7928460   0.0000000   0.0000000   2.7928460   2.7928460   0.4037610   2.7928460   0.0000000   0.0000000   2.7928460
 AtZNuc=   1.0000000   6.0000000   6.0000000   1.0000000   1.0000000   7.0000000   1.0000000   6.0000000   6.0000000   1.0000000

  Atom        51          52          53          54          55          56          57          58          59          60
 IAtWgt=           1          14           1          12          12           1          12           1          12          12
 AtmWgt=   1.0078250  14.0030740   1.0078250  12.0000000  12.0000000   1.0078250  12.0000000   1.0078250  12.0000000  12.0000000
 NucSpn=           1           2           1           0           0           1           0           1           0           0
 AtZEff=  -0.0000000  -0.0000000  -0.0000000  -0.0000000  -0.0000000  -0.0000000  -0.0000000  -0.0000000  -0.0000000  -0.0000000
 NQMom=    0.0000000   2.0440000   0.0000000   0.0000000   0.0000000   0.0000000   0.0000000   0.0000000   0.0000000   0.0000000
 NMagM=    2.7928460   0.4037610   2.7928460   0.0000000   0.0000000   2.7928460   0.0000000   2.7928460   0.0000000   0.0000000
 AtZNuc=   1.0000000   7.0000000   1.0000000   6.0000000   6.0000000   1.0000000   6.0000000   1.0000000   6.0000000   6.0000000

  Atom        61          62          63          64          65          66          67          68          69
 IAtWgt=           1          12           1          12          16          14           1           1           1
 AtmWgt=   1.0078250  12.0000000   1.0078250  12.0000000  15.9949146  14.0030740   1.0078250   1.0078250   1.0078250
 NucSpn=           1           0           1           0           0           2           1           1           1
 AtZEff=  -0.0000000  -0.0000000  -0.0000000  -0.0000000  -0.0000000  -0.0000000  -0.0000000  -0.0000000  -0.0000000
 NQMom=    0.0000000   0.0000000   0.0000000   0.0000000   0.0000000   2.0440000   0.0000000   0.0000000   0.0000000
 NMagM=    2.7928460   0.0000000   2.7928460   0.0000000   0.0000000   0.4037610   2.7928460   2.7928460   2.7928460
 AtZNuc=   1.0000000   6.0000000   1.0000000   6.0000000   8.0000000   7.0000000   1.0000000   1.0000000   1.0000000
 Background charge distribution read from input stream:
 Leave Link  101 at Sat Jun 22 17:18:32 2024, MaxMem=  2684354560 cpu:               2.0 elap:               0.2
 (Enter /storage/apps/GAUSSIAN/G16_RevA03/g16/l103.exe)

 GradGradGradGradGradGradGradGradGradGradGradGradGradGradGradGradGradGrad
 Berny optimization.
 Initialization pass.
 Trust Radius=3.00D-01 FncErr=1.00D-07 GrdErr=1.00D-07 EigMax=2.50D+02 EigMin=1.00D-04
 Number of steps in this run=      2 maximum allowed number of steps=      2.
 GradGradGradGradGradGradGradGradGradGradGradGradGradGradGradGradGradGrad

 Leave Link  103 at Sat Jun 22 17:18:32 2024, MaxMem=  2684354560 cpu:               0.3 elap:               0.1
 (Enter /storage/apps/GAUSSIAN/G16_RevA03/g16/l202.exe)
 Symmetry turned off by external request.
 Stoichiometry    C24H30N9O6(1+)
 Framework group  C1[X(C24H30N9O6)]
 Deg. of freedom   201
 Full point group                 C1      NOp   1
                          Input orientation:                          
 ---------------------------------------------------------------------
 Center     Atomic      Atomic             Coordinates (Angstroms)
 Number     Number       Type             X           Y           Z
 ---------------------------------------------------------------------
      1          6           0       -4.143462    0.369632    6.717005
      2          1           0       -3.958127    0.429587    7.721461
      3          8           0       -2.969708   -0.219645    6.061603
      4          6           0       -4.286944    1.765248    6.105366
      5          1           0       -5.253684    2.110593    6.093412
      6          8           0       -3.456168    2.739984    6.784749
      7          1           0       -3.649926    2.804251    7.741751
      8          6           0       -3.674517    1.599745    4.704062
      9          1           0       -4.337128    1.184997    4.040939
     10          8           0       -3.221586    2.847822    4.178880
     11          1           0       -3.018132    3.408653    4.951929
     12          6           0       -2.489420    0.642720    4.998351
     13          1           0       -1.675029    1.172961    5.331547
     14          7           0       -2.045854   -0.198593    3.873055
     15          6           0       -0.705059   -0.247031    3.567620
     16          1           0       -0.113987    0.347157    4.145055
     17          6           0       -0.199132   -1.061137    2.615968
     18          6           0       -1.112890   -1.837550    1.764550
     19          1           0       -0.733656   -2.737070    1.462336
     20          1           0       -1.134498   -1.291937    0.603722
     21          6           0       -2.490032   -1.874078    2.249124
     22          1           0       -3.141639   -2.533470    1.827162
     23          6           0       -2.918021   -1.068979    3.231004
     24          1           0       -3.876760   -1.089313    3.575969
     25          6           0        1.263308   -1.299007    2.446501
     26          8           0        1.673041   -2.196781    1.670932
     27          7           0        2.170426   -0.559960    3.161758
     28          1           0        1.889773    0.114451    3.869886
     29          1           0        3.133841   -0.894758    3.195782
     30          7           0        2.158032   -3.131302   -1.938261
     31          6           0        3.277887   -2.438842   -2.264447
     32          7           0        4.401877   -3.100313   -2.636603
     33          1           0        4.443085   -4.113626   -2.581603
     34          1           0        5.253684   -2.573996   -2.893672
     35          7           0        3.323850   -1.061823   -2.263744
     36          1           0        4.244699   -0.598080   -2.412560
     37          6           0        2.240427   -0.275234   -1.892079
     38          8           0        2.365486    0.995334   -1.862355
     39          6           0        1.052172   -0.991988   -1.570367
     40          7           0       -0.111625   -0.303173   -1.168042
     41          1           0       -0.018675    0.708501   -1.060090
     42          6           0       -1.238736   -0.941227   -0.749332
     43          6           0       -1.379154   -2.368927   -1.312489
     44          1           0       -2.070582   -2.885499   -0.769268
     45          1           0       -1.722925   -2.315057   -2.278493
     46          7           0       -0.094320   -3.065823   -1.248641
     47          1           0       -0.094461   -4.080401   -1.313474
     48          6           0        1.053638   -2.396762   -1.596695
     49          6           0       -2.557838   -0.101811   -0.770654
     50          1           0       -2.924211   -0.008356    0.178553
     51          1           0       -3.249154   -0.628376   -1.312362
     52          7           0       -2.397764    1.246903   -1.315098
     53          1           0       -2.705704    1.995110   -0.694316
     54          6           0       -2.227755    2.129407   -5.424329
     55          6           0       -2.391114    3.147635   -4.455657
     56          1           0       -2.447676    4.113626   -4.773665
     57          6           0       -2.450451    2.861358   -3.129461
     58          1           0       -2.558605    3.612359   -2.449159
     59          6           0       -2.362594    1.520923   -2.675888
     60          6           0       -2.212990    0.497993   -3.641009
     61          1           0       -2.157125   -0.477051   -3.351605
     62          6           0       -2.146074    0.801419   -4.964968
     63          1           0       -2.045499    0.037801   -5.631969
     64          6           0       -2.135133    2.481193   -6.845044
     65          8           0       -2.408059    3.660607   -7.264723
     66          7           0       -1.732598    1.530235   -7.741751
     67          1           0       -1.565119    0.571325   -7.455600
     68          1           0       -5.008683   -0.269933    6.542504
     69          1           0       -1.651816    1.699823   -8.815443
 ---------------------------------------------------------------------
 Rotational constants (GHZ):           0.1095871           0.0519477           0.0392127
 Leave Link  202 at Sat Jun 22 17:18:32 2024, MaxMem=  2684354560 cpu:               0.3 elap:               0.0
 (Enter /storage/apps/GAUSSIAN/G16_RevA03/g16/l301.exe)
 Standard basis: def2TZVP (5D, 7F)
 Ernie: Thresh=  0.10000D-02 Tol=  0.10000D-05 Strict=F.
  1389 basis functions,  2229 primitive gaussians,  1584 cartesian basis functions
   142 alpha electrons      142 beta electrons
       nuclear repulsion energy      4439.2485442706 Hartrees.
 IExCor= 4336 DFT=T Ex+Corr=M062X ExCW=0 ScaHFX=  0.540000
 ScaDFX=  1.000000  1.000000  1.000000  1.000000 ScalE2=  1.000000  1.000000
 IRadAn=      5 IRanWt=     -1 IRanGd=            0 ICorTp=0 IEmpDi=131
 NAtoms=   69 NActive=   69 NUniq=   69 SFac= 1.00D+00 NAtFMM=   60 NAOKFM=T Big=T
 Integral buffers will be    131072 words long.
 Raffenetti 2 integral format.
 Two-electron integral symmetry is turned off.
 R6Disp:  Grimme-D3 Dispersion energy=       -0.0064993334 Hartrees.
 Nuclear repulsion after empirical dispersion term =     4439.2420449373 Hartrees.
 Leave Link  301 at Sat Jun 22 17:18:32 2024, MaxMem=  2684354560 cpu:               1.3 elap:               0.1
 (Enter /storage/apps/GAUSSIAN/G16_RevA03/g16/l302.exe)
 NPDir=0 NMtPBC=     1 NCelOv=     1 NCel=       1 NClECP=     1 NCelD=      1
         NCelK=      1 NCelE2=     1 NClLst=     1 CellRange=     0.0.
 One-electron integrals computed using PRISM.
   1 Symmetry operations used in ECPInt.
 ECPInt:  NShTT=  150975 NPrTT=  462228 LenC2=  107357 LenP2D=  217232.
 LDataN:  DoStor=T MaxTD1= 6 Len=  172
 NBasis=  1389 RedAO= T EigKep=  5.90D-06  NBF=  1389
 NBsUse=  1389 1.00D-06 EigRej= -1.00D+00 NBFU=  1389
 Precomputing XC quadrature grid using
 IXCGrd= 4 IRadAn=           5 IRanWt=          -1 IRanGd=           0 AccXCQ= 0.00D+00.
 Generated NRdTot=       0 NPtTot=           0 NUsed=           0 NTot=          32
 NSgBfM=  1496  1486  1493  1495  1496 MxSgAt=    69 MxSgA2=    69.
 Leave Link  302 at Sat Jun 22 17:18:35 2024, MaxMem=  2684354560 cpu:              48.2 elap:               3.1
 (Enter /storage/apps/GAUSSIAN/G16_RevA03/g16/l303.exe)
 DipDrv:  MaxL=1.
 Leave Link  303 at Sat Jun 22 17:18:35 2024, MaxMem=  2684354560 cpu:               4.2 elap:               0.3
 (Enter /storage/apps/GAUSSIAN/G16_RevA03/g16/l401.exe)
 ExpMin= 9.52D-02 ExpMax= 2.70D+04 ExpMxC= 9.22D+02 IAcc=3 IRadAn=         5 AccDes= 0.00D+00
 Harris functional with IExCor= 1009 and IRadAn=       5 diagonalized for initial guess.
 HarFok:  IExCor= 1009 AccDes= 0.00D+00 IRadAn=         5 IDoV= 1 UseB2=F ITyADJ=14
 ICtDFT=  3500011 ScaDFX=  1.000000  1.000000  1.000000  1.000000
 FoFCou: FMM=F IPFlag=           0 FMFlag=      100000 FMFlg1=        2001
         NFxFlg=           0 DoJE=T BraDBF=F KetDBF=T FulRan=T
         wScrn=  0.000000 ICntrl=       500 IOpCl=  0 I1Cent=   200000004 NGrid=           0
         NMat0=    1 NMatS0=      1 NMatT0=    0 NMatD0=    1 NMtDS0=    0 NMtDT0=    0
 Symmetry not used in FoFCou.
 Harris En= -1875.48170105873    
 JPrj=0 DoOrth=F DoCkMO=F.
 Leave Link  401 at Sat Jun 22 17:18:42 2024, MaxMem=  2684354560 cpu:             104.6 elap:               6.6
 (Enter /storage/apps/GAUSSIAN/G16_RevA03/g16/l502.exe)
 Two-electron integral symmetry not used.
 Closed shell SCF:
 Using DIIS extrapolation, IDIIS=  1040.
 NGot=  2684354560 LenX=  2679300873 LenY=  2676790233
 Requested convergence on RMS density matrix=1.00D-08 within 128 cycles.
 Requested convergence on MAX density matrix=1.00D-06.
 Requested convergence on             energy=1.00D-06.
 No special actions if energy rises.
 Fock matrices will be formed incrementally for  20 cycles.
 Integral accuracy reduced to 1.0D-05 until final iterations.

 Cycle   1  Pass 0  IDiag  1:
 FoFJK:  IHMeth= 1 ICntrl=       0 DoSepK=F KAlg= 0 I1Cent=           0 FoldK=F
 IRaf= 700000000 NMat=       1 IRICut=       1 DoRegI=T DoRafI=F ISym2E= 0 IDoP0=0 IntGTp=1.
 FoFCou: FMM=T IPFlag=           0 FMFlag=      100000 FMFlg1=        2001
         NFxFlg=           0 DoJE=F BraDBF=F KetDBF=F FulRan=T
         wScrn=  0.000000 ICntrl=         0 IOpCl=  0 I1Cent=           0 NGrid=           0
         NMat0=    1 NMatS0=      1 NMatT0=    0 NMatD0=    1 NMtDS0=    0 NMtDT0=    0
 Symmetry not used in FoFCou.
 FMM levels:  10  Number of levels for PrismC:   9
 E= -1875.49150987525    
 DIIS: error= 1.35D-02 at cycle   1 NSaved=   1.
 NSaved= 1 IEnMin= 1 EnMin= -1875.49150987525     IErMin= 1 ErrMin= 1.35D-02
 ErrMax= 1.35D-02  0.00D+00 EMaxC= 1.00D-01 BMatC= 1.34D+00 BMatP= 1.34D+00
 IDIUse=3 WtCom= 8.65D-01 WtEn= 1.35D-01
 Coeff-Com:  0.100D+01
 Coeff-En:   0.100D+01
 Coeff:      0.100D+01
 Gap=     0.158 Goal=   None    Shift=    0.000
 GapD=    0.158 DampG=1.000 DampE=0.500 DampFc=0.5000 IDamp=-1.
 Damping current iteration by 5.00D-01
 RMSDP=5.94D+01 MaxDP=1.18D+04              OVMax= 9.98D-01

 Problem detected with inexpensive integrals.
 Switching to full accuracy and repeating last cycle.
 Cycle   2  Pass 1  IDiag  1:
 E= -1875.49172006295     Delta-E=       -0.000210187706 Rises=F Damp=F
 DIIS: error= 1.35D-02 at cycle   1 NSaved=   1.
 NSaved= 1 IEnMin= 1 EnMin= -1875.49172006295     IErMin= 1 ErrMin= 1.35D-02
 ErrMax= 1.35D-02  0.00D+00 EMaxC= 1.00D-01 BMatC= 1.34D+00 BMatP= 1.34D+00
 IDIUse=3 WtCom= 8.65D-01 WtEn= 1.35D-01
 Coeff-Com:  0.100D+01
 Coeff-En:   0.100D+01
 Coeff:      0.100D+01
 Gap=     0.158 Goal=   None    Shift=    0.000
 GapD=    0.158 DampG=1.000 DampE=0.500 DampFc=0.5000 IDamp=-1.
 Damping current iteration by 5.00D-01
 RMSDP=3.81D-03 MaxDP=1.15D+00 DE=-2.10D-04 OVMax= 2.93D-01

 Cycle   3  Pass 1  IDiag  1:
 RMSU=  1.90D-03    CP:  1.03D+00
 E= -1875.90131412342     Delta-E=       -0.409594060471 Rises=F Damp=T
 DIIS: error= 4.99D-03 at cycle   2 NSaved=   2.
 NSaved= 2 IEnMin= 2 EnMin= -1875.90131412342     IErMin= 2 ErrMin= 4.99D-03
 ErrMax= 4.99D-03  0.00D+00 EMaxC= 1.00D-01 BMatC= 1.56D-01 BMatP= 1.34D+00
 IDIUse=3 WtCom= 9.50D-01 WtEn= 4.99D-02
 Coeff-Com:  0.314D-02 0.997D+00
 Coeff-En:   0.591D-01 0.941D+00
 Coeff:      0.593D-02 0.994D+00
 Gap=     0.245 Goal=   None    Shift=    0.000
 GapD=    0.245 DampG=1.000 DampE=1.000 DampFc=1.0000 IDamp=-1.
 RMSDP=1.32D-03 MaxDP=4.02D-01 DE=-4.10D-01 OVMax= 1.50D-01

 Cycle   4  Pass 1  IDiag  1:
 RMSU=  1.00D-03    CP:  1.00D+00  5.49D-01
 E= -1876.33989881082     Delta-E=       -0.438584687394 Rises=F Damp=F
 DIIS: error= 6.15D-03 at cycle   3 NSaved=   3.
 NSaved= 3 IEnMin= 3 EnMin= -1876.33989881082     IErMin= 2 ErrMin= 4.99D-03
 ErrMax= 6.15D-03  0.00D+00 EMaxC= 1.00D-01 BMatC= 1.16D-01 BMatP= 1.56D-01
 IDIUse=3 WtCom= 9.39D-01 WtEn= 6.15D-02
 Coeff-Com: -0.104D+00 0.505D+00 0.599D+00
 Coeff-En:   0.000D+00 0.000D+00 0.100D+01
 Coeff:     -0.974D-01 0.474D+00 0.624D+00
 Gap=     0.167 Goal=   None    Shift=    0.000
 RMSDP=4.24D-04 MaxDP=1.16D-01 DE=-4.39D-01 OVMax= 6.57D-02

 Cycle   5  Pass 1  IDiag  1:
 RMSU=  2.96D-04    CP:  1.01D+00  6.88D-01  8.53D-01
 E= -1876.41665498628     Delta-E=       -0.076756175462 Rises=F Damp=F
 DIIS: error= 1.64D-03 at cycle   4 NSaved=   4.
 NSaved= 4 IEnMin= 4 EnMin= -1876.41665498628     IErMin= 4 ErrMin= 1.64D-03
 ErrMax= 1.64D-03  0.00D+00 EMaxC= 1.00D-01 BMatC= 1.63D-02 BMatP= 1.16D-01
 IDIUse=3 WtCom= 9.84D-01 WtEn= 1.64D-02
 Coeff-Com: -0.452D-01 0.121D+00 0.324D+00 0.600D+00
 Coeff-En:   0.000D+00 0.000D+00 0.968D-01 0.903D+00
 Coeff:     -0.444D-01 0.119D+00 0.320D+00 0.605D+00
 Gap=     0.161 Goal=   None    Shift=    0.000
 RMSDP=1.62D-04 MaxDP=4.36D-02 DE=-7.68D-02 OVMax= 2.06D-02

 Cycle   6  Pass 1  IDiag  1:
 RMSU=  7.04D-05    CP:  1.01D+00  6.41D-01  9.26D-01  7.01D-01
 E= -1876.42890673297     Delta-E=       -0.012251746693 Rises=F Damp=F
 DIIS: error= 3.19D-04 at cycle   5 NSaved=   5.
 NSaved= 5 IEnMin= 5 EnMin= -1876.42890673297     IErMin= 5 ErrMin= 3.19D-04
 ErrMax= 3.19D-04  0.00D+00 EMaxC= 1.00D-01 BMatC= 6.60D-04 BMatP= 1.63D-02
 IDIUse=3 WtCom= 9.97D-01 WtEn= 3.19D-03
 Coeff-Com: -0.138D-01 0.261D-01 0.106D+00 0.268D+00 0.613D+00
 Coeff-En:   0.000D+00 0.000D+00 0.000D+00 0.000D+00 0.100D+01
 Coeff:     -0.137D-01 0.260D-01 0.106D+00 0.268D+00 0.614D+00
 Gap=     0.164 Goal=   None    Shift=    0.000
 RMSDP=3.01D-05 MaxDP=4.93D-03 DE=-1.23D-02 OVMax= 8.32D-03

 Cycle   7  Pass 1  IDiag  1:
 RMSU=  2.81D-05    CP:  1.01D+00  6.40D-01  9.28D-01  7.05D-01  8.54D-01
 E= -1876.42946934887     Delta-E=       -0.000562615894 Rises=F Damp=F
 DIIS: error= 1.27D-04 at cycle   6 NSaved=   6.
 NSaved= 6 IEnMin= 6 EnMin= -1876.42946934887     IErMin= 6 ErrMin= 1.27D-04
 ErrMax= 1.27D-04  0.00D+00 EMaxC= 1.00D-01 BMatC= 8.17D-05 BMatP= 6.60D-04
 IDIUse=3 WtCom= 9.99D-01 WtEn= 1.27D-03
 Coeff-Com: -0.169D-02 0.826D-04 0.152D-01 0.561D-01 0.292D+00 0.638D+00
 Coeff-En:   0.000D+00 0.000D+00 0.000D+00 0.000D+00 0.000D+00 0.100D+01
 Coeff:     -0.169D-02 0.825D-04 0.152D-01 0.560D-01 0.292D+00 0.639D+00
 Gap=     0.164 Goal=   None    Shift=    0.000
 RMSDP=1.72D-05 MaxDP=4.90D-03 DE=-5.63D-04 OVMax= 2.65D-03

 Cycle   8  Pass 1  IDiag  1:
 RMSU=  1.09D-05    CP:  1.01D+00  6.36D-01  9.33D-01  7.11D-01  9.78D-01
                    CP:  9.01D-01
 E= -1876.42955012367     Delta-E=       -0.000080774806 Rises=F Damp=F
 DIIS: error= 4.74D-05 at cycle   7 NSaved=   7.
 NSaved= 7 IEnMin= 7 EnMin= -1876.42955012367     IErMin= 7 ErrMin= 4.74D-05
 ErrMax= 4.74D-05  0.00D+00 EMaxC= 1.00D-01 BMatC= 9.84D-06 BMatP= 8.17D-05
 IDIUse=1 WtCom= 1.00D+00 WtEn= 0.00D+00
 Coeff-Com:  0.143D-02-0.405D-02-0.916D-02-0.188D-01 0.435D-01 0.255D+00
 Coeff-Com:  0.732D+00
 Coeff:      0.143D-02-0.405D-02-0.916D-02-0.188D-01 0.435D-01 0.255D+00
 Coeff:      0.732D+00
 Gap=     0.164 Goal=   None    Shift=    0.000
 RMSDP=9.73D-06 MaxDP=1.99D-03 DE=-8.08D-05 OVMax= 2.31D-03

 Cycle   9  Pass 1  IDiag  1:
 RMSU=  4.67D-06    CP:  1.01D+00  6.33D-01  9.36D-01  7.11D-01  1.02D+00
                    CP:  1.03D+00  1.12D+00
 E= -1876.42956292085     Delta-E=       -0.000012797175 Rises=F Damp=F
 DIIS: error= 2.98D-05 at cycle   8 NSaved=   8.
 NSaved= 8 IEnMin= 8 EnMin= -1876.42956292085     IErMin= 8 ErrMin= 2.98D-05
 ErrMax= 2.98D-05  0.00D+00 EMaxC= 1.00D-01 BMatC= 3.15D-06 BMatP= 9.84D-06
 IDIUse=1 WtCom= 1.00D+00 WtEn= 0.00D+00
 Coeff-Com:  0.118D-02-0.232D-02-0.759D-02-0.223D-01-0.338D-01-0.131D-01
 Coeff-Com:  0.394D+00 0.684D+00
 Coeff:      0.118D-02-0.232D-02-0.759D-02-0.223D-01-0.338D-01-0.131D-01
 Coeff:      0.394D+00 0.684D+00
 Gap=     0.164 Goal=   None    Shift=    0.000
 RMSDP=4.73D-06 MaxDP=1.34D-03 DE=-1.28D-05 OVMax= 1.13D-03

 Cycle  10  Pass 1  IDiag  1:
 RMSU=  2.38D-06    CP:  1.01D+00  6.32D-01  9.38D-01  7.08D-01  1.04D+00
                    CP:  1.08D+00  1.30D+00  9.04D-01
 E= -1876.42956691381     Delta-E=       -0.000003992965 Rises=F Damp=F
 DIIS: error= 8.83D-06 at cycle   9 NSaved=   9.
 NSaved= 9 IEnMin= 9 EnMin= -1876.42956691381     IErMin= 9 ErrMin= 8.83D-06
 ErrMax= 8.83D-06  0.00D+00 EMaxC= 1.00D-01 BMatC= 3.67D-07 BMatP= 3.15D-06
 IDIUse=1 WtCom= 1.00D+00 WtEn= 0.00D+00
 Coeff-Com:  0.373D-03-0.590D-03-0.210D-02-0.787D-02-0.191D-01-0.421D-01
 Coeff-Com:  0.926D-01 0.301D+00 0.678D+00
 Coeff:      0.373D-03-0.590D-03-0.210D-02-0.787D-02-0.191D-01-0.421D-01
 Coeff:      0.926D-01 0.301D+00 0.678D+00
 Gap=     0.164 Goal=   None    Shift=    0.000
 RMSDP=1.38D-06 MaxDP=2.52D-04 DE=-3.99D-06 OVMax= 4.16D-04

 Cycle  11  Pass 1  IDiag  1:
 RMSU=  8.31D-07    CP:  1.01D+00  6.31D-01  9.38D-01  7.08D-01  1.05D+00
                    CP:  1.09D+00  1.35D+00  1.04D+00  1.06D+00
 E= -1876.42956740369     Delta-E=       -0.000000489874 Rises=F Damp=F
 DIIS: error= 3.84D-06 at cycle  10 NSaved=  10.
 NSaved=10 IEnMin=10 EnMin= -1876.42956740369     IErMin=10 ErrMin= 3.84D-06
 ErrMax= 3.84D-06  0.00D+00 EMaxC= 1.00D-01 BMatC= 6.76D-08 BMatP= 3.67D-07
 IDIUse=1 WtCom= 1.00D+00 WtEn= 0.00D+00
 Coeff-Com: -0.998D-04 0.260D-03 0.869D-03 0.152D-02-0.217D-03-0.188D-01
 Coeff-Com: -0.423D-01-0.250D-01 0.308D+00 0.776D+00
 Coeff:     -0.998D-04 0.260D-03 0.869D-03 0.152D-02-0.217D-03-0.188D-01
 Coeff:     -0.423D-01-0.250D-01 0.308D+00 0.776D+00
 Gap=     0.164 Goal=   None    Shift=    0.000
 RMSDP=8.29D-07 MaxDP=1.60D-04 DE=-4.90D-07 OVMax= 2.69D-04

 Cycle  12  Pass 1  IDiag  1:
 RMSU=  3.60D-07    CP:  1.01D+00  6.31D-01  9.38D-01  7.07D-01  1.05D+00
                    CP:  1.09D+00  1.39D+00  1.07D+00  1.26D+00  1.00D+00
 E= -1876.42956751923     Delta-E=       -0.000000115540 Rises=F Damp=F
 DIIS: error= 2.04D-06 at cycle  11 NSaved=  11.
 NSaved=11 IEnMin=11 EnMin= -1876.42956751923     IErMin=11 ErrMin= 2.04D-06
 ErrMax= 2.04D-06  0.00D+00 EMaxC= 1.00D-01 BMatC= 1.34D-08 BMatP= 6.76D-08
 IDIUse=1 WtCom= 1.00D+00 WtEn= 0.00D+00
 Coeff-Com: -0.784D-04 0.167D-03 0.591D-03 0.148D-02 0.192D-02-0.514D-02
 Coeff-Com: -0.276D-01-0.496D-01 0.506D-01 0.383D+00 0.644D+00
 Coeff:     -0.784D-04 0.167D-03 0.591D-03 0.148D-02 0.192D-02-0.514D-02
 Coeff:     -0.276D-01-0.496D-01 0.506D-01 0.383D+00 0.644D+00
 Gap=     0.164 Goal=   None    Shift=    0.000
 RMSDP=2.57D-07 MaxDP=4.38D-05 DE=-1.16D-07 OVMax= 8.58D-05

 Cycle  13  Pass 1  IDiag  1:
 RMSU=  1.07D-07    CP:  1.01D+00  6.31D-01  9.38D-01  7.07D-01  1.05D+00
                    CP:  1.09D+00  1.40D+00  1.08D+00  1.31D+00  1.20D+00
                    CP:  9.70D-01
 E= -1876.42956753741     Delta-E=       -0.000000018181 Rises=F Damp=F
 DIIS: error= 7.94D-07 at cycle  12 NSaved=  12.
 NSaved=12 IEnMin=12 EnMin= -1876.42956753741     IErMin=12 ErrMin= 7.94D-07
 ErrMax= 7.94D-07  0.00D+00 EMaxC= 1.00D-01 BMatC= 1.82D-09 BMatP= 1.34D-08
 IDIUse=1 WtCom= 1.00D+00 WtEn= 0.00D+00
 Coeff-Com: -0.189D-04 0.335D-04 0.130D-03 0.440D-03 0.103D-02 0.601D-03
 Coeff-Com: -0.381D-02-0.202D-01-0.364D-01 0.498D-01 0.298D+00 0.711D+00
 Coeff:     -0.189D-04 0.335D-04 0.130D-03 0.440D-03 0.103D-02 0.601D-03
 Coeff:     -0.381D-02-0.202D-01-0.364D-01 0.498D-01 0.298D+00 0.711D+00
 Gap=     0.164 Goal=   None    Shift=    0.000
 RMSDP=1.09D-07 MaxDP=1.68D-05 DE=-1.82D-08 OVMax= 3.03D-05

 Cycle  14  Pass 1  IDiag  1:
 RMSU=  5.05D-08    CP:  1.01D+00  6.31D-01  9.38D-01  7.07D-01  1.05D+00
                    CP:  1.10D+00  1.40D+00  1.09D+00  1.33D+00  1.23D+00
                    CP:  1.09D+00  1.13D+00
 E= -1876.42956754020     Delta-E=       -0.000000002792 Rises=F Damp=F
 DIIS: error= 2.22D-07 at cycle  13 NSaved=  13.
 NSaved=13 IEnMin=13 EnMin= -1876.42956754020     IErMin=13 ErrMin= 2.22D-07
 ErrMax= 2.22D-07  0.00D+00 EMaxC= 1.00D-01 BMatC= 2.66D-10 BMatP= 1.82D-09
 IDIUse=1 WtCom= 1.00D+00 WtEn= 0.00D+00
 Coeff-Com:  0.393D-05-0.112D-04-0.320D-04-0.268D-04 0.178D-03 0.897D-03
 Coeff-Com:  0.300D-02-0.228D-02-0.258D-01-0.326D-01 0.392D-01 0.307D+00
 Coeff-Com:  0.710D+00
 Coeff:      0.393D-05-0.112D-04-0.320D-04-0.268D-04 0.178D-03 0.897D-03
 Coeff:      0.300D-02-0.228D-02-0.258D-01-0.326D-01 0.392D-01 0.307D+00
 Coeff:      0.710D+00
 Gap=     0.164 Goal=   None    Shift=    0.000
 RMSDP=4.73D-08 MaxDP=1.32D-05 DE=-2.79D-09 OVMax= 1.72D-05

 Cycle  15  Pass 1  IDiag  1:
 RMSU=  2.44D-08    CP:  1.01D+00  6.31D-01  9.38D-01  7.07D-01  1.05D+00
                    CP:  1.10D+00  1.40D+00  1.09D+00  1.34D+00  1.26D+00
                    CP:  1.13D+00  1.30D+00  1.08D+00
 E= -1876.42956754059     Delta-E=       -0.000000000392 Rises=F Damp=F
 DIIS: error= 1.27D-07 at cycle  14 NSaved=  14.
 NSaved=14 IEnMin=14 EnMin= -1876.42956754059     IErMin=14 ErrMin= 1.27D-07
 ErrMax= 1.27D-07  0.00D+00 EMaxC= 1.00D-01 BMatC= 7.22D-11 BMatP= 2.66D-10
 IDIUse=1 WtCom= 1.00D+00 WtEn= 0.00D+00
 Coeff-Com:  0.585D-05-0.124D-04-0.434D-04-0.103D-03-0.126D-03 0.245D-03
 Coeff-Com:  0.250D-02 0.287D-02-0.520D-02-0.254D-01-0.437D-01-0.685D-02
 Coeff-Com:  0.379D+00 0.697D+00
 Coeff:      0.585D-05-0.124D-04-0.434D-04-0.103D-03-0.126D-03 0.245D-03
 Coeff:      0.250D-02 0.287D-02-0.520D-02-0.254D-01-0.437D-01-0.685D-02
 Coeff:      0.379D+00 0.697D+00
 Gap=     0.164 Goal=   None    Shift=    0.000
 RMSDP=2.20D-08 MaxDP=4.66D-06 DE=-3.92D-10 OVMax= 6.39D-06

 Cycle  16  Pass 1  IDiag  1:
 RMSU=  8.16D-09    CP:  1.01D+00  6.31D-01  9.38D-01  7.07D-01  1.05D+00
                    CP:  1.10D+00  1.40D+00  1.09D+00  1.34D+00  1.27D+00
                    CP:  1.15D+00  1.36D+00  1.29D+00  9.84D-01
 E= -1876.42956754079     Delta-E=       -0.000000000195 Rises=F Damp=F
 DIIS: error= 3.69D-08 at cycle  15 NSaved=  15.
 NSaved=15 IEnMin=15 EnMin= -1876.42956754079     IErMin=15 ErrMin= 3.69D-08
 ErrMax= 3.69D-08  0.00D+00 EMaxC= 1.00D-01 BMatC= 7.22D-12 BMatP= 7.22D-11
 IDIUse=1 WtCom= 1.00D+00 WtEn= 0.00D+00
 Coeff-Com:  0.171D-05-0.331D-05-0.144D-04-0.373D-04-0.764D-04-0.457D-04
 Coeff-Com:  0.693D-03 0.133D-02 0.133D-02-0.559D-02-0.227D-01-0.454D-01
 Coeff-Com:  0.707D-01 0.281D+00 0.719D+00
 Coeff:      0.171D-05-0.331D-05-0.144D-04-0.373D-04-0.764D-04-0.457D-04
 Coeff:      0.693D-03 0.133D-02 0.133D-02-0.559D-02-0.227D-01-0.454D-01
 Coeff:      0.707D-01 0.281D+00 0.719D+00
 Gap=     0.164 Goal=   None    Shift=    0.000
 RMSDP=6.58D-09 MaxDP=1.36D-06 DE=-1.95D-10 OVMax= 2.60D-06

 Cycle  17  Pass 1  IDiag  1:
 RMSU=  3.17D-09    CP:  1.01D+00  6.31D-01  9.38D-01  7.07D-01  1.05D+00
                    CP:  1.10D+00  1.40D+00  1.09D+00  1.34D+00  1.27D+00
                    CP:  1.15D+00  1.38D+00  1.33D+00  1.10D+00  9.63D-01
 E= -1876.42956754065     Delta-E=        0.000000000131 Rises=F Damp=F
 DIIS: error= 2.38D-08 at cycle  16 NSaved=  16.
 NSaved=16 IEnMin=15 EnMin= -1876.42956754079     IErMin=16 ErrMin= 2.38D-08
 ErrMax= 2.38D-08  0.00D+00 EMaxC= 1.00D-01 BMatC= 1.71D-12 BMatP= 7.22D-12
 IDIUse=1 WtCom= 1.00D+00 WtEn= 0.00D+00
 Coeff-Com: -0.386D-06 0.926D-06 0.826D-06 0.238D-05-0.126D-04-0.690D-04
 Coeff-Com: -0.120D-03 0.421D-04 0.165D-02 0.229D-02-0.227D-02-0.214D-01
 Coeff-Com: -0.424D-01-0.178D-01 0.337D+00 0.743D+00
 Coeff:     -0.386D-06 0.926D-06 0.826D-06 0.238D-05-0.126D-04-0.690D-04
 Coeff:     -0.120D-03 0.421D-04 0.165D-02 0.229D-02-0.227D-02-0.214D-01
 Coeff:     -0.424D-01-0.178D-01 0.337D+00 0.743D+00
 Gap=     0.164 Goal=   None    Shift=    0.000
 RMSDP=3.89D-09 MaxDP=1.17D-06 DE= 1.31D-10 OVMax= 9.45D-07

 Cycle  18  Pass 1  IDiag  1:
 RMSU=  1.57D-09    CP:  1.01D+00  6.31D-01  9.38D-01  7.07D-01  1.05D+00
                    CP:  1.10D+00  1.40D+00  1.09D+00  1.34D+00  1.27D+00
                    CP:  1.16D+00  1.39D+00  1.37D+00  1.13D+00  1.13D+00
                    CP:  1.09D+00
 E= -1876.42956754071     Delta-E=       -0.000000000058 Rises=F Damp=F
 DIIS: error= 6.83D-09 at cycle  17 NSaved=  17.
 NSaved=17 IEnMin=15 EnMin= -1876.42956754079     IErMin=17 ErrMin= 6.83D-09
 ErrMax= 6.83D-09  0.00D+00 EMaxC= 1.00D-01 BMatC= 1.54D-13 BMatP= 1.71D-12
 IDIUse=1 WtCom= 1.00D+00 WtEn= 0.00D+00
 Coeff-Com: -0.358D-06 0.774D-06 0.168D-05 0.493D-05 0.201D-05-0.261D-04
 Coeff-Com: -0.114D-03-0.124D-03 0.572D-03 0.155D-02 0.141D-02-0.416D-02
 Coeff-Com: -0.231D-01-0.364D-01 0.714D-01 0.293D+00 0.696D+00
 Coeff:     -0.358D-06 0.774D-06 0.168D-05 0.493D-05 0.201D-05-0.261D-04
 Coeff:     -0.114D-03-0.124D-03 0.572D-03 0.155D-02 0.141D-02-0.416D-02
 Coeff:     -0.231D-01-0.364D-01 0.714D-01 0.293D+00 0.696D+00
 Gap=     0.164 Goal=   None    Shift=    0.000
 RMSDP=7.66D-10 MaxDP=1.62D-07 DE=-5.82D-11 OVMax= 3.08D-07

 SCF Done:  E(RM062X) =  -1876.42956754     A.U. after   18 cycles
            NFock= 18  Conv=0.77D-09     -V/T= 2.0049
 KE= 1.867331994552D+03 PE=-1.322939090761D+04 EE= 5.046387300580D+03
 Leave Link  502 at Sat Jun 22 17:42:35 2024, MaxMem=  2684354560 cpu:           22453.8 elap:            1433.4
 (Enter /storage/apps/GAUSSIAN/G16_RevA03/g16/l601.exe)
 Copying SCF densities to generalized density rwf, IOpCl= 0 IROHF=0.

 **********************************************************************

            Population analysis using the SCF density.

 **********************************************************************

 Alpha  occ. eigenvalues --  -19.74572 -19.74534 -19.72797 -19.69206 -19.67879
 Alpha  occ. eigenvalues --  -19.63580 -14.93531 -14.92520 -14.91207 -14.89174
 Alpha  occ. eigenvalues --  -14.88812 -14.87414 -14.86895 -14.84865 -14.83282
 Alpha  occ. eigenvalues --  -10.78829 -10.75619 -10.75097 -10.75061 -10.74675
 Alpha  occ. eigenvalues --  -10.74321 -10.71918 -10.70819 -10.70792 -10.70585
 Alpha  occ. eigenvalues --  -10.70556 -10.70394 -10.70004 -10.69273 -10.68788
 Alpha  occ. eigenvalues --  -10.68120 -10.67968 -10.67514 -10.66406 -10.62283
 Alpha  occ. eigenvalues --  -10.62023 -10.61909 -10.61257 -10.61150  -1.28689
 Alpha  occ. eigenvalues --   -1.25720  -1.25379  -1.24355  -1.23575  -1.21452
 Alpha  occ. eigenvalues --   -1.21076  -1.20301  -1.17694  -1.16465  -1.14596
 Alpha  occ. eigenvalues --   -1.11561  -1.10626  -1.09327  -1.05717  -1.05405
 Alpha  occ. eigenvalues --   -1.03914  -1.01398  -1.00911  -0.98444  -0.95879
 Alpha  occ. eigenvalues --   -0.95011  -0.93942  -0.93543  -0.90383  -0.89084
 Alpha  occ. eigenvalues --   -0.87365  -0.86405  -0.84976  -0.83563  -0.81831
 Alpha  occ. eigenvalues --   -0.80806  -0.80554  -0.78716  -0.77789  -0.77277
 Alpha  occ. eigenvalues --   -0.76518  -0.74217  -0.73573  -0.73117  -0.72752
 Alpha  occ. eigenvalues --   -0.72248  -0.71641  -0.71229  -0.70556  -0.69994
 Alpha  occ. eigenvalues --   -0.69730  -0.69234  -0.68904  -0.68172  -0.67158
 Alpha  occ. eigenvalues --   -0.66839  -0.66044  -0.65612  -0.65003  -0.64728
 Alpha  occ. eigenvalues --   -0.64652  -0.64378  -0.63579  -0.63043  -0.62727
 Alpha  occ. eigenvalues --   -0.61841  -0.60739  -0.60631  -0.59951  -0.59746
 Alpha  occ. eigenvalues --   -0.59398  -0.58825  -0.58532  -0.58486  -0.57756
 Alpha  occ. eigenvalues --   -0.57324  -0.56201  -0.55983  -0.55934  -0.55640
 Alpha  occ. eigenvalues --   -0.55171  -0.55105  -0.54624  -0.54468  -0.54067
 Alpha  occ. eigenvalues --   -0.52485  -0.51389  -0.51070  -0.50771  -0.48249
 Alpha  occ. eigenvalues --   -0.47848  -0.46571  -0.46317  -0.45919  -0.45877
 Alpha  occ. eigenvalues --   -0.45020  -0.44545  -0.43932  -0.43414  -0.43066
 Alpha  occ. eigenvalues --   -0.41894  -0.39932  -0.39223  -0.38218  -0.38129
 Alpha  occ. eigenvalues --   -0.34584  -0.33557
 Alpha virt. eigenvalues --   -0.17155  -0.12601  -0.08087  -0.07957  -0.06136
 Alpha virt. eigenvalues --   -0.05600  -0.05552  -0.05101  -0.04979  -0.04388
 Alpha virt. eigenvalues --   -0.04230  -0.03569  -0.03202  -0.01995  -0.01253
 Alpha virt. eigenvalues --   -0.00659  -0.00483  -0.00221   0.00087   0.00518
 Alpha virt. eigenvalues --    0.00993   0.01402   0.01876   0.02263   0.02478
 Alpha virt. eigenvalues --    0.02554   0.03175   0.03387   0.03514   0.03793
 Alpha virt. eigenvalues --    0.04134   0.04404   0.04771   0.04898   0.05318
 Alpha virt. eigenvalues --    0.05696   0.06244   0.06431   0.07133   0.07311
 Alpha virt. eigenvalues --    0.08135   0.08202   0.08490   0.08804   0.09154
 Alpha virt. eigenvalues --    0.09572   0.09738   0.10204   0.10477   0.11094
 Alpha virt. eigenvalues --    0.11252   0.11444   0.11792   0.12133   0.12349
 Alpha virt. eigenvalues --    0.12392   0.12816   0.13059   0.13274   0.13663
 Alpha virt. eigenvalues --    0.14109   0.14603   0.14691   0.15062   0.15631
 Alpha virt. eigenvalues --    0.15871   0.16187   0.16309   0.16730   0.17074
 Alpha virt. eigenvalues --    0.17177   0.17451   0.18003   0.18296   0.18758
 Alpha virt. eigenvalues --    0.18889   0.19113   0.19647   0.19951   0.20233
 Alpha virt. eigenvalues --    0.20343   0.20602   0.20797   0.21382   0.21470
 Alpha virt. eigenvalues --    0.21922   0.22241   0.22621   0.22726   0.23070
 Alpha virt. eigenvalues --    0.23188   0.23826   0.24102   0.24311   0.24567
 Alpha virt. eigenvalues --    0.24866   0.25017   0.25508   0.26273   0.26349
 Alpha virt. eigenvalues --    0.26605   0.26732   0.26967   0.27341   0.27647
 Alpha virt. eigenvalues --    0.27694   0.27879   0.28130   0.28437   0.28568
 Alpha virt. eigenvalues --    0.28786   0.29365   0.29577   0.29730   0.29863
 Alpha virt. eigenvalues --    0.30161   0.30668   0.30980   0.31219   0.31287
 Alpha virt. eigenvalues --    0.31864   0.32102   0.32106   0.32682   0.32919
 Alpha virt. eigenvalues --    0.32994   0.33329   0.33717   0.33883   0.34123
 Alpha virt. eigenvalues --    0.34317   0.34576   0.34894   0.35079   0.35229
 Alpha virt. eigenvalues --    0.35510   0.35813   0.36026   0.36285   0.36398
 Alpha virt. eigenvalues --    0.36508   0.36772   0.36975   0.37260   0.37639
 Alpha virt. eigenvalues --    0.37911   0.38306   0.38541   0.38684   0.38815
 Alpha virt. eigenvalues --    0.38842   0.39570   0.39648   0.39934   0.40198
 Alpha virt. eigenvalues --    0.40308   0.40697   0.40871   0.40923   0.41289
 Alpha virt. eigenvalues --    0.41449   0.41685   0.42184   0.42636   0.43034
 Alpha virt. eigenvalues --    0.43209   0.43282   0.43348   0.43774   0.43915
 Alpha virt. eigenvalues --    0.44358   0.44460   0.44636   0.45231   0.45581
 Alpha virt. eigenvalues --    0.46028   0.46350   0.46569   0.46777   0.46931
 Alpha virt. eigenvalues --    0.47079   0.47740   0.47882   0.48577   0.48683
 Alpha virt. eigenvalues --    0.48968   0.49133   0.49506   0.49966   0.50076
 Alpha virt. eigenvalues --    0.50388   0.50693   0.51404   0.51637   0.51972
 Alpha virt. eigenvalues --    0.52203   0.52496   0.53051   0.53536   0.53712
 Alpha virt. eigenvalues --    0.53891   0.54131   0.54489   0.54782   0.55157
 Alpha virt. eigenvalues --    0.55398   0.55913   0.56009   0.56288   0.56457
 Alpha virt. eigenvalues --    0.57106   0.57229   0.57577   0.57734   0.58250
 Alpha virt. eigenvalues --    0.58821   0.59086   0.59160   0.59945   0.60208
 Alpha virt. eigenvalues --    0.60411   0.60635   0.60923   0.61129   0.61181
 Alpha virt. eigenvalues --    0.61706   0.61899   0.62287   0.62592   0.62790
 Alpha virt. eigenvalues --    0.63320   0.63605   0.63887   0.64424   0.64597
 Alpha virt. eigenvalues --    0.64994   0.65855   0.66178   0.66598   0.66915
 Alpha virt. eigenvalues --    0.67476   0.67577   0.68345   0.68796   0.69044
 Alpha virt. eigenvalues --    0.69426   0.69876   0.70186   0.70557   0.71055
 Alpha virt. eigenvalues --    0.71733   0.71856   0.72322   0.72614   0.72872
 Alpha virt. eigenvalues --    0.73199   0.73794   0.74100   0.74468   0.74705
 Alpha virt. eigenvalues --    0.75339   0.75698   0.76083   0.76756   0.77004
 Alpha virt. eigenvalues --    0.77105   0.77550   0.78300   0.78571   0.79014
 Alpha virt. eigenvalues --    0.79176   0.79333   0.79697   0.80299   0.80484
 Alpha virt. eigenvalues --    0.80733   0.81424   0.82146   0.82466   0.82815
 Alpha virt. eigenvalues --    0.83101   0.83792   0.84648   0.85055   0.85365
 Alpha virt. eigenvalues --    0.85449   0.86079   0.86553   0.86601   0.87845
 Alpha virt. eigenvalues --    0.88015   0.88776   0.89235   0.89745   0.90314
 Alpha virt. eigenvalues --    0.90526   0.91374   0.91566   0.91986   0.92287
 Alpha virt. eigenvalues --    0.93099   0.93384   0.93745   0.94149   0.94597
 Alpha virt. eigenvalues --    0.95167   0.96246   0.96359   0.96996   0.97520
 Alpha virt. eigenvalues --    0.98229   0.98452   0.99196   0.99440   0.99785
 Alpha virt. eigenvalues --    1.00414   1.00938   1.01359   1.01932   1.02158
 Alpha virt. eigenvalues --    1.02334   1.02993   1.03758   1.03933   1.04751
 Alpha virt. eigenvalues --    1.04860   1.05377   1.05866   1.06582   1.06819
 Alpha virt. eigenvalues --    1.07283   1.08324   1.08725   1.08971   1.09608
 Alpha virt. eigenvalues --    1.10004   1.10463   1.11388   1.11886   1.12293
 Alpha virt. eigenvalues --    1.13033   1.13476   1.14156   1.14501   1.14613
 Alpha virt. eigenvalues --    1.15006   1.15599   1.16103   1.17262   1.17559
 Alpha virt. eigenvalues --    1.18559   1.18750   1.19181   1.19765   1.20210
 Alpha virt. eigenvalues --    1.20560   1.21206   1.21495   1.22115   1.22460
 Alpha virt. eigenvalues --    1.22791   1.23097   1.23153   1.24054   1.24442
 Alpha virt. eigenvalues --    1.24828   1.25180   1.25468   1.26374   1.26888
 Alpha virt. eigenvalues --    1.27083   1.27542   1.27892   1.28366   1.29311
 Alpha virt. eigenvalues --    1.29761   1.30382   1.30834   1.31466   1.32342
 Alpha virt. eigenvalues --    1.32541   1.32948   1.33396   1.33702   1.34327
 Alpha virt. eigenvalues --    1.34816   1.35127   1.35817   1.36587   1.36733
 Alpha virt. eigenvalues --    1.37117   1.37468   1.38106   1.38661   1.39354
 Alpha virt. eigenvalues --    1.39776   1.40226   1.40802   1.41071   1.41584
 Alpha virt. eigenvalues --    1.42140   1.42416   1.42984   1.43107   1.43268
 Alpha virt. eigenvalues --    1.44076   1.44563   1.44739   1.45346   1.45492
 Alpha virt. eigenvalues --    1.45827   1.46542   1.46893   1.47022   1.47932
 Alpha virt. eigenvalues --    1.48244   1.48647   1.49674   1.49845   1.50172
 Alpha virt. eigenvalues --    1.50364   1.50600   1.51137   1.51538   1.51884
 Alpha virt. eigenvalues --    1.52289   1.52954   1.53085   1.53339   1.53776
 Alpha virt. eigenvalues --    1.53857   1.54156   1.54633   1.54930   1.55130
 Alpha virt. eigenvalues --    1.55963   1.56095   1.56285   1.57026   1.57275
 Alpha virt. eigenvalues --    1.57341   1.57894   1.58019   1.58772   1.59267
 Alpha virt. eigenvalues --    1.59891   1.60137   1.60272   1.60460   1.60936
 Alpha virt. eigenvalues --    1.61223   1.61850   1.62063   1.62395   1.62412
 Alpha virt. eigenvalues --    1.62957   1.63692   1.63946   1.64367   1.64774
 Alpha virt. eigenvalues --    1.64938   1.65265   1.66069   1.66383   1.66860
 Alpha virt. eigenvalues --    1.67518   1.67607   1.68706   1.68843   1.69299
 Alpha virt. eigenvalues --    1.69721   1.70003   1.70595   1.71274   1.71722
 Alpha virt. eigenvalues --    1.72330   1.72823   1.73268   1.73836   1.74145
 Alpha virt. eigenvalues --    1.74420   1.75017   1.75174   1.75276   1.76314
 Alpha virt. eigenvalues --    1.76565   1.77353   1.77893   1.78519   1.78974
 Alpha virt. eigenvalues --    1.79695   1.80260   1.80357   1.80804   1.81765
 Alpha virt. eigenvalues --    1.82076   1.82166   1.82610   1.82694   1.83295
 Alpha virt. eigenvalues --    1.83696   1.84356   1.84611   1.85156   1.85470
 Alpha virt. eigenvalues --    1.85983   1.86133   1.86448   1.86805   1.87541
 Alpha virt. eigenvalues --    1.88233   1.88308   1.88616   1.89152   1.89817
 Alpha virt. eigenvalues --    1.90487   1.90827   1.91223   1.92228   1.92843
 Alpha virt. eigenvalues --    1.93163   1.93496   1.94424   1.94638   1.94854
 Alpha virt. eigenvalues --    1.95296   1.95813   1.96283   1.97032   1.97925
 Alpha virt. eigenvalues --    1.98803   1.99557   2.00051   2.00646   2.00991
 Alpha virt. eigenvalues --    2.01176   2.01540   2.02124   2.02271   2.02472
 Alpha virt. eigenvalues --    2.03253   2.04000   2.04210   2.04546   2.05363
 Alpha virt. eigenvalues --    2.05553   2.05718   2.06737   2.07673   2.07885
 Alpha virt. eigenvalues --    2.08132   2.09014   2.09159   2.10304   2.10642
 Alpha virt. eigenvalues --    2.11061   2.11882   2.12256   2.12496   2.12974
 Alpha virt. eigenvalues --    2.13295   2.13836   2.14890   2.14934   2.15333
 Alpha virt. eigenvalues --    2.16040   2.16433   2.17177   2.17627   2.17959
 Alpha virt. eigenvalues --    2.18070   2.18226   2.19004   2.19457   2.19956
 Alpha virt. eigenvalues --    2.20000   2.20703   2.21144   2.22049   2.22688
 Alpha virt. eigenvalues --    2.23155   2.23583   2.23945   2.24327   2.24449
 Alpha virt. eigenvalues --    2.24886   2.25340   2.26055   2.27125   2.28177
 Alpha virt. eigenvalues --    2.28864   2.29164   2.29465   2.29856   2.30625
 Alpha virt. eigenvalues --    2.31270   2.31660   2.32428   2.32793   2.33412
 Alpha virt. eigenvalues --    2.33987   2.34435   2.35023   2.35572   2.36116
 Alpha virt. eigenvalues --    2.36337   2.36854   2.36983   2.37447   2.38691
 Alpha virt. eigenvalues --    2.39339   2.39744   2.40402   2.41330   2.42079
 Alpha virt. eigenvalues --    2.42279   2.42976   2.43459   2.43641   2.44165
 Alpha virt. eigenvalues --    2.45029   2.45396   2.45778   2.46388   2.46999
 Alpha virt. eigenvalues --    2.47764   2.48538   2.48857   2.49635   2.50062
 Alpha virt. eigenvalues --    2.50655   2.51133   2.51346   2.52540   2.52930
 Alpha virt. eigenvalues --    2.53303   2.54340   2.54751   2.55126   2.55506
 Alpha virt. eigenvalues --    2.55806   2.56003   2.57021   2.57516   2.58107
 Alpha virt. eigenvalues --    2.58285   2.58519   2.58717   2.59501   2.59653
 Alpha virt. eigenvalues --    2.59894   2.60198   2.61361   2.61423   2.62028
 Alpha virt. eigenvalues --    2.62292   2.63244   2.63586   2.63887   2.64217
 Alpha virt. eigenvalues --    2.64597   2.65207   2.65840   2.66131   2.66820
 Alpha virt. eigenvalues --    2.66885   2.66985   2.67388   2.67793   2.68447
 Alpha virt. eigenvalues --    2.68585   2.68835   2.69869   2.70183   2.70326
 Alpha virt. eigenvalues --    2.71346   2.71579   2.71824   2.72472   2.72540
 Alpha virt. eigenvalues --    2.73053   2.73775   2.74103   2.74336   2.74701
 Alpha virt. eigenvalues --    2.75703   2.75804   2.76219   2.76634   2.76840
 Alpha virt. eigenvalues --    2.77735   2.77823   2.78095   2.78678   2.79042
 Alpha virt. eigenvalues --    2.79670   2.80115   2.80208   2.81401   2.81692
 Alpha virt. eigenvalues --    2.81963   2.82766   2.83108   2.83317   2.83778
 Alpha virt. eigenvalues --    2.84168   2.84618   2.84773   2.85056   2.85927
 Alpha virt. eigenvalues --    2.86159   2.86320   2.86687   2.86758   2.87081
 Alpha virt. eigenvalues --    2.87782   2.88094   2.88695   2.88888   2.89340
 Alpha virt. eigenvalues --    2.89723   2.90528   2.90729   2.91370   2.91402
 Alpha virt. eigenvalues --    2.91939   2.92747   2.92785   2.92982   2.93265
 Alpha virt. eigenvalues --    2.93854   2.94445   2.94665   2.94773   2.95116
 Alpha virt. eigenvalues --    2.95700   2.96423   2.96748   2.96761   2.97384
 Alpha virt. eigenvalues --    2.97668   2.98123   2.98359   2.98524   2.98836
 Alpha virt. eigenvalues --    2.99566   3.00112   3.00700   3.01151   3.01652
 Alpha virt. eigenvalues --    3.01975   3.02498   3.02689   3.03071   3.03344
 Alpha virt. eigenvalues --    3.03857   3.04322   3.04506   3.04758   3.05237
 Alpha virt. eigenvalues --    3.05786   3.06336   3.06457   3.07304   3.07768
 Alpha virt. eigenvalues --    3.07902   3.08276   3.09062   3.09400   3.09616
 Alpha virt. eigenvalues --    3.10251   3.10540   3.10722   3.10944   3.11678
 Alpha virt. eigenvalues --    3.12147   3.12301   3.12787   3.12984   3.13374
 Alpha virt. eigenvalues --    3.13750   3.14086   3.14179   3.14646   3.14887
 Alpha virt. eigenvalues --    3.15168   3.15490   3.15783   3.15947   3.16409
 Alpha virt. eigenvalues --    3.16653   3.17165   3.17529   3.18191   3.18318
 Alpha virt. eigenvalues --    3.18457   3.18948   3.19108   3.19352   3.19945
 Alpha virt. eigenvalues --    3.20461   3.20833   3.21674   3.22211   3.22543
 Alpha virt. eigenvalues --    3.22768   3.23540   3.24048   3.24135   3.24858
 Alpha virt. eigenvalues --    3.25141   3.25460   3.25720   3.25978   3.26763
 Alpha virt. eigenvalues --    3.27270   3.27442   3.27996   3.28537   3.28744
 Alpha virt. eigenvalues --    3.28866   3.29256   3.29481   3.30007   3.30194
 Alpha virt. eigenvalues --    3.30917   3.31397   3.31620   3.32662   3.32869
 Alpha virt. eigenvalues --    3.33047   3.33539   3.33798   3.34003   3.34964
 Alpha virt. eigenvalues --    3.35068   3.35699   3.35964   3.36218   3.37315
 Alpha virt. eigenvalues --    3.37479   3.37823   3.38103   3.38438   3.38650
 Alpha virt. eigenvalues --    3.39165   3.39308   3.39881   3.40056   3.40405
 Alpha virt. eigenvalues --    3.40665   3.40999   3.41212   3.41540   3.42094
 Alpha virt. eigenvalues --    3.42385   3.42885   3.44046   3.45136   3.45840
 Alpha virt. eigenvalues --    3.46671   3.47645   3.48046   3.48604   3.49130
 Alpha virt. eigenvalues --    3.49799   3.50552   3.51087   3.51610   3.52182
 Alpha virt. eigenvalues --    3.52612   3.53488   3.53605   3.54256   3.54597
 Alpha virt. eigenvalues --    3.54652   3.55436   3.56170   3.57485   3.57697
 Alpha virt. eigenvalues --    3.58659   3.59200   3.60120   3.60959   3.62634
 Alpha virt. eigenvalues --    3.62903   3.62952   3.63739   3.64424   3.65153
 Alpha virt. eigenvalues --    3.65796   3.66272   3.66959   3.67645   3.68824
 Alpha virt. eigenvalues --    3.69706   3.70428   3.71093   3.71546   3.72072
 Alpha virt. eigenvalues --    3.72190   3.73029   3.73806   3.74760   3.75346
 Alpha virt. eigenvalues --    3.76036   3.76221   3.76531   3.77782   3.77950
 Alpha virt. eigenvalues --    3.78595   3.79432   3.79950   3.80749   3.81254
 Alpha virt. eigenvalues --    3.81707   3.82878   3.83303   3.84452   3.85084
 Alpha virt. eigenvalues --    3.85769   3.86157   3.87256   3.87801   3.88405
 Alpha virt. eigenvalues --    3.89409   3.91088   3.91302   3.92442   3.92450
 Alpha virt. eigenvalues --    3.93528   3.94356   3.94545   3.95915   3.96103
 Alpha virt. eigenvalues --    3.96611   3.97219   3.97645   3.98608   3.99803
 Alpha virt. eigenvalues --    4.00608   4.01438   4.02152   4.02530   4.03254
 Alpha virt. eigenvalues --    4.03852   4.04151   4.04470   4.05309   4.06482
 Alpha virt. eigenvalues --    4.07328   4.08154   4.08347   4.08869   4.09007
 Alpha virt. eigenvalues --    4.09949   4.10100   4.11012   4.11344   4.11712
 Alpha virt. eigenvalues --    4.12794   4.13024   4.13976   4.14805   4.15638
 Alpha virt. eigenvalues --    4.17285   4.18694   4.19015   4.19927   4.20527
 Alpha virt. eigenvalues --    4.21501   4.22138   4.22838   4.23315   4.24343
 Alpha virt. eigenvalues --    4.24579   4.25802   4.27209   4.27504   4.29041
 Alpha virt. eigenvalues --    4.29405   4.30057   4.30162   4.31341   4.33319
 Alpha virt. eigenvalues --    4.34713   4.34893   4.36409   4.36498   4.37216
 Alpha virt. eigenvalues --    4.38887   4.39028   4.41037   4.41217   4.43112
 Alpha virt. eigenvalues --    4.43528   4.45228   4.45657   4.46661   4.47391
 Alpha virt. eigenvalues --    4.47950   4.49113   4.49821   4.50439   4.53513
 Alpha virt. eigenvalues --    4.53983   4.55387   4.55822   4.56477   4.56861
 Alpha virt. eigenvalues --    4.57312   4.57700   4.58352   4.58948   4.58960
 Alpha virt. eigenvalues --    4.59880   4.60150   4.61091   4.62420   4.62995
 Alpha virt. eigenvalues --    4.63352   4.64100   4.64992   4.65530   4.66530
 Alpha virt. eigenvalues --    4.67217   4.68903   4.69762   4.70711   4.70807
 Alpha virt. eigenvalues --    4.71748   4.72083   4.72391   4.72899   4.74425
 Alpha virt. eigenvalues --    4.74482   4.75266   4.77503   4.77742   4.78816
 Alpha virt. eigenvalues --    4.79551   4.81036   4.81767   4.82487   4.83142
 Alpha virt. eigenvalues --    4.83831   4.85007   4.85200   4.85728   4.86709
 Alpha virt. eigenvalues --    4.87541   4.89517   4.90186   4.90778   4.91620
 Alpha virt. eigenvalues --    4.93313   4.93553   4.94528   4.95010   4.95673
 Alpha virt. eigenvalues --    4.95826   4.96443   4.97981   4.98503   4.99015
 Alpha virt. eigenvalues --    4.99498   5.00144   5.00731   5.01508   5.01760
 Alpha virt. eigenvalues --    5.01980   5.03229   5.04251   5.05076   5.05594
 Alpha virt. eigenvalues --    5.05774   5.07019   5.07561   5.07979   5.08502
 Alpha virt. eigenvalues --    5.08951   5.09660   5.10960   5.11376   5.11987
 Alpha virt. eigenvalues --    5.12097   5.12928   5.13740   5.14727   5.15284
 Alpha virt. eigenvalues --    5.16333   5.16612   5.16960   5.18261   5.18299
 Alpha virt. eigenvalues --    5.18531   5.19582   5.20326   5.21071   5.21766
 Alpha virt. eigenvalues --    5.23162   5.23424   5.23494   5.23751   5.24048
 Alpha virt. eigenvalues --    5.25055   5.25797   5.27204   5.28495   5.29159
 Alpha virt. eigenvalues --    5.29348   5.30522   5.30825   5.32728   5.32828
 Alpha virt. eigenvalues --    5.33033   5.33630   5.34957   5.36070   5.36938
 Alpha virt. eigenvalues --    5.38213   5.39852   5.40110   5.41611   5.42704
 Alpha virt. eigenvalues --    5.44346   5.45895   5.47838   5.49722   5.51579
 Alpha virt. eigenvalues --    5.51595   5.52093   5.53894   5.55604   5.57560
 Alpha virt. eigenvalues --    5.58669   5.59527   5.59603   5.61221   5.62364
 Alpha virt. eigenvalues --    5.62756   5.64240   5.64697   5.65236   5.66903
 Alpha virt. eigenvalues --    5.67149   5.68911   5.70605   5.72028   5.74608
 Alpha virt. eigenvalues --    5.75013   5.76753   5.77330   5.78774   5.79161
 Alpha virt. eigenvalues --    5.79941   5.82974   5.83885   5.84818   5.85729
 Alpha virt. eigenvalues --    5.87738   5.88806   5.92711   5.93824   5.94319
 Alpha virt. eigenvalues --    5.94904   5.97697   5.99592   6.01247   6.11919
 Alpha virt. eigenvalues --    6.14356   6.16905   6.17298   6.17980   6.21980
 Alpha virt. eigenvalues --    6.31506   6.35241   6.35313   6.35818   6.41224
 Alpha virt. eigenvalues --    6.51190   6.52799   6.52875   6.54224   6.57317
 Alpha virt. eigenvalues --    6.59389   6.62162   6.65755   6.68648   6.69953
 Alpha virt. eigenvalues --    6.70592   6.73121   6.73893   6.76156   6.76972
 Alpha virt. eigenvalues --    6.78648   6.85878   6.88344   6.94172   6.97216
 Alpha virt. eigenvalues --    6.97830   7.01514   7.03334   7.04444   7.05422
 Alpha virt. eigenvalues --    7.05800   7.07497   7.16002  22.39387  22.42281
 Alpha virt. eigenvalues --   22.56781  22.59226  22.68408  22.71912  22.72061
 Alpha virt. eigenvalues --   22.75736  22.78143  22.82029  22.82245  22.89777
 Alpha virt. eigenvalues --   22.92217  22.95544  22.96498  23.00743  23.04626
 Alpha virt. eigenvalues --   23.12707  23.14136  23.15377  23.23348  23.32168
 Alpha virt. eigenvalues --   23.39023  23.48045  31.98164  32.05405  32.07072
 Alpha virt. eigenvalues --   32.38447  32.55551  32.60370  32.75729  32.90085
 Alpha virt. eigenvalues --   33.01819  44.02150  44.03310  44.04758  44.06816
 Alpha virt. eigenvalues --   44.08705  44.28928
          Condensed to atoms (all electrons):
 Mulliken charges:
               1
     1  C   -0.064809
     2  H    0.128839
     3  O   -0.308518
     4  C    0.003495
     5  H    0.168569
     6  O   -0.515202
     7  H    0.344653
     8  C    0.000251
     9  H    0.165134
    10  O   -0.478480
    11  H    0.359249
    12  C    0.051854
    13  H    0.138500
    14  N   -0.016761
    15  C   -0.036174
    16  H    0.136609
    17  C    0.029895
    18  C   -0.159059
    19  H    0.227198
    20  H   -0.088865
    21  C   -0.228541
    22  H    0.173096
    23  C   -0.014175
    24  H    0.182525
    25  C    0.368775
    26  O   -0.410277
    27  N   -0.509545
    28  H    0.253730
    29  H    0.283649
    30  N   -0.373334
    31  C    0.473870
    32  N   -0.520607
    33  H    0.298896
    34  H    0.282158
    35  N   -0.316628
    36  H    0.275889
    37  C    0.272123
    38  O   -0.437924
    39  C   -0.064271
    40  N   -0.206164
    41  H    0.293118
    42  C    0.123257
    43  C   -0.225973
    44  H    0.203520
    45  H    0.186648
    46  N   -0.364210
    47  H    0.265908
    48  C    0.381084
    49  C   -0.252352
    50  H    0.200984
    51  H    0.228991
    52  N   -0.425847
    53  H    0.255489
    54  C    0.097371
    55  C   -0.180185
    56  H    0.179788
    57  C   -0.187835
    58  H    0.157247
    59  C    0.281779
    60  C   -0.196816
    61  H    0.112560
    62  C   -0.190206
    63  H    0.112705
    64  C    0.326486
    65  O   -0.427501
    66  N   -0.525390
    67  H    0.248337
    68  H    0.150767
    69  H    0.300652
 Sum of Mulliken charges =   1.00000
 Mulliken charges with hydrogens summed into heavy atoms:
               1
     1  C    0.214796
     3  O   -0.308518
     4  C    0.172064
     6  O   -0.170549
     8  C    0.165385
    10  O   -0.119231
    12  C    0.190354
    14  N   -0.016761
    15  C    0.100435
    17  C    0.029895
    18  C   -0.020726
    21  C   -0.055445
    23  C    0.168350
    25  C    0.368775
    26  O   -0.410277
    27  N    0.027834
    30  N   -0.373334
    31  C    0.473870
    32  N    0.060447
    35  N   -0.040739
    37  C    0.272123
    38  O   -0.437924
    39  C   -0.064271
    40  N    0.086954
    42  C    0.123257
    43  C    0.164196
    46  N   -0.098302
    48  C    0.381084
    49  C    0.177622
    52  N   -0.170358
    54  C    0.097371
    55  C   -0.000397
    57  C   -0.030588
    59  C    0.281779
    60  C   -0.084256
    62  C   -0.077501
    64  C    0.326486
    65  O   -0.427501
    66  N    0.023600
 Electronic spatial extent (au):  <R**2>=          27247.3160
 Charge=              1.0000 electrons
 Dipole moment (field-independent basis, Debye):
    X=             -4.0861    Y=             -8.4274    Z=             10.2361  Tot=             13.8742
 Quadrupole moment (field-independent basis, Debye-Ang):
   XX=           -139.5971   YY=           -220.5152   ZZ=           -126.9919
   XY=             -9.8718   XZ=            -68.5373   YZ=             67.5643
 Traceless Quadrupole moment (field-independent basis, Debye-Ang):
   XX=             22.7710   YY=            -58.1472   ZZ=             35.3762
   XY=             -9.8718   XZ=            -68.5373   YZ=             67.5643
 Octapole moment (field-independent basis, Debye-Ang**2):
  XXX=            735.4071  YYY=           -127.1509  ZZZ=            591.0927  XYY=            255.4595
  XXY=           -128.6807  XXZ=            213.3792  XZZ=             37.1964  YZZ=           -100.4491
  YYZ=            128.8169  XYZ=            -80.8677
 Hexadecapole moment (field-independent basis, Debye-Ang**3):
 XXXX=          -6537.9788 YYYY=          -4904.2299 ZZZZ=         -15593.5949 XXXY=           1188.8417
 XXXZ=           -385.2891 YYYX=           1770.3054 YYYZ=           1393.0654 ZZZX=          -1380.7280
 ZZZY=           3519.6039 XXYY=          -2003.5398 XXZZ=          -3364.2522 YYZZ=          -5164.4591
 XXYZ=           1029.1520 YYXZ=            -76.5840 ZZXY=            489.3710
 N-N= 4.439242044937D+03 E-N=-1.322939090853D+04  KE= 1.867331994552D+03
 No NMR shielding tensors so no spin-rotation constants.
 Leave Link  601 at Sat Jun 22 17:42:36 2024, MaxMem=  2684354560 cpu:              10.9 elap:               0.9
 (Enter /storage/apps/GAUSSIAN/G16_RevA03/g16/l602.exe)

 **********************************************************************

            Electrostatic Properties Using The SCF Density

 **********************************************************************

       Atomic Center    1 is at  -4.143462  0.369632  6.717005
       Atomic Center    2 is at  -3.958127  0.429587  7.721461
       Atomic Center    3 is at  -2.969708 -0.219645  6.061603
       Atomic Center    4 is at  -4.286944  1.765248  6.105366
       Atomic Center    5 is at  -5.253684  2.110593  6.093412
       Atomic Center    6 is at  -3.456168  2.739984  6.784749
       Atomic Center    7 is at  -3.649926  2.804251  7.741751
       Atomic Center    8 is at  -3.674517  1.599745  4.704062
       Atomic Center    9 is at  -4.337128  1.184997  4.040939
       Atomic Center   10 is at  -3.221586  2.847822  4.178880
       Atomic Center   11 is at  -3.018132  3.408653  4.951929
       Atomic Center   12 is at  -2.489420  0.642720  4.998351
       Atomic Center   13 is at  -1.675029  1.172961  5.331547
       Atomic Center   14 is at  -2.045854 -0.198593  3.873055
       Atomic Center   15 is at  -0.705059 -0.247031  3.567620
       Atomic Center   16 is at  -0.113987  0.347157  4.145055
       Atomic Center   17 is at  -0.199132 -1.061137  2.615968
       Atomic Center   18 is at  -1.112890 -1.837550  1.764550
       Atomic Center   19 is at  -0.733656 -2.737070  1.462336
       Atomic Center   20 is at  -1.134498 -1.291937  0.603722
       Atomic Center   21 is at  -2.490032 -1.874078  2.249124
       Atomic Center   22 is at  -3.141639 -2.533470  1.827162
       Atomic Center   23 is at  -2.918021 -1.068979  3.231004
       Atomic Center   24 is at  -3.876760 -1.089313  3.575969
       Atomic Center   25 is at   1.263308 -1.299007  2.446501
       Atomic Center   26 is at   1.673041 -2.196781  1.670932
       Atomic Center   27 is at   2.170426 -0.559960  3.161758
       Atomic Center   28 is at   1.889773  0.114451  3.869886
       Atomic Center   29 is at   3.133841 -0.894758  3.195782
       Atomic Center   30 is at   2.158032 -3.131302 -1.938261
       Atomic Center   31 is at   3.277887 -2.438842 -2.264447
       Atomic Center   32 is at   4.401877 -3.100313 -2.636603
       Atomic Center   33 is at   4.443085 -4.113626 -2.581603
       Atomic Center   34 is at   5.253684 -2.573996 -2.893672
       Atomic Center   35 is at   3.323850 -1.061823 -2.263744
       Atomic Center   36 is at   4.244699 -0.598080 -2.412560
       Atomic Center   37 is at   2.240427 -0.275234 -1.892079
       Atomic Center   38 is at   2.365486  0.995334 -1.862355
       Atomic Center   39 is at   1.052172 -0.991988 -1.570367
       Atomic Center   40 is at  -0.111625 -0.303173 -1.168042
       Atomic Center   41 is at  -0.018675  0.708501 -1.060090
       Atomic Center   42 is at  -1.238736 -0.941227 -0.749332
       Atomic Center   43 is at  -1.379154 -2.368927 -1.312489
       Atomic Center   44 is at  -2.070582 -2.885499 -0.769268
       Atomic Center   45 is at  -1.722925 -2.315057 -2.278493
       Atomic Center   46 is at  -0.094320 -3.065823 -1.248641
       Atomic Center   47 is at  -0.094461 -4.080401 -1.313474
       Atomic Center   48 is at   1.053638 -2.396762 -1.596695
       Atomic Center   49 is at  -2.557838 -0.101811 -0.770654
       Atomic Center   50 is at  -2.924211 -0.008356  0.178553
       Atomic Center   51 is at  -3.249154 -0.628376 -1.312362
       Atomic Center   52 is at  -2.397764  1.246903 -1.315098
       Atomic Center   53 is at  -2.705704  1.995110 -0.694316
       Atomic Center   54 is at  -2.227755  2.129407 -5.424329
       Atomic Center   55 is at  -2.391114  3.147635 -4.455657
       Atomic Center   56 is at  -2.447676  4.113626 -4.773665
       Atomic Center   57 is at  -2.450451  2.861358 -3.129461
       Atomic Center   58 is at  -2.558605  3.612359 -2.449159
       Atomic Center   59 is at  -2.362594  1.520923 -2.675888
       Atomic Center   60 is at  -2.212990  0.497993 -3.641009
       Atomic Center   61 is at  -2.157125 -0.477051 -3.351605
       Atomic Center   62 is at  -2.146074  0.801419 -4.964968
       Atomic Center   63 is at  -2.045499  0.037801 -5.631969
       Atomic Center   64 is at  -2.135133  2.481193 -6.845044
       Atomic Center   65 is at  -2.408059  3.660607 -7.264723
       Atomic Center   66 is at  -1.732598  1.530235 -7.741751
       Atomic Center   67 is at  -1.565119  0.571325 -7.455600
       Atomic Center   68 is at  -5.008683 -0.269933  6.542504
       Atomic Center   69 is at  -1.651816  1.699823 -8.815443
 -----------------------------------------------------------------

              Electrostatic Properties (Atomic Units)

 -----------------------------------------------------------------
    Center     Electric         -------- Electric Field --------
               Potential          X             Y             Z
 -----------------------------------------------------------------
    1 Atom    -14.609163     -0.005386      0.007384     -0.004923
    2 Atom     -1.006478      0.014341      0.001618      0.072365
    3 Atom    -22.232384      0.015803     -0.030509      0.008273
    4 Atom    -14.595065      0.000242     -0.011880     -0.005560
    5 Atom     -1.004461     -0.067702      0.021812     -0.003677
    6 Atom    -22.229167      0.025751      0.017342     -0.023204
    7 Atom     -0.873786     -0.005257     -0.000930      0.007427
    8 Atom    -14.592618      0.004404     -0.002887      0.012028
    9 Atom     -0.990519     -0.047943     -0.028953     -0.045973
   10 Atom    -22.248118      0.001390      0.005845     -0.039251
   11 Atom     -0.897762      0.004390      0.010842      0.012223
   12 Atom    -14.553897     -0.009475      0.007616     -0.001058
   13 Atom     -0.988555      0.055487      0.037317      0.020475
   14 Atom    -18.191688     -0.000285      0.002479      0.001298
   15 Atom    -14.588611     -0.000264     -0.009968     -0.008375
   16 Atom     -0.953189      0.041272      0.042275      0.043443
   17 Atom    -14.628852     -0.001449      0.000046      0.000877
   18 Atom    -14.616036     -0.001601      0.003524      0.006876
   19 Atom     -0.992063      0.030080     -0.065781     -0.024264
   20 Atom     -0.950279      0.002866      0.002590      0.005199
   21 Atom    -14.642775      0.005175      0.008483      0.006015
   22 Atom     -0.981572     -0.048047     -0.047668     -0.028790
   23 Atom    -14.599266      0.007432     -0.006238     -0.009011
   24 Atom     -0.963133     -0.067533     -0.001234      0.026215
   25 Atom    -14.546740      0.001202     -0.010149     -0.007754
   26 Atom    -22.289815      0.008429     -0.020528     -0.017963
   27 Atom    -18.258208     -0.003582      0.000572     -0.010118
   28 Atom     -0.906797     -0.001390      0.007432      0.007752
   29 Atom     -0.911914      0.010456     -0.004181     -0.002904
   30 Atom    -18.287022      0.000256     -0.026762     -0.001327
   31 Atom    -14.512414     -0.010936     -0.003934      0.003765
   32 Atom    -18.233370     -0.004770      0.002698     -0.001307
   33 Atom     -0.890731     -0.001898     -0.014305      0.001066
   34 Atom     -0.882195     -0.000553     -0.003974      0.000174
   35 Atom    -18.216420     -0.004284     -0.001907     -0.000924
   36 Atom     -0.873745     -0.006583      0.006140     -0.000330
   37 Atom    -14.551621     -0.007825      0.017391      0.003839
   38 Atom    -22.303009      0.002609      0.026613      0.000321
   39 Atom    -14.620160      0.007512     -0.008060     -0.002323
   40 Atom    -18.202242     -0.003042     -0.004745     -0.005104
   41 Atom     -0.886430     -0.000605      0.020192     -0.000871
   42 Atom    -14.551210     -0.004672     -0.000034     -0.006804
   43 Atom    -14.597866      0.002782      0.007638      0.002490
   44 Atom     -0.975087     -0.051898     -0.039790      0.043594
   45 Atom     -0.985429     -0.024179      0.007169     -0.070858
   46 Atom    -18.237315      0.004349      0.005350      0.009072
   47 Atom     -0.902400      0.003753     -0.015714     -0.001840
   48 Atom    -14.559176      0.004545      0.008742     -0.001341
   49 Atom    -14.600900      0.006118      0.000031     -0.002865
   50 Atom     -0.978300     -0.026213      0.006071      0.071820
   51 Atom     -0.984875     -0.050693     -0.040819     -0.041911
   52 Atom    -18.250384      0.010808     -0.001751     -0.001198
   53 Atom     -0.918250     -0.003172      0.010292      0.004778
   54 Atom    -14.684066     -0.000121     -0.002141      0.007840
   55 Atom    -14.697115      0.001354     -0.011369     -0.001120
   56 Atom     -1.049392     -0.004706      0.069922     -0.024885
   57 Atom    -14.694808      0.001469     -0.010662     -0.007372
   58 Atom     -1.029165     -0.007613      0.054539      0.049313
   59 Atom    -14.622536     -0.000067      0.003171     -0.014720
   60 Atom    -14.687380     -0.000308      0.012989     -0.000829
   61 Atom     -1.016224      0.004414     -0.069214      0.020827
   62 Atom    -14.685561     -0.001388      0.014194      0.004873
   63 Atom     -1.023596      0.006772     -0.055457     -0.046676
   64 Atom    -14.597064     -0.004909      0.018210     -0.003823
   65 Atom    -22.346290     -0.005404      0.022774     -0.007325
   66 Atom    -18.293617      0.000699      0.006605     -0.000541
   67 Atom     -0.951865      0.003856     -0.012338      0.004045
   68 Atom     -1.000391     -0.014893     -0.010500     -0.005547
   69 Atom     -0.933666     -0.006827      0.004016      0.041721
 -----------------------------------------------------------------
 Leave Link  602 at Sat Jun 22 17:42:37 2024, MaxMem=  2684354560 cpu:               3.8 elap:               0.3
 (Enter /storage/apps/GAUSSIAN/G16_RevA03/g16/l701.exe)
 ... and contract with generalized density number  0.
 Compute integral first derivatives.
 R6Disp: Adding Grimme-D3 dispersion energy 1st derivatives to the gradient.
   1 Symmetry operations used in ECPInt.
 ECPInt:  NShTT=  150975 NPrTT=  462228 LenC2=  107357 LenP2D=  217232.
 LDataN:  DoStor=T MaxTD1= 7 Len=  274
 Leave Link  701 at Sat Jun 22 17:42:38 2024, MaxMem=  2684354560 cpu:              17.4 elap:               1.2
 (Enter /storage/apps/GAUSSIAN/G16_RevA03/g16/l702.exe)
 L702 exits ... SP integral derivatives will be done elsewhere.
 Leave Link  702 at Sat Jun 22 17:42:38 2024, MaxMem=  2684354560 cpu:               0.3 elap:               0.0
 (Enter /storage/apps/GAUSSIAN/G16_RevA03/g16/l703.exe)
 Integral derivatives from FoFJK, PRISM(SPDF).
 Compute integral first derivatives, UseDBF=F ICtDFT=           0.
 Calling FoFJK, ICntrl=      2127 FMM=T ISym2X=0 I1Cent= 0 IOpClX= 0 NMat=1 NMatS=1 NMatT=0.
 FoFJK:  IHMeth= 1 ICntrl=    2127 DoSepK=F KAlg= 0 I1Cent=           0 FoldK=F
 IRaf=         0 NMat=       1 IRICut=       1 DoRegI=T DoRafI=F ISym2E= 0 IDoP0=0 IntGTp=1.
 FoFCou: FMM=T IPFlag=           0 FMFlag=      100000 FMFlg1=        2001
         NFxFlg=           0 DoJE=F BraDBF=F KetDBF=F FulRan=T
         wScrn=  0.000000 ICntrl=      2127 IOpCl=  0 I1Cent=           0 NGrid=           0
[...]
   1                    0.22092   0.19364  -0.17923   0.17754   0.17500
                          X11       X10       Y33       Y32       Y36
   1                    0.17332   0.16766   0.16652   0.16548   0.15823
 Quadratic step=5.689D+00 exceeds max=3.000D-01 adjusted using Lamda=-3.628D-01.
 Angle between NR and scaled steps=  82.16 degrees.
 Angle between quadratic step and forces=  23.41 degrees.
 Linear search not attempted -- first point.
 Variable       Old X    -DE/DX   Delta X   Delta X   Delta X     New X
                                 (Linear)    (Quad)   (Total)
    X1       -7.83001   0.01055   0.00000   0.01493   0.01493  -7.81508
    Y1        0.69850  -0.00028   0.00000  -0.00176  -0.00176   0.69674
    Z1       12.69330  -0.06314   0.00000  -0.03745  -0.03745  12.65585
    X2       -7.47978   0.01032   0.00000   0.01505   0.01505  -7.46473
    Y2        0.81180   0.00086   0.00000  -0.00370  -0.00370   0.80810
    Z2       14.59145   0.05169   0.00000   0.04535   0.04535  14.63680
    X3       -5.61194  -0.00571   0.00000  -0.01152  -0.01152  -5.62345
    Y3       -0.41507   0.01355   0.00000   0.00058   0.00058  -0.41449
    Z3       11.45477  -0.00990   0.00000  -0.01514  -0.01514  11.43963
    X4       -8.10115   0.04893   0.00000   0.02628   0.02628  -8.07487
    Y4        3.33583  -0.01281   0.00000  -0.00406  -0.00406   3.33178
    Z4       11.53747   0.01362   0.00000   0.01282   0.01282  11.55029
    X5       -9.92802  -0.04787   0.00000  -0.04725  -0.04725  -9.97527
    Y5        3.98844   0.01464   0.00000   0.01196   0.01196   4.00040
    Z5       11.51488  -0.00334   0.00000  -0.00546  -0.00546  11.50942
    X6       -6.53121  -0.00451   0.00000   0.00488   0.00488  -6.52633
    Y6        5.17782  -0.01132   0.00000  -0.01732  -0.01732   5.16050
    Z6       12.82132   0.00103   0.00000  -0.00172  -0.00172  12.81960
    X7       -6.89736  -0.00111   0.00000  -0.00727  -0.00727  -6.90463
    Y7        5.29927  -0.00341   0.00000  -0.00781  -0.00781   5.29146
    Z7       14.62979  -0.01743   0.00000  -0.02306  -0.02306  14.60673
    X8       -6.94383   0.05188   0.00000   0.03168   0.03168  -6.91215
    Y8        3.02308   0.04330   0.00000   0.02535   0.02535   3.04843
    Z8        8.88939   0.03816   0.00000   0.02889   0.02889   8.91828
    X9       -8.19598  -0.03409   0.00000  -0.02840  -0.02840  -8.22439
    Y9        2.23932  -0.02087   0.00000  -0.01251  -0.01251   2.22681
    Z9        7.63627  -0.03238   0.00000  -0.02170  -0.02170   7.61457
   X10       -6.08792  -0.00560   0.00000  -0.00151  -0.00151  -6.08942
   Y10        5.38160  -0.01369   0.00000  -0.01201  -0.01201   5.36960
   Z10        7.89694   0.00763   0.00000   0.00625   0.00625   7.90319
   X11       -5.70344  -0.00091   0.00000   0.00071   0.00071  -5.70273
   Y11        6.44142  -0.00437   0.00000  -0.00397  -0.00397   6.43745
   Z11        9.35779  -0.00753   0.00000  -0.01138  -0.01138   9.34641
   X12       -4.70432  -0.05744   0.00000  -0.03375  -0.03375  -4.73807
   Y12        1.21456  -0.04383   0.00000  -0.02687  -0.02687   1.18769
   Z12        9.44551  -0.00203   0.00000   0.00551   0.00551   9.45102
   X13       -3.16535   0.03911   0.00000   0.03367   0.03367  -3.13167
   Y13        2.21657   0.02652   0.00000   0.01968   0.01968   2.23625
   Z13       10.07516   0.01324   0.00000   0.01141   0.01141  10.08657
   X14       -3.86610   0.00359   0.00000  -0.00466  -0.00466  -3.87076
   Y14       -0.37529   0.00733   0.00000   0.00946   0.00946  -0.36582
   Z14        7.31901   0.00209   0.00000   0.00278   0.00278   7.32179
   X15       -1.33237  -0.04263   0.00000  -0.02421  -0.02421  -1.35658
   Y15       -0.46682  -0.03024   0.00000  -0.01351  -0.01351  -0.48033
   Z15        6.74182  -0.02451   0.00000  -0.00721  -0.00721   6.73462
   X16       -0.21540   0.02910   0.00000   0.02436   0.02436  -0.19104
   Y16        0.65603   0.03023   0.00000   0.02782   0.02782   0.68385
   Z16        7.83302   0.03198   0.00000   0.03581   0.03581   7.86883
   X17       -0.37631   0.00229   0.00000   0.00211   0.00211  -0.37420
   Y17       -2.00526  -0.00218   0.00000  -0.00064  -0.00064  -2.00589
   Z17        4.94346  -0.00678   0.00000  -0.00785  -0.00785   4.93561
   X18       -2.10306  -0.01604   0.00000  -0.00063  -0.00063  -2.10369
   Y18       -3.47247   0.04585   0.00000   0.02361   0.02361  -3.44886
   Z18        3.33452   0.01620   0.00000   0.00245   0.00245   3.33696
   X19       -1.38641   0.02205   0.00000   0.02506   0.02506  -1.36135
   Y19       -5.17231  -0.04672   0.00000  -0.04588  -0.04588  -5.21819
   Z19        2.76341  -0.01849   0.00000  -0.02234  -0.02234   2.74108
   X20       -2.14389   0.00212   0.00000   0.00560   0.00560  -2.13829
   Y20       -2.44141  -0.00090   0.00000   0.00801   0.00801  -2.43339
   Z20        1.14087   0.00879   0.00000   0.00666   0.00666   1.14753
   X21       -4.70548   0.03228   0.00000   0.01790   0.01790  -4.68758
   Y21       -3.54149   0.03256   0.00000   0.02108   0.02108  -3.52042
   Z21        4.25023   0.01764   0.00000   0.00547   0.00547   4.25570
   X22       -5.93684  -0.03459   0.00000  -0.03428  -0.03428  -5.97112
   Y22       -4.78756  -0.03398   0.00000  -0.03195  -0.03195  -4.81952
   Z22        3.45284  -0.02029   0.00000  -0.01753  -0.01753   3.43531
   X23       -5.51426   0.05487   0.00000   0.02755   0.02755  -5.48671
   Y23       -2.02008   0.00945   0.00000   0.01483   0.01483  -2.00525
   Z23        6.10571  -0.01056   0.00000   0.00159   0.00159   6.10731
   X24       -7.32601  -0.04764   0.00000  -0.04426  -0.04426  -7.37027
   Y24       -2.05850  -0.00013   0.00000   0.00213   0.00213  -2.05638
   Z24        6.75760   0.01952   0.00000   0.02342   0.02342   6.78102
   X25        2.38731   0.03209   0.00000   0.01244   0.01244   2.39974
   Y25       -2.45477  -0.03116   0.00000  -0.01019  -0.01019  -2.46496
   Z25        4.62322  -0.02446   0.00000  -0.00384  -0.00384   4.61938
   X26        3.16159  -0.02425   0.00000  -0.02745  -0.02745   3.13414
   Y26       -4.15132   0.03720   0.00000   0.02469   0.02469  -4.12662
   Z26        3.15760   0.02830   0.00000   0.01327   0.01327   3.17087
   X27        4.10151  -0.00926   0.00000  -0.01268  -0.01268   4.08883
   Y27       -1.05817   0.00067   0.00000  -0.00572  -0.00572  -1.06389
   Z27        5.97486   0.00501   0.00000   0.00219   0.00219   5.97704
   X28        3.57115   0.00448   0.00000   0.00281   0.00281   3.57397
   Y28        0.21628  -0.00838   0.00000  -0.01130  -0.01130   0.20499
   Z28        7.31302  -0.00820   0.00000  -0.00931  -0.00931   7.30372
   X29        5.92210  -0.01174   0.00000  -0.01988  -0.01988   5.90222
   Y29       -1.69085   0.00331   0.00000   0.00518   0.00518  -1.68567
   Z29        6.03915  -0.00368   0.00000  -0.00834  -0.00834   6.03082
   X30        4.07809   0.01822   0.00000   0.00963   0.00963   4.08772
   Y30       -5.91730   0.02658   0.00000   0.02381   0.02381  -5.89349
   Z30       -3.66278  -0.00613   0.00000  -0.00639  -0.00639  -3.66918
   X31        6.19431  -0.02857   0.00000  -0.02178  -0.02178   6.17253
   Y31       -4.60874  -0.01140   0.00000  -0.00327  -0.00327  -4.61201
   Z31       -4.27918   0.00834   0.00000   0.00712   0.00712  -4.27207
   X32        8.31834   0.00596   0.00000  -0.01392  -0.01392   8.30443
   Y32       -5.85874   0.01521   0.00000   0.01404   0.01404  -5.84470
   Z32       -4.98246   0.00001   0.00000   0.00613   0.00613  -4.97632
   X33        8.39621  -0.00315   0.00000  -0.01016  -0.01016   8.38605
   Y33       -7.77363   0.00924   0.00000   0.01905   0.01905  -7.75458
   Z33       -4.87852   0.00001   0.00000   0.00096   0.00096  -4.87756
   X34        9.92802  -0.01922   0.00000  -0.02840  -0.02840   9.89963
   Y34       -4.86415  -0.01478   0.00000  -0.01774  -0.01774  -4.88188
   Z34       -5.46825   0.00601   0.00000   0.00951   0.00951  -5.45874
   X35        6.28117   0.02025   0.00000  -0.00231  -0.00231   6.27886
   Y35       -2.00655  -0.01981   0.00000  -0.01581  -0.01581  -2.02236
   Z35       -4.27786  -0.00082   0.00000   0.00788   0.00788  -4.26997
   X36        8.02132  -0.02585   0.00000  -0.03917  -0.03917   7.98215
   Y36       -1.13021  -0.00407   0.00000  -0.00600  -0.00600  -1.13621
   Z36       -4.55908   0.00279   0.00000   0.00350   0.00350  -4.55558
   X37        4.23379   0.00212   0.00000  -0.00504  -0.00504   4.22875
   Y37       -0.52012   0.07939   0.00000   0.02236   0.02236  -0.49776
   Z37       -3.57551   0.00332   0.00000   0.00334   0.00334  -3.57217
   X38        4.47012  -0.00982   0.00000  -0.01537  -0.01537   4.45475
   Y38        1.88091  -0.07213   0.00000  -0.05060  -0.05060   1.83031
   Z38       -3.51934   0.00051   0.00000   0.00494   0.00494  -3.51440
   X39        1.98832  -0.00702   0.00000  -0.00204  -0.00204   1.98628
   Y39       -1.87459  -0.01598   0.00000  -0.00955  -0.00955  -1.88413
   Z39       -2.96756   0.00144   0.00000   0.00246   0.00246  -2.96510
   X40       -0.21094  -0.00442   0.00000   0.00562   0.00562  -0.20532
   Y40       -0.57291  -0.01439   0.00000  -0.01272  -0.01272  -0.58563
   Z40       -2.20728   0.00899   0.00000   0.00482   0.00482  -2.20246
   X41       -0.03529  -0.00269   0.00000  -0.00436  -0.00436  -0.03965
   Y41        1.33887  -0.00292   0.00000  -0.00965  -0.00965   1.32923
   Z41       -2.00328  -0.00307   0.00000  -0.00657  -0.00657  -2.00985
   X42       -2.34087   0.01092   0.00000   0.01572   0.01572  -2.32516
   Y42       -1.77866   0.01253   0.00000   0.01382   0.01382  -1.76484
   Z42       -1.41603  -0.02987   0.00000  -0.03092  -0.03092  -1.44695
   X43       -2.60622   0.06377   0.00000   0.03865   0.03865  -2.56758
   Y43       -4.47662   0.02662   0.00000   0.01664   0.01664  -4.45998
   Z43       -2.48024   0.02424   0.00000   0.01285   0.01285  -2.46739
   X44       -3.91283  -0.03727   0.00000  -0.02998  -0.02998  -3.94281
   Y44       -5.45280  -0.02863   0.00000  -0.02574  -0.02574  -5.47854
   Z44       -1.45371   0.03261   0.00000   0.04163   0.04163  -1.41208
   X45       -3.25586  -0.01725   0.00000  -0.01063  -0.01063  -3.26649
   Y45       -4.37482   0.00657   0.00000   0.01312   0.01312  -4.36170
   Z45       -4.30573  -0.05095   0.00000  -0.05375  -0.05375  -4.35947
   X46       -0.17824   0.00568   0.00000   0.01998   0.01998  -0.15826
   Y46       -5.79357   0.00486   0.00000   0.01023   0.01023  -5.78333
   Z46       -2.35959  -0.00212   0.00000  -0.00107  -0.00107  -2.36066
   X47       -0.17850   0.00367   0.00000   0.01068   0.01068  -0.16783
   Y47       -7.71084   0.00784   0.00000   0.01540   0.01540  -7.69544
   Z47       -2.48211  -0.00084   0.00000  -0.00281  -0.00281  -2.48492
   X48        1.99109   0.01185   0.00000   0.01592   0.01592   2.00701
   Y48       -4.52922   0.00159   0.00000   0.00507   0.00507  -4.52416
   Z48       -3.01732  -0.00219   0.00000  -0.00291  -0.00291  -3.02023
   X49       -4.83361   0.06408   0.00000   0.03945   0.03945  -4.79416
   Y49       -0.19239   0.03405   0.00000   0.01959   0.01959  -0.17280
   Z49       -1.45632  -0.02472   0.00000  -0.01464  -0.01464  -1.47096
   X50       -5.52596  -0.01827   0.00000  -0.00844  -0.00844  -5.53440
   Y50       -0.01579   0.00392   0.00000   0.00496   0.00496  -0.01083
   Z50        0.33742   0.05238   0.00000   0.05537   0.05537   0.39279
   X51       -6.14001  -0.03576   0.00000  -0.02784  -0.02784  -6.16786
   Y51       -1.18746  -0.03010   0.00000  -0.02942  -0.02942  -1.21688
   Z51       -2.48000  -0.03098   0.00000  -0.03828  -0.03828  -2.51829
   X52       -4.53112   0.00001   0.00000   0.00872   0.00872  -4.52240
   Y52        2.35631  -0.00738   0.00000  -0.00186  -0.00186   2.35445
   Z52       -2.48518   0.01722   0.00000   0.00946   0.00946  -2.47571
   X53       -5.11304   0.00350   0.00000   0.00406   0.00406  -5.10898
   Y53        3.77021  -0.00696   0.00000  -0.00803  -0.00803   3.76219
   Z53       -1.31207  -0.00969   0.00000  -0.01129  -0.01129  -1.32336
   X54       -4.20985   0.00027   0.00000  -0.00058  -0.00058  -4.21043
   Y54        4.02400  -0.01118   0.00000  -0.00123  -0.00123   4.02277
   Z54      -10.25050   0.02462   0.00000  -0.00422  -0.00422 -10.25471
   X55       -4.51855   0.00633   0.00000   0.00287   0.00287  -4.51568
   Y55        5.94817  -0.05389   0.00000  -0.03324  -0.03324   5.91493
   Z55       -8.41997  -0.01498   0.00000  -0.01726  -0.01726  -8.43723
   X56       -4.62544  -0.00349   0.00000  -0.00371  -0.00371  -4.62915
   Y56        7.77363   0.04985   0.00000   0.04603   0.04603   7.81965
   Z56       -9.02092  -0.01834   0.00000  -0.02388  -0.02388  -9.04480
   X57       -4.63068   0.00528   0.00000  -0.00007  -0.00007  -4.63076
   Y57        5.40718  -0.05713   0.00000  -0.03820  -0.03820   5.36899
   Z57       -5.91382  -0.01104   0.00000  -0.00060  -0.00060  -5.91442
   X58       -4.83506  -0.00548   0.00000  -0.00511  -0.00511  -4.84017
   Y58        6.82637   0.03893   0.00000   0.03375   0.03375   6.86012
   Z58       -4.62824   0.03586   0.00000   0.03707   0.03707  -4.59117
   X59       -4.46466  -0.00006   0.00000  -0.00341  -0.00341  -4.46807
   Y59        2.87413   0.00223   0.00000  -0.00139  -0.00139   2.87274
   Z59       -5.05670  -0.01526   0.00000   0.00292   0.00292  -5.05377
   X60       -4.18195  -0.00595   0.00000  -0.00723  -0.00723  -4.18918
   Y60        0.94107   0.05317   0.00000   0.03158   0.03158   0.97265
   Z60       -6.88051   0.02055   0.00000   0.02064   0.02064  -6.85987
   X61       -4.07637   0.00330   0.00000   0.00329   0.00329  -4.07309
   Y61       -0.90150  -0.04970   0.00000  -0.04679  -0.04679  -0.94829
   Z61       -6.33361   0.01562   0.00000   0.02088   0.02088  -6.31273
   X62       -4.05549  -0.00475   0.00000  -0.00529  -0.00529  -4.06078
   Y62        1.51446   0.05861   0.00000   0.03718   0.03718   1.55164
   Z62       -9.38243   0.00628   0.00000  -0.00088  -0.00088  -9.38332
   X63       -3.86543   0.00467   0.00000   0.00350   0.00350  -3.86194
   Y63        0.07143  -0.03994   0.00000  -0.03626  -0.03626   0.03517
   Z63      -10.64288  -0.03338   0.00000  -0.03334  -0.03334 -10.67622
   X64       -4.03482  -0.01419   0.00000  -0.00572  -0.00572  -4.04054
   Y64        4.68878   0.07697   0.00000   0.02523   0.02523   4.71400
   Z64      -12.93526  -0.05873   0.00000  -0.04277  -0.04277 -12.97803
   X65       -4.55057   0.01740   0.00000   0.00892   0.00892  -4.54165
   Y65        6.91755  -0.07293   0.00000  -0.04234  -0.04234   6.87521
   Z65      -13.72834   0.03244   0.00000   0.02376   0.02376 -13.70458
   X66       -3.27414   0.00471   0.00000  -0.00357  -0.00357  -3.27771
   Y66        2.89172  -0.00754   0.00000   0.00136   0.00136   2.89308
   Z66      -14.62979  -0.03836   0.00000  -0.02158  -0.02158 -14.65137
   X67       -2.95765  -0.00004   0.00000   0.00141   0.00141  -2.95623
   Y67        1.07965   0.00997   0.00000   0.01596   0.01596   1.09560
   Z67      -14.08904  -0.00224   0.00000  -0.00678  -0.00678 -14.09582
   X68       -9.46504  -0.00063   0.00000   0.00167   0.00167  -9.46337
   Y68       -0.51010   0.00042   0.00000   0.00392   0.00392  -0.50618
   Z68       12.36354  -0.00275   0.00000  -0.01390  -0.01390  12.34964
   X69       -3.12148  -0.00840   0.00000  -0.01427  -0.01427  -3.13575
   Y69        3.21220   0.00109   0.00000   0.00845   0.00845   3.22064
   Z69      -16.65877   0.06107   0.00000   0.07625   0.07625 -16.58252
         Item               Value     Threshold  Converged?
 Maximum Force            0.079391     0.000450     NO 
 RMS     Force            0.026740     0.000300     NO 
 Maximum Displacement     0.076254     0.001800     NO 
 RMS     Displacement     0.020896     0.001200     NO 
 Predicted change in Energy=-6.946691D-02
 GradGradGradGradGradGradGradGradGradGradGradGradGradGradGradGradGradGrad

 Leave Link  103 at Sat Jun 22 17:47:42 2024, MaxMem=  2684354560 cpu:               3.6 elap:               0.2
 (Enter /storage/apps/GAUSSIAN/G16_RevA03/g16/l9999.exe)

 Test job not archived.
 1\1\GINC-T130\Force\RM062X\def2TZVP\C24H30N9O6(1+)\LV87696\22-Jun-2024
 \0\\#P M062X/Def2TZVP scf=(direct,conver=8) EmpiricalDispersion=GD3 No
 Symm force Charge Prop=(Field,Read)\\Gaussian run using SANDER externa
 l interface, route from template gau_job.tpl\\1,1\C,-4.143462298,0.369
 6315529,6.7170053878\H,-3.9581266165,0.4295867724,7.7214611064\O,-2.96
 97082962,-0.2196445919,6.061603422\C,-4.2869442113,1.7652478022,6.1053
 655963\H,-5.2536835667,2.1105933337,6.0934121043\O,-3.4561676978,2.739
 9840485,6.7847489757\H,-3.6499258071,2.8042512787,7.7417508637\C,-3.67
 45171526,1.5997453962,4.70406155\H,-4.3371282016,1.1849972043,4.040938
 9174\O,-3.221586019,2.8478220349,4.1788795344\H,-3.018131925,3.4086530
 106,4.951928991\C,-2.4894199714,0.6427195105,4.998350767\H,-1.67502890
 32,1.1729607483,5.3315465122\N,-2.0458544379,-0.1985932432,3.873055059
 5\C,-0.7050593569,-0.2470311302,3.5676198277\H,-0.1139869105,0.3471565
 381,4.1450548313\C,-0.1991321357,-1.0611373392,2.6159675861\C,-1.11289
 02353,-1.8375502136,1.7645498588\H,-0.7336559678,-2.7370702016,1.46233
 57075\H,-1.1344976762,-1.2919366289,0.6037217131\C,-2.490032419,-1.874
 0777725,2.2491240243\H,-3.1416385835,-2.5334700019,1.8271616168\C,-2.9
 180206389,-1.0689793273,3.2310039885\H,-3.8767597274,-1.0893125581,3.5
 759692255\C,1.2633083378,-1.2990071647,2.4465014672\O,1.6730410433,-2.
 1967813107,1.6709317401\N,2.1704256784,-0.5599601281,3.1617581573\H,1.
 8897729743,0.1144511782,3.8698860834\H,3.1338412422,-0.894757545,3.195
 7823176\N,2.1580317153,-3.1313021525,-1.9382613626\C,3.2778868693,-2.4
 38841693,-2.2644471479\N,4.4018774769,-3.1003130028,-2.6366029034\H,4.
 4430849884,-4.1136259751,-2.5816025011\H,5.2536835667,-2.5739956777,-2
 .8936721619\N,3.323849526,-1.0618225986,-2.2637441791\H,4.2446990823,-
 0.5980801536,-2.4125599346\C,2.2404272497,-0.2752337523,-1.8920786243\
 O,2.365485511,0.9953336889,-1.8623553409\C,1.0521723388,-0.9919880135,
 -1.5703666818\N,-0.1116252631,-0.3031727858,-1.1680415216\H,-0.0186754
 882,0.7085006506,-1.060090434\C,-1.2387362078,-0.9412267547,-0.7493319
 577\C,-1.3791535935,-2.3689269416,-1.3124886921\H,-2.0705824618,-2.885
 4992025,-0.7692679305\H,-1.7229251688,-2.3150569451,-2.2784928531\N,-0
 .0943199982,-3.0658233079,-1.2486406652\H,-0.0944606734,-4.0804014669,
 -1.3134744813\C,1.0536376458,-2.3967624427,-1.5966953081\C,-2.55783829
 22,-0.1018106916,-0.7706536139\H,-2.9242106652,-0.0083564622,0.1785533
 072\H,-3.2491544326,-0.628376431,-1.3123620776\N,-2.3977642956,1.24690
 32184,-1.3150982724\H,-2.7057039005,1.9951096613,-0.6943164121\C,-2.22
 77548872,2.1294070194,-5.4243287986\C,-2.3911136594,3.1476354478,-4.45
 56569898\H,-2.4476757328,4.1136259751,-4.7736645951\C,-2.4504511348,2.
 8613584673,-3.1294605757\H,-2.5586053847,3.612358798,-2.4491589834\C,-
 2.3625939022,1.5209231135,-2.6758879422\C,-2.2129902871,0.4979931188,-
 3.6410092628\H,-2.1571245612,-0.4770506673,-3.3516045315\C,-2.14607444
 4,0.8014187869,-4.9649682714\H,-2.0454988134,0.0378009516,-5.631968640
 1\C,-2.1351332291,2.4811932751,-6.8450444904\O,-2.4080592129,3.6606071
 904,-7.2647229443\N,-1.732597816,1.5302347244,-7.7417508637\H,-1.56511
 92495,0.5713246121,-7.4555997816\H,-5.0086825216,-0.2699333995,6.54250
 42805\H,-1.6518158756,1.6998225666,-8.8154427384\\Version=ES64L-G16Rev
 A.03\HF=-1876.4295675\RMSD=7.660e-10\RMSF=2.674e-02\Dipole=0.1958326,-
 3.3514919,4.0686754\Quadrupole=16.929649,-43.2309897,26.3013406,-7.339
 4488,-50.9557897,50.2323776\PG=C01 [X(C24H30N9O6)]\\@


 Luck is a matter of preparation meeting opportunity.
                                    -- Oprah Winfrey
 Job cpu time:       0 days  7 hours 38 minutes 22.5 seconds.
 Elapsed time:       0 days  0 hours 29 minutes 10.4 seconds.
 File lengths (MBytes):  RWF=   1039 Int=      0 D2E=      0 Chk=    113 Scr=      1
 Normal termination of Gaussian 16 at Sat Jun 22 17:47:42 2024.
