 Entering Gaussian System, Link 0=g16
 Initial command:
 /storage/apps/GAUSSIAN/G16_RevA03/g16/l1.exe "/scratch/tmp/2140822/Gau-2182.inp" -scrdir="/scratch/tmp/2140822/"
 Entering Link 1 = /storage/apps/GAUSSIAN/G16_RevA03/g16/l1.exe PID=      2183.
  
 Copyright (c) 1988,1990,1992,1993,1995,1998,2003,2009,2016,
            Gaussian, Inc.  All Rights Reserved.
  
 This is part of the Gaussian(R) 16 program.  It is based on
 the Gaussian(R) 09 system (copyright 2009, Gaussian, Inc.),
 the Gaussian(R) 03 system (copyright 2003, Gaussian, Inc.),
 the Gaussian(R) 98 system (copyright 1998, Gaussian, Inc.),
 the Gaussian(R) 94 system (copyright 1995, Gaussian, Inc.),
 the Gaussian 92(TM) system (copyright 1992, Gaussian, Inc.),
 the Gaussian 90(TM) system (copyright 1990, Gaussian, Inc.),
 the Gaussian 88(TM) system (copyright 1988, Gaussian, Inc.),
 the Gaussian 86(TM) system (copyright 1986, Carnegie Mellon
 University), and the Gaussian 82(TM) system (copyright 1983,
 Carnegie Mellon University). Gaussian is a federally registered
 trademark of Gaussian, Inc.
  
 This software contains proprietary and confidential information,
 including trade secrets, belonging to Gaussian, Inc.
  
 This software is provided under written license and may be
 used, copied, transmitted, or stored only in accord with that
 written license.
  
 The following legend is applicable only to US Government
 contracts under FAR:
  
                    RESTRICTED RIGHTS LEGEND
  
 Use, reproduction and disclosure by the US Government is
 subject to restrictions as set forth in subparagraphs (a)
 and (c) of the Commercial Computer Software - Restricted
 Rights clause in FAR 52.227-19.
  
 Gaussian, Inc.
 340 Quinnipiac St., Bldg. 40, Wallingford CT 06492
  
  
 ---------------------------------------------------------------
 Warning -- This program may not be used in any manner that
 competes with the business of Gaussian, Inc. or will provide
 assistance to any competitor of Gaussian, Inc.  The licensee
 of this program is prohibited from giving any competitor of
 Gaussian, Inc. access to this program.  By using this program,
 the user acknowledges that Gaussian, Inc. is engaged in the
 business of creating and licensing software in the field of
 computational chemistry and represents and warrants to the
 licensee that it is not a competitor of Gaussian, Inc. and that
 it will not use this program in any manner prohibited above.
 ---------------------------------------------------------------
  

 Cite this work as:
 Gaussian 16, Revision A.03,
 M. J. Frisch, G. W. Trucks, H. B. Schlegel, G. E. Scuseria, 
 M. A. Robb, J. R. Cheeseman, G. Scalmani, V. Barone, 
 G. A. Petersson, H. Nakatsuji, X. Li, M. Caricato, A. V. Marenich, 
 J. Bloino, B. G. Janesko, R. Gomperts, B. Mennucci, H. P. Hratchian, 
 J. V. Ortiz, A. F. Izmaylov, J. L. Sonnenberg, D. Williams-Young, 
 F. Ding, F. Lipparini, F. Egidi, J. Goings, B. Peng, A. Petrone, 
 T. Henderson, D. Ranasinghe, V. G. Zakrzewski, J. Gao, N. Rega, 
 G. Zheng, W. Liang, M. Hada, M. Ehara, K. Toyota, R. Fukuda, 
 J. Hasegawa, M. Ishida, T. Nakajima, Y. Honda, O. Kitao, H. Nakai, 
 T. Vreven, K. Throssell, J. A. Montgomery, Jr., J. E. Peralta, 
 F. Ogliaro, M. J. Bearpark, J. J. Heyd, E. N. Brothers, K. N. Kudin, 
 V. N. Staroverov, T. A. Keith, R. Kobayashi, J. Normand, 
 K. Raghavachari, A. P. Rendell, J. C. Burant, S. S. Iyengar, 
 J. Tomasi, M. Cossi, J. M. Millam, M. Klene, C. Adamo, R. Cammi, 
 J. W. Ochterski, R. L. Martin, K. Morokuma, O. Farkas, 
 J. B. Foresman, and D. J. Fox, Gaussian, Inc., Wallingford CT, 2016.
 
 ******************************************
 Gaussian 16:  ES64L-G16RevA.03 25-Dec-2016
                22-Jun-2024 
 ******************************************
 %chk=gau_job.chk
 %NProcShared=16
 Will use up to   16 processors via shared memory.
 %mem=20GB
 ----------------------------------------------------------------------
 #P M062X/Def2TZVP scf=(direct,conver=8) EmpiricalDispersion=GD3 NoSymm
  force Charge Prop=(Field,Read)
 ----------------------------------------------------------------------
 1/10=7,18=10,28=-2,30=1,38=1,125=101/1,3;
 2/12=2,15=1,17=6,18=5,29=2,40=1/2;
 3/5=44,7=101,11=2,25=1,30=1,71=1,74=-55,124=31/1,2,3;
 4//1;
 5/5=2,6=8,38=5/2;
 6/7=2,8=2,9=2,10=2,14=2,15=1,28=1/1,2;
 7/7=1,16=-2,29=1,30=1/1,2,3,16;
 1/10=7,18=10,28=-2,30=1/3;
 99/12=1/99;
 Leave Link    1 at Sat Jun 22 17:21:46 2024, MaxMem=  2684354560 cpu:               0.9 elap:               0.1
 (Enter /storage/apps/GAUSSIAN/G16_RevA03/g16/l101.exe)
 ----------------------------------------------------------------------
 Gaussian run using SANDER external interface, route from template gau_
 job.tpl
 ----------------------------------------------------------------------
 Symbolic Z-matrix:
 Charge =  1 Multiplicity = 1
 C                    -4.1429    0.37389   6.71286 
 H                    -3.95252   0.43044   7.71648 
 O                    -2.97145  -0.21581   6.05071 
 C                    -4.28551   1.7711    6.10497 
 H                    -5.2516    2.11805   6.09535 
 O                    -3.4507    2.74163   6.78348 
 H                    -3.64684   2.81202   7.73988 
 C                    -3.67645   1.60882   4.70086 
 H                    -4.34009   1.1958    4.03766 
 O                    -3.21978   2.85469   4.1793 
 H                    -3.02109   3.41783   4.95206 
 C                    -2.4929    0.64815   4.99403 
 H                    -1.67563   1.17588   5.32418 
 N                    -2.04997  -0.20059   3.86832 
 C                    -0.7131   -0.23756   3.55841 
 H                    -0.12533   0.38088   4.1133 
 C                    -0.20667  -1.07804   2.62453 
 C                    -1.11236  -1.86722   1.81971 
 H                    -0.72917  -2.7244    1.41884 
 H                    -1.1343   -1.23197   0.48953 
 C                    -2.48093  -1.88836   2.25985 
 H                    -3.13487  -2.539     1.8278 
 C                    -2.92041  -1.06549   3.22977 
 H                    -3.8842   -1.07324   3.56107 
 C                     1.2645   -1.30549   2.44668 
 O                     1.66912  -2.20813   1.68063 
 N                     2.16677  -0.55776   3.15677 
 H                     1.88529   0.11926   3.86218 
 H                     3.13311  -0.88569   3.18788 
 N                     2.1557   -3.12509  -1.94148 
 C                     3.27516  -2.43777  -2.26755 
 N                     4.39991  -3.10021  -2.64664 
 H                     4.44032  -4.11309  -2.59276 
 H                     5.2516   -2.57293  -2.89884 
 N                     3.32465  -1.06096  -2.25967 
 H                     4.24427  -0.59728  -2.41 
 C                     2.24156  -0.27789  -1.88439 
 O                     2.37076   0.99507  -1.84743 
 C                     1.05442  -0.99507  -1.55897 
 N                    -0.10877  -0.29328  -1.16574 
 H                    -0.00674   0.71305  -1.04042 
 C                    -1.24129  -0.95005  -0.70048 
 C                    -1.3791   -2.36325  -1.31431 
 H                    -2.08157  -2.89206  -0.79765 
 H                    -1.70221  -2.28333  -2.28496 
 N                    -0.09569  -3.06163  -1.24001 
 H                    -0.09606  -4.07258  -1.34772 
 C                     1.05234  -2.38282  -1.59368 
 C                    -2.56812  -0.10778  -0.76907 
 H                    -2.95065  -0.00937   0.17281 
 H                    -3.2491   -0.63517  -1.32243 
 N                    -2.4041    1.23968  -1.31689 
 H                    -2.69433   1.99194  -0.69369 
 C                    -2.22635   2.13045  -5.42323 
 C                    -2.39099   3.1467   -4.45236 
 H                    -2.44858   4.11309  -4.76904 
 C                    -2.45025   2.85822  -3.12671 
 H                    -2.55866   3.60853  -2.44563 
 C                    -2.36191   1.51645  -2.67432 
 C                    -2.20936   0.4949   -3.64176 
 H                    -2.14877  -0.47976  -3.3523 
 C                    -2.14135   0.80011  -4.96435 
 H                    -2.03735   0.03795  -5.63249 
 C                    -2.13427   2.48269  -6.84227 
 O                    -2.4084    3.66252  -7.26328 
 N                    -1.73205   1.53192  -7.73988 
 H                    -1.56225   0.57358  -7.45329 
 H                    -5.00911  -0.26468   6.53964 
 H                    -1.65168   1.70166  -8.81358 
 
 ITRead=  0  0  0  0  0  0  0  0  0  0  0  0  0  0  0  0  0  0  0  0
 ITRead=  0  0  0  0  0  0  0  0  0  0  0  0  0  0  0  0  0  0  0  0
 ITRead=  0  0  0  0  0  0  0  0  0  0  0  0  0  0  0  0  0  0  0  0
 ITRead=  0  0  0  0  0  0  0  0  0
 MicOpt= -1 -1 -1 -1 -1 -1 -1 -1 -1 -1 -1 -1 -1 -1 -1 -1 -1 -1 -1 -1
 MicOpt= -1 -1 -1 -1 -1 -1 -1 -1 -1 -1 -1 -1 -1 -1 -1 -1 -1 -1 -1 -1
 MicOpt= -1 -1 -1 -1 -1 -1 -1 -1 -1 -1 -1 -1 -1 -1 -1 -1 -1 -1 -1 -1
 MicOpt= -1 -1 -1 -1 -1 -1 -1 -1 -1
 NAtoms=     69 NQM=       69 NQMF=       0 NMMI=      0 NMMIF=      0
                NMic=       0 NMicF=      0.
                    Isotopes and Nuclear Properties:
 (Nuclear quadrupole moments (NQMom) in fm**2, nuclear magnetic moments (NMagM)
  in nuclear magnetons)

  Atom         1           2           3           4           5           6           7           8           9          10
 IAtWgt=          12           1          16          12           1          16           1          12           1          16
 AtmWgt=  12.0000000   1.0078250  15.9949146  12.0000000   1.0078250  15.9949146   1.0078250  12.0000000   1.0078250  15.9949146
 NucSpn=           0           1           0           0           1           0           1           0           1           0
 AtZEff=  -0.0000000  -0.0000000  -0.0000000  -0.0000000  -0.0000000  -0.0000000  -0.0000000  -0.0000000  -0.0000000  -0.0000000
 NQMom=    0.0000000   0.0000000   0.0000000   0.0000000   0.0000000   0.0000000   0.0000000   0.0000000   0.0000000   0.0000000
 NMagM=    0.0000000   2.7928460   0.0000000   0.0000000   2.7928460   0.0000000   2.7928460   0.0000000   2.7928460   0.0000000
 AtZNuc=   6.0000000   1.0000000   8.0000000   6.0000000   1.0000000   8.0000000   1.0000000   6.0000000   1.0000000   8.0000000

  Atom        11          12          13          14          15          16          17          18          19          20
 IAtWgt=           1          12           1          14          12           1          12          12           1           1
 AtmWgt=   1.0078250  12.0000000   1.0078250  14.0030740  12.0000000   1.0078250  12.0000000  12.0000000   1.0078250   1.0078250
 NucSpn=           1           0           1           2           0           1           0           0           1           1
 AtZEff=  -0.0000000  -0.0000000  -0.0000000  -0.0000000  -0.0000000  -0.0000000  -0.0000000  -0.0000000  -0.0000000  -0.0000000
 NQMom=    0.0000000   0.0000000   0.0000000   2.0440000   0.0000000   0.0000000   0.0000000   0.0000000   0.0000000   0.0000000
 NMagM=    2.7928460   0.0000000   2.7928460   0.4037610   0.0000000   2.7928460   0.0000000   0.0000000   2.7928460   2.7928460
 AtZNuc=   1.0000000   6.0000000   1.0000000   7.0000000   6.0000000   1.0000000   6.0000000   6.0000000   1.0000000   1.0000000

  Atom        21          22          23          24          25          26          27          28          29          30
 IAtWgt=          12           1          12           1          12          16          14           1           1          14
 AtmWgt=  12.0000000   1.0078250  12.0000000   1.0078250  12.0000000  15.9949146  14.0030740   1.0078250   1.0078250  14.0030740
 NucSpn=           0           1           0           1           0           0           2           1           1           2
 AtZEff=  -0.0000000  -0.0000000  -0.0000000  -0.0000000  -0.0000000  -0.0000000  -0.0000000  -0.0000000  -0.0000000  -0.0000000
 NQMom=    0.0000000   0.0000000   0.0000000   0.0000000   0.0000000   0.0000000   2.0440000   0.0000000   0.0000000   2.0440000
 NMagM=    0.0000000   2.7928460   0.0000000   2.7928460   0.0000000   0.0000000   0.4037610   2.7928460   2.7928460   0.4037610
 AtZNuc=   6.0000000   1.0000000   6.0000000   1.0000000   6.0000000   8.0000000   7.0000000   1.0000000   1.0000000   7.0000000

  Atom        31          32          33          34          35          36          37          38          39          40
 IAtWgt=          12          14           1           1          14           1          12          16          12          14
 AtmWgt=  12.0000000  14.0030740   1.0078250   1.0078250  14.0030740   1.0078250  12.0000000  15.9949146  12.0000000  14.0030740
 NucSpn=           0           2           1           1           2           1           0           0           0           2
 AtZEff=  -0.0000000  -0.0000000  -0.0000000  -0.0000000  -0.0000000  -0.0000000  -0.0000000  -0.0000000  -0.0000000  -0.0000000
 NQMom=    0.0000000   2.0440000   0.0000000   0.0000000   2.0440000   0.0000000   0.0000000   0.0000000   0.0000000   2.0440000
 NMagM=    0.0000000   0.4037610   2.7928460   2.7928460   0.4037610   2.7928460   0.0000000   0.0000000   0.0000000   0.4037610
 AtZNuc=   6.0000000   7.0000000   1.0000000   1.0000000   7.0000000   1.0000000   6.0000000   8.0000000   6.0000000   7.0000000

  Atom        41          42          43          44          45          46          47          48          49          50
 IAtWgt=           1          12          12           1           1          14           1          12          12           1
 AtmWgt=   1.0078250  12.0000000  12.0000000   1.0078250   1.0078250  14.0030740   1.0078250  12.0000000  12.0000000   1.0078250
 NucSpn=           1           0           0           1           1           2           1           0           0           1
 AtZEff=  -0.0000000  -0.0000000  -0.0000000  -0.0000000  -0.0000000  -0.0000000  -0.0000000  -0.0000000  -0.0000000  -0.0000000
 NQMom=    0.0000000   0.0000000   0.0000000   0.0000000   0.0000000   2.0440000   0.0000000   0.0000000   0.0000000   0.0000000
 NMagM=    2.7928460   0.0000000   0.0000000   2.7928460   2.7928460   0.4037610   2.7928460   0.0000000   0.0000000   2.7928460
 AtZNuc=   1.0000000   6.0000000   6.0000000   1.0000000   1.0000000   7.0000000   1.0000000   6.0000000   6.0000000   1.0000000

  Atom        51          52          53          54          55          56          57          58          59          60
 IAtWgt=           1          14           1          12          12           1          12           1          12          12
 AtmWgt=   1.0078250  14.0030740   1.0078250  12.0000000  12.0000000   1.0078250  12.0000000   1.0078250  12.0000000  12.0000000
 NucSpn=           1           2           1           0           0           1           0           1           0           0
 AtZEff=  -0.0000000  -0.0000000  -0.0000000  -0.0000000  -0.0000000  -0.0000000  -0.0000000  -0.0000000  -0.0000000  -0.0000000
 NQMom=    0.0000000   2.0440000   0.0000000   0.0000000   0.0000000   0.0000000   0.0000000   0.0000000   0.0000000   0.0000000
 NMagM=    2.7928460   0.4037610   2.7928460   0.0000000   0.0000000   2.7928460   0.0000000   2.7928460   0.0000000   0.0000000
 AtZNuc=   1.0000000   7.0000000   1.0000000   6.0000000   6.0000000   1.0000000   6.0000000   1.0000000   6.0000000   6.0000000

  Atom        61          62          63          64          65          66          67          68          69
 IAtWgt=           1          12           1          12          16          14           1           1           1
 AtmWgt=   1.0078250  12.0000000   1.0078250  12.0000000  15.9949146  14.0030740   1.0078250   1.0078250   1.0078250
 NucSpn=           1           0           1           0           0           2           1           1           1
 AtZEff=  -0.0000000  -0.0000000  -0.0000000  -0.0000000  -0.0000000  -0.0000000  -0.0000000  -0.0000000  -0.0000000
 NQMom=    0.0000000   0.0000000   0.0000000   0.0000000   0.0000000   2.0440000   0.0000000   0.0000000   0.0000000
 NMagM=    2.7928460   0.0000000   2.7928460   0.0000000   0.0000000   0.4037610   2.7928460   2.7928460   2.7928460
 AtZNuc=   1.0000000   6.0000000   1.0000000   6.0000000   8.0000000   7.0000000   1.0000000   1.0000000   1.0000000
 Background charge distribution read from input stream:
 Leave Link  101 at Sat Jun 22 17:21:46 2024, MaxMem=  2684354560 cpu:               2.2 elap:               0.2
 (Enter /storage/apps/GAUSSIAN/G16_RevA03/g16/l103.exe)

 GradGradGradGradGradGradGradGradGradGradGradGradGradGradGradGradGradGrad
 Berny optimization.
 Initialization pass.
 Trust Radius=3.00D-01 FncErr=1.00D-07 GrdErr=1.00D-07 EigMax=2.50D+02 EigMin=1.00D-04
 Number of steps in this run=      2 maximum allowed number of steps=      2.
 GradGradGradGradGradGradGradGradGradGradGradGradGradGradGradGradGradGrad

 Leave Link  103 at Sat Jun 22 17:21:46 2024, MaxMem=  2684354560 cpu:               0.3 elap:               0.1
 (Enter /storage/apps/GAUSSIAN/G16_RevA03/g16/l202.exe)
 Symmetry turned off by external request.
 Stoichiometry    C24H30N9O6(1+)
 Framework group  C1[X(C24H30N9O6)]
 Deg. of freedom   201
 Full point group                 C1      NOp   1
                          Input orientation:                          
 ---------------------------------------------------------------------
 Center     Atomic      Atomic             Coordinates (Angstroms)
 Number     Number       Type             X           Y           Z
 ---------------------------------------------------------------------
      1          6           0       -4.142896    0.373890    6.712861
      2          1           0       -3.952522    0.430444    7.716476
      3          8           0       -2.971446   -0.215808    6.050707
      4          6           0       -4.285505    1.771102    6.104966
      5          1           0       -5.251596    2.118047    6.095352
      6          8           0       -3.450701    2.741627    6.783478
      7          1           0       -3.646842    2.812018    7.739883
      8          6           0       -3.676452    1.608823    4.700863
      9          1           0       -4.340095    1.195803    4.037660
     10          8           0       -3.219777    2.854693    4.179299
     11          1           0       -3.021086    3.417835    4.952059
     12          6           0       -2.492899    0.648154    4.994025
     13          1           0       -1.675627    1.175880    5.324177
     14          7           0       -2.049966   -0.200590    3.868315
     15          6           0       -0.713099   -0.237562    3.558412
     16          1           0       -0.125326    0.380878    4.113304
     17          6           0       -0.206674   -1.078037    2.624526
     18          6           0       -1.112364   -1.867216    1.819715
     19          1           0       -0.729171   -2.724404    1.418840
     20          1           0       -1.134296   -1.231966    0.489534
     21          6           0       -2.480928   -1.888361    2.259849
     22          1           0       -3.134865   -2.539004    1.827797
     23          6           0       -2.920413   -1.065486    3.229775
     24          1           0       -3.884203   -1.073241    3.561071
     25          6           0        1.264496   -1.305491    2.446675
     26          8           0        1.669124   -2.208133    1.680628
     27          7           0        2.166771   -0.557755    3.156770
     28          1           0        1.885286    0.119256    3.862176
     29          1           0        3.133109   -0.885689    3.187884
     30          7           0        2.155703   -3.125093   -1.941478
     31          6           0        3.275156   -2.437769   -2.267548
     32          7           0        4.399911   -3.100209   -2.646638
     33          1           0        4.440322   -4.113091   -2.592765
     34          1           0        5.251596   -2.572935   -2.898840
     35          7           0        3.324651   -1.060959   -2.259667
     36          1           0        4.244269   -0.597282   -2.410001
     37          6           0        2.241558   -0.277891   -1.884388
     38          8           0        2.370761    0.995069   -1.847430
     39          6           0        1.054421   -0.995066   -1.558971
     40          7           0       -0.108768   -0.293278   -1.165742
     41          1           0       -0.006738    0.713053   -1.040422
     42          6           0       -1.241293   -0.950047   -0.700475
     43          6           0       -1.379100   -2.363253   -1.314313
     44          1           0       -2.081565   -2.892062   -0.797653
     45          1           0       -1.702207   -2.283334   -2.284960
     46          7           0       -0.095687   -3.061628   -1.240007
     47          1           0       -0.096056   -4.072584   -1.347718
     48          6           0        1.052339   -2.382818   -1.593677
     49          6           0       -2.568117   -0.107784   -0.769066
     50          1           0       -2.950655   -0.009372    0.172807
     51          1           0       -3.249096   -0.635173   -1.322429
     52          7           0       -2.404101    1.239679   -1.316893
     53          1           0       -2.694333    1.991937   -0.693689
     54          6           0       -2.226355    2.130450   -5.423226
     55          6           0       -2.390989    3.146695   -4.452361
     56          1           0       -2.448584    4.113091   -4.769040
     57          6           0       -2.450247    2.858222   -3.126713
     58          1           0       -2.558660    3.608527   -2.445628
     59          6           0       -2.361912    1.516455   -2.674318
     60          6           0       -2.209360    0.494905   -3.641757
     61          1           0       -2.148768   -0.479755   -3.352304
     62          6           0       -2.141347    0.800105   -4.964347
     63          1           0       -2.037347    0.037950   -5.632492
     64          6           0       -2.134270    2.482692   -6.842271
     65          8           0       -2.408400    3.662517   -7.263276
     66          7           0       -1.732048    1.531919   -7.739883
     67          1           0       -1.562255    0.573580   -7.453285
     68          1           0       -5.009106   -0.264682    6.539637
     69          1           0       -1.651679    1.701660   -8.813581
 ---------------------------------------------------------------------
 Rotational constants (GHZ):           0.1095633           0.0519758           0.0392319
 Leave Link  202 at Sat Jun 22 17:21:46 2024, MaxMem=  2684354560 cpu:               0.3 elap:               0.0
 (Enter /storage/apps/GAUSSIAN/G16_RevA03/g16/l301.exe)
 Standard basis: def2TZVP (5D, 7F)
 Ernie: Thresh=  0.10000D-02 Tol=  0.10000D-05 Strict=F.
  1389 basis functions,  2229 primitive gaussians,  1584 cartesian basis functions
   142 alpha electrons      142 beta electrons
       nuclear repulsion energy      4439.7015549800 Hartrees.
 IExCor= 4336 DFT=T Ex+Corr=M062X ExCW=0 ScaHFX=  0.540000
 ScaDFX=  1.000000  1.000000  1.000000  1.000000 ScalE2=  1.000000  1.000000
 IRadAn=      5 IRanWt=     -1 IRanGd=            0 ICorTp=0 IEmpDi=131
 NAtoms=   69 NActive=   69 NUniq=   69 SFac= 1.00D+00 NAtFMM=   60 NAOKFM=T Big=T
 Integral buffers will be    131072 words long.
 Raffenetti 2 integral format.
 Two-electron integral symmetry is turned off.
 R6Disp:  Grimme-D3 Dispersion energy=       -0.0065160835 Hartrees.
 Nuclear repulsion after empirical dispersion term =     4439.6950388965 Hartrees.
 Leave Link  301 at Sat Jun 22 17:21:46 2024, MaxMem=  2684354560 cpu:               1.3 elap:               0.1
 (Enter /storage/apps/GAUSSIAN/G16_RevA03/g16/l302.exe)
 NPDir=0 NMtPBC=     1 NCelOv=     1 NCel=       1 NClECP=     1 NCelD=      1
         NCelK=      1 NCelE2=     1 NClLst=     1 CellRange=     0.0.
 One-electron integrals computed using PRISM.
   1 Symmetry operations used in ECPInt.
 ECPInt:  NShTT=  150975 NPrTT=  462228 LenC2=  107383 LenP2D=  217295.
 LDataN:  DoStor=T MaxTD1= 6 Len=  172
 NBasis=  1389 RedAO= T EigKep=  5.91D-06  NBF=  1389
 NBsUse=  1389 1.00D-06 EigRej= -1.00D+00 NBFU=  1389
 Precomputing XC quadrature grid using
 IXCGrd= 4 IRadAn=           5 IRanWt=          -1 IRanGd=           0 AccXCQ= 0.00D+00.
 Generated NRdTot=       0 NPtTot=           0 NUsed=           0 NTot=          32
 NSgBfM=  1496  1487  1493  1495  1496 MxSgAt=    69 MxSgA2=    69.
 Leave Link  302 at Sat Jun 22 17:21:49 2024, MaxMem=  2684354560 cpu:              44.6 elap:               2.8
 (Enter /storage/apps/GAUSSIAN/G16_RevA03/g16/l303.exe)
 DipDrv:  MaxL=1.
 Leave Link  303 at Sat Jun 22 17:21:50 2024, MaxMem=  2684354560 cpu:               4.2 elap:               0.3
 (Enter /storage/apps/GAUSSIAN/G16_RevA03/g16/l401.exe)
 ExpMin= 9.52D-02 ExpMax= 2.70D+04 ExpMxC= 9.22D+02 IAcc=3 IRadAn=         5 AccDes= 0.00D+00
 Harris functional with IExCor= 1009 and IRadAn=       5 diagonalized for initial guess.
 HarFok:  IExCor= 1009 AccDes= 0.00D+00 IRadAn=         5 IDoV= 1 UseB2=F ITyADJ=14
 ICtDFT=  3500011 ScaDFX=  1.000000  1.000000  1.000000  1.000000
 FoFCou: FMM=F IPFlag=           0 FMFlag=      100000 FMFlg1=        2001
         NFxFlg=           0 DoJE=T BraDBF=F KetDBF=T FulRan=T
         wScrn=  0.000000 ICntrl=       500 IOpCl=  0 I1Cent=   200000004 NGrid=           0
         NMat0=    1 NMatS0=      1 NMatT0=    0 NMatD0=    1 NMtDS0=    0 NMtDT0=    0
 Symmetry not used in FoFCou.
 Harris En= -1875.48210325434    
 JPrj=0 DoOrth=F DoCkMO=F.
 Leave Link  401 at Sat Jun 22 17:21:56 2024, MaxMem=  2684354560 cpu:             105.4 elap:               6.7
 (Enter /storage/apps/GAUSSIAN/G16_RevA03/g16/l502.exe)
 Two-electron integral symmetry not used.
 Closed shell SCF:
 Using DIIS extrapolation, IDIIS=  1040.
 NGot=  2684354560 LenX=  2679300873 LenY=  2676790233
 Requested convergence on RMS density matrix=1.00D-08 within 128 cycles.
 Requested convergence on MAX density matrix=1.00D-06.
 Requested convergence on             energy=1.00D-06.
 No special actions if energy rises.
 Fock matrices will be formed incrementally for  20 cycles.
 Integral accuracy reduced to 1.0D-05 until final iterations.

 Cycle   1  Pass 0  IDiag  1:
 FoFJK:  IHMeth= 1 ICntrl=       0 DoSepK=F KAlg= 0 I1Cent=           0 FoldK=F
 IRaf= 700000000 NMat=       1 IRICut=       1 DoRegI=T DoRafI=F ISym2E= 0 IDoP0=0 IntGTp=1.
 FoFCou: FMM=T IPFlag=           0 FMFlag=      100000 FMFlg1=        2001
         NFxFlg=           0 DoJE=F BraDBF=F KetDBF=F FulRan=T
         wScrn=  0.000000 ICntrl=         0 IOpCl=  0 I1Cent=           0 NGrid=           0
         NMat0=    1 NMatS0=      1 NMatT0=    0 NMatD0=    1 NMtDS0=    0 NMtDT0=    0
 Symmetry not used in FoFCou.
 FMM levels:  10  Number of levels for PrismC:   9
 E= -1875.49117997603    
 DIIS: error= 1.45D-02 at cycle   1 NSaved=   1.
 NSaved= 1 IEnMin= 1 EnMin= -1875.49117997603     IErMin= 1 ErrMin= 1.45D-02
 ErrMax= 1.45D-02  0.00D+00 EMaxC= 1.00D-01 BMatC= 1.34D+00 BMatP= 1.34D+00
 IDIUse=3 WtCom= 8.55D-01 WtEn= 1.45D-01
 Coeff-Com:  0.100D+01
 Coeff-En:   0.100D+01
 Coeff:      0.100D+01
 Gap=     0.121 Goal=   None    Shift=    0.000
 GapD=    0.121 DampG=1.000 DampE=0.500 DampFc=0.5000 IDamp=-1.
 Damping current iteration by 5.00D-01
 RMSDP=5.91D+01 MaxDP=1.15D+04              OVMax= 9.98D-01

 Problem detected with inexpensive integrals.
 Switching to full accuracy and repeating last cycle.
 Cycle   2  Pass 1  IDiag  1:
 E= -1875.49141082303     Delta-E=       -0.000230847000 Rises=F Damp=F
 DIIS: error= 1.45D-02 at cycle   1 NSaved=   1.
 NSaved= 1 IEnMin= 1 EnMin= -1875.49141082303     IErMin= 1 ErrMin= 1.45D-02
 ErrMax= 1.45D-02  0.00D+00 EMaxC= 1.00D-01 BMatC= 1.34D+00 BMatP= 1.34D+00
 IDIUse=3 WtCom= 8.55D-01 WtEn= 1.45D-01
 Coeff-Com:  0.100D+01
 Coeff-En:   0.100D+01
 Coeff:      0.100D+01
 Gap=     0.121 Goal=   None    Shift=    0.000
 GapD=    0.121 DampG=1.000 DampE=0.500 DampFc=0.5000 IDamp=-1.
 Damping current iteration by 5.00D-01
 RMSDP=4.01D-03 MaxDP=1.19D+00 DE=-2.31D-04 OVMax= 2.88D-01

 Cycle   3  Pass 1  IDiag  1:
 RMSU=  2.00D-03    CP:  1.03D+00
 E= -1875.89240609906     Delta-E=       -0.400995276033 Rises=F Damp=T
 DIIS: error= 4.38D-03 at cycle   2 NSaved=   2.
 NSaved= 2 IEnMin= 2 EnMin= -1875.89240609906     IErMin= 2 ErrMin= 4.38D-03
 ErrMax= 4.38D-03  0.00D+00 EMaxC= 1.00D-01 BMatC= 1.61D-01 BMatP= 1.34D+00
 IDIUse=3 WtCom= 9.56D-01 WtEn= 4.38D-02
 Coeff-Com:  0.113D-01 0.989D+00
 Coeff-En:   0.787D-01 0.921D+00
 Coeff:      0.142D-01 0.986D+00
 Gap=     0.232 Goal=   None    Shift=    0.000
 GapD=    0.232 DampG=1.000 DampE=1.000 DampFc=1.0000 IDamp=-1.
 RMSDP=1.40D-03 MaxDP=4.07D-01 DE=-4.01D-01 OVMax= 2.01D-01

 Cycle   4  Pass 1  IDiag  1:
 RMSU=  1.02D-03    CP:  1.00D+00  5.25D-01
 E= -1876.32968575275     Delta-E=       -0.437279653685 Rises=F Damp=F
 DIIS: error= 5.39D-03 at cycle   3 NSaved=   3.
 NSaved= 3 IEnMin= 3 EnMin= -1876.32968575275     IErMin= 2 ErrMin= 4.38D-03
 ErrMax= 5.39D-03  0.00D+00 EMaxC= 1.00D-01 BMatC= 1.24D-01 BMatP= 1.61D-01
 IDIUse=3 WtCom= 9.46D-01 WtEn= 5.39D-02
 Coeff-Com: -0.102D+00 0.508D+00 0.594D+00
 Coeff-En:   0.000D+00 0.000D+00 0.100D+01
 Coeff:     -0.969D-01 0.481D+00 0.616D+00
 Gap=     0.140 Goal=   None    Shift=    0.000
 RMSDP=4.49D-04 MaxDP=1.09D-01 DE=-4.37D-01 OVMax= 7.85D-02

 Cycle   5  Pass 1  IDiag  1:
 RMSU=  3.14D-04    CP:  1.01D+00  6.68D-01  8.56D-01
 E= -1876.41462541861     Delta-E=       -0.084939665862 Rises=F Damp=F
 DIIS: error= 1.74D-03 at cycle   4 NSaved=   4.
 NSaved= 4 IEnMin= 4 EnMin= -1876.41462541861     IErMin= 4 ErrMin= 1.74D-03
 ErrMax= 1.74D-03  0.00D+00 EMaxC= 1.00D-01 BMatC= 1.63D-02 BMatP= 1.24D-01
 IDIUse=3 WtCom= 9.83D-01 WtEn= 1.74D-02
 Coeff-Com: -0.463D-01 0.125D+00 0.318D+00 0.604D+00
 Coeff-En:   0.000D+00 0.000D+00 0.874D-01 0.913D+00
 Coeff:     -0.455D-01 0.123D+00 0.314D+00 0.609D+00
 Gap=     0.137 Goal=   None    Shift=    0.000
 RMSDP=1.61D-04 MaxDP=3.11D-02 DE=-8.49D-02 OVMax= 3.22D-02

 Cycle   6  Pass 1  IDiag  1:
 RMSU=  7.21D-05    CP:  1.01D+00  6.23D-01  9.24D-01  7.13D-01
 E= -1876.42720958767     Delta-E=       -0.012584169065 Rises=F Damp=F
 DIIS: error= 4.18D-04 at cycle   5 NSaved=   5.
 NSaved= 5 IEnMin= 5 EnMin= -1876.42720958767     IErMin= 5 ErrMin= 4.18D-04
 ErrMax= 4.18D-04  0.00D+00 EMaxC= 1.00D-01 BMatC= 8.71D-04 BMatP= 1.63D-02
 IDIUse=3 WtCom= 9.96D-01 WtEn= 4.18D-03
 Coeff-Com: -0.153D-01 0.296D-01 0.111D+00 0.287D+00 0.587D+00
 Coeff-En:   0.000D+00 0.000D+00 0.000D+00 0.000D+00 0.100D+01
 Coeff:     -0.153D-01 0.295D-01 0.111D+00 0.286D+00 0.589D+00
 Gap=     0.137 Goal=   None    Shift=    0.000
 RMSDP=4.58D-05 MaxDP=8.69D-03 DE=-1.26D-02 OVMax= 1.25D-02

 Cycle   7  Pass 1  IDiag  1:
 RMSU=  4.22D-05    CP:  1.01D+00  6.21D-01  9.28D-01  7.43D-01  8.06D-01
 E= -1876.42793604244     Delta-E=       -0.000726454770 Rises=F Damp=F
 DIIS: error= 2.26D-04 at cycle   6 NSaved=   6.
 NSaved= 6 IEnMin= 6 EnMin= -1876.42793604244     IErMin= 6 ErrMin= 2.26D-04
 ErrMax= 2.26D-04  0.00D+00 EMaxC= 1.00D-01 BMatC= 1.31D-04 BMatP= 8.71D-04
 IDIUse=3 WtCom= 9.98D-01 WtEn= 2.26D-03
 Coeff-Com: -0.219D-02 0.640D-03 0.185D-01 0.698D-01 0.309D+00 0.604D+00
 Coeff-En:   0.000D+00 0.000D+00 0.000D+00 0.000D+00 0.439D-01 0.956D+00
 Coeff:     -0.218D-02 0.639D-03 0.185D-01 0.697D-01 0.309D+00 0.605D+00
 Gap=     0.138 Goal=   None    Shift=    0.000
 RMSDP=1.94D-05 MaxDP=2.57D-03 DE=-7.26D-04 OVMax= 7.29D-03

 Cycle   8  Pass 1  IDiag  1:
 RMSU=  1.21D-05    CP:  1.01D+00  6.18D-01  9.32D-01  7.39D-01  9.32D-01
                    CP:  7.88D-01
 E= -1876.42806463574     Delta-E=       -0.000128593292 Rises=F Damp=F
 DIIS: error= 7.78D-05 at cycle   7 NSaved=   7.
 NSaved= 7 IEnMin= 7 EnMin= -1876.42806463574     IErMin= 7 ErrMin= 7.78D-05
 ErrMax= 7.78D-05  0.00D+00 EMaxC= 1.00D-01 BMatC= 2.28D-05 BMatP= 1.31D-04
 IDIUse=1 WtCom= 1.00D+00 WtEn= 0.00D+00
 Coeff-Com:  0.145D-02-0.458D-02-0.819D-02-0.130D-01 0.701D-01 0.328D+00
 Coeff-Com:  0.627D+00
 Coeff:      0.145D-02-0.458D-02-0.819D-02-0.130D-01 0.701D-01 0.328D+00
 Coeff:      0.627D+00
 Gap=     0.138 Goal=   None    Shift=    0.000
 RMSDP=1.19D-05 MaxDP=3.29D-03 DE=-1.29D-04 OVMax= 2.41D-03

 Cycle   9  Pass 1  IDiag  1:
 RMSU=  5.93D-06    CP:  1.01D+00  6.15D-01  9.36D-01  7.45D-01  9.75D-01
                    CP:  9.37D-01  1.00D+00
 E= -1876.42808961672     Delta-E=       -0.000024980985 Rises=F Damp=F
 DIIS: error= 2.42D-05 at cycle   8 NSaved=   8.
 NSaved= 8 IEnMin= 8 EnMin= -1876.42808961672     IErMin= 8 ErrMin= 2.42D-05
 ErrMax= 2.42D-05  0.00D+00 EMaxC= 1.00D-01 BMatC= 2.63D-06 BMatP= 2.28D-05
 IDIUse=1 WtCom= 1.00D+00 WtEn= 0.00D+00
 Coeff-Com:  0.134D-02-0.268D-02-0.802D-02-0.236D-01-0.350D-01 0.210D-01
 Coeff-Com:  0.261D+00 0.786D+00
 Coeff:      0.134D-02-0.268D-02-0.802D-02-0.236D-01-0.350D-01 0.210D-01
 Coeff:      0.261D+00 0.786D+00
 Gap=     0.138 Goal=   None    Shift=    0.000
 RMSDP=5.43D-06 MaxDP=1.02D-03 DE=-2.50D-05 OVMax= 1.84D-03

 Cycle  10  Pass 1  IDiag  1:
 RMSU=  2.35D-06    CP:  1.01D+00  6.13D-01  9.37D-01  7.43D-01  9.97D-01
                    CP:  9.88D-01  1.17D+00  1.06D+00
 E= -1876.42809429025     Delta-E=       -0.000004673530 Rises=F Damp=F
 DIIS: error= 1.15D-05 at cycle   9 NSaved=   9.
 NSaved= 9 IEnMin= 9 EnMin= -1876.42809429025     IErMin= 9 ErrMin= 1.15D-05
 ErrMax= 1.15D-05  0.00D+00 EMaxC= 1.00D-01 BMatC= 4.96D-07 BMatP= 2.63D-06
 IDIUse=1 WtCom= 1.00D+00 WtEn= 0.00D+00
 Coeff-Com:  0.431D-03-0.685D-03-0.223D-02-0.853D-02-0.211D-01-0.242D-01
 Coeff-Com:  0.321D-01 0.351D+00 0.673D+00
 Coeff:      0.431D-03-0.685D-03-0.223D-02-0.853D-02-0.211D-01-0.242D-01
 Coeff:      0.321D-01 0.351D+00 0.673D+00
 Gap=     0.138 Goal=   None    Shift=    0.000
 RMSDP=1.58D-06 MaxDP=3.63D-04 DE=-4.67D-06 OVMax= 3.38D-04

 Cycle  11  Pass 1  IDiag  1:
 RMSU=  8.97D-07    CP:  1.01D+00  6.13D-01  9.37D-01  7.43D-01  1.00D+00
                    CP:  1.00D+00  1.20D+00  1.19D+00  1.14D+00
 E= -1876.42809493843     Delta-E=       -0.000000648180 Rises=F Damp=F
 DIIS: error= 7.19D-06 at cycle  10 NSaved=  10.
 NSaved=10 IEnMin=10 EnMin= -1876.42809493843     IErMin=10 ErrMin= 7.19D-06
 ErrMax= 7.19D-06  0.00D+00 EMaxC= 1.00D-01 BMatC= 6.93D-08 BMatP= 4.96D-07
 IDIUse=1 WtCom= 1.00D+00 WtEn= 0.00D+00
 Coeff-Com: -0.970D-04 0.261D-03 0.811D-03 0.132D-02-0.149D-02-0.146D-01
 Coeff-Com: -0.481D-01-0.112D-01 0.276D+00 0.798D+00
 Coeff:     -0.970D-04 0.261D-03 0.811D-03 0.132D-02-0.149D-02-0.146D-01
 Coeff:     -0.481D-01-0.112D-01 0.276D+00 0.798D+00
 Gap=     0.138 Goal=   None    Shift=    0.000
 RMSDP=8.02D-07 MaxDP=1.24D-04 DE=-6.48D-07 OVMax= 3.15D-04

 Cycle  12  Pass 1  IDiag  1:
 RMSU=  3.75D-07    CP:  1.01D+00  6.13D-01  9.37D-01  7.43D-01  1.01D+00
                    CP:  1.01D+00  1.22D+00  1.23D+00  1.31D+00  1.09D+00
 E= -1876.42809506405     Delta-E=       -0.000000125618 Rises=F Damp=F
 DIIS: error= 2.50D-06 at cycle  11 NSaved=  11.
 NSaved=11 IEnMin=11 EnMin= -1876.42809506405     IErMin=11 ErrMin= 2.50D-06
 ErrMax= 2.50D-06  0.00D+00 EMaxC= 1.00D-01 BMatC= 1.61D-08 BMatP= 6.93D-08
 IDIUse=1 WtCom= 1.00D+00 WtEn= 0.00D+00
 Coeff-Com: -0.863D-04 0.186D-03 0.606D-03 0.151D-02 0.143D-02-0.438D-02
 Coeff-Com: -0.277D-01-0.415D-01 0.439D-01 0.407D+00 0.619D+00
 Coeff:     -0.863D-04 0.186D-03 0.606D-03 0.151D-02 0.143D-02-0.438D-02
 Coeff:     -0.277D-01-0.415D-01 0.439D-01 0.407D+00 0.619D+00
 Gap=     0.138 Goal=   None    Shift=    0.000
 RMSDP=2.66D-07 MaxDP=6.57D-05 DE=-1.26D-07 OVMax= 6.13D-05

 Cycle  13  Pass 1  IDiag  1:
 RMSU=  1.13D-07    CP:  1.01D+00  6.13D-01  9.37D-01  7.43D-01  1.01D+00
                    CP:  1.01D+00  1.22D+00  1.25D+00  1.36D+00  1.25D+00
                    CP:  9.87D-01
 E= -1876.42809508381     Delta-E=       -0.000000019764 Rises=F Damp=F
 DIIS: error= 7.25D-07 at cycle  12 NSaved=  12.
 NSaved=12 IEnMin=12 EnMin= -1876.42809508381     IErMin=12 ErrMin= 7.25D-07
 ErrMax= 7.25D-07  0.00D+00 EMaxC= 1.00D-01 BMatC= 1.78D-09 BMatP= 1.61D-08
 IDIUse=1 WtCom= 1.00D+00 WtEn= 0.00D+00
 Coeff-Com: -0.219D-04 0.405D-04 0.144D-03 0.473D-03 0.885D-03 0.509D-03
 Coeff-Com: -0.501D-02-0.152D-01-0.321D-01 0.614D-01 0.272D+00 0.717D+00
 Coeff:     -0.219D-04 0.405D-04 0.144D-03 0.473D-03 0.885D-03 0.509D-03
 Coeff:     -0.501D-02-0.152D-01-0.321D-01 0.614D-01 0.272D+00 0.717D+00
 Gap=     0.138 Goal=   None    Shift=    0.000
 RMSDP=1.10D-07 MaxDP=2.10D-05 DE=-1.98D-08 OVMax= 3.32D-05

 Cycle  14  Pass 1  IDiag  1:
 RMSU=  5.87D-08    CP:  1.01D+00  6.13D-01  9.37D-01  7.43D-01  1.01D+00
                    CP:  1.01D+00  1.23D+00  1.26D+00  1.38D+00  1.30D+00
                    CP:  1.10D+00  1.02D+00
 E= -1876.42809508624     Delta-E=       -0.000000002432 Rises=F Damp=F
 DIIS: error= 2.89D-07 at cycle  13 NSaved=  13.
 NSaved=13 IEnMin=13 EnMin= -1876.42809508624     IErMin=13 ErrMin= 2.89D-07
 ErrMax= 2.89D-07  0.00D+00 EMaxC= 1.00D-01 BMatC= 3.09D-10 BMatP= 1.78D-09
 IDIUse=1 WtCom= 1.00D+00 WtEn= 0.00D+00
 Coeff-Com:  0.197D-05-0.714D-05-0.158D-04 0.176D-04 0.203D-03 0.896D-03
 Coeff-Com:  0.140D-02-0.865D-03-0.241D-01-0.257D-01 0.418D-01 0.335D+00
 Coeff-Com:  0.671D+00
 Coeff:      0.197D-05-0.714D-05-0.158D-04 0.176D-04 0.203D-03 0.896D-03
 Coeff:      0.140D-02-0.865D-03-0.241D-01-0.257D-01 0.418D-01 0.335D+00
 Coeff:      0.671D+00
 Gap=     0.138 Goal=   None    Shift=    0.000
 RMSDP=4.51D-08 MaxDP=8.84D-06 DE=-2.43D-09 OVMax= 1.48D-05

 Cycle  15  Pass 1  IDiag  1:
 RMSU=  2.32D-08    CP:  1.01D+00  6.13D-01  9.37D-01  7.43D-01  1.01D+00
                    CP:  1.01D+00  1.23D+00  1.26D+00  1.39D+00  1.32D+00
                    CP:  1.13D+00  1.19D+00  9.58D-01
 E= -1876.42809508669     Delta-E=       -0.000000000448 Rises=F Damp=F
 DIIS: error= 1.09D-07 at cycle  14 NSaved=  14.
 NSaved=14 IEnMin=14 EnMin= -1876.42809508669     IErMin=14 ErrMin= 1.09D-07
 ErrMax= 1.09D-07  0.00D+00 EMaxC= 1.00D-01 BMatC= 5.73D-11 BMatP= 3.09D-10
 IDIUse=1 WtCom= 1.00D+00 WtEn= 0.00D+00
 Coeff-Com:  0.534D-05-0.114D-04-0.366D-04-0.846D-04-0.998D-04 0.319D-03
 Coeff-Com:  0.153D-02 0.298D-02-0.547D-02-0.218D-01-0.368D-01 0.426D-02
 Coeff-Com:  0.316D+00 0.739D+00
 Coeff:      0.534D-05-0.114D-04-0.366D-04-0.846D-04-0.998D-04 0.319D-03
 Coeff:      0.153D-02 0.298D-02-0.547D-02-0.218D-01-0.368D-01 0.426D-02
 Coeff:      0.316D+00 0.739D+00
 Gap=     0.138 Goal=   None    Shift=    0.000
 RMSDP=2.26D-08 MaxDP=5.11D-06 DE=-4.48D-10 OVMax= 6.92D-06

 Cycle  16  Pass 1  IDiag  1:
 RMSU=  8.17D-09    CP:  1.01D+00  6.13D-01  9.37D-01  7.43D-01  1.01D+00
                    CP:  1.01D+00  1.23D+00  1.26D+00  1.39D+00  1.32D+00
                    CP:  1.16D+00  1.22D+00  1.16D+00  1.05D+00
 E= -1876.42809508676     Delta-E=       -0.000000000069 Rises=F Damp=F
 DIIS: error= 4.37D-08 at cycle  15 NSaved=  15.
 NSaved=15 IEnMin=15 EnMin= -1876.42809508676     IErMin=15 ErrMin= 4.37D-08
 ErrMax= 4.37D-08  0.00D+00 EMaxC= 1.00D-01 BMatC= 7.70D-12 BMatP= 5.73D-11
 IDIUse=1 WtCom= 1.00D+00 WtEn= 0.00D+00
 Coeff-Com:  0.169D-05-0.331D-05-0.133D-04-0.338D-04-0.722D-04 0.216D-04
 Coeff-Com:  0.381D-03 0.140D-02 0.529D-03-0.449D-02-0.204D-01-0.417D-01
 Coeff-Com:  0.468D-01 0.300D+00 0.717D+00
 Coeff:      0.169D-05-0.331D-05-0.133D-04-0.338D-04-0.722D-04 0.216D-04
 Coeff:      0.381D-03 0.140D-02 0.529D-03-0.449D-02-0.204D-01-0.417D-01
 Coeff:      0.468D-01 0.300D+00 0.717D+00
 Gap=     0.138 Goal=   None    Shift=    0.000
 RMSDP=6.84D-09 MaxDP=1.14D-06 DE=-6.91D-11 OVMax= 2.54D-06

 Cycle  17  Pass 1  IDiag  1:
 RMSU=  3.13D-09    CP:  1.01D+00  6.13D-01  9.37D-01  7.43D-01  1.01D+00
                    CP:  1.01D+00  1.23D+00  1.26D+00  1.39D+00  1.33D+00
                    CP:  1.16D+00  1.25D+00  1.19D+00  1.16D+00  1.03D+00
 E= -1876.42809508677     Delta-E=       -0.000000000006 Rises=F Damp=F
 DIIS: error= 2.02D-08 at cycle  16 NSaved=  16.
 NSaved=16 IEnMin=16 EnMin= -1876.42809508677     IErMin=16 ErrMin= 2.02D-08
 ErrMax= 2.02D-08  0.00D+00 EMaxC= 1.00D-01 BMatC= 1.73D-12 BMatP= 7.70D-12
 IDIUse=1 WtCom= 1.00D+00 WtEn= 0.00D+00
 Coeff-Com: -0.378D-06 0.889D-06 0.381D-06 0.190D-05-0.163D-04-0.482D-04
 Coeff-Com: -0.140D-03 0.668D-04 0.118D-02 0.258D-02-0.200D-02-0.205D-01
 Coeff-Com: -0.454D-01-0.287D-01 0.313D+00 0.780D+00
 Coeff:     -0.378D-06 0.889D-06 0.381D-06 0.190D-05-0.163D-04-0.482D-04
 Coeff:     -0.140D-03 0.668D-04 0.118D-02 0.258D-02-0.200D-02-0.205D-01
 Coeff:     -0.454D-01-0.287D-01 0.313D+00 0.780D+00
 Gap=     0.138 Goal=   None    Shift=    0.000
 RMSDP=4.23D-09 MaxDP=9.93D-07 DE=-6.37D-12 OVMax= 1.20D-06

 SCF Done:  E(RM062X) =  -1876.42809509     A.U. after   17 cycles
            NFock= 17  Conv=0.42D-08     -V/T= 2.0048
 KE= 1.867388469975D+03 PE=-1.323052192832D+04 EE= 5.047010324359D+03
 Leave Link  502 at Sat Jun 22 17:44:14 2024, MaxMem=  2684354560 cpu:           21353.7 elap:            1337.9
 (Enter /storage/apps/GAUSSIAN/G16_RevA03/g16/l601.exe)
 Copying SCF densities to generalized density rwf, IOpCl= 0 IROHF=0.

 **********************************************************************

            Population analysis using the SCF density.

 **********************************************************************

 Alpha  occ. eigenvalues --  -19.76032 -19.75536 -19.73847 -19.70320 -19.66663
 Alpha  occ. eigenvalues --  -19.62956 -14.96565 -14.90059 -14.88862 -14.88028
 Alpha  occ. eigenvalues --  -14.87912 -14.87294 -14.86437 -14.83597 -14.82694
 Alpha  occ. eigenvalues --  -10.77365 -10.76843 -10.76328 -10.74121 -10.73727
 Alpha  occ. eigenvalues --  -10.73159 -10.72395 -10.72309 -10.72132 -10.71663
 Alpha  occ. eigenvalues --  -10.71138 -10.70432 -10.69965 -10.69710 -10.68680
 Alpha  occ. eigenvalues --  -10.68663 -10.68533 -10.67304 -10.66501 -10.61506
 Alpha  occ. eigenvalues --  -10.61242 -10.61003 -10.60500 -10.60404  -1.30200
 Alpha  occ. eigenvalues --   -1.27057  -1.25623  -1.24699  -1.24031  -1.23373
 Alpha  occ. eigenvalues --   -1.19178  -1.18878  -1.17036  -1.14991  -1.12754
 Alpha  occ. eigenvalues --   -1.11803  -1.10326  -1.07988  -1.07374  -1.05073
 Alpha  occ. eigenvalues --   -1.03545  -1.03047  -0.99737  -0.99560  -0.97337
 Alpha  occ. eigenvalues --   -0.93923  -0.93101  -0.92022  -0.90583  -0.89343
 Alpha  occ. eigenvalues --   -0.89127  -0.85160  -0.84911  -0.83575  -0.83032
 Alpha  occ. eigenvalues --   -0.79887  -0.79559  -0.79292  -0.78057  -0.77675
 Alpha  occ. eigenvalues --   -0.75954  -0.74789  -0.73528  -0.73022  -0.72868
 Alpha  occ. eigenvalues --   -0.72151  -0.71764  -0.71224  -0.70834  -0.70621
 Alpha  occ. eigenvalues --   -0.69330  -0.68480  -0.68438  -0.67810  -0.67321
 Alpha  occ. eigenvalues --   -0.66989  -0.66676  -0.66280  -0.65546  -0.64977
 Alpha  occ. eigenvalues --   -0.64391  -0.63727  -0.62981  -0.62846  -0.62486
 Alpha  occ. eigenvalues --   -0.62009  -0.61444  -0.61236  -0.60631  -0.59718
 Alpha  occ. eigenvalues --   -0.59206  -0.58809  -0.58191  -0.57761  -0.57694
 Alpha  occ. eigenvalues --   -0.57650  -0.57467  -0.56567  -0.56104  -0.55213
 Alpha  occ. eigenvalues --   -0.54747  -0.54390  -0.54250  -0.53854  -0.53086
 Alpha  occ. eigenvalues --   -0.52138  -0.51644  -0.50698  -0.49754  -0.48967
 Alpha  occ. eigenvalues --   -0.47985  -0.47470  -0.47369  -0.46079  -0.45201
 Alpha  occ. eigenvalues --   -0.45008  -0.44888  -0.44377  -0.43532  -0.41844
 Alpha  occ. eigenvalues --   -0.40933  -0.40689  -0.39165  -0.37600  -0.37524
 Alpha  occ. eigenvalues --   -0.33609  -0.32025
 Alpha virt. eigenvalues --   -0.18191  -0.14402  -0.07272  -0.07093  -0.06393
 Alpha virt. eigenvalues --   -0.05987  -0.05150  -0.04840  -0.04769  -0.04419
 Alpha virt. eigenvalues --   -0.04316  -0.03957  -0.03682  -0.01798  -0.01580
 Alpha virt. eigenvalues --   -0.00623  -0.00509  -0.00071   0.00548   0.00562
 Alpha virt. eigenvalues --    0.00762   0.01133   0.01688   0.02053   0.02397
 Alpha virt. eigenvalues --    0.02576   0.02938   0.03047   0.03591   0.03909
 Alpha virt. eigenvalues --    0.04168   0.04382   0.04557   0.04851   0.05213
 Alpha virt. eigenvalues --    0.05455   0.06042   0.06563   0.07384   0.07552
 Alpha virt. eigenvalues --    0.07812   0.07971   0.08179   0.08712   0.09023
 Alpha virt. eigenvalues --    0.09668   0.09943   0.10424   0.10635   0.10840
 Alpha virt. eigenvalues --    0.11153   0.11471   0.11626   0.11931   0.12328
 Alpha virt. eigenvalues --    0.12610   0.13086   0.13199   0.13655   0.13832
 Alpha virt. eigenvalues --    0.14315   0.14376   0.14947   0.15240   0.15462
 Alpha virt. eigenvalues --    0.15667   0.16132   0.16442   0.16617   0.16844
 Alpha virt. eigenvalues --    0.17145   0.17725   0.18058   0.18478   0.18751
 Alpha virt. eigenvalues --    0.18812   0.19244   0.19645   0.20272   0.20462
 Alpha virt. eigenvalues --    0.20738   0.20838   0.21080   0.21319   0.21547
 Alpha virt. eigenvalues --    0.22161   0.22231   0.22464   0.22905   0.23283
 Alpha virt. eigenvalues --    0.23445   0.23563   0.24008   0.24099   0.24707
 Alpha virt. eigenvalues --    0.25019   0.25287   0.25601   0.25834   0.26261
 Alpha virt. eigenvalues --    0.26508   0.26878   0.27127   0.27342   0.27345
 Alpha virt. eigenvalues --    0.27499   0.28142   0.28268   0.28633   0.28859
 Alpha virt. eigenvalues --    0.29030   0.29280   0.29726   0.29834   0.29944
 Alpha virt. eigenvalues --    0.30416   0.30507   0.30668   0.30876   0.31227
 Alpha virt. eigenvalues --    0.31569   0.31986   0.32224   0.32787   0.32818
 Alpha virt. eigenvalues --    0.32928   0.33188   0.33457   0.34095   0.34284
 Alpha virt. eigenvalues --    0.34444   0.34692   0.34762   0.34991   0.35202
 Alpha virt. eigenvalues --    0.35450   0.35822   0.36023   0.36208   0.36585
 Alpha virt. eigenvalues --    0.36862   0.36918   0.37142   0.37254   0.37735
 Alpha virt. eigenvalues --    0.38114   0.38251   0.38479   0.38511   0.38945
 Alpha virt. eigenvalues --    0.39078   0.39629   0.39684   0.39837   0.40101
 Alpha virt. eigenvalues --    0.40476   0.41029   0.41191   0.41298   0.41494
 Alpha virt. eigenvalues --    0.41580   0.41700   0.42107   0.42235   0.42967
 Alpha virt. eigenvalues --    0.43437   0.43518   0.43859   0.43942   0.44120
 Alpha virt. eigenvalues --    0.44302   0.44688   0.44939   0.45247   0.45375
 Alpha virt. eigenvalues --    0.46014   0.46318   0.46492   0.46746   0.46837
 Alpha virt. eigenvalues --    0.47344   0.47549   0.48136   0.48454   0.48582
 Alpha virt. eigenvalues --    0.49007   0.49334   0.49584   0.49884   0.50311
 Alpha virt. eigenvalues --    0.50638   0.50744   0.51326   0.51690   0.52051
 Alpha virt. eigenvalues --    0.52175   0.52482   0.53320   0.53629   0.53890
 Alpha virt. eigenvalues --    0.54102   0.54356   0.54481   0.55146   0.55191
 Alpha virt. eigenvalues --    0.55327   0.55715   0.56049   0.56246   0.56616
 Alpha virt. eigenvalues --    0.56941   0.57393   0.57726   0.58181   0.58414
 Alpha virt. eigenvalues --    0.58927   0.59353   0.59602   0.59921   0.60141
 Alpha virt. eigenvalues --    0.60473   0.60762   0.61017   0.61244   0.61661
 Alpha virt. eigenvalues --    0.61853   0.62036   0.62425   0.62725   0.62968
 Alpha virt. eigenvalues --    0.63699   0.63867   0.64050   0.64498   0.65035
 Alpha virt. eigenvalues --    0.65158   0.65900   0.66407   0.66565   0.66927
 Alpha virt. eigenvalues --    0.67555   0.67924   0.68503   0.68826   0.68945
 Alpha virt. eigenvalues --    0.69688   0.70257   0.70343   0.70840   0.71183
 Alpha virt. eigenvalues --    0.71406   0.71819   0.72254   0.72402   0.72724
 Alpha virt. eigenvalues --    0.73107   0.74120   0.74504   0.74643   0.75386
 Alpha virt. eigenvalues --    0.75499   0.75595   0.76217   0.76599   0.76712
 Alpha virt. eigenvalues --    0.77254   0.77867   0.78026   0.78533   0.78865
 Alpha virt. eigenvalues --    0.79614   0.79786   0.79965   0.80290   0.81006
 Alpha virt. eigenvalues --    0.81270   0.81522   0.82133   0.82632   0.82893
 Alpha virt. eigenvalues --    0.83476   0.83637   0.84855   0.85138   0.85538
 Alpha virt. eigenvalues --    0.85688   0.86324   0.86660   0.87085   0.87329
 Alpha virt. eigenvalues --    0.88306   0.88522   0.89042   0.90050   0.90123
 Alpha virt. eigenvalues --    0.90583   0.90923   0.91081   0.92057   0.92194
 Alpha virt. eigenvalues --    0.92494   0.93194   0.93669   0.93904   0.94604
 Alpha virt. eigenvalues --    0.95510   0.95641   0.96566   0.96720   0.97552
 Alpha virt. eigenvalues --    0.98092   0.98843   0.99131   0.99308   0.99572
 Alpha virt. eigenvalues --    1.00131   1.00975   1.01409   1.01445   1.02053
 Alpha virt. eigenvalues --    1.02567   1.02933   1.03550   1.04003   1.04293
 Alpha virt. eigenvalues --    1.04763   1.05404   1.05856   1.06697   1.07116
 Alpha virt. eigenvalues --    1.07667   1.08463   1.08888   1.09261   1.09331
 Alpha virt. eigenvalues --    1.09729   1.10628   1.11410   1.11529   1.12168
 Alpha virt. eigenvalues --    1.12900   1.13193   1.13843   1.14187   1.14560
 Alpha virt. eigenvalues --    1.14619   1.15676   1.15834   1.17024   1.17218
 Alpha virt. eigenvalues --    1.17908   1.18712   1.19020   1.19644   1.19811
 Alpha virt. eigenvalues --    1.20775   1.21565   1.21783   1.22040   1.22297
 Alpha virt. eigenvalues --    1.22816   1.23534   1.23637   1.24442   1.24792
 Alpha virt. eigenvalues --    1.24877   1.25437   1.25585   1.25895   1.27030
 Alpha virt. eigenvalues --    1.27673   1.27870   1.28215   1.28860   1.29063
 Alpha virt. eigenvalues --    1.30031   1.30980   1.31501   1.31948   1.32136
 Alpha virt. eigenvalues --    1.32925   1.33498   1.33654   1.34319   1.34510
 Alpha virt. eigenvalues --    1.34961   1.35355   1.35742   1.36383   1.36978
 Alpha virt. eigenvalues --    1.37077   1.38109   1.38480   1.39038   1.39665
 Alpha virt. eigenvalues --    1.39771   1.40310   1.40940   1.41526   1.41552
 Alpha virt. eigenvalues --    1.41892   1.41976   1.42756   1.43540   1.43721
 Alpha virt. eigenvalues --    1.43987   1.44478   1.44937   1.45204   1.45565
 Alpha virt. eigenvalues --    1.46311   1.46582   1.46840   1.47493   1.47739
 Alpha virt. eigenvalues --    1.48217   1.48540   1.49297   1.49480   1.50071
 Alpha virt. eigenvalues --    1.50331   1.50885   1.51487   1.51672   1.52038
 Alpha virt. eigenvalues --    1.52335   1.52921   1.53123   1.53431   1.53788
 Alpha virt. eigenvalues --    1.54099   1.54197   1.54649   1.55336   1.55451
 Alpha virt. eigenvalues --    1.55604   1.55846   1.56368   1.57158   1.57320
 Alpha virt. eigenvalues --    1.57985   1.58017   1.58444   1.58606   1.59104
 Alpha virt. eigenvalues --    1.59484   1.59752   1.60157   1.60532   1.61030
 Alpha virt. eigenvalues --    1.61279   1.61983   1.62132   1.62290   1.62710
 Alpha virt. eigenvalues --    1.63373   1.63586   1.64006   1.64335   1.64914
 Alpha virt. eigenvalues --    1.65320   1.65462   1.66170   1.66756   1.67065
 Alpha virt. eigenvalues --    1.67302   1.67815   1.68559   1.69078   1.69879
 Alpha virt. eigenvalues --    1.70157   1.70614   1.70916   1.71406   1.71783
 Alpha virt. eigenvalues --    1.72785   1.73176   1.73468   1.73589   1.73989
 Alpha virt. eigenvalues --    1.74759   1.74886   1.75138   1.75354   1.76449
 Alpha virt. eigenvalues --    1.77146   1.77479   1.77888   1.78289   1.79139
 Alpha virt. eigenvalues --    1.80004   1.80263   1.80546   1.81116   1.81470
 Alpha virt. eigenvalues --    1.81992   1.82414   1.82523   1.82951   1.83226
 Alpha virt. eigenvalues --    1.83552   1.84309   1.84994   1.85188   1.85626
 Alpha virt. eigenvalues --    1.86018   1.86503   1.86629   1.86811   1.87535
 Alpha virt. eigenvalues --    1.88005   1.88592   1.89152   1.89523   1.89681
 Alpha virt. eigenvalues --    1.90859   1.91030   1.91572   1.91975   1.92627
 Alpha virt. eigenvalues --    1.93234   1.93858   1.94187   1.94626   1.94960
 Alpha virt. eigenvalues --    1.95290   1.95958   1.96527   1.97087   1.97913
 Alpha virt. eigenvalues --    1.98852   1.99467   1.99576   1.99973   2.00499
 Alpha virt. eigenvalues --    2.00881   2.01494   2.01811   2.02187   2.02936
 Alpha virt. eigenvalues --    2.03246   2.04067   2.04402   2.04647   2.05646
 Alpha virt. eigenvalues --    2.06020   2.06274   2.06544   2.07332   2.07942
 Alpha virt. eigenvalues --    2.08707   2.09209   2.09334   2.10050   2.10610
 Alpha virt. eigenvalues --    2.11223   2.11515   2.12242   2.12313   2.12805
 Alpha virt. eigenvalues --    2.13101   2.14133   2.14654   2.15011   2.15544
 Alpha virt. eigenvalues --    2.15818   2.16062   2.16985   2.17473   2.18112
 Alpha virt. eigenvalues --    2.18145   2.18703   2.18976   2.19580   2.20218
 Alpha virt. eigenvalues --    2.20546   2.20781   2.21476   2.22026   2.23052
 Alpha virt. eigenvalues --    2.23398   2.23489   2.23960   2.24046   2.24847
 Alpha virt. eigenvalues --    2.25131   2.25605   2.26140   2.27340   2.27737
 Alpha virt. eigenvalues --    2.28535   2.29352   2.29485   2.30489   2.30939
 Alpha virt. eigenvalues --    2.31476   2.31863   2.32542   2.33242   2.33622
 Alpha virt. eigenvalues --    2.33798   2.34372   2.35059   2.35600   2.35862
 Alpha virt. eigenvalues --    2.36464   2.37069   2.37645   2.37862   2.38246
 Alpha virt. eigenvalues --    2.39950   2.40224   2.40655   2.41169   2.41265
 Alpha virt. eigenvalues --    2.41817   2.42468   2.42714   2.43905   2.44583
 Alpha virt. eigenvalues --    2.44764   2.45958   2.46264   2.46503   2.47289
 Alpha virt. eigenvalues --    2.47490   2.48204   2.49302   2.49682   2.50135
 Alpha virt. eigenvalues --    2.50832   2.51218   2.51651   2.52390   2.52668
 Alpha virt. eigenvalues --    2.53554   2.53923   2.54357   2.54784   2.55726
 Alpha virt. eigenvalues --    2.56125   2.56247   2.56818   2.57737   2.57961
 Alpha virt. eigenvalues --    2.58684   2.58996   2.59331   2.59423   2.59553
 Alpha virt. eigenvalues --    2.59925   2.60189   2.60767   2.62286   2.62442
 Alpha virt. eigenvalues --    2.62857   2.63069   2.63637   2.64004   2.64192
 Alpha virt. eigenvalues --    2.64826   2.65483   2.65608   2.65972   2.66539
 Alpha virt. eigenvalues --    2.66809   2.67263   2.67545   2.67987   2.68195
 Alpha virt. eigenvalues --    2.68780   2.68953   2.69855   2.70078   2.70775
 Alpha virt. eigenvalues --    2.70990   2.71155   2.71670   2.72174   2.72508
 Alpha virt. eigenvalues --    2.73198   2.73349   2.73609   2.74496   2.74628
 Alpha virt. eigenvalues --    2.75394   2.76000   2.76129   2.76577   2.76920
 Alpha virt. eigenvalues --    2.77511   2.77670   2.78271   2.78591   2.79153
 Alpha virt. eigenvalues --    2.79314   2.79619   2.80200   2.80663   2.81249
 Alpha virt. eigenvalues --    2.81491   2.82676   2.83072   2.83459   2.83791
 Alpha virt. eigenvalues --    2.84268   2.84695   2.84876   2.85322   2.85749
 Alpha virt. eigenvalues --    2.85922   2.86246   2.86699   2.87058   2.87277
 Alpha virt. eigenvalues --    2.88051   2.88095   2.88538   2.89003   2.89198
 Alpha virt. eigenvalues --    2.89686   2.90141   2.90666   2.91073   2.91410
 Alpha virt. eigenvalues --    2.91933   2.92185   2.93116   2.93287   2.93682
 Alpha virt. eigenvalues --    2.93754   2.94126   2.94278   2.94806   2.95202
 Alpha virt. eigenvalues --    2.95537   2.95709   2.96318   2.96558   2.97332
 Alpha virt. eigenvalues --    2.97852   2.98469   2.98494   2.98711   2.99208
 Alpha virt. eigenvalues --    2.99723   3.00228   3.00484   3.01224   3.01468
 Alpha virt. eigenvalues --    3.01994   3.02209   3.02453   3.02702   3.03141
 Alpha virt. eigenvalues --    3.03577   3.04378   3.04594   3.04913   3.05621
 Alpha virt. eigenvalues --    3.05991   3.06116   3.06444   3.07287   3.07406
 Alpha virt. eigenvalues --    3.08121   3.08545   3.08758   3.08830   3.09497
 Alpha virt. eigenvalues --    3.09691   3.10092   3.10888   3.11327   3.11498
 Alpha virt. eigenvalues --    3.12524   3.12709   3.12894   3.13170   3.13632
 Alpha virt. eigenvalues --    3.13819   3.14274   3.14601   3.14682   3.14869
 Alpha virt. eigenvalues --    3.15250   3.15620   3.15747   3.16211   3.16507
 Alpha virt. eigenvalues --    3.17129   3.17546   3.17621   3.17994   3.18429
 Alpha virt. eigenvalues --    3.18489   3.18772   3.19262   3.19763   3.20196
 Alpha virt. eigenvalues --    3.20450   3.20895   3.21596   3.22376   3.22986
 Alpha virt. eigenvalues --    3.23322   3.23785   3.24331   3.24764   3.25057
 Alpha virt. eigenvalues --    3.25301   3.25648   3.25957   3.26083   3.26689
 Alpha virt. eigenvalues --    3.27050   3.27417   3.28310   3.28587   3.28930
 Alpha virt. eigenvalues --    3.29239   3.29375   3.29578   3.30124   3.30333
 Alpha virt. eigenvalues --    3.30636   3.31612   3.31748   3.32470   3.33169
 Alpha virt. eigenvalues --    3.33462   3.34020   3.34480   3.34687   3.35149
 Alpha virt. eigenvalues --    3.35573   3.35749   3.36028   3.36425   3.36977
 Alpha virt. eigenvalues --    3.37329   3.37870   3.38170   3.38287   3.38519
 Alpha virt. eigenvalues --    3.39049   3.39222   3.39530   3.39922   3.40258
 Alpha virt. eigenvalues --    3.40938   3.41470   3.41698   3.42035   3.42374
 Alpha virt. eigenvalues --    3.43188   3.43671   3.44031   3.45022   3.46481
 Alpha virt. eigenvalues --    3.46788   3.47167   3.48061   3.48450   3.48987
 Alpha virt. eigenvalues --    3.49857   3.50437   3.50615   3.51293   3.51683
 Alpha virt. eigenvalues --    3.52398   3.52959   3.53077   3.53591   3.54298
 Alpha virt. eigenvalues --    3.54581   3.55558   3.56755   3.57322   3.58288
 Alpha virt. eigenvalues --    3.59186   3.60122   3.60413   3.60827   3.61715
 Alpha virt. eigenvalues --    3.62747   3.63620   3.63676   3.65102   3.66002
 Alpha virt. eigenvalues --    3.66380   3.66700   3.67423   3.67975   3.69082
 Alpha virt. eigenvalues --    3.69870   3.70777   3.71074   3.71604   3.72172
 Alpha virt. eigenvalues --    3.72514   3.73394   3.73862   3.74691   3.75108
 Alpha virt. eigenvalues --    3.76020   3.76595   3.76775   3.78083   3.78529
 Alpha virt. eigenvalues --    3.79038   3.79284   3.80043   3.81012   3.81490
 Alpha virt. eigenvalues --    3.82263   3.82953   3.83125   3.84284   3.85047
 Alpha virt. eigenvalues --    3.86754   3.86820   3.87750   3.88311   3.88901
 Alpha virt. eigenvalues --    3.89617   3.90578   3.91653   3.92543   3.93262
 Alpha virt. eigenvalues --    3.93568   3.93904   3.95106   3.95881   3.96473
 Alpha virt. eigenvalues --    3.96911   3.97133   3.97758   3.99107   3.99503
 Alpha virt. eigenvalues --    4.00716   4.01834   4.02136   4.02682   4.03642
 Alpha virt. eigenvalues --    4.04232   4.04677   4.06029   4.06201   4.06798
 Alpha virt. eigenvalues --    4.07508   4.07851   4.08762   4.09300   4.09734
 Alpha virt. eigenvalues --    4.10404   4.10514   4.10825   4.11837   4.12933
 Alpha virt. eigenvalues --    4.13297   4.13729   4.13768   4.15495   4.16012
 Alpha virt. eigenvalues --    4.17655   4.18149   4.18884   4.20787   4.21180
 Alpha virt. eigenvalues --    4.21570   4.21912   4.22374   4.23655   4.24186
 Alpha virt. eigenvalues --    4.25237   4.25757   4.27574   4.27910   4.28571
 Alpha virt. eigenvalues --    4.28893   4.30019   4.30188   4.31238   4.32790
 Alpha virt. eigenvalues --    4.33405   4.35457   4.37230   4.37679   4.37804
 Alpha virt. eigenvalues --    4.38287   4.39877   4.40015   4.41570   4.42844
 Alpha virt. eigenvalues --    4.44035   4.44671   4.45755   4.46422   4.47579
 Alpha virt. eigenvalues --    4.48653   4.50044   4.50295   4.51809   4.54229
 Alpha virt. eigenvalues --    4.54760   4.54804   4.55570   4.56171   4.56822
 Alpha virt. eigenvalues --    4.57431   4.57770   4.57929   4.58432   4.58680
 Alpha virt. eigenvalues --    4.59901   4.60413   4.60895   4.61657   4.62536
 Alpha virt. eigenvalues --    4.63528   4.64421   4.65887   4.66244   4.66978
 Alpha virt. eigenvalues --    4.67315   4.67920   4.68257   4.70539   4.71152
 Alpha virt. eigenvalues --    4.71321   4.71897   4.72805   4.73371   4.73918
 Alpha virt. eigenvalues --    4.75198   4.76470   4.77274   4.78358   4.79564
 Alpha virt. eigenvalues --    4.80152   4.81027   4.81862   4.82921   4.83485
 Alpha virt. eigenvalues --    4.84756   4.85908   4.86243   4.86888   4.88280
 Alpha virt. eigenvalues --    4.88704   4.89608   4.90739   4.92137   4.92949
 Alpha virt. eigenvalues --    4.93995   4.94267   4.94877   4.95502   4.96034
 Alpha virt. eigenvalues --    4.96489   4.96957   4.97899   4.98117   4.99288
 Alpha virt. eigenvalues --    4.99413   5.00293   5.01274   5.01748   5.02580
 Alpha virt. eigenvalues --    5.03146   5.04006   5.04537   5.05275   5.06099
 Alpha virt. eigenvalues --    5.06370   5.07087   5.07824   5.08138   5.09048
 Alpha virt. eigenvalues --    5.09365   5.09966   5.10744   5.11209   5.11976
 Alpha virt. eigenvalues --    5.12819   5.13810   5.15063   5.15122   5.15598
 Alpha virt. eigenvalues --    5.15845   5.16998   5.17429   5.17812   5.18005
 Alpha virt. eigenvalues --    5.19239   5.20273   5.20332   5.21105   5.22520
 Alpha virt. eigenvalues --    5.22946   5.23979   5.24159   5.24482   5.24818
 Alpha virt. eigenvalues --    5.25243   5.26525   5.27352   5.27964   5.29254
 Alpha virt. eigenvalues --    5.29708   5.30900   5.31222   5.31489   5.31945
 Alpha virt. eigenvalues --    5.33838   5.35052   5.35274   5.36520   5.36989
 Alpha virt. eigenvalues --    5.37308   5.38914   5.40272   5.41019   5.43344
 Alpha virt. eigenvalues --    5.44213   5.46727   5.48695   5.50676   5.51456
 Alpha virt. eigenvalues --    5.52421   5.52945   5.54406   5.56078   5.56302
 Alpha virt. eigenvalues --    5.58271   5.59818   5.60256   5.60951   5.61734
 Alpha virt. eigenvalues --    5.62060   5.63078   5.64338   5.65413   5.65677
 Alpha virt. eigenvalues --    5.67884   5.68820   5.70717   5.71137   5.73471
 Alpha virt. eigenvalues --    5.75321   5.75566   5.78386   5.78549   5.79633
 Alpha virt. eigenvalues --    5.80278   5.82196   5.83551   5.85075   5.86636
 Alpha virt. eigenvalues --    5.86748   5.90284   5.93670   5.94239   5.94563
 Alpha virt. eigenvalues --    5.95165   5.96401   5.99966   6.01260   6.10799
 Alpha virt. eigenvalues --    6.13404   6.17270   6.18024   6.18418   6.22704
 Alpha virt. eigenvalues --    6.32605   6.34303   6.34488   6.36384   6.40210
 Alpha virt. eigenvalues --    6.50542   6.53185   6.53332   6.53960   6.56943
 Alpha virt. eigenvalues --    6.59856   6.60842   6.64803   6.67481   6.69583
 Alpha virt. eigenvalues --    6.70552   6.72851   6.74141   6.75431   6.77376
 Alpha virt. eigenvalues --    6.77524   6.84891   6.87420   6.95047   6.97273
 Alpha virt. eigenvalues --    6.97711   7.01076   7.02315   7.04799   7.05503
 Alpha virt. eigenvalues --    7.05950   7.06081   7.15008  22.40335  22.40998
 Alpha virt. eigenvalues --   22.57303  22.58197  22.67413  22.70982  22.73453
 Alpha virt. eigenvalues --   22.75836  22.77163  22.80811  22.82513  22.88277
 Alpha virt. eigenvalues --   22.91023  22.96136  22.97362  23.00210  23.02330
 Alpha virt. eigenvalues --   23.14845  23.15579  23.16785  23.23855  23.32277
 Alpha virt. eigenvalues --   23.40432  23.48783  31.99300  32.04525  32.07668
 Alpha virt. eigenvalues --   32.39592  32.56571  32.62055  32.76791  32.91397
 Alpha virt. eigenvalues --   32.99364  44.02499  44.02734  44.05803  44.06039
 Alpha virt. eigenvalues --   44.07648  44.27669
          Condensed to atoms (all electrons):
 Mulliken charges:
               1
     1  C   -0.065898
     2  H    0.132935
     3  O   -0.307322
     4  C    0.002135
     5  H    0.172583
     6  O   -0.513470
     7  H    0.346975
     8  C    0.000953
     9  H    0.167319
    10  O   -0.473700
    11  H    0.361435
    12  C    0.052233
    13  H    0.141836
    14  N    0.006039
    15  C   -0.031552
    16  H    0.147547
    17  C    0.058651
    18  C   -0.168502
    19  H    0.246180
    20  H   -0.099043
    21  C   -0.203582
    22  H    0.178026
    23  C    0.002354
    24  H    0.189927
    25  C    0.369035
    26  O   -0.387668
    27  N   -0.505957
    28  H    0.253964
    29  H    0.288585
    30  N   -0.376919
    31  C    0.465569
    32  N   -0.529802
    33  H    0.294883
    34  H    0.278290
    35  N   -0.315744
    36  H    0.272076
    37  C    0.266380
    38  O   -0.446753
    39  C   -0.055839
    40  N   -0.270028
    41  H    0.281816
    42  C    0.146837
    43  C   -0.233911
    44  H    0.192730
    45  H    0.183054
    46  N   -0.380348
    47  H    0.260309
    48  C    0.375285
    49  C   -0.257318
    50  H    0.181645
    51  H    0.224369
    52  N   -0.419586
    53  H    0.249539
    54  C    0.096847
    55  C   -0.182316
    56  H    0.177595
    57  C   -0.189799
    58  H    0.153412
    59  C    0.286445
    60  C   -0.192919
    61  H    0.111298
    62  C   -0.189840
    63  H    0.110809
    64  C    0.325309
    65  O   -0.431605
    66  N   -0.525922
    67  H    0.248353
    68  H    0.154834
    69  H    0.298946
 Sum of Mulliken charges =   1.00000
 Mulliken charges with hydrogens summed into heavy atoms:
               1
     1  C    0.221871
     3  O   -0.307322
     4  C    0.174719
     6  O   -0.166494
     8  C    0.168272
    10  O   -0.112264
    12  C    0.194070
    14  N    0.006039
    15  C    0.115995
    17  C    0.058651
    18  C    0.077677
    21  C   -0.025557
    23  C    0.192282
    25  C    0.369035
    26  O   -0.387668
    27  N    0.036592
    30  N   -0.376919
    31  C    0.465569
    32  N    0.043371
    35  N   -0.043668
    37  C    0.266380
    38  O   -0.446753
    39  C   -0.055839
    40  N    0.011788
    42  C    0.047794
    43  C    0.141873
    46  N   -0.120040
    48  C    0.375285
    49  C    0.148695
    52  N   -0.170047
    54  C    0.096847
    55  C   -0.004721
    57  C   -0.036387
    59  C    0.286445
    60  C   -0.081620
    62  C   -0.079032
    64  C    0.325309
    65  O   -0.431605
    66  N    0.021377
 Electronic spatial extent (au):  <R**2>=          27232.5428
 Charge=              1.0000 electrons
 Dipole moment (field-independent basis, Debye):
    X=             -5.3372    Y=             -8.2442    Z=             14.4901  Tot=             17.5047
 Quadrupole moment (field-independent basis, Debye-Ang):
   XX=           -138.9291   YY=           -222.4098   ZZ=           -120.6210
   XY=             -7.8720   XZ=            -74.1267   YZ=             66.9262
 Traceless Quadrupole moment (field-independent basis, Debye-Ang):
   XX=             21.7242   YY=            -61.7565   ZZ=             40.0323
   XY=             -7.8720   XZ=            -74.1267   YZ=             66.9262
 Octapole moment (field-independent basis, Debye-Ang**2):
  XXX=            710.9500  YYY=           -120.4464  ZZZ=            670.3683  XYY=            247.9431
  XXY=           -123.6749  XXZ=            249.5080  XZZ=             12.9970  YZZ=           -101.3280
  YYZ=            148.1552  XYZ=            -90.2813
 Hexadecapole moment (field-independent basis, Debye-Ang**3):
 XXXX=          -6531.6860 YYYY=          -4950.7498 ZZZZ=         -15431.0747 XXXY=           1221.7736
 XXXZ=           -452.2592 YYYX=           1792.3640 YYYZ=           1400.7110 ZZZX=          -1584.4677
 ZZZY=           3604.4722 XXYY=          -2017.6002 XXZZ=          -3284.8769 YYZZ=          -5160.5821
 XXYZ=           1030.6674 YYXZ=           -101.7172 ZZXY=            494.2465
 N-N= 4.439695038897D+03 E-N=-1.323052192538D+04  KE= 1.867388469975D+03
 No NMR shielding tensors so no spin-rotation constants.
 Leave Link  601 at Sat Jun 22 17:44:15 2024, MaxMem=  2684354560 cpu:              10.2 elap:               0.8
 (Enter /storage/apps/GAUSSIAN/G16_RevA03/g16/l602.exe)

 **********************************************************************

            Electrostatic Properties Using The SCF Density

 **********************************************************************

       Atomic Center    1 is at  -4.142896  0.373890  6.712861
       Atomic Center    2 is at  -3.952522  0.430444  7.716476
       Atomic Center    3 is at  -2.971446 -0.215808  6.050707
       Atomic Center    4 is at  -4.285505  1.771102  6.104966
       Atomic Center    5 is at  -5.251596  2.118047  6.095352
       Atomic Center    6 is at  -3.450701  2.741627  6.783478
       Atomic Center    7 is at  -3.646842  2.812018  7.739883
       Atomic Center    8 is at  -3.676452  1.608823  4.700863
       Atomic Center    9 is at  -4.340095  1.195803  4.037660
       Atomic Center   10 is at  -3.219777  2.854693  4.179299
       Atomic Center   11 is at  -3.021086  3.417835  4.952059
       Atomic Center   12 is at  -2.492899  0.648154  4.994025
       Atomic Center   13 is at  -1.675627  1.175880  5.324177
       Atomic Center   14 is at  -2.049966 -0.200590  3.868315
       Atomic Center   15 is at  -0.713099 -0.237562  3.558412
       Atomic Center   16 is at  -0.125326  0.380878  4.113304
       Atomic Center   17 is at  -0.206674 -1.078037  2.624526
       Atomic Center   18 is at  -1.112364 -1.867216  1.819715
       Atomic Center   19 is at  -0.729171 -2.724404  1.418840
       Atomic Center   20 is at  -1.134296 -1.231966  0.489534
       Atomic Center   21 is at  -2.480928 -1.888361  2.259849
       Atomic Center   22 is at  -3.134865 -2.539004  1.827797
       Atomic Center   23 is at  -2.920413 -1.065486  3.229775
       Atomic Center   24 is at  -3.884203 -1.073241  3.561071
       Atomic Center   25 is at   1.264496 -1.305491  2.446675
       Atomic Center   26 is at   1.669124 -2.208133  1.680628
       Atomic Center   27 is at   2.166771 -0.557755  3.156770
       Atomic Center   28 is at   1.885286  0.119256  3.862176
       Atomic Center   29 is at   3.133109 -0.885689  3.187884
       Atomic Center   30 is at   2.155703 -3.125093 -1.941478
       Atomic Center   31 is at   3.275156 -2.437769 -2.267548
       Atomic Center   32 is at   4.399911 -3.100209 -2.646638
       Atomic Center   33 is at   4.440322 -4.113091 -2.592765
       Atomic Center   34 is at   5.251596 -2.572935 -2.898840
       Atomic Center   35 is at   3.324651 -1.060959 -2.259667
       Atomic Center   36 is at   4.244269 -0.597282 -2.410001
       Atomic Center   37 is at   2.241558 -0.277891 -1.884388
       Atomic Center   38 is at   2.370761  0.995069 -1.847430
       Atomic Center   39 is at   1.054421 -0.995066 -1.558971
       Atomic Center   40 is at  -0.108768 -0.293278 -1.165742
       Atomic Center   41 is at  -0.006738  0.713053 -1.040422
       Atomic Center   42 is at  -1.241293 -0.950047 -0.700475
       Atomic Center   43 is at  -1.379100 -2.363253 -1.314313
       Atomic Center   44 is at  -2.081565 -2.892062 -0.797653
       Atomic Center   45 is at  -1.702207 -2.283334 -2.284960
       Atomic Center   46 is at  -0.095687 -3.061628 -1.240007
       Atomic Center   47 is at  -0.096056 -4.072584 -1.347718
       Atomic Center   48 is at   1.052339 -2.382818 -1.593677
       Atomic Center   49 is at  -2.568117 -0.107784 -0.769066
       Atomic Center   50 is at  -2.950655 -0.009372  0.172807
       Atomic Center   51 is at  -3.249096 -0.635173 -1.322429
       Atomic Center   52 is at  -2.404101  1.239679 -1.316893
       Atomic Center   53 is at  -2.694333  1.991937 -0.693689
       Atomic Center   54 is at  -2.226355  2.130450 -5.423226
       Atomic Center   55 is at  -2.390989  3.146695 -4.452361
       Atomic Center   56 is at  -2.448584  4.113091 -4.769040
       Atomic Center   57 is at  -2.450247  2.858222 -3.126713
       Atomic Center   58 is at  -2.558660  3.608527 -2.445628
       Atomic Center   59 is at  -2.361912  1.516455 -2.674318
       Atomic Center   60 is at  -2.209360  0.494905 -3.641757
       Atomic Center   61 is at  -2.148768 -0.479755 -3.352304
       Atomic Center   62 is at  -2.141347  0.800105 -4.964347
       Atomic Center   63 is at  -2.037347  0.037950 -5.632492
       Atomic Center   64 is at  -2.134270  2.482692 -6.842271
       Atomic Center   65 is at  -2.408400  3.662517 -7.263276
       Atomic Center   66 is at  -1.732048  1.531919 -7.739883
       Atomic Center   67 is at  -1.562255  0.573580 -7.453285
       Atomic Center   68 is at  -5.009106 -0.264682  6.539637
       Atomic Center   69 is at  -1.651679  1.701660 -8.813581
 -----------------------------------------------------------------

              Electrostatic Properties (Atomic Units)

 -----------------------------------------------------------------
    Center     Electric         -------- Electric Field --------
               Potential          X             Y             Z
 -----------------------------------------------------------------
    1 Atom    -14.597666     -0.005813      0.007552     -0.004665
    2 Atom     -0.995449      0.014815      0.001321      0.072217
    3 Atom    -22.217331      0.015637     -0.030750      0.008596
    4 Atom    -14.583977      0.000174     -0.011747     -0.005375
    5 Atom     -0.993800     -0.067751      0.021871     -0.003636
    6 Atom    -22.219506      0.026008      0.017169     -0.023099
    7 Atom     -0.864185     -0.005336     -0.000709      0.007308
    8 Atom    -14.579449      0.004137     -0.002470      0.011902
    9 Atom     -0.977972     -0.048245     -0.028688     -0.046015
   10 Atom    -22.237648      0.001636      0.006042     -0.039387
   11 Atom     -0.887308      0.004289      0.011012      0.012315
   12 Atom    -14.537588     -0.009956      0.008490      0.000120
   13 Atom     -0.972772      0.055752      0.037052      0.020135
   14 Atom    -18.162463     -0.000061      0.001542      0.001134
   15 Atom    -14.566840     -0.000900     -0.009408     -0.007269
   16 Atom     -0.933378      0.040792      0.044076      0.041849
   17 Atom    -14.607578     -0.001280     -0.001066     -0.000280
   18 Atom    -14.595356     -0.001708      0.002273      0.010244
   19 Atom     -0.972168      0.030276     -0.060356     -0.034292
   20 Atom     -0.957592      0.003175      0.002861      0.004742
   21 Atom    -14.621973      0.006463      0.007435      0.004649
   22 Atom     -0.963582     -0.047571     -0.047225     -0.029788
   23 Atom    -14.575925      0.007428     -0.005233     -0.007655
   24 Atom     -0.942317     -0.067842     -0.000071      0.025249
   25 Atom    -14.534346      0.002457     -0.011025     -0.008027
   26 Atom    -22.279141      0.008471     -0.020903     -0.018071
   27 Atom    -18.246874     -0.003511      0.000361     -0.009894
   28 Atom     -0.895518     -0.001051      0.007705      0.007602
   29 Atom     -0.901352      0.010604     -0.003870     -0.003187
   30 Atom    -18.299635      0.000393     -0.026364     -0.001462
   31 Atom    -14.526893     -0.011752     -0.004204      0.003970
   32 Atom    -18.245826     -0.004877      0.002725     -0.001607
   33 Atom     -0.902252     -0.001805     -0.014243      0.001007
   34 Atom     -0.893867     -0.000336     -0.003944      0.000053
   35 Atom    -18.227976     -0.004594     -0.002006     -0.000752
   36 Atom     -0.884939     -0.006217      0.006283     -0.000449
   37 Atom    -14.565005     -0.007565      0.016952      0.004000
   38 Atom    -22.315016      0.002366      0.026347      0.000439
   39 Atom    -14.635464      0.005919     -0.006226     -0.001560
   40 Atom    -18.237334     -0.002406     -0.003343     -0.007437
   41 Atom     -0.914986      0.000144      0.018770     -0.000868
   42 Atom    -14.576891     -0.005269     -0.001807     -0.002829
   43 Atom    -14.615212      0.002872      0.008855      0.001891
   44 Atom     -0.988715     -0.052860     -0.041001      0.041564
   45 Atom     -1.002374     -0.022573      0.008273     -0.071095
   46 Atom    -18.252643      0.004139      0.005392      0.010705
   47 Atom     -0.917012      0.003785     -0.015407     -0.003002
   48 Atom    -14.578428      0.004645      0.008120     -0.001278
   49 Atom    -14.614182      0.007298     -0.001003     -0.003565
   50 Atom     -0.989570     -0.027768      0.007174      0.070777
   51 Atom     -0.998298     -0.050363     -0.040292     -0.042790
   52 Atom    -18.260094      0.010301     -0.002220     -0.001437
   53 Atom     -0.927152     -0.003143      0.010702      0.004598
   54 Atom    -14.691745     -0.000095     -0.002305      0.007997
   55 Atom    -14.704349      0.001398     -0.011492     -0.001153
   56 Atom     -1.056189     -0.004751      0.069924     -0.024747
   57 Atom    -14.702485      0.001444     -0.010821     -0.007427
   58 Atom     -1.036226     -0.007677      0.054404      0.049394
   59 Atom    -14.630719     -0.000002      0.003120     -0.014483
   60 Atom    -14.696510     -0.000277      0.012792     -0.000745
   61 Atom     -1.026204      0.004920     -0.068962      0.020986
   62 Atom    -14.693285     -0.001461      0.014337      0.005006
   63 Atom     -1.031217      0.007035     -0.055399     -0.046706
   64 Atom    -14.603278     -0.004952      0.018177     -0.003663
   65 Atom    -22.352452     -0.005397      0.022669     -0.007290
   66 Atom    -18.299492      0.000634      0.006603     -0.000484
   67 Atom     -0.957777      0.003914     -0.012321      0.004092
   68 Atom     -0.989152     -0.014740     -0.010453     -0.005492
   69 Atom     -0.939379     -0.006806      0.004009      0.041859
 -----------------------------------------------------------------
 Leave Link  602 at Sat Jun 22 17:44:15 2024, MaxMem=  2684354560 cpu:               3.6 elap:               0.3
 (Enter /storage/apps/GAUSSIAN/G16_RevA03/g16/l701.exe)
 ... and contract with generalized density number  0.
 Compute integral first derivatives.
 R6Disp: Adding Grimme-D3 dispersion energy 1st derivatives to the gradient.
   1 Symmetry operations used in ECPInt.
 ECPInt:  NShTT=  150975 NPrTT=  462228 LenC2=  107383 LenP2D=  217295.
 LDataN:  DoStor=T MaxTD1= 7 Len=  274
 Leave Link  701 at Sat Jun 22 17:44:16 2024, MaxMem=  2684354560 cpu:              16.8 elap:               1.2
 (Enter /storage/apps/GAUSSIAN/G16_RevA03/g16/l702.exe)
 L702 exits ... SP integral derivatives will be done elsewhere.
 Leave Link  702 at Sat Jun 22 17:44:17 2024, MaxMem=  2684354560 cpu:               0.3 elap:               0.0
 (Enter /storage/apps/GAUSSIAN/G16_RevA03/g16/l703.exe)
 Integral derivatives from FoFJK, PRISM(SPDF).
 Compute integral first derivatives, UseDBF=F ICtDFT=           0.
 Calling FoFJK, ICntrl=      2127 FMM=T ISym2X=0 I1Cent= 0 IOpClX= 0 NMat=1 NMatS=1 NMatT=0.
 FoFJK:  IHMeth= 1 ICntrl=    2127 DoSepK=F KAlg= 0 I1Cent=           0 FoldK=F
 IRaf=         0 NMat=       1 IRICut=       1 DoRegI=T DoRafI=F ISym2E= 0 IDoP0=0 IntGTp=1.
 FoFCou: FMM=T IPFlag=           0 FMFlag=      100000 FMFlg1=        2001
         NFxFlg=           0 DoJE=F BraDBF=F KetDBF=F FulRan=T
         wScrn=  0.000000 ICntrl=      2127 IOpCl=  0 I1Cent=           0 NGrid=           0
         NMat0=    1 NMatS0=      1 NMatT0=    0 NMatD0=    1 NMtDS0=    0 NMtDT0=    0
 Symmetry not used in FoFCou.
 FMM levels:  10  Number of levels for PrismC:   9
 Leave Link  703 at Sat Jun 22 17:49:57 2024, MaxMem=  2684354560 cpu:            5442.7 elap:             340.7
 (Enter /storage/apps/GAUSSIAN/G16_RevA03/g16/l716.exe)
 Dipole        =-2.09979933D+00-3.24352807D+00 5.70085286D+00
 -------------------------------------------------------------------
 Center     Atomic                   Forces (Hartrees/Bohr)
 Number     Number              X              Y              Z
 -------------------------------------------------------------------
      1        6           0.009159202    0.000155650   -0.062935046
      2        1           0.010713557    0.000600136    0.051522363
      3        8          -0.004741066    0.013164317   -0.010709064
      4        6           0.049371142   -0.013024101    0.013718930
      5        1          -0.047912491    0.014647742   -0.003362325
      6        8          -0.004500615   -0.011468523    0.000946937
      7        1          -0.001133993   -0.003350144   -0.017510648
[...]
     Eigenvalues ---    2.03529
 Quadratic step=3.191D+00 exceeds max=3.000D-01 adjusted using Lamda=-3.622D-01.
 Angle between NR and scaled steps=  76.60 degrees.
 Angle between quadratic step and forces=  23.41 degrees.
 Linear search not attempted -- first point.
 Variable       Old X    -DE/DX   Delta X   Delta X   Delta X     New X
                                 (Linear)    (Quad)   (Total)
    X1       -7.82894   0.00916   0.00000   0.01363   0.01363  -7.81531
    Y1        0.70655   0.00016   0.00000  -0.00175  -0.00175   0.70480
    Z1       12.68547  -0.06294   0.00000  -0.03812  -0.03812  12.64735
    X2       -7.46918   0.01071   0.00000   0.01505   0.01505  -7.45413
    Y2        0.81342   0.00060   0.00000  -0.00436  -0.00436   0.80906
    Z2       14.58203   0.05152   0.00000   0.04467   0.04467  14.62670
    X3       -5.61522  -0.00474   0.00000  -0.01165  -0.01165  -5.62687
    Y3       -0.40782   0.01316   0.00000  -0.00006  -0.00006  -0.40788
    Z3       11.43418  -0.01071   0.00000  -0.01626  -0.01626  11.41792
    X4       -8.09843   0.04937   0.00000   0.02640   0.02640  -8.07203
    Y4        3.34690  -0.01302   0.00000  -0.00414  -0.00414   3.34276
    Z4       11.53671   0.01372   0.00000   0.01222   0.01222  11.54893
    X5       -9.92408  -0.04791   0.00000  -0.04732  -0.04732  -9.97140
    Y5        4.00253   0.01465   0.00000   0.01193   0.01193   4.01446
    Z5       11.51855  -0.00336   0.00000  -0.00585  -0.00585  11.51269
    X6       -6.52088  -0.00450   0.00000   0.00489   0.00489  -6.51598
    Y6        5.18092  -0.01147   0.00000  -0.01780  -0.01780   5.16313
    Z6       12.81892   0.00095   0.00000  -0.00206  -0.00206  12.81685
    X7       -6.89153  -0.00113   0.00000  -0.00762  -0.00762  -6.89915
    Y7        5.31394  -0.00335   0.00000  -0.00788  -0.00788   5.30606
    Z7       14.62626  -0.01751   0.00000  -0.02342  -0.02342  14.60284
    X8       -6.94749   0.05221   0.00000   0.03170   0.03170  -6.91579
    Y8        3.04024   0.04347   0.00000   0.02602   0.02602   3.06626
    Z8        8.88334   0.03757   0.00000   0.02792   0.02792   8.91126
    X9       -8.20159  -0.03435   0.00000  -0.02876  -0.02876  -8.23035
    Y9        2.25974  -0.02067   0.00000  -0.01199  -0.01199   2.24775
    Z9        7.63007  -0.03241   0.00000  -0.02213  -0.02213   7.60794
   X10       -6.08450  -0.00569   0.00000  -0.00114  -0.00114  -6.08564
   Y10        5.39459  -0.01387   0.00000  -0.01147  -0.01147   5.38312
   Z10        7.89773   0.00734   0.00000   0.00547   0.00547   7.90320
   X11       -5.70902  -0.00089   0.00000   0.00080   0.00080  -5.70822
   Y11        6.45877  -0.00428   0.00000  -0.00393  -0.00393   6.45485
   Z11        9.35804  -0.00741   0.00000  -0.01123  -0.01123   9.34681
   X12       -4.71090  -0.05902   0.00000  -0.03483  -0.03483  -4.74573
   Y12        1.22483  -0.04156   0.00000  -0.02510  -0.02510   1.19973
   Z12        9.43734   0.00168   0.00000   0.00755   0.00755   9.44489
   X13       -3.16648   0.03934   0.00000   0.03403   0.03403  -3.13244
   Y13        2.22209   0.02627   0.00000   0.01965   0.01965   2.24174
   Z13       10.06124   0.01292   0.00000   0.01157   0.01157  10.07281
   X14       -3.87387   0.00511   0.00000  -0.00387  -0.00387  -3.87775
   Y14       -0.37906   0.00239   0.00000   0.00646   0.00646  -0.37260
   Z14        7.31006  -0.00254   0.00000   0.00127   0.00127   7.31133
   X15       -1.34756  -0.04663   0.00000  -0.02641  -0.02641  -1.37397
   Y15       -0.44893  -0.02868   0.00000  -0.01191  -0.01191  -0.46084
   Z15        6.72442  -0.02005   0.00000  -0.00505  -0.00505   6.71938
   X16       -0.23683   0.02866   0.00000   0.02304   0.02304  -0.21379
   Y16        0.71975   0.03151   0.00000   0.03030   0.03030   0.75005
   Z16        7.77302   0.03081   0.00000   0.03545   0.03545   7.80847
   X17       -0.39056   0.00227   0.00000   0.00339   0.00339  -0.38716
   Y17       -2.03720  -0.00471   0.00000  -0.00107  -0.00107  -2.03826
   Z17        4.95964  -0.01215   0.00000  -0.00794  -0.00794   4.95169
   X18       -2.10206  -0.01731   0.00000   0.00071   0.00071  -2.10135
   Y18       -3.52853   0.03837   0.00000   0.01150   0.01150  -3.51703
   Z18        3.43876   0.03858   0.00000   0.02922   0.02922   3.46798
   X19       -1.37793   0.02217   0.00000   0.02586   0.02586  -1.35208
   Y19       -5.14838  -0.04209   0.00000  -0.03910  -0.03910  -5.18748
   Z19        2.68122  -0.02648   0.00000  -0.03356  -0.03356   2.64765
   X20       -2.14351   0.00185   0.00000   0.00524   0.00524  -2.13827
   Y20       -2.32808   0.00342   0.00000   0.01079   0.01079  -2.31728
   Z20        0.92509  -0.00346   0.00000  -0.01095  -0.01095   0.91414
   X21       -4.68827   0.03698   0.00000   0.02002   0.02002  -4.66826
   Y21       -3.56848   0.03049   0.00000   0.01991   0.01991  -3.54857
   Z21        4.27049   0.01258   0.00000   0.00527   0.00527   4.27577
   X22       -5.92404  -0.03406   0.00000  -0.03235  -0.03235  -5.95639
   Y22       -4.79802  -0.03368   0.00000  -0.03119  -0.03119  -4.82921
   Z22        3.45404  -0.02101   0.00000  -0.02023  -0.02023   3.43381
   X23       -5.51878   0.05590   0.00000   0.02826   0.02826  -5.49053
   Y23       -2.01348   0.01350   0.00000   0.01719   0.01719  -1.99629
   Z23        6.10339  -0.00496   0.00000   0.00399   0.00399   6.10738
   X24       -7.34008  -0.04780   0.00000  -0.04448  -0.04448  -7.38456
   Y24       -2.02813   0.00076   0.00000   0.00472   0.00472  -2.02341
   Z24        6.72945   0.01882   0.00000   0.02266   0.02266   6.75211
   X25        2.38955   0.03393   0.00000   0.01419   0.01419   2.40374
   Y25       -2.46702  -0.03296   0.00000  -0.01126  -0.01126  -2.47828
   Z25        4.62355  -0.02492   0.00000  -0.00439  -0.00439   4.61915
   X26        3.15419  -0.02493   0.00000  -0.02758  -0.02758   3.12661
   Y26       -4.17277   0.03778   0.00000   0.02358   0.02358  -4.14919
   Z26        3.17593   0.02895   0.00000   0.01302   0.01302   3.18894
   X27        4.09460  -0.01072   0.00000  -0.01365  -0.01365   4.08095
   Y27       -1.05400   0.00054   0.00000  -0.00596  -0.00596  -1.05997
   Z27        5.96543   0.00522   0.00000   0.00263   0.00263   5.96806
   X28        3.56267   0.00477   0.00000   0.00315   0.00315   3.56582
   Y28        0.22536  -0.00818   0.00000  -0.01098  -0.01098   0.21439
   Z28        7.29846  -0.00824   0.00000  -0.00895  -0.00895   7.28951
   X29        5.92072  -0.01164   0.00000  -0.02010  -0.02010   5.90062
   Y29       -1.67371   0.00345   0.00000   0.00571   0.00571  -1.66800
   Z29        6.02423  -0.00389   0.00000  -0.00829  -0.00829   6.01594
   X30        4.07369   0.02085   0.00000   0.01187   0.01187   4.08555
   Y30       -5.90557   0.02678   0.00000   0.02230   0.02230  -5.88326
   Z30       -3.66886  -0.00717   0.00000  -0.00841  -0.00841  -3.67727
   X31        6.18915  -0.03064   0.00000  -0.02252  -0.02252   6.16663
   Y31       -4.60672  -0.01269   0.00000  -0.00424  -0.00424  -4.61095
   Z31       -4.28504   0.00881   0.00000   0.00608   0.00608  -4.27896
   X32        8.31463   0.00701   0.00000  -0.01303  -0.01303   8.30160
   Y32       -5.85855   0.01467   0.00000   0.01364   0.01364  -5.84491
   Z32       -5.00142  -0.00022   0.00000   0.00516   0.00516  -4.99626
   X33        8.39099  -0.00302   0.00000  -0.00965  -0.00965   8.38135
   Y33       -7.77262   0.00931   0.00000   0.01891   0.01891  -7.75371
   Z33       -4.89962  -0.00001   0.00000   0.00072   0.00072  -4.89889
   X34        9.92408  -0.01903   0.00000  -0.02771  -0.02771   9.89636
   Y34       -4.86214  -0.01480   0.00000  -0.01780  -0.01780  -4.87995
   Z34       -5.47801   0.00582   0.00000   0.00902   0.00902  -5.46899
   X35        6.28268   0.01948   0.00000  -0.00303  -0.00303   6.27965
   Y35       -2.00492  -0.01981   0.00000  -0.01610  -0.01610  -2.02102
   Z35       -4.27015  -0.00102   0.00000   0.00702   0.00702  -4.26313
   X36        8.02051  -0.02551   0.00000  -0.03899  -0.03899   7.98152
   Y36       -1.12870  -0.00396   0.00000  -0.00629  -0.00629  -1.13499
   Z36       -4.55424   0.00272   0.00000   0.00316   0.00316  -4.55108
   X37        4.23593   0.00456   0.00000  -0.00322  -0.00322   4.23272
   Y37       -0.52514   0.07942   0.00000   0.02422   0.02422  -0.50092
   Z37       -3.56098   0.00376   0.00000   0.00347   0.00347  -3.55751
   X38        4.48009  -0.01043   0.00000  -0.01503  -0.01503   4.46506
   Y38        1.88041  -0.07268   0.00000  -0.05035  -0.05035   1.83006
   Z38       -3.49114   0.00015   0.00000   0.00381   0.00381  -3.48732
   X39        1.99257  -0.01211   0.00000  -0.00519  -0.00519   1.98738
   Y39       -1.88040  -0.00368   0.00000  -0.00018  -0.00018  -1.88058
   Z39       -2.94603   0.00341   0.00000   0.00233   0.00233  -2.94370
   X40       -0.20554   0.00425   0.00000   0.00756   0.00756  -0.19798
   Y40       -0.55422  -0.00864   0.00000  -0.00767  -0.00767  -0.56189
   Z40       -2.20293   0.00247   0.00000   0.00053   0.00053  -2.20241
   X41       -0.01273  -0.00213   0.00000  -0.00289  -0.00289  -0.01562
   Y41        1.34747  -0.00431   0.00000  -0.00861  -0.00861   1.33887
   Z41       -1.96611  -0.00334   0.00000  -0.00817  -0.00817  -1.97428
   X42       -2.34570   0.00557   0.00000   0.01513   0.01513  -2.33058
   Y42       -1.79533   0.00518   0.00000   0.00968   0.00968  -1.78565
   Z42       -1.32371  -0.01280   0.00000  -0.01478  -0.01478  -1.33849
   X43       -2.60612   0.06233   0.00000   0.03708   0.03708  -2.56904
   Y43       -4.46590   0.02748   0.00000   0.01779   0.01779  -4.44812
   Z43       -2.48369   0.02170   0.00000   0.01017   0.01017  -2.47352
   X44       -3.93359  -0.03804   0.00000  -0.03071  -0.03071  -3.96430
   Y44       -5.46520  -0.02965   0.00000  -0.02718  -0.02718  -5.49238
   Z44       -1.50735   0.03118   0.00000   0.03878   0.03878  -1.46857
   X45       -3.21670  -0.01606   0.00000  -0.01001  -0.01001  -3.22672
   Y45       -4.31488   0.00706   0.00000   0.01393   0.01393  -4.30095
   Z45       -4.31795  -0.05105   0.00000  -0.05564  -0.05564  -4.37359
   X46       -0.18082   0.00398   0.00000   0.01766   0.01766  -0.16317
   Y46       -5.78564   0.00395   0.00000   0.00862   0.00862  -5.77702
   Z46       -2.34327  -0.00107   0.00000  -0.00035  -0.00035  -2.34362
   X47       -0.18152   0.00371   0.00000   0.00979   0.00979  -0.17173
   Y47       -7.69607   0.00809   0.00000   0.01493   0.01493  -7.68113
   Z47       -2.54682  -0.00105   0.00000  -0.00351  -0.00351  -2.55033
   X48        1.98863   0.01298   0.00000   0.01614   0.01614   2.00477
   Y48       -4.50287  -0.00705   0.00000   0.00040   0.00040  -4.50247
   Z48       -3.01161  -0.00232   0.00000  -0.00293  -0.00293  -3.01454
   X49       -4.85304   0.06472   0.00000   0.03984   0.03984  -4.81320
   Y49       -0.20368   0.03208   0.00000   0.01742   0.01742  -0.18627
   Z49       -1.45332  -0.02715   0.00000  -0.01722  -0.01722  -1.47055
   X50       -5.57593  -0.01954   0.00000  -0.01063  -0.01063  -5.58656
   Y50       -0.01771   0.00498   0.00000   0.00720   0.00720  -0.01051
   Z50        0.32656   0.05155   0.00000   0.05225   0.05225   0.37881
   X51       -6.13990  -0.03573   0.00000  -0.02877  -0.02877  -6.16867
   Y51       -1.20030  -0.02949   0.00000  -0.02921  -0.02921  -1.22951
   Z51       -2.49903  -0.03158   0.00000  -0.03991  -0.03991  -2.53893
   X52       -4.54309  -0.00053   0.00000   0.00805   0.00805  -4.53505
   Y52        2.34265  -0.00673   0.00000  -0.00160  -0.00160   2.34106
   Z52       -2.48857   0.01673   0.00000   0.00810   0.00810  -2.48047
   X53       -5.09155   0.00311   0.00000   0.00325   0.00325  -5.08831
   Y53        3.76421  -0.00665   0.00000  -0.00752  -0.00752   3.75670
   Z53       -1.31088  -0.00995   0.00000  -0.01217  -0.01217  -1.32305
   X54       -4.20720   0.00041   0.00000  -0.00041  -0.00041  -4.20761
   Y54        4.02597  -0.01216   0.00000  -0.00140  -0.00140   4.02457
   Z54      -10.24841   0.02538   0.00000  -0.00439  -0.00439 -10.25280
   X55       -4.51831   0.00648   0.00000   0.00311   0.00311  -4.51520
   Y55        5.94639  -0.05405   0.00000  -0.03329  -0.03329   5.91311
   Z55       -8.41374  -0.01541   0.00000  -0.01807  -0.01807  -8.43181
   X56       -4.62715  -0.00351   0.00000  -0.00371  -0.00371  -4.63087
   Y56        7.77262   0.04985   0.00000   0.04608   0.04608   7.81870
   Z56       -9.01218  -0.01824   0.00000  -0.02399  -0.02399  -9.03616
   X57       -4.63030   0.00530   0.00000  -0.00008  -0.00008  -4.63037
   Y57        5.40126  -0.05746   0.00000  -0.03819  -0.03819   5.36306
   Z57       -5.90863  -0.01116   0.00000  -0.00132  -0.00132  -5.90995
   X58       -4.83517  -0.00555   0.00000  -0.00530  -0.00530  -4.84046
   Y58        6.81913   0.03883   0.00000   0.03348   0.03348   6.85261
   Z58       -4.62157   0.03593   0.00000   0.03697   0.03697  -4.58460
   X59       -4.46337  -0.00010   0.00000  -0.00363  -0.00363  -4.46700
   Y59        2.86568   0.00253   0.00000  -0.00078  -0.00078   2.86490
   Z59       -5.05373  -0.01497   0.00000   0.00227   0.00227  -5.05145
   X60       -4.17509  -0.00639   0.00000  -0.00773  -0.00773  -4.18281
   Y60        0.93523   0.05296   0.00000   0.03213   0.03213   0.96736
   Z60       -6.88192   0.02062   0.00000   0.02009   0.02009  -6.86183
   X61       -4.06058   0.00370   0.00000   0.00379   0.00379  -4.05679
   Y61       -0.90661  -0.04942   0.00000  -0.04607  -0.04607  -0.95267
   Z61       -6.33494   0.01575   0.00000   0.02100   0.02100  -6.31393
   X62       -4.04656  -0.00515   0.00000  -0.00573  -0.00573  -4.05229
   Y62        1.51198   0.05984   0.00000   0.03854   0.03854   1.55052
   Z62       -9.38126   0.00606   0.00000  -0.00148  -0.00148  -9.38273
   X63       -3.85003   0.00485   0.00000   0.00352   0.00352  -3.84651
   Y63        0.07172  -0.03992   0.00000  -0.03588  -0.03588   0.03584
   Z63      -10.64387  -0.03340   0.00000  -0.03333  -0.03333 -10.67720
   X64       -4.03319  -0.01441   0.00000  -0.00583  -0.00583  -4.03901
   Y64        4.69161   0.07726   0.00000   0.02583   0.02583   4.71744
   Z64      -12.93002  -0.05884   0.00000  -0.04329  -0.04329 -12.97331
   X65       -4.55122   0.01756   0.00000   0.00934   0.00934  -4.54187
   Y65        6.92115  -0.07314   0.00000  -0.04219  -0.04219   6.87896
   Z65      -13.72560   0.03238   0.00000   0.02293   0.02293 -13.70267
   X66       -3.27310   0.00472   0.00000  -0.00353  -0.00353  -3.27662
   Y66        2.89491  -0.00745   0.00000   0.00185   0.00185   2.89675
   Z66      -14.62626  -0.03858   0.00000  -0.02214  -0.02214 -14.64839
   X67       -2.95223  -0.00003   0.00000   0.00133   0.00133  -2.95091
   Y67        1.08391   0.00997   0.00000   0.01628   0.01628   1.10019
   Z67      -14.08467  -0.00222   0.00000  -0.00690  -0.00690 -14.09157
   X68       -9.46584  -0.00042   0.00000   0.00135   0.00135  -9.46449
   Y68       -0.50018   0.00043   0.00000   0.00371   0.00371  -0.49647
   Z68       12.35812  -0.00273   0.00000  -0.01440  -0.01440  12.34373
   X69       -3.12122  -0.00837   0.00000  -0.01431  -0.01431  -3.13553
   Y69        3.21567   0.00108   0.00000   0.00849   0.00849   3.22417
   Z69      -16.65526   0.06120   0.00000   0.07620   0.07620 -16.57906
         Item               Value     Threshold  Converged?
 Maximum Force            0.079420     0.000450     NO 
 RMS     Force            0.026781     0.000300     NO 
 Maximum Displacement     0.076196     0.001800     NO 
 RMS     Displacement     0.020855     0.001200     NO 
 Predicted change in Energy=-6.935463D-02
 GradGradGradGradGradGradGradGradGradGradGradGradGradGradGradGradGradGrad

 Leave Link  103 at Sat Jun 22 17:49:58 2024, MaxMem=  2684354560 cpu:               9.6 elap:               0.6
 (Enter /storage/apps/GAUSSIAN/G16_RevA03/g16/l9999.exe)

 Test job not archived.
 1\1\GINC-T047\Force\RM062X\def2TZVP\C24H30N9O6(1+)\LV87696\22-Jun-2024
 \0\\#P M062X/Def2TZVP scf=(direct,conver=8) EmpiricalDispersion=GD3 No
 Symm force Charge Prop=(Field,Read)\\Gaussian run using SANDER externa
 l interface, route from template gau_job.tpl\\1,1\C,-4.1428961921,0.37
 38900795,6.712861355\H,-3.9525220746,0.4304444899,7.7164758234\O,-2.97
 14464837,-0.2158081259,6.0507070597\C,-4.285505455,1.7711021447,6.1049
 660603\H,-5.2515963895,2.1180465674,6.095352198\O,-3.4507008775,2.7416
 273387,6.7834780454\H,-3.6468418618,2.8120183656,7.7398828591\C,-3.676
 4523361,1.6088233129,4.7008628915\H,-4.3400945652,1.1958025311,4.03765
 97454\O,-3.2197767669,2.8546934938,4.1792990533\H,-3.0210855846,3.4178
 348362,4.9520592012\C,-2.4928989241,0.648153682,4.9940254309\H,-1.6756
 266817,1.1758803774,5.3241772161\N,-2.0499655791,-0.2005901523,3.86831
 51152\C,-0.7130985198,-0.2375622814,3.5584124632\H,-0.1253257204,0.380
 8775754,4.1133041434\C,-0.2066735733,-1.0780374747,2.6245263509\C,-1.1
 123636292,-1.8672160364,1.8197146692\H,-0.729171051,-2.7244036808,1.41
 88396332\H,-1.134295505,-1.2319656112,0.4895342993\C,-2.480927538,-1.8
 883607604,2.2598485192\H,-3.1348652378,-2.539004424,1.8277974846\C,-2.
 9204130009,-1.0654858289,3.2297749893\H,-3.8842029516,-1.0732407969,3.
 5610709515\C,1.2644962741,-1.3054913103,2.4466751023\O,1.6691239826,-2
 .2081334024,1.6806282803\N,2.166771406,-0.5577551601,3.1567699014\H,1.
 8852856493,0.1192559592,3.8621760726\H,3.133108964,-0.8856893986,3.187
 884155\N,2.1557031862,-3.1250928821,-1.9414778597\C,3.2751558718,-2.43
 77687974,-2.2675480699\N,4.399911113,-3.1002089604,-2.6466382994\H,4.4
 403222883,-4.1130913695,-2.5927647266\H,5.2515963895,-2.5729345103,-2.
 8988401215\N,3.3246509857,-1.0609591128,-2.2596674717\H,4.2442689626,-
 0.5972817184,-2.4100014118\C,2.2415581483,-0.2778914604,-1.8843876165\
 O,2.3707610072,0.9950692827,-1.8474297409\C,1.0544212383,-0.9950658018
 ,-1.5589712274\N,-0.1087676996,-0.2932782945,-1.165741707\H,-0.0067383
 822,0.7130527346,-1.0404219745\C,-1.2412928481,-0.9500468002,-0.700475
 4248\C,-1.3791000376,-2.3632533797,-1.3143132428\H,-2.0815654324,-2.89
 2061818,-0.7976527217\H,-1.702206562,-2.2833343936,-2.2849598346\N,-0.
 0956870268,-3.0616276881,-1.240006814\H,-0.0960557041,-4.0725844564,-1
 .3477184558\C,1.0523391518,-2.3828175302,-1.5936770016\C,-2.5681169428
 ,-0.1077839467,-0.7690657079\H,-2.9506549275,-0.009371633,0.1728073155
 \H,-3.249095715,-0.6351731703,-1.3224285433\N,-2.4041007024,1.23967888
 41,-1.3168925456\H,-2.6943325689,1.9919367143,-0.6936888661\C,-2.22635
 46061,2.1304497738,-5.4232258217\C,-2.3909887703,3.1466952782,-4.45236
 10459\H,-2.4485838658,4.1130913695,-4.7690399725\C,-2.4502468115,2.858
 2219886,-3.1267129809\H,-2.5586604188,3.6085269674,-2.4456279666\C,-2.
 3619116533,1.5164547515,-2.674318293\C,-2.2093602027,0.4949048166,-3.6
 417574016\H,-2.1487683701,-0.4797553224,-3.3523039697\C,-2.1413469743,
 0.8001054109,-4.9643467928\H,-2.0373469792,0.0379503844,-5.632492442\C
 ,-2.1342697759,2.4826921581,-6.8422705279\O,-2.4084003054,3.6625169506
 ,-7.2632761612\N,-1.7320475718,1.5319189295,-7.7398828591\H,-1.5622546
 891,0.5735803138,-7.453285438\H,-5.0091057594,-0.2646821206,6.53963742
 25\H,-1.6516786543,1.7016601552,-8.8135814916\\Version=ES64L-G16RevA.0
 3\HF=-1876.4280951\RMSD=4.232e-09\RMSF=2.678e-02\Dipole=-0.2955829,-3.
 2800494,5.7387537\Quadrupole=16.1514066,-45.9144617,29.7630552,-5.8526
 66,-55.1114002,49.75798\PG=C01 [X(C24H30N9O6)]\\@


 SCIENCE IS A VERY HUMAN FORM OF KNOWLEDGE.
 WE ARE ALWAYS AT THE BRINK OF THE KNOWN,
 WE ALWAYS FEEL FORWARD FOR WHAT IS HOPED.
 EVERY JUDGEMENT IN SCIENCE STANDS ON THE EDGE OF ERROR, AND IS PERSONAL.
 SCIENCE IS A TRIBUTE TO WHAT WE CAN KNOW ALTHOUGH WE ARE FALLIBLE.

                     -- J. BRONOWSKI
 Job cpu time:       0 days  7 hours 30 minutes  3.8 seconds.
 Elapsed time:       0 days  0 hours 28 minutes 12.5 seconds.
 File lengths (MBytes):  RWF=   1039 Int=      0 D2E=      0 Chk=    113 Scr=      1
 Normal termination of Gaussian 16 at Sat Jun 22 17:49:59 2024.
