 Entering Gaussian System, Link 0=g16
 Initial command:
 /storage/apps/GAUSSIAN/G16_RevA03/g16/l1.exe "/scratch/tmp/2140825/Gau-120913.inp" -scrdir="/scratch/tmp/2140825/"
 Entering Link 1 = /storage/apps/GAUSSIAN/G16_RevA03/g16/l1.exe PID=    120915.
  
 Copyright (c) 1988,1990,1992,1993,1995,1998,2003,2009,2016,
            Gaussian, Inc.  All Rights Reserved.
  
 This is part of the Gaussian(R) 16 program.  It is based on
 the Gaussian(R) 09 system (copyright 2009, Gaussian, Inc.),
 the Gaussian(R) 03 system (copyright 2003, Gaussian, Inc.),
 the Gaussian(R) 98 system (copyright 1998, Gaussian, Inc.),
 the Gaussian(R) 94 system (copyright 1995, Gaussian, Inc.),
 the Gaussian 92(TM) system (copyright 1992, Gaussian, Inc.),
 the Gaussian 90(TM) system (copyright 1990, Gaussian, Inc.),
 the Gaussian 88(TM) system (copyright 1988, Gaussian, Inc.),
 the Gaussian 86(TM) system (copyright 1986, Carnegie Mellon
 University), and the Gaussian 82(TM) system (copyright 1983,
 Carnegie Mellon University). Gaussian is a federally registered
 trademark of Gaussian, Inc.
  
 This software contains proprietary and confidential information,
 including trade secrets, belonging to Gaussian, Inc.
  
 This software is provided under written license and may be
 used, copied, transmitted, or stored only in accord with that
 written license.
  
 The following legend is applicable only to US Government
 contracts under FAR:
  
                    RESTRICTED RIGHTS LEGEND
  
 Use, reproduction and disclosure by the US Government is
 subject to restrictions as set forth in subparagraphs (a)
 and (c) of the Commercial Computer Software - Restricted
 Rights clause in FAR 52.227-19.
  
 Gaussian, Inc.
 340 Quinnipiac St., Bldg. 40, Wallingford CT 06492
  
  
 ---------------------------------------------------------------
 Warning -- This program may not be used in any manner that
 competes with the business of Gaussian, Inc. or will provide
 assistance to any competitor of Gaussian, Inc.  The licensee
 of this program is prohibited from giving any competitor of
 Gaussian, Inc. access to this program.  By using this program,
 the user acknowledges that Gaussian, Inc. is engaged in the
 business of creating and licensing software in the field of
 computational chemistry and represents and warrants to the
 licensee that it is not a competitor of Gaussian, Inc. and that
 it will not use this program in any manner prohibited above.
 ---------------------------------------------------------------
  

 Cite this work as:
 Gaussian 16, Revision A.03,
 M. J. Frisch, G. W. Trucks, H. B. Schlegel, G. E. Scuseria, 
 M. A. Robb, J. R. Cheeseman, G. Scalmani, V. Barone, 
 G. A. Petersson, H. Nakatsuji, X. Li, M. Caricato, A. V. Marenich, 
 J. Bloino, B. G. Janesko, R. Gomperts, B. Mennucci, H. P. Hratchian, 
 J. V. Ortiz, A. F. Izmaylov, J. L. Sonnenberg, D. Williams-Young, 
 F. Ding, F. Lipparini, F. Egidi, J. Goings, B. Peng, A. Petrone, 
 T. Henderson, D. Ranasinghe, V. G. Zakrzewski, J. Gao, N. Rega, 
 G. Zheng, W. Liang, M. Hada, M. Ehara, K. Toyota, R. Fukuda, 
 J. Hasegawa, M. Ishida, T. Nakajima, Y. Honda, O. Kitao, H. Nakai, 
 T. Vreven, K. Throssell, J. A. Montgomery, Jr., J. E. Peralta, 
 F. Ogliaro, M. J. Bearpark, J. J. Heyd, E. N. Brothers, K. N. Kudin, 
 V. N. Staroverov, T. A. Keith, R. Kobayashi, J. Normand, 
 K. Raghavachari, A. P. Rendell, J. C. Burant, S. S. Iyengar, 
 J. Tomasi, M. Cossi, J. M. Millam, M. Klene, C. Adamo, R. Cammi, 
 J. W. Ochterski, R. L. Martin, K. Morokuma, O. Farkas, 
 J. B. Foresman, and D. J. Fox, Gaussian, Inc., Wallingford CT, 2016.
 
 ******************************************
 Gaussian 16:  ES64L-G16RevA.03 25-Dec-2016
                22-Jun-2024 
 ******************************************
 %chk=gau_job.chk
 %NProcShared=16
 Will use up to   16 processors via shared memory.
 %mem=20GB
 ----------------------------------------------------------------------
 #P M062X/Def2TZVP scf=(direct,conver=8) EmpiricalDispersion=GD3 NoSymm
  force Charge Prop=(Field,Read)
 ----------------------------------------------------------------------
 1/10=7,18=10,28=-2,30=1,38=1,125=101/1,3;
 2/12=2,15=1,17=6,18=5,29=2,40=1/2;
 3/5=44,7=101,11=2,25=1,30=1,71=1,74=-55,124=31/1,2,3;
 4//1;
 5/5=2,6=8,38=5/2;
 6/7=2,8=2,9=2,10=2,14=2,15=1,28=1/1,2;
 7/7=1,16=-2,29=1,30=1/1,2,3,16;
 1/10=7,18=10,28=-2,30=1/3;
 99/12=1/99;
 Leave Link    1 at Sat Jun 22 17:23:19 2024, MaxMem=  2684354560 cpu:               0.9 elap:               0.1
 (Enter /storage/apps/GAUSSIAN/G16_RevA03/g16/l101.exe)
 ----------------------------------------------------------------------
 Gaussian run using SANDER external interface, route from template gau_
 job.tpl
 ----------------------------------------------------------------------
 Symbolic Z-matrix:
 Charge =  1 Multiplicity = 1
 C                    -4.14481   0.37797   6.70774 
 H                    -3.94713   0.42941   7.71011 
 O                    -2.9797   -0.21644   6.03654 
 C                    -4.28234   1.7778    6.10538 
 H                    -5.24674   2.12923   6.0987 
 O                    -3.44087   2.74101   6.78432 
 H                    -3.64307   2.82217   7.73908 
 C                    -3.67738   1.61969   4.69792 
 H                    -4.3442    1.21443   4.03314 
 O                    -3.21045   2.8634    4.18598 
 H                    -3.01757   3.42501   4.9617 
 C                    -2.5       0.64791   4.98667 
 H                    -1.67705   1.16877   5.31362 
 N                    -2.06089  -0.21158   3.86116 
 C                    -0.72677  -0.23945   3.54968 
 H                    -0.1457    0.41194   4.07316 
 C                    -0.21762  -1.10755   2.6366 
 C                    -1.11749  -1.93332   1.89638 
 H                    -0.73658  -2.69996   1.34302 
 H                    -1.09244  -1.04706   0.30038 
 C                    -2.48486  -1.90579   2.26033 
 H                    -3.14138  -2.54102   1.80977 
 C                    -2.93177  -1.06776   3.22449 
 H                    -3.90209  -1.05525   3.53605 
 C                     1.26227  -1.32578   2.45338 
 O                     1.66397  -2.24251   1.70936 
 N                     2.15764  -0.55601   3.14644 
 H                     1.8721    0.13269   3.83874 
 H                     3.12789  -0.87343   3.17928 
 N                     2.15635  -3.10956  -1.92781 
 C                     3.27584  -2.43391  -2.26861 
 N                     4.39277  -3.10462  -2.66642 
 H                     4.42916  -4.11686  -2.60714 
 H                     5.24674  -2.58107  -2.91574 
 N                     3.33765  -1.05805  -2.25456 
 H                     4.25826  -0.59923  -2.40858 
 C                     2.25653  -0.26975  -1.88981 
 O                     2.39816   1.00443  -1.8479 
 C                     1.06135  -0.9741   -1.56595 
 N                    -0.11088  -0.24531  -1.25146 
 H                     0.03738   0.73189  -1.0044 
 C                    -1.24878  -0.92655  -0.70983 
 C                    -1.37406  -2.35113  -1.27814 
 H                    -2.0705   -2.86718  -0.74076 
 H                    -1.70275  -2.30973  -2.24895 
 N                    -0.08521  -3.03991  -1.19567 
 H                    -0.08684  -4.04549  -1.34792 
 C                     1.05631  -2.35609  -1.57992 
 C                    -2.58998  -0.10772  -0.77837 
 H                    -2.9589   -0.0152    0.16901 
 H                    -3.27533  -0.63645  -1.32509 
 N                    -2.44955   1.24237  -1.32542 
 H                    -2.7145    1.9975   -0.69612 
 C                    -2.22457   2.13336  -5.42393 
 C                    -2.39278   3.15032  -4.45385 
 H                    -2.44647   4.11686  -4.77065 
 C                    -2.46099   2.86221  -3.12923 
 H                    -2.57106   3.61162  -2.4474 
 C                    -2.38046   1.51941  -2.67679 
 C                    -2.21763   0.49577  -3.64289 
 H                    -2.15476  -0.47793  -3.35074 
 C                    -2.13864   0.80088  -4.96362 
 H                    -2.02638   0.03945  -5.63131 
 C                    -2.13246   2.48458  -6.8402 
 O                    -2.40804   3.66511  -7.26295 
 N                    -1.73253   1.53366  -7.73908 
 H                    -1.5581    0.57641  -7.4519 
 H                    -5.01452  -0.25646   6.53688 
 H                    -1.65266   1.70439  -8.81265 
 
 ITRead=  0  0  0  0  0  0  0  0  0  0  0  0  0  0  0  0  0  0  0  0
 ITRead=  0  0  0  0  0  0  0  0  0  0  0  0  0  0  0  0  0  0  0  0
 ITRead=  0  0  0  0  0  0  0  0  0  0  0  0  0  0  0  0  0  0  0  0
 ITRead=  0  0  0  0  0  0  0  0  0
 MicOpt= -1 -1 -1 -1 -1 -1 -1 -1 -1 -1 -1 -1 -1 -1 -1 -1 -1 -1 -1 -1
 MicOpt= -1 -1 -1 -1 -1 -1 -1 -1 -1 -1 -1 -1 -1 -1 -1 -1 -1 -1 -1 -1
 MicOpt= -1 -1 -1 -1 -1 -1 -1 -1 -1 -1 -1 -1 -1 -1 -1 -1 -1 -1 -1 -1
 MicOpt= -1 -1 -1 -1 -1 -1 -1 -1 -1
 NAtoms=     69 NQM=       69 NQMF=       0 NMMI=      0 NMMIF=      0
                NMic=       0 NMicF=      0.
                    Isotopes and Nuclear Properties:
 (Nuclear quadrupole moments (NQMom) in fm**2, nuclear magnetic moments (NMagM)
  in nuclear magnetons)

  Atom         1           2           3           4           5           6           7           8           9          10
 IAtWgt=          12           1          16          12           1          16           1          12           1          16
 AtmWgt=  12.0000000   1.0078250  15.9949146  12.0000000   1.0078250  15.9949146   1.0078250  12.0000000   1.0078250  15.9949146
 NucSpn=           0           1           0           0           1           0           1           0           1           0
 AtZEff=  -0.0000000  -0.0000000  -0.0000000  -0.0000000  -0.0000000  -0.0000000  -0.0000000  -0.0000000  -0.0000000  -0.0000000
 NQMom=    0.0000000   0.0000000   0.0000000   0.0000000   0.0000000   0.0000000   0.0000000   0.0000000   0.0000000   0.0000000
 NMagM=    0.0000000   2.7928460   0.0000000   0.0000000   2.7928460   0.0000000   2.7928460   0.0000000   2.7928460   0.0000000
 AtZNuc=   6.0000000   1.0000000   8.0000000   6.0000000   1.0000000   8.0000000   1.0000000   6.0000000   1.0000000   8.0000000

  Atom        11          12          13          14          15          16          17          18          19          20
 IAtWgt=           1          12           1          14          12           1          12          12           1           1
 AtmWgt=   1.0078250  12.0000000   1.0078250  14.0030740  12.0000000   1.0078250  12.0000000  12.0000000   1.0078250   1.0078250
 NucSpn=           1           0           1           2           0           1           0           0           1           1
 AtZEff=  -0.0000000  -0.0000000  -0.0000000  -0.0000000  -0.0000000  -0.0000000  -0.0000000  -0.0000000  -0.0000000  -0.0000000
 NQMom=    0.0000000   0.0000000   0.0000000   2.0440000   0.0000000   0.0000000   0.0000000   0.0000000   0.0000000   0.0000000
 NMagM=    2.7928460   0.0000000   2.7928460   0.4037610   0.0000000   2.7928460   0.0000000   0.0000000   2.7928460   2.7928460
 AtZNuc=   1.0000000   6.0000000   1.0000000   7.0000000   6.0000000   1.0000000   6.0000000   6.0000000   1.0000000   1.0000000

  Atom        21          22          23          24          25          26          27          28          29          30
 IAtWgt=          12           1          12           1          12          16          14           1           1          14
 AtmWgt=  12.0000000   1.0078250  12.0000000   1.0078250  12.0000000  15.9949146  14.0030740   1.0078250   1.0078250  14.0030740
 NucSpn=           0           1           0           1           0           0           2           1           1           2
 AtZEff=  -0.0000000  -0.0000000  -0.0000000  -0.0000000  -0.0000000  -0.0000000  -0.0000000  -0.0000000  -0.0000000  -0.0000000
 NQMom=    0.0000000   0.0000000   0.0000000   0.0000000   0.0000000   0.0000000   2.0440000   0.0000000   0.0000000   2.0440000
 NMagM=    0.0000000   2.7928460   0.0000000   2.7928460   0.0000000   0.0000000   0.4037610   2.7928460   2.7928460   0.4037610
 AtZNuc=   6.0000000   1.0000000   6.0000000   1.0000000   6.0000000   8.0000000   7.0000000   1.0000000   1.0000000   7.0000000

  Atom        31          32          33          34          35          36          37          38          39          40
 IAtWgt=          12          14           1           1          14           1          12          16          12          14
 AtmWgt=  12.0000000  14.0030740   1.0078250   1.0078250  14.0030740   1.0078250  12.0000000  15.9949146  12.0000000  14.0030740
 NucSpn=           0           2           1           1           2           1           0           0           0           2
 AtZEff=  -0.0000000  -0.0000000  -0.0000000  -0.0000000  -0.0000000  -0.0000000  -0.0000000  -0.0000000  -0.0000000  -0.0000000
 NQMom=    0.0000000   2.0440000   0.0000000   0.0000000   2.0440000   0.0000000   0.0000000   0.0000000   0.0000000   2.0440000
 NMagM=    0.0000000   0.4037610   2.7928460   2.7928460   0.4037610   2.7928460   0.0000000   0.0000000   0.0000000   0.4037610
 AtZNuc=   6.0000000   7.0000000   1.0000000   1.0000000   7.0000000   1.0000000   6.0000000   8.0000000   6.0000000   7.0000000

  Atom        41          42          43          44          45          46          47          48          49          50
 IAtWgt=           1          12          12           1           1          14           1          12          12           1
 AtmWgt=   1.0078250  12.0000000  12.0000000   1.0078250   1.0078250  14.0030740   1.0078250  12.0000000  12.0000000   1.0078250
 NucSpn=           1           0           0           1           1           2           1           0           0           1
 AtZEff=  -0.0000000  -0.0000000  -0.0000000  -0.0000000  -0.0000000  -0.0000000  -0.0000000  -0.0000000  -0.0000000  -0.0000000
 NQMom=    0.0000000   0.0000000   0.0000000   0.0000000   0.0000000   2.0440000   0.0000000   0.0000000   0.0000000   0.0000000
 NMagM=    2.7928460   0.0000000   0.0000000   2.7928460   2.7928460   0.4037610   2.7928460   0.0000000   0.0000000   2.7928460
 AtZNuc=   1.0000000   6.0000000   6.0000000   1.0000000   1.0000000   7.0000000   1.0000000   6.0000000   6.0000000   1.0000000

  Atom        51          52          53          54          55          56          57          58          59          60
 IAtWgt=           1          14           1          12          12           1          12           1          12          12
 AtmWgt=   1.0078250  14.0030740   1.0078250  12.0000000  12.0000000   1.0078250  12.0000000   1.0078250  12.0000000  12.0000000
 NucSpn=           1           2           1           0           0           1           0           1           0           0
 AtZEff=  -0.0000000  -0.0000000  -0.0000000  -0.0000000  -0.0000000  -0.0000000  -0.0000000  -0.0000000  -0.0000000  -0.0000000
 NQMom=    0.0000000   2.0440000   0.0000000   0.0000000   0.0000000   0.0000000   0.0000000   0.0000000   0.0000000   0.0000000
 NMagM=    2.7928460   0.4037610   2.7928460   0.0000000   0.0000000   2.7928460   0.0000000   2.7928460   0.0000000   0.0000000
 AtZNuc=   1.0000000   7.0000000   1.0000000   6.0000000   6.0000000   1.0000000   6.0000000   1.0000000   6.0000000   6.0000000

  Atom        61          62          63          64          65          66          67          68          69
 IAtWgt=           1          12           1          12          16          14           1           1           1
 AtmWgt=   1.0078250  12.0000000   1.0078250  12.0000000  15.9949146  14.0030740   1.0078250   1.0078250   1.0078250
 NucSpn=           1           0           1           0           0           2           1           1           1
 AtZEff=  -0.0000000  -0.0000000  -0.0000000  -0.0000000  -0.0000000  -0.0000000  -0.0000000  -0.0000000  -0.0000000
 NQMom=    0.0000000   0.0000000   0.0000000   0.0000000   0.0000000   2.0440000   0.0000000   0.0000000   0.0000000
 NMagM=    2.7928460   0.0000000   2.7928460   0.0000000   0.0000000   0.4037610   2.7928460   2.7928460   2.7928460
 AtZNuc=   1.0000000   6.0000000   1.0000000   6.0000000   8.0000000   7.0000000   1.0000000   1.0000000   1.0000000
 Background charge distribution read from input stream:
 Leave Link  101 at Sat Jun 22 17:23:19 2024, MaxMem=  2684354560 cpu:               2.2 elap:               0.2
 (Enter /storage/apps/GAUSSIAN/G16_RevA03/g16/l103.exe)

 GradGradGradGradGradGradGradGradGradGradGradGradGradGradGradGradGradGrad
 Berny optimization.
 Initialization pass.
 Trust Radius=3.00D-01 FncErr=1.00D-07 GrdErr=1.00D-07 EigMax=2.50D+02 EigMin=1.00D-04
 Number of steps in this run=      2 maximum allowed number of steps=      2.
 GradGradGradGradGradGradGradGradGradGradGradGradGradGradGradGradGradGrad

 Leave Link  103 at Sat Jun 22 17:23:19 2024, MaxMem=  2684354560 cpu:               0.4 elap:               0.1
 (Enter /storage/apps/GAUSSIAN/G16_RevA03/g16/l202.exe)
 Symmetry turned off by external request.
 Stoichiometry    C24H30N9O6(1+)
 Framework group  C1[X(C24H30N9O6)]
 Deg. of freedom   201
 Full point group                 C1      NOp   1
                          Input orientation:                          
 ---------------------------------------------------------------------
 Center     Atomic      Atomic             Coordinates (Angstroms)
 Number     Number       Type             X           Y           Z
 ---------------------------------------------------------------------
      1          6           0       -4.144809    0.377973    6.707741
      2          1           0       -3.947127    0.429409    7.710109
      3          8           0       -2.979698   -0.216438    6.036537
      4          6           0       -4.282336    1.777804    6.105381
      5          1           0       -5.246744    2.129229    6.098705
      6          8           0       -3.440873    2.741013    6.784321
      7          1           0       -3.643069    2.822169    7.739075
      8          6           0       -3.677378    1.619689    4.697916
      9          1           0       -4.344204    1.214429    4.033140
     10          8           0       -3.210452    2.863399    4.185975
     11          1           0       -3.017567    3.425014    4.961702
     12          6           0       -2.499998    0.647909    4.986667
     13          1           0       -1.677053    1.168767    5.313615
     14          7           0       -2.060893   -0.211582    3.861164
     15          6           0       -0.726771   -0.239452    3.549677
     16          1           0       -0.145696    0.411940    4.073155
     17          6           0       -0.217617   -1.107549    2.636596
     18          6           0       -1.117487   -1.933315    1.896381
     19          1           0       -0.736580   -2.699963    1.343022
     20          1           0       -1.092444   -1.047057    0.300385
     21          6           0       -2.484862   -1.905786    2.260331
     22          1           0       -3.141375   -2.541021    1.809773
     23          6           0       -2.931770   -1.067761    3.224495
     24          1           0       -3.902087   -1.055246    3.536050
     25          6           0        1.262271   -1.325780    2.453380
     26          8           0        1.663966   -2.242511    1.709364
     27          7           0        2.157640   -0.556011    3.146443
     28          1           0        1.872098    0.132691    3.838735
     29          1           0        3.127891   -0.873434    3.179284
     30          7           0        2.156350   -3.109558   -1.927807
     31          6           0        3.275844   -2.433909   -2.268613
     32          7           0        4.392770   -3.104619   -2.666418
     33          1           0        4.429162   -4.116865   -2.607140
     34          1           0        5.246744   -2.581067   -2.915736
     35          7           0        3.337648   -1.058050   -2.254556
     36          1           0        4.258260   -0.599229   -2.408580
     37          6           0        2.256527   -0.269746   -1.889807
     38          8           0        2.398157    1.004434   -1.847902
     39          6           0        1.061354   -0.974098   -1.565946
     40          7           0       -0.110881   -0.245311   -1.251462
     41          1           0        0.037376    0.731886   -1.004395
     42          6           0       -1.248777   -0.926547   -0.709829
     43          6           0       -1.374062   -2.351129   -1.278143
     44          1           0       -2.070498   -2.867180   -0.740764
     45          1           0       -1.702753   -2.309725   -2.248952
     46          7           0       -0.085209   -3.039913   -1.195673
     47          1           0       -0.086839   -4.045492   -1.347916
     48          6           0        1.056315   -2.356091   -1.579921
     49          6           0       -2.589982   -0.107716   -0.778370
     50          1           0       -2.958898   -0.015198    0.169008
     51          1           0       -3.275327   -0.636447   -1.325089
     52          7           0       -2.449550    1.242375   -1.325419
     53          1           0       -2.714495    1.997497   -0.696120
     54          6           0       -2.224567    2.133362   -5.423928
     55          6           0       -2.392778    3.150323   -4.453855
     56          1           0       -2.446468    4.116865   -4.770652
     57          6           0       -2.460985    2.862209   -3.129226
     58          1           0       -2.571060    3.611615   -2.447403
     59          6           0       -2.380463    1.519414   -2.676789
     60          6           0       -2.217634    0.495770   -3.642894
     61          1           0       -2.154758   -0.477929   -3.350745
     62          6           0       -2.138636    0.800875   -4.963624
     63          1           0       -2.026377    0.039450   -5.631307
     64          6           0       -2.132461    2.484578   -6.840197
     65          8           0       -2.408041    3.665107   -7.262950
     66          7           0       -1.732531    1.533659   -7.739075
     67          1           0       -1.558098    0.576405   -7.451902
     68          1           0       -5.014521   -0.256463    6.536880
     69          1           0       -1.652659    1.704391   -8.812654
 ---------------------------------------------------------------------
 Rotational constants (GHZ):           0.1093134           0.0519576           0.0392042
 Leave Link  202 at Sat Jun 22 17:23:19 2024, MaxMem=  2684354560 cpu:               0.9 elap:               0.1
 (Enter /storage/apps/GAUSSIAN/G16_RevA03/g16/l301.exe)
 Standard basis: def2TZVP (5D, 7F)
 Ernie: Thresh=  0.10000D-02 Tol=  0.10000D-05 Strict=F.
  1389 basis functions,  2229 primitive gaussians,  1584 cartesian basis functions
   142 alpha electrons      142 beta electrons
       nuclear repulsion energy      4436.8125650437 Hartrees.
 IExCor= 4336 DFT=T Ex+Corr=M062X ExCW=0 ScaHFX=  0.540000
 ScaDFX=  1.000000  1.000000  1.000000  1.000000 ScalE2=  1.000000  1.000000
 IRadAn=      5 IRanWt=     -1 IRanGd=            0 ICorTp=0 IEmpDi=131
 NAtoms=   69 NActive=   69 NUniq=   69 SFac= 1.00D+00 NAtFMM=   60 NAOKFM=T Big=T
 Integral buffers will be    131072 words long.
 Raffenetti 2 integral format.
 Two-electron integral symmetry is turned off.
 R6Disp:  Grimme-D3 Dispersion energy=       -0.0065492350 Hartrees.
 Nuclear repulsion after empirical dispersion term =     4436.8060158088 Hartrees.
 Leave Link  301 at Sat Jun 22 17:23:19 2024, MaxMem=  2684354560 cpu:               1.3 elap:               0.1
 (Enter /storage/apps/GAUSSIAN/G16_RevA03/g16/l302.exe)
 NPDir=0 NMtPBC=     1 NCelOv=     1 NCel=       1 NClECP=     1 NCelD=      1
         NCelK=      1 NCelE2=     1 NClLst=     1 CellRange=     0.0.
 One-electron integrals computed using PRISM.
   1 Symmetry operations used in ECPInt.
 ECPInt:  NShTT=  150975 NPrTT=  462228 LenC2=  107334 LenP2D=  217149.
 LDataN:  DoStor=T MaxTD1= 6 Len=  172
 NBasis=  1389 RedAO= T EigKep=  5.97D-06  NBF=  1389
 NBsUse=  1389 1.00D-06 EigRej= -1.00D+00 NBFU=  1389
 Precomputing XC quadrature grid using
 IXCGrd= 4 IRadAn=           5 IRanWt=          -1 IRanGd=           0 AccXCQ= 0.00D+00.
 Generated NRdTot=       0 NPtTot=           0 NUsed=           0 NTot=          32
 NSgBfM=  1494  1486  1492  1494  1494 MxSgAt=    69 MxSgA2=    69.
 Leave Link  302 at Sat Jun 22 17:23:22 2024, MaxMem=  2684354560 cpu:              44.5 elap:               2.9
 (Enter /storage/apps/GAUSSIAN/G16_RevA03/g16/l303.exe)
 DipDrv:  MaxL=1.
 Leave Link  303 at Sat Jun 22 17:23:22 2024, MaxMem=  2684354560 cpu:               4.2 elap:               0.3
 (Enter /storage/apps/GAUSSIAN/G16_RevA03/g16/l401.exe)
 ExpMin= 9.52D-02 ExpMax= 2.70D+04 ExpMxC= 9.22D+02 IAcc=3 IRadAn=         5 AccDes= 0.00D+00
 Harris functional with IExCor= 1009 and IRadAn=       5 diagonalized for initial guess.
 HarFok:  IExCor= 1009 AccDes= 0.00D+00 IRadAn=         5 IDoV= 1 UseB2=F ITyADJ=14
 ICtDFT=  3500011 ScaDFX=  1.000000  1.000000  1.000000  1.000000
 FoFCou: FMM=F IPFlag=           0 FMFlag=      100000 FMFlg1=        2001
         NFxFlg=           0 DoJE=T BraDBF=F KetDBF=T FulRan=T
         wScrn=  0.000000 ICntrl=       500 IOpCl=  0 I1Cent=   200000004 NGrid=           0
         NMat0=    1 NMatS0=      1 NMatT0=    0 NMatD0=    1 NMtDS0=    0 NMtDT0=    0
 Symmetry not used in FoFCou.
 Harris En= -1875.49765103824    
 JPrj=0 DoOrth=F DoCkMO=F.
 Leave Link  401 at Sat Jun 22 17:23:29 2024, MaxMem=  2684354560 cpu:             105.6 elap:               6.7
 (Enter /storage/apps/GAUSSIAN/G16_RevA03/g16/l502.exe)
 Two-electron integral symmetry not used.
 Closed shell SCF:
 Using DIIS extrapolation, IDIIS=  1040.
 NGot=  2684354560 LenX=  2679300873 LenY=  2676790233
 Requested convergence on RMS density matrix=1.00D-08 within 128 cycles.
 Requested convergence on MAX density matrix=1.00D-06.
 Requested convergence on             energy=1.00D-06.
 No special actions if energy rises.
 Fock matrices will be formed incrementally for  20 cycles.
 Integral accuracy reduced to 1.0D-05 until final iterations.

 Cycle   1  Pass 0  IDiag  1:
 FoFJK:  IHMeth= 1 ICntrl=       0 DoSepK=F KAlg= 0 I1Cent=           0 FoldK=F
 IRaf= 700000000 NMat=       1 IRICut=       1 DoRegI=T DoRafI=F ISym2E= 0 IDoP0=0 IntGTp=1.
 FoFCou: FMM=T IPFlag=           0 FMFlag=      100000 FMFlg1=        2001
         NFxFlg=           0 DoJE=F BraDBF=F KetDBF=F FulRan=T
         wScrn=  0.000000 ICntrl=         0 IOpCl=  0 I1Cent=           0 NGrid=           0
         NMat0=    1 NMatS0=      1 NMatT0=    0 NMatD0=    1 NMtDS0=    0 NMtDT0=    0
 Symmetry not used in FoFCou.
 FMM levels:  10  Number of levels for PrismC:   9
 E= -1875.45997971513    
 DIIS: error= 1.51D-02 at cycle   1 NSaved=   1.
 NSaved= 1 IEnMin= 1 EnMin= -1875.45997971513     IErMin= 1 ErrMin= 1.51D-02
 ErrMax= 1.51D-02  0.00D+00 EMaxC= 1.00D-01 BMatC= 1.37D+00 BMatP= 1.37D+00
 IDIUse=3 WtCom= 8.49D-01 WtEn= 1.51D-01
 Coeff-Com:  0.100D+01
 Coeff-En:   0.100D+01
 Coeff:      0.100D+01
 Gap=     0.013 Goal=   None    Shift=    0.000
 GapD=    0.013 DampG=0.250 DampE=0.500 DampFc=0.2500 IDamp=-1.
 Damping current iteration by 2.50D-01
 RMSDP=5.90D+01 MaxDP=1.18D+04              OVMax= 9.98D-01

 Problem detected with inexpensive integrals.
 Switching to full accuracy and repeating last cycle.
 Cycle   2  Pass 1  IDiag  1:
 E= -1875.46015262935     Delta-E=       -0.000172914220 Rises=F Damp=F
 DIIS: error= 1.51D-02 at cycle   1 NSaved=   1.
 NSaved= 1 IEnMin= 1 EnMin= -1875.46015262935     IErMin= 1 ErrMin= 1.51D-02
 ErrMax= 1.51D-02  0.00D+00 EMaxC= 1.00D-01 BMatC= 1.37D+00 BMatP= 1.37D+00
 IDIUse=3 WtCom= 8.49D-01 WtEn= 1.51D-01
 Coeff-Com:  0.100D+01
 Coeff-En:   0.100D+01
 Coeff:      0.100D+01
 Gap=     0.013 Goal=   None    Shift=    0.000
 GapD=    0.013 DampG=0.250 DampE=0.500 DampFc=0.2500 IDamp=-1.
 Damping current iteration by 2.50D-01
 RMSDP=4.28D-03 MaxDP=1.28D+00 DE=-1.73D-04 OVMax= 8.34D-01

 Cycle   3  Pass 1  IDiag  1:
 RMSU=  1.07D-03    CP:  1.02D+00
 E= -1875.68667417244     Delta-E=       -0.226521543095 Rises=F Damp=T
 DIIS: error= 1.09D-02 at cycle   2 NSaved=   2.
 NSaved= 2 IEnMin= 2 EnMin= -1875.68667417244     IErMin= 2 ErrMin= 1.09D-02
 ErrMax= 1.09D-02  0.00D+00 EMaxC= 1.00D-01 BMatC= 4.52D-01 BMatP= 1.37D+00
 IDIUse=3 WtCom= 8.91D-01 WtEn= 1.09D-01
 Coeff-Com: -0.633D+00 0.163D+01
 Coeff-En:   0.607D-01 0.939D+00
 Coeff:     -0.557D+00 0.156D+01
 Gap=     0.206 Goal=   None    Shift=    0.000
 GapD=    0.206 DampG=1.000 DampE=0.500 DampFc=0.5000 IDamp=-1.
 Damping current iteration by 5.00D-01
 RMSDP=1.22D-03 MaxDP=1.47D-01 DE=-2.27D-01 OVMax= 6.98D-01

 Cycle   4  Pass 1  IDiag  1:
 RMSU=  6.06D-04    CP:  1.01D+00  1.04D+00
 E= -1875.95687561869     Delta-E=       -0.270201446249 Rises=F Damp=T
 DIIS: error= 9.24D-03 at cycle   3 NSaved=   3.
 NSaved= 3 IEnMin= 3 EnMin= -1875.95687561869     IErMin= 3 ErrMin= 9.24D-03
 ErrMax= 9.24D-03  0.00D+00 EMaxC= 1.00D-01 BMatC= 1.82D-01 BMatP= 4.52D-01
 IDIUse=3 WtCom= 9.08D-01 WtEn= 9.24D-02
 Coeff-Com: -0.576D+00 0.682D+00 0.894D+00
 Coeff-En:   0.000D+00 0.000D+00 0.100D+01
 Coeff:     -0.523D+00 0.619D+00 0.904D+00
 Gap=     0.195 Goal=   None    Shift=    0.000
 RMSDP=6.93D-04 MaxDP=1.07D-01 DE=-2.70D-01 OVMax= 2.09D-01

 Cycle   5  Pass 1  IDiag  1:
 RMSU=  6.46D-04    CP:  1.01D+00  9.94D-01  1.40D+00
 E= -1876.38434992938     Delta-E=       -0.427474310694 Rises=F Damp=F
 DIIS: error= 3.06D-03 at cycle   4 NSaved=   4.
 NSaved= 4 IEnMin= 4 EnMin= -1876.38434992938     IErMin= 4 ErrMin= 3.06D-03
 ErrMax= 3.06D-03  0.00D+00 EMaxC= 1.00D-01 BMatC= 3.24D-02 BMatP= 1.82D-01
 IDIUse=3 WtCom= 9.69D-01 WtEn= 3.06D-02
 Coeff-Com: -0.309D+00 0.418D+00 0.146D+00 0.746D+00
 Coeff-En:   0.000D+00 0.000D+00 0.000D+00 0.100D+01
 Coeff:     -0.300D+00 0.405D+00 0.141D+00 0.754D+00
 Gap=     0.087 Goal=   None    Shift=    0.000
 RMSDP=3.11D-04 MaxDP=5.46D-02 DE=-4.27D-01 OVMax= 7.84D-02

 Cycle   6  Pass 1  IDiag  1:
 RMSU=  2.49D-04    CP:  1.01D+00  1.12D+00  1.26D+00  1.14D+00
 E= -1876.41423546634     Delta-E=       -0.029885536951 Rises=F Damp=F
 DIIS: error= 2.29D-03 at cycle   5 NSaved=   5.
 NSaved= 5 IEnMin= 5 EnMin= -1876.41423546634     IErMin= 5 ErrMin= 2.29D-03
 ErrMax= 2.29D-03  0.00D+00 EMaxC= 1.00D-01 BMatC= 9.76D-03 BMatP= 3.24D-02
 IDIUse=3 WtCom= 9.77D-01 WtEn= 2.29D-02
 Coeff-Com: -0.140D+00 0.246D+00-0.886D-01 0.351D+00 0.631D+00
 Coeff-En:   0.000D+00 0.000D+00 0.000D+00 0.000D+00 0.100D+01
 Coeff:     -0.137D+00 0.241D+00-0.866D-01 0.343D+00 0.640D+00
 Gap=     0.099 Goal=   None    Shift=    0.000
 RMSDP=1.74D-04 MaxDP=6.48D-02 DE=-2.99D-02 OVMax= 4.58D-02

 Cycle   7  Pass 1  IDiag  1:
 RMSU=  1.22D-04    CP:  1.01D+00  1.10D+00  1.16D+00  1.30D+00  1.00D+00
 E= -1876.42473256542     Delta-E=       -0.010497099086 Rises=F Damp=F
 DIIS: error= 5.64D-04 at cycle   6 NSaved=   6.
 NSaved= 6 IEnMin= 6 EnMin= -1876.42473256542     IErMin= 6 ErrMin= 5.64D-04
 ErrMax= 5.64D-04  0.00D+00 EMaxC= 1.00D-01 BMatC= 1.29D-03 BMatP= 9.76D-03
 IDIUse=3 WtCom= 9.94D-01 WtEn= 5.64D-03
 Coeff-Com: -0.277D-01 0.726D-01-0.677D-01-0.244D-01 0.250D+00 0.797D+00
 Coeff-En:   0.000D+00 0.000D+00 0.000D+00 0.000D+00 0.000D+00 0.100D+01
 Coeff:     -0.276D-01 0.722D-01-0.673D-01-0.243D-01 0.249D+00 0.798D+00
 Gap=     0.098 Goal=   None    Shift=    0.000
 RMSDP=7.62D-05 MaxDP=2.01D-02 DE=-1.05D-02 OVMax= 3.13D-02

 Cycle   8  Pass 1  IDiag  1:
 RMSU=  3.88D-05    CP:  1.01D+00  1.12D+00  1.11D+00  1.34D+00  1.19D+00
                    CP:  1.17D+00
 E= -1876.42660386028     Delta-E=       -0.001871294856 Rises=F Damp=F
 DIIS: error= 2.57D-04 at cycle   7 NSaved=   7.
 NSaved= 7 IEnMin= 7 EnMin= -1876.42660386028     IErMin= 7 ErrMin= 2.57D-04
 ErrMax= 2.57D-04  0.00D+00 EMaxC= 1.00D-01 BMatC= 1.55D-04 BMatP= 1.29D-03
 IDIUse=3 WtCom= 9.97D-01 WtEn= 2.57D-03
 Coeff-Com:  0.300D-02 0.472D-03-0.693D-02-0.594D-01-0.766D-02 0.353D+00
 Coeff-Com:  0.718D+00
 Coeff-En:   0.000D+00 0.000D+00 0.000D+00 0.000D+00 0.000D+00 0.000D+00
 Coeff-En:   0.100D+01
 Coeff:      0.300D-02 0.470D-03-0.691D-02-0.592D-01-0.764D-02 0.352D+00
 Coeff:      0.718D+00
 Gap=     0.101 Goal=   None    Shift=    0.000
 RMSDP=3.76D-05 MaxDP=7.28D-03 DE=-1.87D-03 OVMax= 1.03D-02

 Cycle   9  Pass 1  IDiag  1:
 RMSU=  2.59D-05    CP:  1.01D+00  1.10D+00  1.10D+00  1.35D+00  1.20D+00
                    CP:  1.31D+00  1.28D+00
 E= -1876.42685641109     Delta-E=       -0.000252550815 Rises=F Damp=F
 DIIS: error= 8.92D-05 at cycle   8 NSaved=   8.
 NSaved= 8 IEnMin= 8 EnMin= -1876.42685641109     IErMin= 8 ErrMin= 8.92D-05
 ErrMax= 8.92D-05  0.00D+00 EMaxC= 1.00D-01 BMatC= 2.59D-05 BMatP= 1.55D-04
 IDIUse=1 WtCom= 1.00D+00 WtEn= 0.00D+00
 Coeff-Com:  0.256D-02-0.811D-02 0.108D-01-0.544D-02-0.306D-01 0.296D-02
 Coeff-Com:  0.223D+00 0.805D+00
 Coeff:      0.256D-02-0.811D-02 0.108D-01-0.544D-02-0.306D-01 0.296D-02
 Coeff:      0.223D+00 0.805D+00
 Gap=     0.101 Goal=   None    Shift=    0.000
 RMSDP=1.68D-05 MaxDP=4.64D-03 DE=-2.53D-04 OVMax= 6.46D-03

 Cycle  10  Pass 1  IDiag  1:
 RMSU=  8.94D-06    CP:  1.01D+00  1.10D+00  1.10D+00  1.34D+00  1.20D+00
                    CP:  1.31D+00  1.51D+00  1.24D+00
 E= -1876.42690183189     Delta-E=       -0.000045420795 Rises=F Damp=F
 DIIS: error= 5.72D-05 at cycle   9 NSaved=   9.
 NSaved= 9 IEnMin= 9 EnMin= -1876.42690183189     IErMin= 9 ErrMin= 5.72D-05
 ErrMax= 5.72D-05  0.00D+00 EMaxC= 1.00D-01 BMatC= 1.12D-05 BMatP= 2.59D-05
 IDIUse=1 WtCom= 1.00D+00 WtEn= 0.00D+00
 Coeff-Com: -0.593D-04-0.403D-02 0.873D-02 0.155D-01-0.790D-02-0.775D-01
 Coeff-Com: -0.938D-01 0.377D+00 0.782D+00
 Coeff:     -0.593D-04-0.403D-02 0.873D-02 0.155D-01-0.790D-02-0.775D-01
 Coeff:     -0.938D-01 0.377D+00 0.782D+00
 Gap=     0.102 Goal=   None    Shift=    0.000
 RMSDP=1.22D-05 MaxDP=3.81D-03 DE=-4.54D-05 OVMax= 2.93D-03

 Cycle  11  Pass 1  IDiag  1:
 RMSU=  3.72D-06    CP:  1.01D+00  1.09D+00  1.10D+00  1.33D+00  1.19D+00
                    CP:  1.31D+00  1.64D+00  1.53D+00  1.20D+00
 E= -1876.42691738494     Delta-E=       -0.000015553050 Rises=F Damp=F
 DIIS: error= 2.49D-05 at cycle  10 NSaved=  10.
 NSaved=10 IEnMin=10 EnMin= -1876.42691738494     IErMin=10 ErrMin= 2.49D-05
 ErrMax= 2.49D-05  0.00D+00 EMaxC= 1.00D-01 BMatC= 1.43D-06 BMatP= 1.12D-05
 IDIUse=1 WtCom= 1.00D+00 WtEn= 0.00D+00
 Coeff-Com:  0.274D-03-0.154D-02 0.209D-02 0.721D-02 0.205D-02-0.330D-01
 Coeff-Com: -0.885D-01 0.434D-01 0.369D+00 0.699D+00
 Coeff:      0.274D-03-0.154D-02 0.209D-02 0.721D-02 0.205D-02-0.330D-01
 Coeff:     -0.885D-01 0.434D-01 0.369D+00 0.699D+00
 Gap=     0.102 Goal=   None    Shift=    0.000
 RMSDP=4.26D-06 MaxDP=9.10D-04 DE=-1.56D-05 OVMax= 1.83D-03

 Cycle  12  Pass 1  IDiag  1:
 RMSU=  1.55D-06    CP:  1.01D+00  1.09D+00  1.10D+00  1.33D+00  1.19D+00
                    CP:  1.31D+00  1.69D+00  1.63D+00  1.36D+00  1.05D+00
 E= -1876.42691965278     Delta-E=       -0.000002267840 Rises=F Damp=F
 DIIS: error= 8.68D-06 at cycle  11 NSaved=  11.
 NSaved=11 IEnMin=11 EnMin= -1876.42691965278     IErMin=11 ErrMin= 8.68D-06
 ErrMax= 8.68D-06  0.00D+00 EMaxC= 1.00D-01 BMatC= 3.19D-07 BMatP= 1.43D-06
 IDIUse=1 WtCom= 1.00D+00 WtEn= 0.00D+00
 Coeff-Com:  0.933D-04-0.228D-03 0.987D-04 0.143D-02 0.208D-02-0.321D-02
 Coeff-Com: -0.320D-01-0.333D-01 0.494D-01 0.340D+00 0.676D+00
 Coeff:      0.933D-04-0.228D-03 0.987D-04 0.143D-02 0.208D-02-0.321D-02
 Coeff:     -0.320D-01-0.333D-01 0.494D-01 0.340D+00 0.676D+00
 Gap=     0.102 Goal=   None    Shift=    0.000
 RMSDP=1.62D-06 MaxDP=5.17D-04 DE=-2.27D-06 OVMax= 4.71D-04

 Cycle  13  Pass 1  IDiag  1:
 RMSU=  5.64D-07    CP:  1.01D+00  1.09D+00  1.10D+00  1.33D+00  1.18D+00
                    CP:  1.31D+00  1.70D+00  1.66D+00  1.41D+00  1.20D+00
                    CP:  1.05D+00
 E= -1876.42692004454     Delta-E=       -0.000000391764 Rises=F Damp=F
 DIIS: error= 2.86D-06 at cycle  12 NSaved=  12.
 NSaved=12 IEnMin=12 EnMin= -1876.42692004454     IErMin=12 ErrMin= 2.86D-06
 ErrMax= 2.86D-06  0.00D+00 EMaxC= 1.00D-01 BMatC= 3.80D-08 BMatP= 3.19D-07
 IDIUse=1 WtCom= 1.00D+00 WtEn= 0.00D+00
 Coeff-Com:  0.751D-04 0.813D-05-0.230D-03-0.697D-03 0.137D-03 0.549D-02
 Coeff-Com:  0.135D-02-0.196D-01-0.500D-01 0.230D-01 0.278D+00 0.762D+00
 Coeff:      0.751D-04 0.813D-05-0.230D-03-0.697D-03 0.137D-03 0.549D-02
 Coeff:      0.135D-02-0.196D-01-0.500D-01 0.230D-01 0.278D+00 0.762D+00
 Gap=     0.102 Goal=   None    Shift=    0.000
 RMSDP=6.39D-07 MaxDP=1.25D-04 DE=-3.92D-07 OVMax= 2.78D-04

 Cycle  14  Pass 1  IDiag  1:
 RMSU=  2.54D-07    CP:  1.01D+00  1.09D+00  1.10D+00  1.33D+00  1.18D+00
                    CP:  1.31D+00  1.71D+00  1.66D+00  1.43D+00  1.26D+00
                    CP:  1.18D+00  1.10D+00
 E= -1876.42692010333     Delta-E=       -0.000000058792 Rises=F Damp=F
 DIIS: error= 1.02D-06 at cycle  13 NSaved=  13.
 NSaved=13 IEnMin=13 EnMin= -1876.42692010333     IErMin=13 ErrMin= 1.02D-06
 ErrMax= 1.02D-06  0.00D+00 EMaxC= 1.00D-01 BMatC= 4.93D-09 BMatP= 3.80D-08
 IDIUse=1 WtCom= 1.00D+00 WtEn= 0.00D+00
 Coeff-Com: -0.324D-05 0.528D-04-0.864D-04-0.301D-03-0.223D-03 0.276D-02
 Coeff-Com:  0.302D-02-0.452D-02-0.250D-01-0.225D-01 0.344D-01 0.303D+00
 Coeff-Com:  0.709D+00
 Coeff:     -0.324D-05 0.528D-04-0.864D-04-0.301D-03-0.223D-03 0.276D-02
 Coeff:      0.302D-02-0.452D-02-0.250D-01-0.225D-01 0.344D-01 0.303D+00
 Coeff:      0.709D+00
 Gap=     0.102 Goal=   None    Shift=    0.000
 RMSDP=2.24D-07 MaxDP=5.69D-05 DE=-5.88D-08 OVMax= 5.99D-05

 Cycle  15  Pass 1  IDiag  1:
 RMSU=  9.97D-08    CP:  1.01D+00  1.09D+00  1.11D+00  1.33D+00  1.18D+00
                    CP:  1.31D+00  1.71D+00  1.67D+00  1.43D+00  1.28D+00
                    CP:  1.22D+00  1.27D+00  1.17D+00
 E= -1876.42692011084     Delta-E=       -0.000000007510 Rises=F Damp=F
 DIIS: error= 5.25D-07 at cycle  14 NSaved=  14.
 NSaved=14 IEnMin=14 EnMin= -1876.42692011084     IErMin=14 ErrMin= 5.25D-07
 ErrMax= 5.25D-07  0.00D+00 EMaxC= 1.00D-01 BMatC= 1.05D-09 BMatP= 4.93D-09
 IDIUse=1 WtCom= 1.00D+00 WtEn= 0.00D+00
 Coeff-Com: -0.155D-04 0.219D-04 0.211D-05 0.247D-04-0.215D-03 0.229D-03
 Coeff-Com:  0.106D-02 0.294D-02 0.269D-03-0.158D-01-0.536D-01-0.243D-01
 Coeff-Com:  0.355D+00 0.735D+00
 Coeff:     -0.155D-04 0.219D-04 0.211D-05 0.247D-04-0.215D-03 0.229D-03
 Coeff:      0.106D-02 0.294D-02 0.269D-03-0.158D-01-0.536D-01-0.243D-01
 Coeff:      0.355D+00 0.735D+00
 Gap=     0.102 Goal=   None    Shift=    0.000
 RMSDP=1.21D-07 MaxDP=2.72D-05 DE=-7.51D-09 OVMax= 4.74D-05

 Cycle  16  Pass 1  IDiag  1:
 RMSU=  4.40D-08    CP:  1.01D+00  1.09D+00  1.10D+00  1.33D+00  1.18D+00
                    CP:  1.31D+00  1.71D+00  1.67D+00  1.43D+00  1.28D+00
                    CP:  1.24D+00  1.33D+00  1.37D+00  1.02D+00
 E= -1876.42692011271     Delta-E=       -0.000000001864 Rises=F Damp=F
 DIIS: error= 2.13D-07 at cycle  15 NSaved=  15.
 NSaved=15 IEnMin=15 EnMin= -1876.42692011271     IErMin=15 ErrMin= 2.13D-07
 ErrMax= 2.13D-07  0.00D+00 EMaxC= 1.00D-01 BMatC= 1.82D-10 BMatP= 1.05D-09
 IDIUse=1 WtCom= 1.00D+00 WtEn= 0.00D+00
 Coeff-Com: -0.559D-05 0.317D-05 0.811D-05 0.544D-04-0.897D-04-0.301D-03
 Coeff-Com: -0.565D-04 0.186D-02 0.359D-02-0.374D-02-0.288D-01-0.525D-01
 Coeff-Com:  0.327D-01 0.329D+00 0.718D+00
 Coeff:     -0.559D-05 0.317D-05 0.811D-05 0.544D-04-0.897D-04-0.301D-03
 Coeff:     -0.565D-04 0.186D-02 0.359D-02-0.374D-02-0.288D-01-0.525D-01
 Coeff:      0.327D-01 0.329D+00 0.718D+00
 Gap=     0.102 Goal=   None    Shift=    0.000
 RMSDP=5.22D-08 MaxDP=1.46D-05 DE=-1.86D-09 OVMax= 1.91D-05

 Cycle  17  Pass 1  IDiag  1:
 RMSU=  1.61D-08    CP:  1.01D+00  1.09D+00  1.10D+00  1.33D+00  1.18D+00
                    CP:  1.31D+00  1.71D+00  1.67D+00  1.43D+00  1.29D+00
                    CP:  1.25D+00  1.37D+00  1.44D+00  1.19D+00  9.49D-01
 E= -1876.42692011301     Delta-E=       -0.000000000300 Rises=F Damp=F
 DIIS: error= 8.65D-08 at cycle  16 NSaved=  16.
 NSaved=16 IEnMin=16 EnMin= -1876.42692011301     IErMin=16 ErrMin= 8.65D-08
 ErrMax= 8.65D-08  0.00D+00 EMaxC= 1.00D-01 BMatC= 3.41D-11 BMatP= 1.82D-10
 IDIUse=1 WtCom= 1.00D+00 WtEn= 0.00D+00
 Coeff-Com: -0.224D-05 0.477D-06 0.514D-05 0.292D-04-0.145D-04-0.204D-03
 Coeff-Com: -0.248D-03 0.519D-03 0.188D-02 0.101D-02-0.585D-02-0.226D-01
 Coeff-Com: -0.523D-01 0.437D-01 0.368D+00 0.666D+00
 Coeff:     -0.224D-05 0.477D-06 0.514D-05 0.292D-04-0.145D-04-0.204D-03
 Coeff:     -0.248D-03 0.519D-03 0.188D-02 0.101D-02-0.585D-02-0.226D-01
 Coeff:     -0.523D-01 0.437D-01 0.368D+00 0.666D+00
 Gap=     0.102 Goal=   None    Shift=    0.000
 RMSDP=1.97D-08 MaxDP=5.70D-06 DE=-3.00D-10 OVMax= 8.19D-06

 Cycle  18  Pass 1  IDiag  1:
 RMSU=  6.47D-09    CP:  1.01D+00  1.09D+00  1.10D+00  1.33D+00  1.18D+00
                    CP:  1.31D+00  1.71D+00  1.67D+00  1.43D+00  1.29D+00
                    CP:  1.25D+00  1.37D+00  1.47D+00  1.23D+00  1.11D+00
                    CP:  8.84D-01
 E= -1876.42692011301     Delta-E=       -0.000000000005 Rises=F Damp=F
 DIIS: error= 3.32D-08 at cycle  17 NSaved=  17.
 NSaved=17 IEnMin=17 EnMin= -1876.42692011301     IErMin=17 ErrMin= 3.32D-08
 ErrMax= 3.32D-08  0.00D+00 EMaxC= 1.00D-01 BMatC= 5.20D-12 BMatP= 3.41D-11
 IDIUse=1 WtCom= 1.00D+00 WtEn= 0.00D+00
 Coeff-Com:  0.121D-06-0.742D-06 0.122D-05 0.587D-05 0.201D-05-0.528D-04
 Coeff-Com: -0.116D-03-0.780D-05 0.329D-03 0.105D-02 0.109D-02-0.285D-02
 Coeff-Com: -0.300D-01-0.237D-01 0.632D-01 0.327D+00 0.664D+00
 Coeff:      0.121D-06-0.742D-06 0.122D-05 0.587D-05 0.201D-05-0.528D-04
 Coeff:     -0.116D-03-0.780D-05 0.329D-03 0.105D-02 0.109D-02-0.285D-02
 Coeff:     -0.300D-01-0.237D-01 0.632D-01 0.327D+00 0.664D+00
 Gap=     0.102 Goal=   None    Shift=    0.000
 RMSDP=6.00D-09 MaxDP=1.66D-06 DE=-5.46D-12 OVMax= 2.47D-06

 Cycle  19  Pass 1  IDiag  1:
 RMSU=  2.10D-09    CP:  1.01D+00  1.09D+00  1.10D+00  1.33D+00  1.18D+00
                    CP:  1.31D+00  1.71D+00  1.67D+00  1.43D+00  1.29D+00
                    CP:  1.25D+00  1.38D+00  1.47D+00  1.24D+00  1.14D+00
                    CP:  1.01D+00  9.53D-01
 E= -1876.42692011301     Delta-E=        0.000000000000 Rises=F Damp=F
 DIIS: error= 1.36D-08 at cycle  18 NSaved=  18.
 NSaved=18 IEnMin=17 EnMin= -1876.42692011301     IErMin=18 ErrMin= 1.36D-08
 ErrMax= 1.36D-08  0.00D+00 EMaxC= 1.00D-01 BMatC= 8.34D-13 BMatP= 5.20D-12
 IDIUse=1 WtCom= 1.00D+00 WtEn= 0.00D+00
 Coeff-Com:  0.265D-06-0.395D-06 0.195D-06-0.912D-06 0.287D-05 0.629D-05
 Coeff-Com: -0.205D-04-0.814D-04-0.146D-03 0.389D-03 0.134D-02 0.225D-02
 Coeff-Com: -0.687D-02-0.177D-01-0.302D-01 0.611D-01 0.332D+00 0.658D+00
 Coeff:      0.265D-06-0.395D-06 0.195D-06-0.912D-06 0.287D-05 0.629D-05
 Coeff:     -0.205D-04-0.814D-04-0.146D-03 0.389D-03 0.134D-02 0.225D-02
 Coeff:     -0.687D-02-0.177D-01-0.302D-01 0.611D-01 0.332D+00 0.658D+00
 Gap=     0.102 Goal=   None    Shift=    0.000
 RMSDP=2.14D-09 MaxDP=5.46D-07 DE= 0.00D+00 OVMax= 7.49D-07

 SCF Done:  E(RM062X) =  -1876.42692011     A.U. after   19 cycles
            NFock= 19  Conv=0.21D-08     -V/T= 2.0047
 KE= 1.867595918627D+03 PE=-1.322508684047D+04 EE= 5.044257985923D+03
 Leave Link  502 at Sat Jun 22 17:48:30 2024, MaxMem=  2684354560 cpu:           23955.4 elap:            1501.0
 (Enter /storage/apps/GAUSSIAN/G16_RevA03/g16/l601.exe)
 Copying SCF densities to generalized density rwf, IOpCl= 0 IROHF=0.

 **********************************************************************

            Population analysis using the SCF density.

 **********************************************************************

 Alpha  occ. eigenvalues --  -19.77730 -19.76644 -19.75031 -19.71604 -19.65318
 Alpha  occ. eigenvalues --  -19.62140 -15.00077 -14.89331 -14.88860 -14.86651
 Alpha  occ. eigenvalues --  -14.85836 -14.85249 -14.85041 -14.82319 -14.81947
 Alpha  occ. eigenvalues --  -10.78238 -10.78223 -10.76582 -10.75945 -10.75885
 Alpha  occ. eigenvalues --  -10.73634 -10.72930 -10.72890 -10.72274 -10.72251
 Alpha  occ. eigenvalues --  -10.71739 -10.70966 -10.70526 -10.69153 -10.68221
 Alpha  occ. eigenvalues --  -10.67133 -10.66957 -10.66272 -10.64931 -10.60515
 Alpha  occ. eigenvalues --  -10.60217 -10.59875 -10.59532 -10.59417  -1.32043
 Alpha  occ. eigenvalues --   -1.28587  -1.27071  -1.26254  -1.25504  -1.22654
 Alpha  occ. eigenvalues --   -1.17515  -1.16919  -1.16187  -1.13674  -1.13160
 Alpha  occ. eigenvalues --   -1.10430  -1.09590  -1.09042  -1.06512  -1.05997
 Alpha  occ. eigenvalues --   -1.04268  -1.01995  -1.00998  -0.99276  -0.98230
 Alpha  occ. eigenvalues --   -0.92741  -0.92613  -0.92039  -0.91237  -0.90283
 Alpha  occ. eigenvalues --   -0.88033  -0.86844  -0.84395  -0.83701  -0.82041
 Alpha  occ. eigenvalues --   -0.81038  -0.80027  -0.78895  -0.78585  -0.76509
 Alpha  occ. eigenvalues --   -0.76205  -0.75394  -0.74643  -0.74349  -0.72855
 Alpha  occ. eigenvalues --   -0.72625  -0.72060  -0.71531  -0.70470  -0.70275
 Alpha  occ. eigenvalues --   -0.69162  -0.68875  -0.68528  -0.67940  -0.67568
 Alpha  occ. eigenvalues --   -0.66935  -0.66555  -0.66147  -0.65798  -0.64585
 Alpha  occ. eigenvalues --   -0.64171  -0.63851  -0.63279  -0.62799  -0.62356
 Alpha  occ. eigenvalues --   -0.61995  -0.61433  -0.60996  -0.60747  -0.60558
 Alpha  occ. eigenvalues --   -0.59971  -0.59251  -0.59003  -0.58025  -0.57504
 Alpha  occ. eigenvalues --   -0.56757  -0.56596  -0.56439  -0.56265  -0.54650
 Alpha  occ. eigenvalues --   -0.53542  -0.53375  -0.53184  -0.52871  -0.52644
 Alpha  occ. eigenvalues --   -0.51644  -0.51475  -0.50355  -0.50165  -0.49846
 Alpha  occ. eigenvalues --   -0.49572  -0.48943  -0.47135  -0.46451  -0.46239
 Alpha  occ. eigenvalues --   -0.45472  -0.44293  -0.43601  -0.42926  -0.41382
 Alpha  occ. eigenvalues --   -0.40495  -0.39501  -0.38201  -0.36796  -0.36744
 Alpha  occ. eigenvalues --   -0.32405  -0.30291
 Alpha virt. eigenvalues --   -0.20059  -0.16494  -0.07325  -0.07042  -0.06316
 Alpha virt. eigenvalues --   -0.06220  -0.05937  -0.05629  -0.05289  -0.04012
 Alpha virt. eigenvalues --   -0.03705  -0.03455  -0.02947  -0.02744  -0.01863
 Alpha virt. eigenvalues --   -0.01171  -0.00534  -0.00159   0.00007   0.00489
 Alpha virt. eigenvalues --    0.00877   0.01233   0.01405   0.01590   0.01938
 Alpha virt. eigenvalues --    0.02127   0.02600   0.02998   0.03357   0.03624
 Alpha virt. eigenvalues --    0.04027   0.04589   0.04755   0.05364   0.05420
 Alpha virt. eigenvalues --    0.06046   0.06287   0.06492   0.06865   0.06948
 Alpha virt. eigenvalues --    0.07321   0.07880   0.08462   0.08548   0.09035
 Alpha virt. eigenvalues --    0.09603   0.09747   0.10116   0.10230   0.10679
 Alpha virt. eigenvalues --    0.11162   0.11328   0.11784   0.12038   0.12196
 Alpha virt. eigenvalues --    0.13027   0.13162   0.13364   0.13982   0.14048
 Alpha virt. eigenvalues --    0.14222   0.14444   0.14627   0.14816   0.15373
 Alpha virt. eigenvalues --    0.15763   0.16098   0.16263   0.16620   0.17034
 Alpha virt. eigenvalues --    0.17350   0.17758   0.18282   0.18451   0.19068
 Alpha virt. eigenvalues --    0.19428   0.19505   0.19802   0.20112   0.20417
 Alpha virt. eigenvalues --    0.20611   0.20995   0.21217   0.21448   0.21834
 Alpha virt. eigenvalues --    0.21942   0.22196   0.22785   0.22864   0.23349
 Alpha virt. eigenvalues --    0.23538   0.23564   0.23980   0.24134   0.24749
 Alpha virt. eigenvalues --    0.24979   0.25373   0.25636   0.25887   0.25997
 Alpha virt. eigenvalues --    0.26289   0.26402   0.26912   0.27156   0.27615
 Alpha virt. eigenvalues --    0.27901   0.28407   0.28598   0.28813   0.28952
 Alpha virt. eigenvalues --    0.29113   0.29300   0.29712   0.29820   0.30100
 Alpha virt. eigenvalues --    0.30439   0.30600   0.31083   0.31190   0.31325
 Alpha virt. eigenvalues --    0.31343   0.31815   0.32260   0.32382   0.32704
 Alpha virt. eigenvalues --    0.33024   0.33379   0.33543   0.33766   0.33985
 Alpha virt. eigenvalues --    0.34513   0.34696   0.34963   0.35022   0.35165
 Alpha virt. eigenvalues --    0.35543   0.35752   0.36396   0.36529   0.36663
 Alpha virt. eigenvalues --    0.36937   0.36976   0.37289   0.37703   0.37735
 Alpha virt. eigenvalues --    0.37868   0.38249   0.38650   0.38772   0.38995
 Alpha virt. eigenvalues --    0.39166   0.39603   0.39882   0.40063   0.40359
 Alpha virt. eigenvalues --    0.40582   0.40975   0.41169   0.41306   0.41579
 Alpha virt. eigenvalues --    0.42024   0.42111   0.42314   0.42584   0.42838
 Alpha virt. eigenvalues --    0.43440   0.43629   0.43879   0.44108   0.44311
 Alpha virt. eigenvalues --    0.44666   0.44755   0.45022   0.45305   0.45735
 Alpha virt. eigenvalues --    0.45998   0.46061   0.46557   0.46755   0.47050
 Alpha virt. eigenvalues --    0.47448   0.47803   0.47908   0.48755   0.48851
 Alpha virt. eigenvalues --    0.48998   0.49307   0.49513   0.49976   0.50417
 Alpha virt. eigenvalues --    0.50718   0.51227   0.51280   0.51634   0.52146
 Alpha virt. eigenvalues --    0.52315   0.52797   0.52936   0.53152   0.53700
 Alpha virt. eigenvalues --    0.54037   0.54373   0.54527   0.54885   0.55258
 Alpha virt. eigenvalues --    0.55655   0.55891   0.56497   0.56683   0.56923
 Alpha virt. eigenvalues --    0.57279   0.57422   0.57980   0.58361   0.58370
 Alpha virt. eigenvalues --    0.58873   0.59049   0.59533   0.59941   0.60518
 Alpha virt. eigenvalues --    0.60745   0.61032   0.61129   0.61506   0.61964
 Alpha virt. eigenvalues --    0.62082   0.62419   0.62630   0.63131   0.63243
 Alpha virt. eigenvalues --    0.63869   0.64124   0.64352   0.64569   0.65047
 Alpha virt. eigenvalues --    0.65303   0.66102   0.66428   0.67100   0.67242
 Alpha virt. eigenvalues --    0.67658   0.67825   0.68430   0.69109   0.69208
 Alpha virt. eigenvalues --    0.69687   0.70389   0.70645   0.70985   0.71089
 Alpha virt. eigenvalues --    0.71574   0.71918   0.72260   0.72447   0.73021
 Alpha virt. eigenvalues --    0.73236   0.74129   0.74603   0.74920   0.75046
 Alpha virt. eigenvalues --    0.75406   0.75782   0.76275   0.76645   0.77115
 Alpha virt. eigenvalues --    0.77268   0.77693   0.78100   0.78594   0.79095
 Alpha virt. eigenvalues --    0.79483   0.79876   0.80476   0.80723   0.81262
 Alpha virt. eigenvalues --    0.81302   0.81755   0.82131   0.82828   0.83250
 Alpha virt. eigenvalues --    0.83828   0.84264   0.84753   0.84907   0.85786
 Alpha virt. eigenvalues --    0.85958   0.86594   0.86713   0.87356   0.87534
 Alpha virt. eigenvalues --    0.87794   0.88350   0.88707   0.89296   0.89478
 Alpha virt. eigenvalues --    0.90489   0.90709   0.91348   0.91611   0.92021
 Alpha virt. eigenvalues --    0.92552   0.92752   0.93441   0.93974   0.94442
 Alpha virt. eigenvalues --    0.95287   0.95554   0.96327   0.96978   0.97085
 Alpha virt. eigenvalues --    0.97712   0.98395   0.98927   0.99129   0.99790
 Alpha virt. eigenvalues --    0.99997   1.00451   1.00757   1.00965   1.02304
 Alpha virt. eigenvalues --    1.02453   1.02822   1.03000   1.04199   1.04355
 Alpha virt. eigenvalues --    1.04768   1.05416   1.05990   1.06591   1.06778
 Alpha virt. eigenvalues --    1.07254   1.07795   1.08581   1.08852   1.09610
 Alpha virt. eigenvalues --    1.10137   1.10361   1.10520   1.11498   1.11667
 Alpha virt. eigenvalues --    1.12251   1.12766   1.13282   1.13965   1.14346
 Alpha virt. eigenvalues --    1.15046   1.15279   1.15973   1.16833   1.16869
 Alpha virt. eigenvalues --    1.17516   1.17651   1.18073   1.19337   1.20101
 Alpha virt. eigenvalues --    1.20315   1.21392   1.21673   1.22347   1.22744
 Alpha virt. eigenvalues --    1.23251   1.23649   1.24144   1.24194   1.24859
 Alpha virt. eigenvalues --    1.25007   1.25431   1.25956   1.26907   1.27644
 Alpha virt. eigenvalues --    1.27993   1.28067   1.28341   1.28945   1.29581
 Alpha virt. eigenvalues --    1.29818   1.30560   1.31165   1.32194   1.32590
 Alpha virt. eigenvalues --    1.32759   1.33518   1.34075   1.34291   1.34662
 Alpha virt. eigenvalues --    1.35090   1.35680   1.35862   1.36452   1.36927
 Alpha virt. eigenvalues --    1.37170   1.38139   1.38869   1.38984   1.39538
 Alpha virt. eigenvalues --    1.39744   1.40205   1.40477   1.40963   1.41717
 Alpha virt. eigenvalues --    1.41928   1.42481   1.43059   1.43444   1.43743
 Alpha virt. eigenvalues --    1.44063   1.44473   1.44704   1.45409   1.45814
 Alpha virt. eigenvalues --    1.46567   1.47148   1.47240   1.47665   1.47858
 Alpha virt. eigenvalues --    1.48252   1.48531   1.48806   1.49264   1.49854
 Alpha virt. eigenvalues --    1.50603   1.51225   1.51445   1.51691   1.51939
 Alpha virt. eigenvalues --    1.52305   1.52765   1.52946   1.53576   1.53909
 Alpha virt. eigenvalues --    1.54102   1.54487   1.54683   1.54985   1.55666
 Alpha virt. eigenvalues --    1.56093   1.56670   1.56888   1.57028   1.57281
 Alpha virt. eigenvalues --    1.58042   1.58137   1.58400   1.58630   1.58757
 Alpha virt. eigenvalues --    1.59272   1.59780   1.59995   1.60441   1.61166
 Alpha virt. eigenvalues --    1.61426   1.61625   1.62191   1.62516   1.62738
 Alpha virt. eigenvalues --    1.63097   1.63619   1.64239   1.64865   1.64967
 Alpha virt. eigenvalues --    1.65521   1.65940   1.66299   1.67004   1.67424
 Alpha virt. eigenvalues --    1.67758   1.68086   1.68626   1.69712   1.69780
 Alpha virt. eigenvalues --    1.70549   1.70936   1.71430   1.71600   1.71910
 Alpha virt. eigenvalues --    1.72581   1.72979   1.73245   1.73872   1.74185
 Alpha virt. eigenvalues --    1.74783   1.75221   1.75508   1.76041   1.76457
 Alpha virt. eigenvalues --    1.77017   1.77463   1.78340   1.78817   1.79291
 Alpha virt. eigenvalues --    1.79754   1.80058   1.80708   1.81119   1.81497
 Alpha virt. eigenvalues --    1.81888   1.82233   1.82421   1.82829   1.83655
 Alpha virt. eigenvalues --    1.83801   1.84534   1.84625   1.85191   1.85643
 Alpha virt. eigenvalues --    1.86262   1.86561   1.86872   1.87239   1.87539
 Alpha virt. eigenvalues --    1.87634   1.88618   1.89137   1.89842   1.89986
 Alpha virt. eigenvalues --    1.90905   1.91133   1.91242   1.91718   1.92903
 Alpha virt. eigenvalues --    1.93239   1.93799   1.94240   1.95046   1.95403
 Alpha virt. eigenvalues --    1.95768   1.96177   1.97063   1.97698   1.97727
 Alpha virt. eigenvalues --    1.98477   1.98508   1.99001   1.99545   2.00008
 Alpha virt. eigenvalues --    2.00626   2.01329   2.01829   2.02712   2.02957
 Alpha virt. eigenvalues --    2.03275   2.03470   2.04017   2.04859   2.05541
 Alpha virt. eigenvalues --    2.05848   2.06499   2.06775   2.07766   2.07993
 Alpha virt. eigenvalues --    2.08343   2.09132   2.09404   2.10027   2.10281
 Alpha virt. eigenvalues --    2.10971   2.11208   2.12019   2.12411   2.12665
 Alpha virt. eigenvalues --    2.13092   2.13977   2.14179   2.15171   2.15473
 Alpha virt. eigenvalues --    2.16020   2.16389   2.16695   2.16946   2.17621
 Alpha virt. eigenvalues --    2.18070   2.19191   2.19419   2.19725   2.20286
 Alpha virt. eigenvalues --    2.20590   2.21390   2.21698   2.21971   2.22414
 Alpha virt. eigenvalues --    2.22799   2.23768   2.24091   2.24386   2.25181
 Alpha virt. eigenvalues --    2.25443   2.25903   2.26409   2.26887   2.27032
 Alpha virt. eigenvalues --    2.27482   2.28893   2.30097   2.30229   2.30714
 Alpha virt. eigenvalues --    2.31993   2.32336   2.32947   2.33145   2.33341
 Alpha virt. eigenvalues --    2.33724   2.35110   2.35146   2.35717   2.36536
 Alpha virt. eigenvalues --    2.36720   2.36897   2.37462   2.38342   2.39105
 Alpha virt. eigenvalues --    2.39141   2.40022   2.40132   2.41049   2.41192
 Alpha virt. eigenvalues --    2.41524   2.41981   2.42624   2.43678   2.44865
 Alpha virt. eigenvalues --    2.45241   2.46112   2.46609   2.47101   2.47467
 Alpha virt. eigenvalues --    2.47726   2.48066   2.48634   2.49412   2.49671
 Alpha virt. eigenvalues --    2.50397   2.51470   2.51562   2.52049   2.52149
 Alpha virt. eigenvalues --    2.52933   2.53548   2.53714   2.54860   2.54946
 Alpha virt. eigenvalues --    2.55324   2.56287   2.57012   2.57322   2.57746
 Alpha virt. eigenvalues --    2.58118   2.58368   2.59129   2.59196   2.60162
 Alpha virt. eigenvalues --    2.60486   2.60847   2.61147   2.61549   2.61901
 Alpha virt. eigenvalues --    2.62567   2.63677   2.63751   2.64097   2.64457
 Alpha virt. eigenvalues --    2.64523   2.64716   2.65376   2.65582   2.66360
 Alpha virt. eigenvalues --    2.67082   2.67357   2.67607   2.68085   2.68156
 Alpha virt. eigenvalues --    2.68461   2.68907   2.69158   2.70032   2.70379
 Alpha virt. eigenvalues --    2.70528   2.70981   2.71325   2.71663   2.72089
 Alpha virt. eigenvalues --    2.72567   2.72935   2.73443   2.74614   2.74873
 Alpha virt. eigenvalues --    2.75225   2.76001   2.76377   2.76737   2.76975
 Alpha virt. eigenvalues --    2.77429   2.77574   2.78152   2.78301   2.78567
 Alpha virt. eigenvalues --    2.79209   2.79482   2.79966   2.80019   2.81154
 Alpha virt. eigenvalues --    2.81612   2.82176   2.83043   2.83369   2.83707
 Alpha virt. eigenvalues --    2.84135   2.84383   2.84845   2.85130   2.85337
 Alpha virt. eigenvalues --    2.86339   2.86673   2.86974   2.87039   2.87802
 Alpha virt. eigenvalues --    2.88041   2.88080   2.88507   2.88846   2.89164
 Alpha virt. eigenvalues --    2.89584   2.89892   2.89966   2.90618   2.91292
 Alpha virt. eigenvalues --    2.91929   2.92200   2.92368   2.92631   2.92965
 Alpha virt. eigenvalues --    2.93275   2.93589   2.94091   2.94723   2.94816
 Alpha virt. eigenvalues --    2.95460   2.95752   2.96167   2.96235   2.96748
 Alpha virt. eigenvalues --    2.97282   2.98246   2.98576   2.98874   2.99012
 Alpha virt. eigenvalues --    2.99688   3.00058   3.00586   3.00701   3.01175
 Alpha virt. eigenvalues --    3.01468   3.02264   3.02662   3.03149   3.03691
 Alpha virt. eigenvalues --    3.03894   3.04184   3.04652   3.05048   3.05710
 Alpha virt. eigenvalues --    3.06042   3.06157   3.06564   3.06589   3.07327
 Alpha virt. eigenvalues --    3.07458   3.07907   3.08434   3.09066   3.09208
 Alpha virt. eigenvalues --    3.09930   3.10086   3.10717   3.11328   3.11672
 Alpha virt. eigenvalues --    3.11872   3.12711   3.12842   3.13411   3.13716
 Alpha virt. eigenvalues --    3.14047   3.14135   3.14496   3.14646   3.15029
 Alpha virt. eigenvalues --    3.15221   3.15663   3.16077   3.16178   3.16729
 Alpha virt. eigenvalues --    3.17165   3.17354   3.17665   3.18367   3.18587
 Alpha virt. eigenvalues --    3.18793   3.18963   3.19525   3.19816   3.20198
 Alpha virt. eigenvalues --    3.20564   3.21044   3.21379   3.21800   3.22686
 Alpha virt. eigenvalues --    3.23081   3.23462   3.23710   3.24318   3.24692
 Alpha virt. eigenvalues --    3.25434   3.25589   3.26111   3.26187   3.26731
 Alpha virt. eigenvalues --    3.27165   3.27459   3.27892   3.28217   3.28561
 Alpha virt. eigenvalues --    3.28864   3.29680   3.29837   3.30442   3.31033
 Alpha virt. eigenvalues --    3.31241   3.31440   3.31980   3.32619   3.32865
 Alpha virt. eigenvalues --    3.33118   3.33462   3.33620   3.34023   3.34810
 Alpha virt. eigenvalues --    3.35303   3.35660   3.36171   3.36509   3.36833
 Alpha virt. eigenvalues --    3.36864   3.37065   3.37508   3.37922   3.38571
 Alpha virt. eigenvalues --    3.39178   3.39513   3.39833   3.40489   3.40753
 Alpha virt. eigenvalues --    3.41041   3.41339   3.42134   3.42517   3.42779
 Alpha virt. eigenvalues --    3.43316   3.43661   3.44142   3.44861   3.45531
 Alpha virt. eigenvalues --    3.46422   3.47097   3.47758   3.48050   3.49143
 Alpha virt. eigenvalues --    3.49406   3.49856   3.49969   3.51317   3.51879
 Alpha virt. eigenvalues --    3.52261   3.52934   3.52982   3.53514   3.54307
 Alpha virt. eigenvalues --    3.54998   3.55432   3.56618   3.57762   3.58685
 Alpha virt. eigenvalues --    3.59137   3.59592   3.60089   3.60329   3.61751
 Alpha virt. eigenvalues --    3.62201   3.62698   3.63462   3.65361   3.65883
 Alpha virt. eigenvalues --    3.66297   3.66515   3.68247   3.68472   3.69417
 Alpha virt. eigenvalues --    3.70348   3.70473   3.71023   3.71319   3.72558
 Alpha virt. eigenvalues --    3.73091   3.73638   3.73713   3.74197   3.75316
 Alpha virt. eigenvalues --    3.75614   3.76082   3.77349   3.77994   3.78905
 Alpha virt. eigenvalues --    3.79156   3.79608   3.80158   3.81258   3.81751
 Alpha virt. eigenvalues --    3.82442   3.83021   3.83621   3.85355   3.85430
 Alpha virt. eigenvalues --    3.86393   3.86486   3.87404   3.87965   3.89181
 Alpha virt. eigenvalues --    3.89905   3.90630   3.90707   3.92347   3.92905
 Alpha virt. eigenvalues --    3.93858   3.94159   3.95473   3.96002   3.96187
 Alpha virt. eigenvalues --    3.96656   3.98232   3.99009   3.99441   4.00733
 Alpha virt. eigenvalues --    4.01272   4.02342   4.03005   4.03201   4.03800
 Alpha virt. eigenvalues --    4.04335   4.05612   4.05769   4.06698   4.07236
 Alpha virt. eigenvalues --    4.08188   4.08528   4.09126   4.09251   4.10357
 Alpha virt. eigenvalues --    4.10736   4.11370   4.11703   4.12327   4.12802
 Alpha virt. eigenvalues --    4.13064   4.14090   4.14619   4.15320   4.17073
 Alpha virt. eigenvalues --    4.18435   4.18748   4.19176   4.20384   4.20950
 Alpha virt. eigenvalues --    4.21613   4.22184   4.22402   4.23638   4.24161
 Alpha virt. eigenvalues --    4.25032   4.25514   4.25730   4.26960   4.29239
 Alpha virt. eigenvalues --    4.29650   4.30222   4.30597   4.31260   4.32460
 Alpha virt. eigenvalues --    4.32879   4.35903   4.36376   4.38134   4.38478
 Alpha virt. eigenvalues --    4.39006   4.39822   4.41018   4.41301   4.42633
 Alpha virt. eigenvalues --    4.42881   4.45046   4.45722   4.47366   4.48874
 Alpha virt. eigenvalues --    4.49972   4.50963   4.51481   4.52906   4.53352
 Alpha virt. eigenvalues --    4.53499   4.54650   4.55421   4.56195   4.56275
 Alpha virt. eigenvalues --    4.57046   4.57385   4.58810   4.59068   4.59736
 Alpha virt. eigenvalues --    4.59814   4.60695   4.61123   4.61204   4.63717
 Alpha virt. eigenvalues --    4.64535   4.64831   4.65181   4.66170   4.67046
 Alpha virt. eigenvalues --    4.67508   4.68509   4.69578   4.69677   4.69986
 Alpha virt. eigenvalues --    4.71923   4.73129   4.73219   4.74446   4.75400
 Alpha virt. eigenvalues --    4.75743   4.76966   4.77739   4.78850   4.79949
 Alpha virt. eigenvalues --    4.80277   4.81606   4.82253   4.83603   4.85509
 Alpha virt. eigenvalues --    4.86606   4.87154   4.87404   4.88844   4.88966
 Alpha virt. eigenvalues --    4.90527   4.91315   4.92058   4.92414   4.93463
 Alpha virt. eigenvalues --    4.93499   4.94507   4.95088   4.95511   4.96475
 Alpha virt. eigenvalues --    4.97075   4.97671   4.98105   4.98379   5.00011
 Alpha virt. eigenvalues --    5.00399   5.01304   5.01946   5.02461   5.02741
 Alpha virt. eigenvalues --    5.03637   5.04559   5.04626   5.05398   5.06138
 Alpha virt. eigenvalues --    5.07324   5.07486   5.08066   5.08408   5.09302
 Alpha virt. eigenvalues --    5.09846   5.11160   5.11478   5.11948   5.13006
 Alpha virt. eigenvalues --    5.14155   5.14465   5.15251   5.15606   5.16293
 Alpha virt. eigenvalues --    5.16436   5.16955   5.17473   5.18607   5.19305
 Alpha virt. eigenvalues --    5.19647   5.20044   5.21226   5.21533   5.22061
 Alpha virt. eigenvalues --    5.23187   5.24078   5.24691   5.24892   5.25858
 Alpha virt. eigenvalues --    5.26197   5.26552   5.27456   5.27660   5.29223
 Alpha virt. eigenvalues --    5.29685   5.29766   5.30399   5.31947   5.33279
 Alpha virt. eigenvalues --    5.34118   5.35086   5.36345   5.36592   5.37614
 Alpha virt. eigenvalues --    5.38029   5.38955   5.39337   5.40803   5.42894
 Alpha virt. eigenvalues --    5.44846   5.47877   5.49669   5.50776   5.51400
 Alpha virt. eigenvalues --    5.53441   5.54501   5.54769   5.55319   5.56813
 Alpha virt. eigenvalues --    5.56851   5.59329   5.60125   5.61125   5.61855
 Alpha virt. eigenvalues --    5.62008   5.63261   5.63444   5.64250   5.66425
 Alpha virt. eigenvalues --    5.66641   5.69467   5.69895   5.70325   5.71937
 Alpha virt. eigenvalues --    5.74222   5.76520   5.76935   5.79629   5.80518
 Alpha virt. eigenvalues --    5.81020   5.81383   5.82403   5.85602   5.86128
 Alpha virt. eigenvalues --    5.87801   5.91689   5.94009   5.94746   5.94860
 Alpha virt. eigenvalues --    5.95003   5.95720   5.98511   6.01811   6.09449
 Alpha virt. eigenvalues --    6.12267   6.17126   6.18888   6.18995   6.23215
 Alpha virt. eigenvalues --    6.32867   6.33601   6.33957   6.37134   6.39080
 Alpha virt. eigenvalues --    6.49507   6.51944   6.54038   6.55080   6.56356
 Alpha virt. eigenvalues --    6.59312   6.60491   6.63771   6.66110   6.68486
 Alpha virt. eigenvalues --    6.70952   6.71624   6.74418   6.75399   6.75889
 Alpha virt. eigenvalues --    6.78240   6.83682   6.86387   6.95955   6.96437
 Alpha virt. eigenvalues --    6.98348   7.00605   7.01140   7.03630   7.04536
 Alpha virt. eigenvalues --    7.06441   7.06684   7.13850  22.39544  22.41913
 Alpha virt. eigenvalues --   22.57094  22.57337  22.65983  22.70428  22.74934
 Alpha virt. eigenvalues --   22.75563  22.77513  22.81219  22.83148  22.87150
 Alpha virt. eigenvalues --   22.92645  22.97289  22.98434  22.98802  23.02788
 Alpha virt. eigenvalues --   23.15288  23.16742  23.18035  23.24752  23.31987
 Alpha virt. eigenvalues --   23.41182  23.49991  32.00381  32.03484  32.08495
 Alpha virt. eigenvalues --   32.40752  32.57672  32.63847  32.77048  32.90830
 Alpha virt. eigenvalues --   32.96535  44.01600  44.03509  44.04865  44.05931
 Alpha virt. eigenvalues --   44.07051  44.26141
          Condensed to atoms (all electrons):
 Mulliken charges:
               1
     1  C   -0.066785
     2  H    0.137461
     3  O   -0.305941
     4  C    0.000805
     5  H    0.177224
     6  O   -0.512055
     7  H    0.349760
     8  C    0.003147
     9  H    0.169529
    10  O   -0.468811
    11  H    0.364165
    12  C    0.052631
    13  H    0.144826
    14  N    0.029081
    15  C   -0.026183
    16  H    0.160590
    17  C    0.061590
    18  C   -0.137809
    19  H    0.273628
    20  H   -0.067357
    21  C   -0.216501
    22  H    0.185531
    23  C    0.029656
    24  H    0.198078
    25  C    0.363765
    26  O   -0.362270
    27  N   -0.500590
    28  H    0.254285
    29  H    0.294093
    30  N   -0.380513
    31  C    0.457121
    32  N   -0.537556
    33  H    0.290710
    34  H    0.274295
    35  N   -0.315209
    36  H    0.268252
    37  C    0.262760
    38  O   -0.455469
    39  C   -0.030331
    40  N   -0.326255
    41  H    0.265198
    42  C    0.099103
    43  C   -0.229133
    44  H    0.184339
    45  H    0.178277
    46  N   -0.389865
    47  H    0.254491
    48  C    0.346493
    49  C   -0.257604
    50  H    0.159703
    51  H    0.218178
    52  N   -0.410878
    53  H    0.242821
    54  C    0.094970
    55  C   -0.184698
    56  H    0.174768
    57  C   -0.194293
    58  H    0.148109
    59  C    0.295069
    60  C   -0.189508
    61  H    0.114900
    62  C   -0.185772
    63  H    0.107651
    64  C    0.324297
    65  O   -0.437435
    66  N   -0.526824
    67  H    0.248253
    68  H    0.159348
    69  H    0.296695
 Sum of Mulliken charges =   1.00000
 Mulliken charges with hydrogens summed into heavy atoms:
               1
     1  C    0.230023
     3  O   -0.305941
     4  C    0.178029
     6  O   -0.162295
     8  C    0.172676
    10  O   -0.104646
    12  C    0.197457
    14  N    0.029081
    15  C    0.134407
    17  C    0.061590
    18  C    0.135819
    21  C   -0.030969
    23  C    0.227734
    25  C    0.363765
    26  O   -0.362270
    27  N    0.047787
    30  N   -0.380513
    31  C    0.457121
    32  N    0.027449
    35  N   -0.046957
    37  C    0.262760
    38  O   -0.455469
    39  C   -0.030331
    40  N   -0.061058
    42  C    0.031746
    43  C    0.133483
    46  N   -0.135374
    48  C    0.346493
    49  C    0.120277
    52  N   -0.168057
    54  C    0.094970
    55  C   -0.009929
    57  C   -0.046184
    59  C    0.295069
    60  C   -0.074607
    62  C   -0.078121
    64  C    0.324297
    65  O   -0.437435
    66  N    0.018123
 Electronic spatial extent (au):  <R**2>=          27250.5501
 Charge=              1.0000 electrons
 Dipole moment (field-independent basis, Debye):
    X=             -6.6469    Y=             -8.1738    Z=             19.3794  Tot=             22.0579
 Quadrupole moment (field-independent basis, Debye-Ang):
   XX=           -137.9892   YY=           -224.4593   ZZ=           -114.5568
   XY=             -5.7994   XZ=            -81.2319   YZ=             67.2051
 Traceless Quadrupole moment (field-independent basis, Debye-Ang):
   XX=             21.0126   YY=            -65.4575   ZZ=             44.4449
   XY=             -5.7994   XZ=            -81.2319   YZ=             67.2051
 Octapole moment (field-independent basis, Debye-Ang**2):
  XXX=            685.3778  YYY=           -115.9559  ZZZ=            766.9238  XYY=            240.6678
  XXY=           -120.0503  XXZ=            291.3578  XZZ=            -12.0966  YZZ=           -105.4225
  YYZ=            170.2905  XYZ=           -100.6358
 Hexadecapole moment (field-independent basis, Debye-Ang**3):
 XXXX=          -6543.6670 YYYY=          -5005.7778 ZZZZ=         -15308.3067 XXXY=           1254.1597
 XXXZ=           -540.1943 YYYX=           1815.8602 YYYZ=           1433.4978 ZZZX=          -1836.5804
 ZZZY=           3736.7411 XXYY=          -2034.7333 XXZZ=          -3203.9476 YYZZ=          -5161.6073
 XXYZ=           1047.0776 YYXZ=           -137.2243 ZZXY=            499.1016
 N-N= 4.436806015809D+03 E-N=-1.322508684124D+04  KE= 1.867595918627D+03
 No NMR shielding tensors so no spin-rotation constants.
 Leave Link  601 at Sat Jun 22 17:48:31 2024, MaxMem=  2684354560 cpu:              10.2 elap:               0.8
 (Enter /storage/apps/GAUSSIAN/G16_RevA03/g16/l602.exe)

 **********************************************************************

            Electrostatic Properties Using The SCF Density

 **********************************************************************

       Atomic Center    1 is at  -4.144809  0.377973  6.707741
       Atomic Center    2 is at  -3.947127  0.429409  7.710109
       Atomic Center    3 is at  -2.979698 -0.216438  6.036537
       Atomic Center    4 is at  -4.282336  1.777804  6.105381
       Atomic Center    5 is at  -5.246744  2.129229  6.098705
       Atomic Center    6 is at  -3.440873  2.741013  6.784321
       Atomic Center    7 is at  -3.643069  2.822169  7.739075
       Atomic Center    8 is at  -3.677378  1.619689  4.697916
       Atomic Center    9 is at  -4.344204  1.214429  4.033140
       Atomic Center   10 is at  -3.210452  2.863399  4.185975
       Atomic Center   11 is at  -3.017567  3.425014  4.961702
       Atomic Center   12 is at  -2.499998  0.647909  4.986667
       Atomic Center   13 is at  -1.677053  1.168767  5.313615
       Atomic Center   14 is at  -2.060893 -0.211582  3.861164
       Atomic Center   15 is at  -0.726771 -0.239452  3.549677
       Atomic Center   16 is at  -0.145696  0.411940  4.073155
       Atomic Center   17 is at  -0.217617 -1.107549  2.636596
       Atomic Center   18 is at  -1.117487 -1.933315  1.896381
       Atomic Center   19 is at  -0.736580 -2.699963  1.343022
       Atomic Center   20 is at  -1.092444 -1.047057  0.300385
       Atomic Center   21 is at  -2.484862 -1.905786  2.260331
       Atomic Center   22 is at  -3.141375 -2.541021  1.809773
       Atomic Center   23 is at  -2.931770 -1.067761  3.224495
       Atomic Center   24 is at  -3.902087 -1.055246  3.536050
       Atomic Center   25 is at   1.262271 -1.325780  2.453380
       Atomic Center   26 is at   1.663966 -2.242511  1.709364
       Atomic Center   27 is at   2.157640 -0.556011  3.146443
       Atomic Center   28 is at   1.872098  0.132691  3.838735
       Atomic Center   29 is at   3.127891 -0.873434  3.179284
       Atomic Center   30 is at   2.156350 -3.109558 -1.927807
       Atomic Center   31 is at   3.275844 -2.433909 -2.268613
       Atomic Center   32 is at   4.392770 -3.104619 -2.666418
       Atomic Center   33 is at   4.429162 -4.116865 -2.607140
       Atomic Center   34 is at   5.246744 -2.581067 -2.915736
       Atomic Center   35 is at   3.337648 -1.058050 -2.254556
       Atomic Center   36 is at   4.258260 -0.599229 -2.408580
       Atomic Center   37 is at   2.256527 -0.269746 -1.889807
       Atomic Center   38 is at   2.398157  1.004434 -1.847902
       Atomic Center   39 is at   1.061354 -0.974098 -1.565946
       Atomic Center   40 is at  -0.110881 -0.245311 -1.251462
       Atomic Center   41 is at   0.037376  0.731886 -1.004395
       Atomic Center   42 is at  -1.248777 -0.926547 -0.709829
       Atomic Center   43 is at  -1.374062 -2.351129 -1.278143
       Atomic Center   44 is at  -2.070498 -2.867180 -0.740764
       Atomic Center   45 is at  -1.702753 -2.309725 -2.248952
       Atomic Center   46 is at  -0.085209 -3.039913 -1.195673
       Atomic Center   47 is at  -0.086839 -4.045492 -1.347916
       Atomic Center   48 is at   1.056315 -2.356091 -1.579921
       Atomic Center   49 is at  -2.589982 -0.107716 -0.778370
       Atomic Center   50 is at  -2.958898 -0.015198  0.169008
       Atomic Center   51 is at  -3.275327 -0.636447 -1.325089
       Atomic Center   52 is at  -2.449550  1.242375 -1.325419
       Atomic Center   53 is at  -2.714495  1.997497 -0.696120
       Atomic Center   54 is at  -2.224567  2.133362 -5.423928
       Atomic Center   55 is at  -2.392778  3.150323 -4.453855
       Atomic Center   56 is at  -2.446468  4.116865 -4.770652
       Atomic Center   57 is at  -2.460985  2.862209 -3.129226
       Atomic Center   58 is at  -2.571060  3.611615 -2.447403
       Atomic Center   59 is at  -2.380463  1.519414 -2.676789
       Atomic Center   60 is at  -2.217634  0.495770 -3.642894
       Atomic Center   61 is at  -2.154758 -0.477929 -3.350745
       Atomic Center   62 is at  -2.138636  0.800875 -4.963624
       Atomic Center   63 is at  -2.026377  0.039450 -5.631307
       Atomic Center   64 is at  -2.132461  2.484578 -6.840197
       Atomic Center   65 is at  -2.408041  3.665107 -7.262950
       Atomic Center   66 is at  -1.732531  1.533659 -7.739075
       Atomic Center   67 is at  -1.558098  0.576405 -7.451902
       Atomic Center   68 is at  -5.014521 -0.256463  6.536880
       Atomic Center   69 is at  -1.652659  1.704391 -8.812654
 -----------------------------------------------------------------

              Electrostatic Properties (Atomic Units)

 -----------------------------------------------------------------
    Center     Electric         -------- Electric Field --------
               Potential          X             Y             Z
 -----------------------------------------------------------------
    1 Atom    -14.584717     -0.006289      0.007738     -0.004311
    2 Atom     -0.983036      0.015426      0.000919      0.072053
    3 Atom    -22.200274      0.015354     -0.031065      0.008879
    4 Atom    -14.571290      0.000053     -0.011596     -0.005150
    5 Atom     -0.981585     -0.067731      0.022106     -0.003613
    6 Atom    -22.208401      0.026479      0.016746     -0.022900
    7 Atom     -0.853124     -0.005462     -0.000474      0.007063
    8 Atom    -14.564379      0.003784     -0.002013      0.011713
    9 Atom     -0.963733     -0.048742     -0.027993     -0.046221
   10 Atom    -22.225847      0.002064      0.006414     -0.039473
   11 Atom     -0.875486      0.004185      0.011129      0.012322
   12 Atom    -14.518910     -0.010480      0.009542      0.001529
   13 Atom     -0.954716      0.056240      0.036456      0.019741
   14 Atom    -18.128644      0.000046      0.000484      0.000647
   15 Atom    -14.542486     -0.001378     -0.008798     -0.006093
   16 Atom     -0.911076      0.040111      0.046363      0.039703
   17 Atom    -14.582829     -0.001752     -0.002918     -0.001685
   18 Atom    -14.580300     -0.002057      0.004731      0.010747
   19 Atom     -0.952933      0.029886     -0.053245     -0.044904
   20 Atom     -1.005379      0.013240     -0.011131      0.077780
   21 Atom    -14.598260      0.008728      0.005859      0.003171
   22 Atom     -0.942985     -0.047830     -0.045842     -0.031705
   23 Atom    -14.548431      0.007366     -0.003902     -0.006041
   24 Atom     -0.918310     -0.068430      0.001872      0.023919
   25 Atom    -14.520239      0.003997     -0.011930     -0.008347
   26 Atom    -22.266861      0.008543     -0.021510     -0.017822
   27 Atom    -18.233879     -0.003443      0.000028     -0.009682
   28 Atom     -0.882673     -0.000612      0.008234      0.007435
   29 Atom     -0.889211      0.010842     -0.003595     -0.003370
   30 Atom    -18.312289      0.000533     -0.025998     -0.001294
   31 Atom    -14.541517     -0.012516     -0.004242      0.004279
   32 Atom    -18.258313     -0.005114      0.002776     -0.002315
   33 Atom     -0.913839     -0.001748     -0.014183      0.001146
   34 Atom     -0.905673     -0.000134     -0.003947     -0.000082
   35 Atom    -18.240048     -0.004859     -0.002089     -0.000383
   36 Atom     -0.896591     -0.005866      0.006313     -0.000593
   37 Atom    -14.579835     -0.007503      0.016593      0.003876
   38 Atom    -22.328304      0.002234      0.026157      0.000395
   39 Atom    -14.651632      0.004469     -0.005471     -0.000821
   40 Atom    -18.275063     -0.003964     -0.001430     -0.014479
   41 Atom     -0.946161      0.001656      0.017045      0.000299
   42 Atom    -14.617930     -0.005537     -0.001082     -0.005472
   43 Atom    -14.632196      0.002861      0.009968      0.000104
   44 Atom     -1.001210     -0.052536     -0.040582      0.043133
   45 Atom     -1.018669     -0.023561      0.004836     -0.071158
   46 Atom    -18.267577      0.004177      0.005262      0.012778
   47 Atom     -0.931849      0.003854     -0.015274     -0.004015
   48 Atom    -14.596894      0.004968      0.008762     -0.001413
   49 Atom    -14.629831      0.008500     -0.001773     -0.005425
   50 Atom     -1.000820     -0.026992      0.007542      0.070873
   51 Atom     -1.013870     -0.051329     -0.039863     -0.042495
   52 Atom    -18.271818      0.008918     -0.002734     -0.001873
   53 Atom     -0.936964     -0.003129      0.011095      0.004286
   54 Atom    -14.701845     -0.000148     -0.002409      0.008166
   55 Atom    -14.713757      0.001386     -0.011648     -0.001182
   56 Atom     -1.064987     -0.004478      0.069891     -0.024900
   57 Atom    -14.712538      0.001437     -0.011036     -0.007525
   58 Atom     -1.045161     -0.007904      0.054386      0.049337
   59 Atom    -14.641106      0.000230      0.003049     -0.014080
   60 Atom    -14.707832     -0.000253      0.012642     -0.000760
   61 Atom     -1.038600      0.005271     -0.068740      0.021366
   62 Atom    -14.703153     -0.001623      0.014469      0.005199
   63 Atom     -1.040807      0.007600     -0.055351     -0.046640
   64 Atom    -14.611452     -0.004993      0.018157     -0.003458
   65 Atom    -22.360509     -0.005387      0.022529     -0.007254
   66 Atom    -18.306961      0.000464      0.006597     -0.000448
   67 Atom     -0.965224      0.003979     -0.012329      0.004164
   68 Atom     -0.976491     -0.014669     -0.010307     -0.005404
   69 Atom     -0.946643     -0.006759      0.003914      0.042035
 -----------------------------------------------------------------
 Leave Link  602 at Sat Jun 22 17:48:31 2024, MaxMem=  2684354560 cpu:               3.9 elap:               0.3
 (Enter /storage/apps/GAUSSIAN/G16_RevA03/g16/l701.exe)
 ... and contract with generalized density number  0.
 Compute integral first derivatives.
[...]
     Eigenvalues ---    1.75586   1.77479   1.77877   1.86992   1.93141
     Eigenvalues ---    2.06010
 Quadratic step=4.246D+00 exceeds max=3.000D-01 adjusted using Lamda=-3.947D-01.
 Angle between NR and scaled steps=  79.44 degrees.
 Angle between quadratic step and forces=  22.34 degrees.
 Linear search not attempted -- first point.
 Variable       Old X    -DE/DX   Delta X   Delta X   Delta X     New X
                                 (Linear)    (Quad)   (Total)
    X1       -7.83255   0.00735   0.00000   0.01168   0.01168  -7.82087
    Y1        0.71426   0.00057   0.00000  -0.00160  -0.00160   0.71267
    Z1       12.67579  -0.06252   0.00000  -0.03708  -0.03708  12.63871
    X2       -7.45899   0.01120   0.00000   0.01458   0.01458  -7.44441
    Y2        0.81147   0.00027   0.00000  -0.00453  -0.00453   0.80694
    Z2       14.56999   0.05135   0.00000   0.04307   0.04307  14.61307
    X3       -5.63081  -0.00338   0.00000  -0.01042  -0.01042  -5.64123
    Y3       -0.40901   0.01272   0.00000   0.00015   0.00015  -0.40886
    Z3       11.40740  -0.01181   0.00000  -0.01522  -0.01522  11.39218
    X4       -8.09244   0.04979   0.00000   0.02653   0.02653  -8.06591
    Y4        3.35956  -0.01336   0.00000  -0.00419  -0.00419   3.35537
    Z4       11.53750   0.01396   0.00000   0.01241   0.01241  11.54991
    X5       -9.91491  -0.04791   0.00000  -0.04540  -0.04540  -9.96031
    Y5        4.02366   0.01477   0.00000   0.01165   0.01165   4.03531
    Z5       11.52488  -0.00342   0.00000  -0.00561  -0.00561  11.51927
    X6       -6.50231  -0.00457   0.00000   0.00460   0.00460  -6.49771
    Y6        5.17976  -0.01164   0.00000  -0.01712  -0.01712   5.16265
    Z6       12.82051   0.00091   0.00000  -0.00119  -0.00119  12.81932
    X7       -6.88440  -0.00112   0.00000  -0.00697  -0.00697  -6.89138
    Y7        5.33313  -0.00339   0.00000  -0.00747  -0.00747   5.32566
    Z7       14.62473  -0.01768   0.00000  -0.02227  -0.02227  14.60246
    X8       -6.94924   0.05271   0.00000   0.03101   0.03101  -6.91823
    Y8        3.06077   0.04337   0.00000   0.02600   0.02600   3.08677
    Z8        8.87777   0.03684   0.00000   0.02697   0.02697   8.90475
    X9       -8.20936  -0.03475   0.00000  -0.02844  -0.02844  -8.23780
    Y9        2.29494  -0.02017   0.00000  -0.01109  -0.01109   2.28385
    Z9        7.62153  -0.03258   0.00000  -0.02194  -0.02194   7.59959
   X10       -6.06688  -0.00582   0.00000  -0.00108  -0.00108  -6.06796
   Y10        5.41104  -0.01428   0.00000  -0.01086  -0.01086   5.40018
   Z10        7.91035   0.00698   0.00000   0.00521   0.00521   7.91556
   X11       -5.70237  -0.00085   0.00000   0.00067   0.00067  -5.70170
   Y11        6.47234  -0.00413   0.00000  -0.00355  -0.00355   6.46879
   Z11        9.37626  -0.00743   0.00000  -0.01064  -0.01064   9.36562
   X12       -4.72431  -0.06113   0.00000  -0.03584  -0.03584  -4.76015
   Y12        1.22437  -0.03860   0.00000  -0.02265  -0.02265   1.20172
   Z12        9.42344   0.00615   0.00000   0.01024   0.01024   9.43368
   X13       -3.16917   0.03974   0.00000   0.03336   0.03336  -3.13581
   Y13        2.20865   0.02578   0.00000   0.01900   0.01900   2.22765
   Z13       10.04128   0.01253   0.00000   0.01079   0.01079  10.05207
   X14       -3.89452   0.00603   0.00000  -0.00332  -0.00332  -3.89784
   Y14       -0.39983  -0.00474   0.00000   0.00140   0.00140  -0.39843
   Z14        7.29654  -0.00833   0.00000  -0.00003  -0.00003   7.29652
   X15       -1.37340  -0.05032   0.00000  -0.02887  -0.02887  -1.40227
   Y15       -0.45250  -0.02719   0.00000  -0.01226  -0.01226  -0.46476
   Z15        6.70792  -0.01537   0.00000  -0.00289  -0.00289   6.70503
   X16       -0.27533   0.02807   0.00000   0.02076   0.02076  -0.25457
   Y16        0.77845   0.03312   0.00000   0.03123   0.03123   0.80968
   Z16        7.69715   0.02926   0.00000   0.03217   0.03217   7.72932
   X17       -0.41124  -0.00111   0.00000   0.00131   0.00131  -0.40993
   Y17       -2.09296  -0.01343   0.00000  -0.00870  -0.00870  -2.10167
   Z17        4.98244  -0.01583   0.00000  -0.00516  -0.00516   4.97728
   X18       -2.11174  -0.01742   0.00000   0.00258   0.00258  -2.10917
   Y18       -3.65344   0.04025   0.00000   0.00959   0.00959  -3.64385
   Z18        3.58364   0.05640   0.00000   0.04372   0.04372   3.62736
   X19       -1.39193   0.02192   0.00000   0.02279   0.02279  -1.36914
   Y19       -5.10219  -0.03713   0.00000  -0.02908  -0.02908  -5.13128
   Z19        2.53794  -0.03387   0.00000  -0.03431  -0.03431   2.50364
   X20       -2.06442   0.01013   0.00000   0.01333   0.01333  -2.05109
   Y20       -1.97865  -0.00904   0.00000  -0.00806  -0.00806  -1.98671
   Z20        0.56764   0.05752   0.00000   0.05585   0.05585   0.62349
   X21       -4.69571   0.04587   0.00000   0.02685   0.02685  -4.66886
   Y21       -3.60141   0.02451   0.00000   0.01536   0.01536  -3.58605
   Z21        4.27141   0.00953   0.00000   0.00741   0.00741   4.27882
   X22       -5.93634  -0.03428   0.00000  -0.02944  -0.02944  -5.96578
   Y22       -4.80183  -0.03256   0.00000  -0.02807  -0.02807  -4.82990
   Z22        3.41997  -0.02245   0.00000  -0.02217  -0.02217   3.39781
   X23       -5.54024   0.05726   0.00000   0.02954   0.02954  -5.51070
   Y23       -2.01778   0.01915   0.00000   0.01889   0.01889  -1.99889
   Z23        6.09341   0.00196   0.00000   0.00729   0.00729   6.10070
   X24       -7.37388  -0.04821   0.00000  -0.04329  -0.04329  -7.41717
   Y24       -1.99413   0.00227   0.00000   0.00751   0.00751  -1.98662
   Z24        6.68217   0.01788   0.00000   0.02056   0.02056   6.70272
   X25        2.38535   0.03682   0.00000   0.01555   0.01555   2.40090
   Y25       -2.50536  -0.03474   0.00000  -0.01246  -0.01246  -2.51782
   Z25        4.63622  -0.02577   0.00000  -0.00531  -0.00531   4.63090
   X26        3.14444  -0.02597   0.00000  -0.02679  -0.02679   3.11765
   Y26       -4.23773   0.03906   0.00000   0.02200   0.02200  -4.21573
   Z26        3.23023   0.02937   0.00000   0.01290   0.01290   3.24313
   X27        4.07735  -0.01248   0.00000  -0.01465  -0.01465   4.06270
   Y27       -1.05071   0.00038   0.00000  -0.00584  -0.00584  -1.05655
   Z27        5.94591   0.00542   0.00000   0.00287   0.00287   5.94878
   X28        3.53775   0.00524   0.00000   0.00343   0.00343   3.54118
   Y28        0.25075  -0.00792   0.00000  -0.00975  -0.00975   0.24100
   Z28        7.25416  -0.00808   0.00000  -0.00881  -0.00881   7.24535
   X29        5.91086  -0.01147   0.00000  -0.01969  -0.01969   5.89117
   Y29       -1.65055   0.00347   0.00000   0.00598   0.00598  -1.64458
   Z29        6.00798  -0.00410   0.00000  -0.00887  -0.00887   5.99911
   X30        4.07491   0.02355   0.00000   0.01377   0.01377   4.08868
   Y30       -5.87621   0.02653   0.00000   0.02092   0.02092  -5.85529
   Z30       -3.64303  -0.00878   0.00000  -0.00783  -0.00783  -3.65085
   X31        6.19045  -0.03273   0.00000  -0.02200  -0.02200   6.16845
   Y31       -4.59942  -0.01341   0.00000  -0.00526  -0.00526  -4.60468
   Z31       -4.28706   0.01016   0.00000   0.00743   0.00743  -4.27963
   X32        8.30113   0.00826   0.00000  -0.01058  -0.01058   8.29055
   Y32       -5.86688   0.01403   0.00000   0.01248   0.01248  -5.85440
   Z32       -5.03880  -0.00036   0.00000   0.00571   0.00571  -5.03309
   X33        8.36990  -0.00284   0.00000  -0.00803  -0.00803   8.36187
   Y33       -7.77975   0.00939   0.00000   0.01758   0.01758  -7.76217
   Z33       -4.92678   0.00005   0.00000   0.00086   0.00086  -4.92593
   X34        9.91491  -0.01888   0.00000  -0.02560  -0.02560   9.88931
   Y34       -4.87751  -0.01476   0.00000  -0.01717  -0.01717  -4.89468
   Z34       -5.50994   0.00570   0.00000   0.00838   0.00838  -5.50156
   X35        6.30724   0.01875   0.00000  -0.00252  -0.00252   6.30472
   Y35       -1.99943  -0.02010   0.00000  -0.01624  -0.01624  -2.01567
   Z35       -4.26049  -0.00135   0.00000   0.00707   0.00707  -4.25342
   X36        8.04694  -0.02523   0.00000  -0.03655  -0.03655   8.01039
   Y36       -1.13238  -0.00385   0.00000  -0.00640  -0.00640  -1.13878
   Z36       -4.55156   0.00267   0.00000   0.00293   0.00293  -4.54862
   X37        4.26422   0.00677   0.00000  -0.00095  -0.00095   4.26327
   Y37       -0.50975   0.07927   0.00000   0.02492   0.02492  -0.48483
   Z37       -3.57122   0.00437   0.00000   0.00493   0.00493  -3.56629
   X38        4.53186  -0.01096   0.00000  -0.01358  -0.01358   4.51828
   Y38        1.89811  -0.07251   0.00000  -0.04889  -0.04889   1.84922
   Z38       -3.49203  -0.00038   0.00000   0.00345   0.00345  -3.48858
   X39        2.00567  -0.01580   0.00000  -0.00765  -0.00765   1.99801
   Y39       -1.84078   0.00012   0.00000   0.00364   0.00364  -1.83714
   Z39       -2.95921   0.00245   0.00000  -0.00087  -0.00087  -2.96008
   X40       -0.20953   0.00707   0.00000   0.00692   0.00692  -0.20262
   Y40       -0.46357  -0.00438   0.00000  -0.00132  -0.00132  -0.46489
   Z40       -2.36492  -0.00624   0.00000  -0.01555  -0.01555  -2.38047
   X41        0.07063  -0.00166   0.00000  -0.00095  -0.00095   0.06968
   Y41        1.38306  -0.00556   0.00000  -0.00759  -0.00759   1.37547
   Z41       -1.89803  -0.00459   0.00000  -0.01106  -0.01106  -1.90910
   X42       -2.35985  -0.00116   0.00000   0.01313   0.01313  -2.34672
   Y42       -1.75092   0.01406   0.00000   0.01591   0.01591  -1.73502
   Z42       -1.34138  -0.05233   0.00000  -0.02764  -0.02764  -1.36902
   X43       -2.59660   0.06046   0.00000   0.03393   0.03393  -2.56268
   Y43       -4.44299   0.02972   0.00000   0.01963   0.01963  -4.42336
   Z43       -2.41534   0.01210   0.00000  -0.00091  -0.00091  -2.41625
   X44       -3.91267  -0.03789   0.00000  -0.02904  -0.02904  -3.94172
   Y44       -5.41818  -0.02955   0.00000  -0.02485  -0.02485  -5.44303
   Z44       -1.39984   0.03245   0.00000   0.03605   0.03605  -1.36379
   X45       -3.21774  -0.01695   0.00000  -0.01317  -0.01317  -3.23091
   Y45       -4.36475   0.00435   0.00000   0.00891   0.00891  -4.35584
   Z45       -4.24990  -0.05107   0.00000  -0.05866  -0.05866  -4.30857
   X46       -0.16102   0.00173   0.00000   0.01420   0.01420  -0.14682
   Y46       -5.74460   0.00200   0.00000   0.00713   0.00713  -5.73747
   Z46       -2.25949   0.00012   0.00000   0.00078   0.00078  -2.25871
   X47       -0.16410   0.00379   0.00000   0.00868   0.00868  -0.15543
   Y47       -7.64487   0.00818   0.00000   0.01379   0.01379  -7.63108
   Z47       -2.54719  -0.00108   0.00000  -0.00294  -0.00294  -2.55013
   X48        1.99615   0.01498   0.00000   0.01665   0.01665   2.01279
   Y48       -4.45237  -0.00696   0.00000   0.00054   0.00054  -4.45183
   Z48       -2.98562  -0.00183   0.00000  -0.00077  -0.00077  -2.98639
   X49       -4.89436   0.06276   0.00000   0.03615   0.03615  -4.85821
   Y49       -0.20355   0.03171   0.00000   0.01798   0.01798  -0.18557
   Z49       -1.47091  -0.03644   0.00000  -0.02789  -0.02789  -1.49880
   X50       -5.59151  -0.01911   0.00000  -0.00895  -0.00895  -5.60046
   Y50       -0.02872   0.00549   0.00000   0.00785   0.00785  -0.02087
   Z50        0.31938   0.05165   0.00000   0.04590   0.04590   0.36528
   X51       -6.18947  -0.03670   0.00000  -0.03224  -0.03224  -6.22171
   Y51       -1.20271  -0.02898   0.00000  -0.02805  -0.02805  -1.23076
   Z51       -2.50405  -0.03139   0.00000  -0.04068  -0.04068  -2.54474
   X52       -4.62898  -0.00059   0.00000   0.00610   0.00610  -4.62288
   Y52        2.34775  -0.00601   0.00000  -0.00002  -0.00002   2.34773
   Z52       -2.50468   0.01627   0.00000   0.00645   0.00645  -2.49823
   X53       -5.12965   0.00257   0.00000   0.00212   0.00212  -5.12753
   Y53        3.77472  -0.00630   0.00000  -0.00636  -0.00636   3.76836
   Z53       -1.31548  -0.01039   0.00000  -0.01198  -0.01198  -1.32746
   X54       -4.20382   0.00045   0.00000  -0.00047  -0.00047  -4.20429
   Y54        4.03147  -0.01282   0.00000  -0.00209  -0.00209   4.02938
   Z54      -10.24974   0.02633   0.00000  -0.00247  -0.00247 -10.25221
   X55       -4.52169   0.00653   0.00000   0.00316   0.00316  -4.51854
   Y55        5.95325  -0.05425   0.00000  -0.03338  -0.03338   5.91987
   Z55       -8.41657  -0.01588   0.00000  -0.01715  -0.01715  -8.43371
   X56       -4.62315  -0.00332   0.00000  -0.00343  -0.00343  -4.62658
   Y56        7.77975   0.04982   0.00000   0.04412   0.04412   7.82386
   Z56       -9.01523  -0.01839   0.00000  -0.02280  -0.02280  -9.03802
   X57       -4.65059   0.00519   0.00000  -0.00014  -0.00014  -4.65073
   Y57        5.40879  -0.05789   0.00000  -0.03787  -0.03787   5.37092
   Z57       -5.91338  -0.01125   0.00000  -0.00129  -0.00129  -5.91467
   X58       -4.85860  -0.00576   0.00000  -0.00547  -0.00547  -4.86407
   Y58        6.82496   0.03886   0.00000   0.03244   0.03244   6.85741
   Z58       -4.62492   0.03587   0.00000   0.03553   0.03553  -4.58939
   X59       -4.49842  -0.00022   0.00000  -0.00423  -0.00423  -4.50265
   Y59        2.87128   0.00278   0.00000   0.00005   0.00005   2.87133
   Z59       -5.05840  -0.01457   0.00000   0.00210   0.00210  -5.05630
   X60       -4.19072  -0.00724   0.00000  -0.00864  -0.00864  -4.19936
   Y60        0.93687   0.05321   0.00000   0.03227   0.03227   0.96914
   Z60       -6.88407   0.02038   0.00000   0.02004   0.02004  -6.86403
   X61       -4.07190   0.00397   0.00000   0.00392   0.00392  -4.06798
   Y61       -0.90315  -0.04922   0.00000  -0.04397  -0.04397  -0.94713
   Z61       -6.33199   0.01606   0.00000   0.02078   0.02078  -6.31121
   X62       -4.04144  -0.00575   0.00000  -0.00637  -0.00637  -4.04781
   Y62        1.51343   0.06107   0.00000   0.03876   0.03876   1.55220
   Z62       -9.37989   0.00594   0.00000  -0.00041  -0.00041  -9.38030
   X63       -3.82930   0.00522   0.00000   0.00354   0.00354  -3.82576
   Y63        0.07455  -0.03990   0.00000  -0.03430  -0.03430   0.04024
   Z63      -10.64163  -0.03336   0.00000  -0.03136  -0.03136 -10.67299
   X64       -4.02977  -0.01466   0.00000  -0.00598  -0.00598  -4.03575
   Y64        4.69517   0.07782   0.00000   0.02559   0.02559   4.72076
   Z64      -12.92610  -0.05922   0.00000  -0.04174  -0.04174 -12.96783
   X65       -4.55054   0.01783   0.00000   0.00932   0.00932  -4.54122
   Y65        6.92605  -0.07340   0.00000  -0.04232  -0.04232   6.88373
   Z65      -13.72499   0.03209   0.00000   0.02229   0.02229 -13.70270
   X66       -3.27401   0.00486   0.00000  -0.00325  -0.00325  -3.27726
   Y66        2.89820  -0.00731   0.00000   0.00140   0.00140   2.89959
   Z66      -14.62473  -0.03903   0.00000  -0.02180  -0.02180 -14.64653
   X67       -2.94438  -0.00007   0.00000   0.00094   0.00094  -2.94344
   Y67        1.08925   0.00995   0.00000   0.01533   0.01533   1.10458
   Z67      -14.08205  -0.00218   0.00000  -0.00612  -0.00612 -14.08818
   X68       -9.47607  -0.00025   0.00000   0.00096   0.00096  -9.47512
   Y68       -0.48465   0.00048   0.00000   0.00322   0.00322  -0.48142
   Z68       12.35291  -0.00270   0.00000  -0.01340  -0.01340  12.33951
   X69       -3.12307  -0.00832   0.00000  -0.01352  -0.01352  -3.13660
   Y69        3.22083   0.00096   0.00000   0.00727   0.00727   3.22810
   Z69      -16.65350   0.06137   0.00000   0.07335   0.07335 -16.58015
         Item               Value     Threshold  Converged?
 Maximum Force            0.079266     0.000450     NO 
 RMS     Force            0.027729     0.000300     NO 
 Maximum Displacement     0.073348     0.001800     NO 
 RMS     Displacement     0.020854     0.001200     NO 
 Predicted change in Energy=-7.312561D-02
 GradGradGradGradGradGradGradGradGradGradGradGradGradGradGradGradGradGrad

 Leave Link  103 at Sat Jun 22 17:54:12 2024, MaxMem=  2684354560 cpu:               3.1 elap:               0.2
 (Enter /storage/apps/GAUSSIAN/G16_RevA03/g16/l9999.exe)

 Test job not archived.
 1\1\GINC-T056\Force\RM062X\def2TZVP\C24H30N9O6(1+)\LV87696\22-Jun-2024
 \0\\#P M062X/Def2TZVP scf=(direct,conver=8) EmpiricalDispersion=GD3 No
 Symm force Charge Prop=(Field,Read)\\Gaussian run using SANDER externa
 l interface, route from template gau_job.tpl\\1,1\C,-4.1448092725,0.37
 79725189,6.7077412368\H,-3.947127133,0.4294089121,7.7101092217\O,-2.97
 96982829,-0.2164382673,6.0365371277\C,-4.2823359629,1.7778038245,6.105
 3811582\H,-5.2467441952,2.1292292922,6.0987047034\O,-3.4408728226,2.74
 10133415,6.7843213829\H,-3.6430685218,2.8221685217,7.7390751256\C,-3.6
 773781175,1.6196894821,4.6979158189\H,-4.3442044167,1.2144288302,4.033
 1399034\O,-3.2104522696,2.8633991969,4.1859754025\H,-3.0175665381,3.42
 50139349,4.9617020643\C,-2.4999977067,0.6479088906,4.9866673576\H,-1.6
 770534962,1.1687665903,5.3136153038\N,-2.060893061,-0.2115822167,3.861
 1639409\C,-0.7267710497,-0.2394524995,3.5496772744\H,-0.1456963862,0.4
 119396684,4.0731552818\C,-0.2176168105,-1.1075493199,2.6365956281\C,-1
 .1174867687,-1.9333150078,1.8963808579\H,-0.7365798668,-2.6999634717,1
 .3430219759\H,-1.0924442752,-1.0470569208,0.3003847348\C,-2.4848621928
 ,-1.905786247,2.2603306714\H,-3.141375377,-2.5410211601,1.8097728199\C
 ,-2.9317704234,-1.0677605704,3.2244946616\H,-3.9020871471,-1.055245771
 2,3.5360498935\C,1.2622705414,-1.3257802373,2.4533797279\O,1.663966363
 1,-2.2425106883,1.7093640801\N,2.1576404786,-0.5560112443,3.1464426246
 \H,1.8720976737,0.1326908234,3.8387354298\H,3.1278906755,-0.8734340946
 ,3.1792842576\N,2.1563501947,-3.1095581728,-1.9278070105\C,3.275844049
 4,-2.4339091861,-2.2686131789\N,4.3927704603,-3.1046193975,-2.66641766
 75\H,4.4291618061,-4.1168648663,-2.6071404363\H,5.2467441952,-2.581067
 3544,-2.9157359238\N,3.3376477601,-1.0580502317,-2.2545558097\H,4.2582
 595665,-0.5992286158,-2.4085797004\C,2.2565269336,-0.2697456076,-1.889
 8074911\O,2.3981573551,1.0044340576,-1.8479020713\C,1.0613539782,-0.97
 4097878,-1.5659458584\N,-0.1108809173,-0.2453109562,-1.2514620986\H,0.
 0373760515,0.7318856564,-1.0043952368\C,-1.2487767151,-0.9265473709,-0
 .7098292362\C,-1.3740623413,-2.3511289208,-1.2781426126\H,-2.070498122
 9,-2.8671797065,-0.7407638696\H,-1.7027530391,-2.3097254611,-2.2489518
 213\N,-0.0852093253,-3.0399131989,-1.1956728162\H,-0.0868390824,-4.045
 4921296,-1.3479156254\C,1.056314625,-2.356091121,-1.5799211575\C,-2.58
 99820127,-0.107716218,-0.7783701638\H,-2.9588979086,-0.0151975057,0.16
 90075871\H,-3.2753270544,-0.6364466184,-1.3250885007\N,-2.449550132,1.
 242374597,-1.3254191633\H,-2.7144950217,1.9974971538,-0.6961204486\C,-
 2.2245670172,2.1333621128,-5.4239281785\C,-2.3927778697,3.1503233964,-
 4.4538549919\H,-2.4464681055,4.1168648663,-4.7706516796\C,-2.460985364
 9,2.8622088217,-3.1292256613\H,-2.5710596469,3.6116152778,-2.447403477
 \C,-2.3804631877,1.5194138787,-2.6767894861\C,-2.2176337623,0.49577021
 46,-3.6428938745\H,-2.1547582903,-0.4779286846,-3.3507446319\C,-2.1386
 359397,0.8008750116,-4.9636242943\H,-2.0263773611,0.0394498072,-5.6313
 073706\C,-2.1324607625,2.4845782031,-6.840196573\O,-2.4080411404,3.665
 1070537,-7.2629499413\N,-1.7325314583,1.5336587895,-7.7390751256\H,-1.
 5580977234,0.5764050824,-7.4519018161\H,-5.0145206707,-0.2564631586,6.
 5368803135\H,-1.6526586533,1.7043906132,-8.8126537112\\Version=ES64L-G
 16RevA.03\HF=-1876.4269201\RMSD=2.141e-09\RMSF=2.773e-02\Dipole=-0.806
 8101,-3.2575499,7.6631451\Quadrupole=15.6223318,-48.6660601,33.0437283
 ,-4.3116891,-60.3939306,49.9653602\PG=C01 [X(C24H30N9O6)]\\@


 IT IS UNWORTHY OF EXCELLENT MEN TO LOSE HOURS LIKE SLAVES IN THE LABOR
 OF CALCULATION WHICH COULD BE SAFELY RELEGATED TO ANYONE ELSE
 IF A MACHINE WERE USED.
    -- G.W. VON LEIBNIZ
 Job cpu time:       0 days  8 hours 12 minutes 48.6 seconds.
 Elapsed time:       0 days  0 hours 30 minutes 53.3 seconds.
 File lengths (MBytes):  RWF=   1039 Int=      0 D2E=      0 Chk=    113 Scr=      1
 Normal termination of Gaussian 16 at Sat Jun 22 17:54:12 2024.
