 Entering Gaussian System, Link 0=g16
 Initial command:
 /storage/apps/GAUSSIAN/G16_RevA03/g16/l1.exe "/scratch/tmp/2140828/Gau-154203.inp" -scrdir="/scratch/tmp/2140828/"
 Entering Link 1 = /storage/apps/GAUSSIAN/G16_RevA03/g16/l1.exe PID=    154204.
  
 Copyright (c) 1988,1990,1992,1993,1995,1998,2003,2009,2016,
            Gaussian, Inc.  All Rights Reserved.
  
 This is part of the Gaussian(R) 16 program.  It is based on
 the Gaussian(R) 09 system (copyright 2009, Gaussian, Inc.),
 the Gaussian(R) 03 system (copyright 2003, Gaussian, Inc.),
 the Gaussian(R) 98 system (copyright 1998, Gaussian, Inc.),
 the Gaussian(R) 94 system (copyright 1995, Gaussian, Inc.),
 the Gaussian 92(TM) system (copyright 1992, Gaussian, Inc.),
 the Gaussian 90(TM) system (copyright 1990, Gaussian, Inc.),
 the Gaussian 88(TM) system (copyright 1988, Gaussian, Inc.),
 the Gaussian 86(TM) system (copyright 1986, Carnegie Mellon
 University), and the Gaussian 82(TM) system (copyright 1983,
 Carnegie Mellon University). Gaussian is a federally registered
 trademark of Gaussian, Inc.
  
 This software contains proprietary and confidential information,
 including trade secrets, belonging to Gaussian, Inc.
  
 This software is provided under written license and may be
 used, copied, transmitted, or stored only in accord with that
 written license.
  
 The following legend is applicable only to US Government
 contracts under FAR:
  
                    RESTRICTED RIGHTS LEGEND
  
 Use, reproduction and disclosure by the US Government is
 subject to restrictions as set forth in subparagraphs (a)
 and (c) of the Commercial Computer Software - Restricted
 Rights clause in FAR 52.227-19.
  
 Gaussian, Inc.
 340 Quinnipiac St., Bldg. 40, Wallingford CT 06492
  
  
 ---------------------------------------------------------------
 Warning -- This program may not be used in any manner that
 competes with the business of Gaussian, Inc. or will provide
 assistance to any competitor of Gaussian, Inc.  The licensee
 of this program is prohibited from giving any competitor of
 Gaussian, Inc. access to this program.  By using this program,
 the user acknowledges that Gaussian, Inc. is engaged in the
 business of creating and licensing software in the field of
 computational chemistry and represents and warrants to the
 licensee that it is not a competitor of Gaussian, Inc. and that
 it will not use this program in any manner prohibited above.
 ---------------------------------------------------------------
  

 Cite this work as:
 Gaussian 16, Revision A.03,
 M. J. Frisch, G. W. Trucks, H. B. Schlegel, G. E. Scuseria, 
 M. A. Robb, J. R. Cheeseman, G. Scalmani, V. Barone, 
 G. A. Petersson, H. Nakatsuji, X. Li, M. Caricato, A. V. Marenich, 
 J. Bloino, B. G. Janesko, R. Gomperts, B. Mennucci, H. P. Hratchian, 
 J. V. Ortiz, A. F. Izmaylov, J. L. Sonnenberg, D. Williams-Young, 
 F. Ding, F. Lipparini, F. Egidi, J. Goings, B. Peng, A. Petrone, 
 T. Henderson, D. Ranasinghe, V. G. Zakrzewski, J. Gao, N. Rega, 
 G. Zheng, W. Liang, M. Hada, M. Ehara, K. Toyota, R. Fukuda, 
 J. Hasegawa, M. Ishida, T. Nakajima, Y. Honda, O. Kitao, H. Nakai, 
 T. Vreven, K. Throssell, J. A. Montgomery, Jr., J. E. Peralta, 
 F. Ogliaro, M. J. Bearpark, J. J. Heyd, E. N. Brothers, K. N. Kudin, 
 V. N. Staroverov, T. A. Keith, R. Kobayashi, J. Normand, 
 K. Raghavachari, A. P. Rendell, J. C. Burant, S. S. Iyengar, 
 J. Tomasi, M. Cossi, J. M. Millam, M. Klene, C. Adamo, R. Cammi, 
 J. W. Ochterski, R. L. Martin, K. Morokuma, O. Farkas, 
 J. B. Foresman, and D. J. Fox, Gaussian, Inc., Wallingford CT, 2016.
 
 ******************************************
 Gaussian 16:  ES64L-G16RevA.03 25-Dec-2016
                22-Jun-2024 
 ******************************************
 %chk=gau_job.chk
 %NProcShared=16
 Will use up to   16 processors via shared memory.
 %mem=20GB
 ----------------------------------------------------------------------
 #P M062X/Def2TZVP scf=(direct,conver=8) EmpiricalDispersion=GD3 NoSymm
  force Charge Prop=(Field,Read)
 ----------------------------------------------------------------------
 1/10=7,18=10,28=-2,30=1,38=1,125=101/1,3;
 2/12=2,15=1,17=6,18=5,29=2,40=1/2;
 3/5=44,7=101,11=2,25=1,30=1,71=1,74=-55,124=31/1,2,3;
 4//1;
 5/5=2,6=8,38=5/2;
 6/7=2,8=2,9=2,10=2,14=2,15=1,28=1/1,2;
 7/7=1,16=-2,29=1,30=1/1,2,3,16;
 1/10=7,18=10,28=-2,30=1/3;
 99/12=1/99;
 Leave Link    1 at Sat Jun 22 17:23:46 2024, MaxMem=  2684354560 cpu:               0.8 elap:               0.1
 (Enter /storage/apps/GAUSSIAN/G16_RevA03/g16/l101.exe)
 ----------------------------------------------------------------------
 Gaussian run using SANDER external interface, route from template gau_
 job.tpl
 ----------------------------------------------------------------------
 Symbolic Z-matrix:
 Charge =  1 Multiplicity = 1
 C                    -4.15435   0.38417   6.71629 
 H                    -3.95856   0.43336   7.71913 
 O                    -2.98879  -0.21231   6.04803 
 C                    -4.2855    1.78451   6.1139 
 H                    -5.2478    2.14164   6.10887 
 O                    -3.43628   2.7421    6.79058 
 H                    -3.63724   2.82792   7.74556 
 C                    -3.68267   1.6232    4.7053 
 H                    -4.35107   1.22045   4.0406 
 O                    -3.20948   2.86377   4.19289 
 H                    -3.01224   3.42463   4.96816 
 C                    -2.50861   0.64828   4.99693 
 H                    -1.68432   1.16838   5.3216 
 N                    -2.06891  -0.2209    3.87773 
 C                    -0.73326  -0.25494   3.5752 
 H                    -0.15742   0.41716   4.0776 
 C                    -0.2217   -1.14425   2.68419 
 C                    -1.12343  -1.98676   1.971 
 H                    -0.74673  -2.73109   1.38532 
 H                    -1.04835  -1.01524   0.29282 
 C                    -2.48108  -1.93216   2.29547 
 H                    -3.13985  -2.56017   1.83789 
 C                    -2.93824  -1.0738    3.24132 
 H                    -3.9158   -1.03788   3.52732 
 C                     1.25977  -1.35769   2.49233 
 O                     1.65893  -2.28785   1.76539 
 N                     2.15519  -0.56329   3.15602 
 H                     1.87066   0.13562   3.83855 
 H                     3.12888  -0.87112   3.18374 
 N                     2.15168  -3.10341  -1.93715 
 C                     3.27442  -2.43252  -2.27447 
 N                     4.39343  -3.10811  -2.65883 
 H                     4.42213  -4.12077  -2.60685 
 H                     5.2478   -2.58818  -2.91349 
 N                     3.33948  -1.05703  -2.26423 
 H                     4.26338  -0.60178  -2.40698 
 C                     2.25319  -0.26433  -1.92264 
 O                     2.40446   1.00911  -1.87393 
 C                     1.04921  -0.96333  -1.62073 
 N                    -0.13462  -0.22831  -1.34271 
 H                     0.03618   0.73875  -1.06641 
 C                    -1.2411   -0.91002  -0.71476 
 C                    -1.38088  -2.33634  -1.28397 
 H                    -2.06773  -2.85324  -0.7345 
 H                    -1.72662  -2.2911   -2.24835 
 N                    -0.09296  -3.02652  -1.2235 
 H                    -0.09373  -4.03448  -1.35566 
 C                     1.04706  -2.34482  -1.61182 
 C                    -2.59828  -0.1123   -0.80509 
 H                    -2.99056  -0.03492   0.13432 
 H                    -3.26212  -0.64802  -1.37097 
 N                    -2.47345   1.2433   -1.34025 
 H                    -2.73785   1.99392  -0.70574 
 C                    -2.22999   2.13757  -5.43444 
 C                    -2.40611   3.15473  -4.46595 
 H                    -2.46048   4.12077  -4.78413 
 C                    -2.48081   2.86735  -3.14163 
 H                    -2.59664   3.61681  -2.4608 
 C                    -2.39771   1.5246   -2.68896 
 C                    -2.22758   0.50071  -3.65434 
 H                    -2.16217  -0.47259  -3.36174 
 C                    -2.14289   0.80505  -4.97405 
 H                    -2.025     0.04366  -5.6408 
 C                    -2.13311   2.48623  -6.84916 
 O                    -2.40653   3.66689  -7.27434 
 N                    -1.73337   1.5331   -7.74556 
 H                    -1.55833   0.57676  -7.45593 
 H                    -5.02483  -0.24835   6.54228 
 H                    -1.65212   1.70176  -8.81937 
 
 ITRead=  0  0  0  0  0  0  0  0  0  0  0  0  0  0  0  0  0  0  0  0
 ITRead=  0  0  0  0  0  0  0  0  0  0  0  0  0  0  0  0  0  0  0  0
 ITRead=  0  0  0  0  0  0  0  0  0  0  0  0  0  0  0  0  0  0  0  0
 ITRead=  0  0  0  0  0  0  0  0  0
 MicOpt= -1 -1 -1 -1 -1 -1 -1 -1 -1 -1 -1 -1 -1 -1 -1 -1 -1 -1 -1 -1
 MicOpt= -1 -1 -1 -1 -1 -1 -1 -1 -1 -1 -1 -1 -1 -1 -1 -1 -1 -1 -1 -1
 MicOpt= -1 -1 -1 -1 -1 -1 -1 -1 -1 -1 -1 -1 -1 -1 -1 -1 -1 -1 -1 -1
 MicOpt= -1 -1 -1 -1 -1 -1 -1 -1 -1
 NAtoms=     69 NQM=       69 NQMF=       0 NMMI=      0 NMMIF=      0
                NMic=       0 NMicF=      0.
                    Isotopes and Nuclear Properties:
 (Nuclear quadrupole moments (NQMom) in fm**2, nuclear magnetic moments (NMagM)
  in nuclear magnetons)

  Atom         1           2           3           4           5           6           7           8           9          10
 IAtWgt=          12           1          16          12           1          16           1          12           1          16
 AtmWgt=  12.0000000   1.0078250  15.9949146  12.0000000   1.0078250  15.9949146   1.0078250  12.0000000   1.0078250  15.9949146
 NucSpn=           0           1           0           0           1           0           1           0           1           0
 AtZEff=  -0.0000000  -0.0000000  -0.0000000  -0.0000000  -0.0000000  -0.0000000  -0.0000000  -0.0000000  -0.0000000  -0.0000000
 NQMom=    0.0000000   0.0000000   0.0000000   0.0000000   0.0000000   0.0000000   0.0000000   0.0000000   0.0000000   0.0000000
 NMagM=    0.0000000   2.7928460   0.0000000   0.0000000   2.7928460   0.0000000   2.7928460   0.0000000   2.7928460   0.0000000
 AtZNuc=   6.0000000   1.0000000   8.0000000   6.0000000   1.0000000   8.0000000   1.0000000   6.0000000   1.0000000   8.0000000

  Atom        11          12          13          14          15          16          17          18          19          20
 IAtWgt=           1          12           1          14          12           1          12          12           1           1
 AtmWgt=   1.0078250  12.0000000   1.0078250  14.0030740  12.0000000   1.0078250  12.0000000  12.0000000   1.0078250   1.0078250
 NucSpn=           1           0           1           2           0           1           0           0           1           1
 AtZEff=  -0.0000000  -0.0000000  -0.0000000  -0.0000000  -0.0000000  -0.0000000  -0.0000000  -0.0000000  -0.0000000  -0.0000000
 NQMom=    0.0000000   0.0000000   0.0000000   2.0440000   0.0000000   0.0000000   0.0000000   0.0000000   0.0000000   0.0000000
 NMagM=    2.7928460   0.0000000   2.7928460   0.4037610   0.0000000   2.7928460   0.0000000   0.0000000   2.7928460   2.7928460
 AtZNuc=   1.0000000   6.0000000   1.0000000   7.0000000   6.0000000   1.0000000   6.0000000   6.0000000   1.0000000   1.0000000

  Atom        21          22          23          24          25          26          27          28          29          30
 IAtWgt=          12           1          12           1          12          16          14           1           1          14
 AtmWgt=  12.0000000   1.0078250  12.0000000   1.0078250  12.0000000  15.9949146  14.0030740   1.0078250   1.0078250  14.0030740
 NucSpn=           0           1           0           1           0           0           2           1           1           2
 AtZEff=  -0.0000000  -0.0000000  -0.0000000  -0.0000000  -0.0000000  -0.0000000  -0.0000000  -0.0000000  -0.0000000  -0.0000000
 NQMom=    0.0000000   0.0000000   0.0000000   0.0000000   0.0000000   0.0000000   2.0440000   0.0000000   0.0000000   2.0440000
 NMagM=    0.0000000   2.7928460   0.0000000   2.7928460   0.0000000   0.0000000   0.4037610   2.7928460   2.7928460   0.4037610
 AtZNuc=   6.0000000   1.0000000   6.0000000   1.0000000   6.0000000   8.0000000   7.0000000   1.0000000   1.0000000   7.0000000

  Atom        31          32          33          34          35          36          37          38          39          40
 IAtWgt=          12          14           1           1          14           1          12          16          12          14
 AtmWgt=  12.0000000  14.0030740   1.0078250   1.0078250  14.0030740   1.0078250  12.0000000  15.9949146  12.0000000  14.0030740
 NucSpn=           0           2           1           1           2           1           0           0           0           2
 AtZEff=  -0.0000000  -0.0000000  -0.0000000  -0.0000000  -0.0000000  -0.0000000  -0.0000000  -0.0000000  -0.0000000  -0.0000000
 NQMom=    0.0000000   2.0440000   0.0000000   0.0000000   2.0440000   0.0000000   0.0000000   0.0000000   0.0000000   2.0440000
 NMagM=    0.0000000   0.4037610   2.7928460   2.7928460   0.4037610   2.7928460   0.0000000   0.0000000   0.0000000   0.4037610
 AtZNuc=   6.0000000   7.0000000   1.0000000   1.0000000   7.0000000   1.0000000   6.0000000   8.0000000   6.0000000   7.0000000

  Atom        41          42          43          44          45          46          47          48          49          50
 IAtWgt=           1          12          12           1           1          14           1          12          12           1
 AtmWgt=   1.0078250  12.0000000  12.0000000   1.0078250   1.0078250  14.0030740   1.0078250  12.0000000  12.0000000   1.0078250
 NucSpn=           1           0           0           1           1           2           1           0           0           1
 AtZEff=  -0.0000000  -0.0000000  -0.0000000  -0.0000000  -0.0000000  -0.0000000  -0.0000000  -0.0000000  -0.0000000  -0.0000000
 NQMom=    0.0000000   0.0000000   0.0000000   0.0000000   0.0000000   2.0440000   0.0000000   0.0000000   0.0000000   0.0000000
 NMagM=    2.7928460   0.0000000   0.0000000   2.7928460   2.7928460   0.4037610   2.7928460   0.0000000   0.0000000   2.7928460
 AtZNuc=   1.0000000   6.0000000   6.0000000   1.0000000   1.0000000   7.0000000   1.0000000   6.0000000   6.0000000   1.0000000

  Atom        51          52          53          54          55          56          57          58          59          60
 IAtWgt=           1          14           1          12          12           1          12           1          12          12
 AtmWgt=   1.0078250  14.0030740   1.0078250  12.0000000  12.0000000   1.0078250  12.0000000   1.0078250  12.0000000  12.0000000
 NucSpn=           1           2           1           0           0           1           0           1           0           0
 AtZEff=  -0.0000000  -0.0000000  -0.0000000  -0.0000000  -0.0000000  -0.0000000  -0.0000000  -0.0000000  -0.0000000  -0.0000000
 NQMom=    0.0000000   2.0440000   0.0000000   0.0000000   0.0000000   0.0000000   0.0000000   0.0000000   0.0000000   0.0000000
 NMagM=    2.7928460   0.4037610   2.7928460   0.0000000   0.0000000   2.7928460   0.0000000   2.7928460   0.0000000   0.0000000
 AtZNuc=   1.0000000   7.0000000   1.0000000   6.0000000   6.0000000   1.0000000   6.0000000   1.0000000   6.0000000   6.0000000

  Atom        61          62          63          64          65          66          67          68          69
 IAtWgt=           1          12           1          12          16          14           1           1           1
 AtmWgt=   1.0078250  12.0000000   1.0078250  12.0000000  15.9949146  14.0030740   1.0078250   1.0078250   1.0078250
 NucSpn=           1           0           1           0           0           2           1           1           1
 AtZEff=  -0.0000000  -0.0000000  -0.0000000  -0.0000000  -0.0000000  -0.0000000  -0.0000000  -0.0000000  -0.0000000
 NQMom=    0.0000000   0.0000000   0.0000000   0.0000000   0.0000000   2.0440000   0.0000000   0.0000000   0.0000000
 NMagM=    2.7928460   0.0000000   2.7928460   0.0000000   0.0000000   0.4037610   2.7928460   2.7928460   2.7928460
 AtZNuc=   1.0000000   6.0000000   1.0000000   6.0000000   8.0000000   7.0000000   1.0000000   1.0000000   1.0000000
 Background charge distribution read from input stream:
 Leave Link  101 at Sat Jun 22 17:23:46 2024, MaxMem=  2684354560 cpu:               1.9 elap:               0.2
 (Enter /storage/apps/GAUSSIAN/G16_RevA03/g16/l103.exe)

 GradGradGradGradGradGradGradGradGradGradGradGradGradGradGradGradGradGrad
 Berny optimization.
 Initialization pass.
 Trust Radius=3.00D-01 FncErr=1.00D-07 GrdErr=1.00D-07 EigMax=2.50D+02 EigMin=1.00D-04
 Number of steps in this run=      2 maximum allowed number of steps=      2.
 GradGradGradGradGradGradGradGradGradGradGradGradGradGradGradGradGradGrad

 Leave Link  103 at Sat Jun 22 17:23:46 2024, MaxMem=  2684354560 cpu:               0.3 elap:               0.1
 (Enter /storage/apps/GAUSSIAN/G16_RevA03/g16/l202.exe)
 Symmetry turned off by external request.
 Stoichiometry    C24H30N9O6(1+)
 Framework group  C1[X(C24H30N9O6)]
 Deg. of freedom   201
 Full point group                 C1      NOp   1
                          Input orientation:                          
 ---------------------------------------------------------------------
 Center     Atomic      Atomic             Coordinates (Angstroms)
 Number     Number       Type             X           Y           Z
 ---------------------------------------------------------------------
      1          6           0       -4.154352    0.384173    6.716290
      2          1           0       -3.958559    0.433358    7.719127
      3          8           0       -2.988794   -0.212306    6.048031
      4          6           0       -4.285504    1.784512    6.113895
      5          1           0       -5.247799    2.141638    6.108869
      6          8           0       -3.436277    2.742105    6.790584
      7          1           0       -3.637244    2.827922    7.745564
      8          6           0       -3.682674    1.623202    4.705299
      9          1           0       -4.351071    1.220448    4.040602
     10          8           0       -3.209476    2.863767    4.192891
     11          1           0       -3.012241    3.424633    4.968163
     12          6           0       -2.508611    0.648278    4.996929
     13          1           0       -1.684319    1.168384    5.321598
     14          7           0       -2.068914   -0.220897    3.877732
     15          6           0       -0.733258   -0.254944    3.575199
     16          1           0       -0.157417    0.417155    4.077599
     17          6           0       -0.221700   -1.144249    2.684188
     18          6           0       -1.123429   -1.986764    1.970999
     19          1           0       -0.746727   -2.731086    1.385320
     20          1           0       -1.048353   -1.015239    0.292819
     21          6           0       -2.481077   -1.932157    2.295466
     22          1           0       -3.139854   -2.560165    1.837893
     23          6           0       -2.938242   -1.073800    3.241325
     24          1           0       -3.915802   -1.037882    3.527325
     25          6           0        1.259766   -1.357690    2.492327
     26          8           0        1.658931   -2.287851    1.765388
     27          7           0        2.155192   -0.563289    3.156021
     28          1           0        1.870662    0.135624    3.838554
     29          1           0        3.128883   -0.871122    3.183742
     30          7           0        2.151676   -3.103407   -1.937154
     31          6           0        3.274425   -2.432521   -2.274466
     32          7           0        4.393430   -3.108108   -2.658827
     33          1           0        4.422134   -4.120770   -2.606848
     34          1           0        5.247799   -2.588184   -2.913488
     35          7           0        3.339482   -1.057035   -2.264230
     36          1           0        4.263377   -0.601776   -2.406981
     37          6           0        2.253189   -0.264332   -1.922639
     38          8           0        2.404462    1.009108   -1.873926
     39          6           0        1.049209   -0.963326   -1.620727
     40          7           0       -0.134621   -0.228305   -1.342714
     41          1           0        0.036185    0.738752   -1.066415
     42          6           0       -1.241101   -0.910025   -0.714758
     43          6           0       -1.380877   -2.336336   -1.283970
     44          1           0       -2.067728   -2.853237   -0.734497
     45          1           0       -1.726615   -2.291104   -2.248347
     46          7           0       -0.092963   -3.026521   -1.223503
     47          1           0       -0.093732   -4.034483   -1.355660
     48          6           0        1.047059   -2.344818   -1.611819
     49          6           0       -2.598276   -0.112300   -0.805092
     50          1           0       -2.990556   -0.034916    0.134324
     51          1           0       -3.262116   -0.648021   -1.370966
     52          7           0       -2.473447    1.243303   -1.340254
     53          1           0       -2.737848    1.993915   -0.705737
     54          6           0       -2.229986    2.137570   -5.434445
     55          6           0       -2.406110    3.154732   -4.465947
     56          1           0       -2.460475    4.120770   -4.784133
     57          6           0       -2.480811    2.867353   -3.141626
     58          1           0       -2.596644    3.616806   -2.460802
     59          6           0       -2.397706    1.524602   -2.688961
     60          6           0       -2.227578    0.500709   -3.654341
     61          1           0       -2.162173   -0.472593   -3.361737
     62          6           0       -2.142888    0.805047   -4.974046
     63          1           0       -2.024996    0.043662   -5.640797
     64          6           0       -2.133110    2.486235   -6.849157
     65          8           0       -2.406534    3.666888   -7.274342
     66          7           0       -1.733366    1.533098   -7.745564
     67          1           0       -1.558326    0.576759   -7.455927
     68          1           0       -5.024833   -0.248347    6.542278
     69          1           0       -1.652125    1.701762   -8.819366
 ---------------------------------------------------------------------
 Rotational constants (GHZ):           0.1090005           0.0516601           0.0390019
 Leave Link  202 at Sat Jun 22 17:23:46 2024, MaxMem=  2684354560 cpu:               0.3 elap:               0.1
 (Enter /storage/apps/GAUSSIAN/G16_RevA03/g16/l301.exe)
 Standard basis: def2TZVP (5D, 7F)
 Ernie: Thresh=  0.10000D-02 Tol=  0.10000D-05 Strict=F.
  1389 basis functions,  2229 primitive gaussians,  1584 cartesian basis functions
   142 alpha electrons      142 beta electrons
       nuclear repulsion energy      4427.5975862224 Hartrees.
 IExCor= 4336 DFT=T Ex+Corr=M062X ExCW=0 ScaHFX=  0.540000
 ScaDFX=  1.000000  1.000000  1.000000  1.000000 ScalE2=  1.000000  1.000000
 IRadAn=      5 IRanWt=     -1 IRanGd=            0 ICorTp=0 IEmpDi=131
 NAtoms=   69 NActive=   69 NUniq=   69 SFac= 1.00D+00 NAtFMM=   60 NAOKFM=T Big=T
 Integral buffers will be    131072 words long.
 Raffenetti 2 integral format.
 Two-electron integral symmetry is turned off.
 R6Disp:  Grimme-D3 Dispersion energy=       -0.0065385861 Hartrees.
 Nuclear repulsion after empirical dispersion term =     4427.5910476363 Hartrees.
 Leave Link  301 at Sat Jun 22 17:23:46 2024, MaxMem=  2684354560 cpu:               1.4 elap:               0.1
 (Enter /storage/apps/GAUSSIAN/G16_RevA03/g16/l302.exe)
 NPDir=0 NMtPBC=     1 NCelOv=     1 NCel=       1 NClECP=     1 NCelD=      1
         NCelK=      1 NCelE2=     1 NClLst=     1 CellRange=     0.0.
 One-electron integrals computed using PRISM.
   1 Symmetry operations used in ECPInt.
 ECPInt:  NShTT=  150975 NPrTT=  462228 LenC2=  107130 LenP2D=  216647.
 LDataN:  DoStor=T MaxTD1= 6 Len=  172
 NBasis=  1389 RedAO= T EigKep=  6.00D-06  NBF=  1389
 NBsUse=  1389 1.00D-06 EigRej= -1.00D+00 NBFU=  1389
 Precomputing XC quadrature grid using
 IXCGrd= 4 IRadAn=           5 IRanWt=          -1 IRanGd=           0 AccXCQ= 0.00D+00.
 Generated NRdTot=       0 NPtTot=           0 NUsed=           0 NTot=          32
 NSgBfM=  1493  1486  1492  1493  1493 MxSgAt=    69 MxSgA2=    69.
 Leave Link  302 at Sat Jun 22 17:23:49 2024, MaxMem=  2684354560 cpu:              45.7 elap:               2.9
 (Enter /storage/apps/GAUSSIAN/G16_RevA03/g16/l303.exe)
 DipDrv:  MaxL=1.
 Leave Link  303 at Sat Jun 22 17:23:50 2024, MaxMem=  2684354560 cpu:               4.1 elap:               0.3
 (Enter /storage/apps/GAUSSIAN/G16_RevA03/g16/l401.exe)
 ExpMin= 9.52D-02 ExpMax= 2.70D+04 ExpMxC= 9.22D+02 IAcc=3 IRadAn=         5 AccDes= 0.00D+00
 Harris functional with IExCor= 1009 and IRadAn=       5 diagonalized for initial guess.
 HarFok:  IExCor= 1009 AccDes= 0.00D+00 IRadAn=         5 IDoV= 1 UseB2=F ITyADJ=14
 ICtDFT=  3500011 ScaDFX=  1.000000  1.000000  1.000000  1.000000
 FoFCou: FMM=F IPFlag=           0 FMFlag=      100000 FMFlg1=        2001
         NFxFlg=           0 DoJE=T BraDBF=F KetDBF=T FulRan=T
         wScrn=  0.000000 ICntrl=       500 IOpCl=  0 I1Cent=   200000004 NGrid=           0
         NMat0=    1 NMatS0=      1 NMatT0=    0 NMatD0=    1 NMtDS0=    0 NMtDT0=    0
 Symmetry not used in FoFCou.
 Harris En= -1875.50599909602    
 JPrj=0 DoOrth=F DoCkMO=F.
 Leave Link  401 at Sat Jun 22 17:23:56 2024, MaxMem=  2684354560 cpu:             106.4 elap:               6.7
 (Enter /storage/apps/GAUSSIAN/G16_RevA03/g16/l502.exe)
 Two-electron integral symmetry not used.
 Closed shell SCF:
 Using DIIS extrapolation, IDIIS=  1040.
 NGot=  2684354560 LenX=  2679300873 LenY=  2676790233
 Requested convergence on RMS density matrix=1.00D-08 within 128 cycles.
 Requested convergence on MAX density matrix=1.00D-06.
 Requested convergence on             energy=1.00D-06.
 No special actions if energy rises.
 Fock matrices will be formed incrementally for  20 cycles.
 Integral accuracy reduced to 1.0D-05 until final iterations.

 Cycle   1  Pass 0  IDiag  1:
 FoFJK:  IHMeth= 1 ICntrl=       0 DoSepK=F KAlg= 0 I1Cent=           0 FoldK=F
 IRaf= 690000000 NMat=       1 IRICut=       1 DoRegI=T DoRafI=F ISym2E= 0 IDoP0=0 IntGTp=1.
 FoFCou: FMM=T IPFlag=           0 FMFlag=      100000 FMFlg1=        2001
         NFxFlg=           0 DoJE=F BraDBF=F KetDBF=F FulRan=T
         wScrn=  0.000000 ICntrl=         0 IOpCl=  0 I1Cent=           0 NGrid=           0
         NMat0=    1 NMatS0=      1 NMatT0=    0 NMatD0=    1 NMtDS0=    0 NMtDT0=    0
 Symmetry not used in FoFCou.
 FMM levels:  10  Number of levels for PrismC:   9
 E= -1875.45927416359    
 DIIS: error= 1.46D-02 at cycle   1 NSaved=   1.
 NSaved= 1 IEnMin= 1 EnMin= -1875.45927416359     IErMin= 1 ErrMin= 1.46D-02
 ErrMax= 1.46D-02  0.00D+00 EMaxC= 1.00D-01 BMatC= 1.37D+00 BMatP= 1.37D+00
 IDIUse=3 WtCom= 8.54D-01 WtEn= 1.46D-01
 Coeff-Com:  0.100D+01
 Coeff-En:   0.100D+01
 Coeff:      0.100D+01
 Gap=     0.001 Goal=   None    Shift=    0.000
 GapD=    0.001 DampG=0.250 DampE=0.500 DampFc=0.2500 IDamp=-1.
 Damping current iteration by 2.50D-01
 RMSDP=5.72D+01 MaxDP=1.16D+04              OVMax= 9.98D-01

 Problem detected with inexpensive integrals.
 Switching to full accuracy and repeating last cycle.
 Cycle   2  Pass 1  IDiag  1:
 E= -1875.45942794520     Delta-E=       -0.000153781604 Rises=F Damp=F
 DIIS: error= 1.46D-02 at cycle   1 NSaved=   1.
 NSaved= 1 IEnMin= 1 EnMin= -1875.45942794520     IErMin= 1 ErrMin= 1.46D-02
 ErrMax= 1.46D-02  0.00D+00 EMaxC= 1.00D-01 BMatC= 1.37D+00 BMatP= 1.37D+00
 IDIUse=3 WtCom= 8.54D-01 WtEn= 1.46D-01
 Coeff-Com:  0.100D+01
 Coeff-En:   0.100D+01
 Coeff:      0.100D+01
 Gap=     0.001 Goal=   None    Shift=    0.000
 GapD=    0.001 DampG=0.250 DampE=0.500 DampFc=0.2500 IDamp=-1.
 Damping current iteration by 2.50D-01
 RMSDP=4.19D-03 MaxDP=1.25D+00 DE=-1.54D-04 OVMax= 8.86D-01

 Cycle   3  Pass 1  IDiag  1:
 RMSU=  1.05D-03    CP:  1.02D+00
 E= -1875.68941719629     Delta-E=       -0.229989251095 Rises=F Damp=T
 DIIS: error= 1.05D-02 at cycle   2 NSaved=   2.
 NSaved= 2 IEnMin= 2 EnMin= -1875.68941719629     IErMin= 2 ErrMin= 1.05D-02
 ErrMax= 1.05D-02  0.00D+00 EMaxC= 1.00D-01 BMatC= 4.53D-01 BMatP= 1.37D+00
 IDIUse=3 WtCom= 8.95D-01 WtEn= 1.05D-01
 Coeff-Com: -0.629D+00 0.163D+01
 Coeff-En:   0.615D-01 0.939D+00
 Coeff:     -0.557D+00 0.156D+01
 Gap=     0.241 Goal=   None    Shift=    0.000
 GapD=    0.241 DampG=1.000 DampE=0.500 DampFc=0.5000 IDamp=-1.
 Damping current iteration by 5.00D-01
 RMSDP=1.19D-03 MaxDP=1.45D-01 DE=-2.30D-01 OVMax= 6.97D-01

 Cycle   4  Pass 1  IDiag  1:
 RMSU=  5.94D-04    CP:  1.01D+00  1.04D+00
 E= -1875.96018405624     Delta-E=       -0.270766859950 Rises=F Damp=T
 DIIS: error= 8.81D-03 at cycle   3 NSaved=   3.
 NSaved= 3 IEnMin= 3 EnMin= -1875.96018405624     IErMin= 3 ErrMin= 8.81D-03
 ErrMax= 8.81D-03  0.00D+00 EMaxC= 1.00D-01 BMatC= 1.82D-01 BMatP= 4.53D-01
 IDIUse=3 WtCom= 9.12D-01 WtEn= 8.81D-02
 Coeff-Com: -0.575D+00 0.680D+00 0.895D+00
 Coeff-En:   0.000D+00 0.000D+00 0.100D+01
 Coeff:     -0.524D+00 0.620D+00 0.904D+00
 Gap=     0.197 Goal=   None    Shift=    0.000
 RMSDP=6.83D-04 MaxDP=1.08D-01 DE=-2.71D-01 OVMax= 2.09D-01

 Cycle   5  Pass 1  IDiag  1:
 RMSU=  6.34D-04    CP:  1.00D+00  1.00D+00  1.42D+00
 E= -1876.38724029940     Delta-E=       -0.427056243162 Rises=F Damp=F
 DIIS: error= 2.81D-03 at cycle   4 NSaved=   4.
 NSaved= 4 IEnMin= 4 EnMin= -1876.38724029940     IErMin= 4 ErrMin= 2.81D-03
 ErrMax= 2.81D-03  0.00D+00 EMaxC= 1.00D-01 BMatC= 3.37D-02 BMatP= 1.82D-01
 IDIUse=3 WtCom= 9.72D-01 WtEn= 2.81D-02
 Coeff-Com: -0.313D+00 0.423D+00 0.148D+00 0.743D+00
 Coeff-En:   0.000D+00 0.000D+00 0.000D+00 0.100D+01
 Coeff:     -0.304D+00 0.411D+00 0.143D+00 0.750D+00
 Gap=     0.083 Goal=   None    Shift=    0.000
 RMSDP=3.10D-04 MaxDP=5.29D-02 DE=-4.27D-01 OVMax= 6.90D-02

 Cycle   6  Pass 1  IDiag  1:
 RMSU=  2.47D-04    CP:  1.01D+00  1.14D+00  1.28D+00  1.14D+00
 E= -1876.41755768458     Delta-E=       -0.030317385177 Rises=F Damp=F
 DIIS: error= 2.80D-03 at cycle   5 NSaved=   5.
 NSaved= 5 IEnMin= 5 EnMin= -1876.41755768458     IErMin= 5 ErrMin= 2.80D-03
 ErrMax= 2.80D-03  0.00D+00 EMaxC= 1.00D-01 BMatC= 1.02D-02 BMatP= 3.37D-02
 IDIUse=3 WtCom= 9.72D-01 WtEn= 2.80D-02
 Coeff-Com: -0.141D+00 0.250D+00-0.953D-01 0.339D+00 0.647D+00
 Coeff-En:   0.000D+00 0.000D+00 0.000D+00 0.000D+00 0.100D+01
 Coeff:     -0.137D+00 0.243D+00-0.926D-01 0.330D+00 0.657D+00
 Gap=     0.092 Goal=   None    Shift=    0.000
 RMSDP=1.75D-04 MaxDP=6.71D-02 DE=-3.03D-02 OVMax= 4.65D-02

 Cycle   7  Pass 1  IDiag  1:
 RMSU=  1.19D-04    CP:  1.01D+00  1.12D+00  1.18D+00  1.32D+00  1.04D+00
 E= -1876.42857485432     Delta-E=       -0.011017169744 Rises=F Damp=F
 DIIS: error= 5.86D-04 at cycle   6 NSaved=   6.
 NSaved= 6 IEnMin= 6 EnMin= -1876.42857485432     IErMin= 6 ErrMin= 5.86D-04
 ErrMax= 5.86D-04  0.00D+00 EMaxC= 1.00D-01 BMatC= 1.32D-03 BMatP= 1.02D-02
 IDIUse=3 WtCom= 9.94D-01 WtEn= 5.86D-03
 Coeff-Com: -0.275D-01 0.735D-01-0.703D-01-0.306D-01 0.261D+00 0.794D+00
 Coeff-En:   0.000D+00 0.000D+00 0.000D+00 0.000D+00 0.000D+00 0.100D+01
 Coeff:     -0.274D-01 0.730D-01-0.698D-01-0.304D-01 0.259D+00 0.795D+00
 Gap=     0.091 Goal=   None    Shift=    0.000
 RMSDP=7.68D-05 MaxDP=2.06D-02 DE=-1.10D-02 OVMax= 2.98D-02

 Cycle   8  Pass 1  IDiag  1:
 RMSU=  3.85D-05    CP:  1.01D+00  1.14D+00  1.13D+00  1.35D+00  1.23D+00
                    CP:  1.18D+00
 E= -1876.43043993028     Delta-E=       -0.001865075956 Rises=F Damp=F
 DIIS: error= 2.31D-04 at cycle   7 NSaved=   7.
 NSaved= 7 IEnMin= 7 EnMin= -1876.43043993028     IErMin= 7 ErrMin= 2.31D-04
 ErrMax= 2.31D-04  0.00D+00 EMaxC= 1.00D-01 BMatC= 1.34D-04 BMatP= 1.32D-03
 IDIUse=3 WtCom= 9.98D-01 WtEn= 2.31D-03
 Coeff-Com:  0.330D-02 0.660D-04-0.701D-02-0.583D-01-0.360D-02 0.331D+00
 Coeff-Com:  0.735D+00
 Coeff-En:   0.000D+00 0.000D+00 0.000D+00 0.000D+00 0.000D+00 0.000D+00
 Coeff-En:   0.100D+01
 Coeff:      0.329D-02 0.659D-04-0.699D-02-0.582D-01-0.359D-02 0.330D+00
 Coeff:      0.735D+00
 Gap=     0.093 Goal=   None    Shift=    0.000
 RMSDP=3.61D-05 MaxDP=7.56D-03 DE=-1.87D-03 OVMax= 1.29D-02

 Cycle   9  Pass 1  IDiag  1:
 RMSU=  2.55D-05    CP:  1.01D+00  1.13D+00  1.12D+00  1.36D+00  1.26D+00
                    CP:  1.30D+00  1.29D+00
 E= -1876.43068083575     Delta-E=       -0.000240905475 Rises=F Damp=F
 DIIS: error= 1.06D-04 at cycle   8 NSaved=   8.
 NSaved= 8 IEnMin= 8 EnMin= -1876.43068083575     IErMin= 8 ErrMin= 1.06D-04
 ErrMax= 1.06D-04  0.00D+00 EMaxC= 1.00D-01 BMatC= 2.76D-05 BMatP= 1.34D-04
 IDIUse=3 WtCom= 9.99D-01 WtEn= 1.06D-03
 Coeff-Com:  0.222D-02-0.749D-02 0.105D-01-0.416D-02-0.272D-01-0.273D-02
 Coeff-Com:  0.244D+00 0.785D+00
 Coeff-En:   0.000D+00 0.000D+00 0.000D+00 0.000D+00 0.000D+00 0.000D+00
 Coeff-En:   0.000D+00 0.100D+01
 Coeff:      0.222D-02-0.748D-02 0.105D-01-0.415D-02-0.272D-01-0.273D-02
 Coeff:      0.244D+00 0.785D+00
 Gap=     0.094 Goal=   None    Shift=    0.000
 RMSDP=1.64D-05 MaxDP=4.47D-03 DE=-2.41D-04 OVMax= 6.20D-03

 Cycle  10  Pass 1  IDiag  1:
 RMSU=  8.28D-06    CP:  1.01D+00  1.13D+00  1.12D+00  1.35D+00  1.25D+00
                    CP:  1.30D+00  1.52D+00  1.24D+00
 E= -1876.43072930650     Delta-E=       -0.000048470747 Rises=F Damp=F
 DIIS: error= 6.29D-05 at cycle   9 NSaved=   9.
 NSaved= 9 IEnMin= 9 EnMin= -1876.43072930650     IErMin= 9 ErrMin= 6.29D-05
 ErrMax= 6.29D-05  0.00D+00 EMaxC= 1.00D-01 BMatC= 9.45D-06 BMatP= 2.76D-05
 IDIUse=1 WtCom= 1.00D+00 WtEn= 0.00D+00
 Coeff-Com: -0.245D-03-0.355D-02 0.822D-02 0.158D-01-0.611D-02-0.767D-01
 Coeff-Com: -0.836D-01 0.336D+00 0.811D+00
 Coeff:     -0.245D-03-0.355D-02 0.822D-02 0.158D-01-0.611D-02-0.767D-01
 Coeff:     -0.836D-01 0.336D+00 0.811D+00
 Gap=     0.094 Goal=   None    Shift=    0.000
 RMSDP=1.28D-05 MaxDP=4.07D-03 DE=-4.85D-05 OVMax= 4.33D-03

 Cycle  11  Pass 1  IDiag  1:
 RMSU=  4.00D-06    CP:  1.01D+00  1.12D+00  1.12D+00  1.34D+00  1.24D+00
                    CP:  1.30D+00  1.66D+00  1.55D+00  1.26D+00
 E= -1876.43074496652     Delta-E=       -0.000015660016 Rises=F Damp=F
 DIIS: error= 2.34D-05 at cycle  10 NSaved=  10.
 NSaved=10 IEnMin=10 EnMin= -1876.43074496652     IErMin=10 ErrMin= 2.34D-05
 ErrMax= 2.34D-05  0.00D+00 EMaxC= 1.00D-01 BMatC= 1.75D-06 BMatP= 9.45D-06
 IDIUse=1 WtCom= 1.00D+00 WtEn= 0.00D+00
 Coeff-Com:  0.105D-03-0.131D-02 0.207D-02 0.804D-02 0.229D-02-0.358D-01
 Coeff-Com: -0.941D-01 0.131D-01 0.418D+00 0.687D+00
 Coeff:      0.105D-03-0.131D-02 0.207D-02 0.804D-02 0.229D-02-0.358D-01
 Coeff:     -0.941D-01 0.131D-01 0.418D+00 0.687D+00
 Gap=     0.095 Goal=   None    Shift=    0.000
 RMSDP=4.65D-06 MaxDP=8.95D-04 DE=-1.57D-05 OVMax= 2.03D-03

 Cycle  12  Pass 1  IDiag  1:
 RMSU=  1.65D-06    CP:  1.01D+00  1.12D+00  1.12D+00  1.34D+00  1.24D+00
                    CP:  1.30D+00  1.72D+00  1.66D+00  1.44D+00  1.04D+00
 E= -1876.43074799839     Delta-E=       -0.000003031877 Rises=F Damp=F
 DIIS: error= 8.93D-06 at cycle  11 NSaved=  11.
 NSaved=11 IEnMin=11 EnMin= -1876.43074799839     IErMin=11 ErrMin= 8.93D-06
 ErrMax= 8.93D-06  0.00D+00 EMaxC= 1.00D-01 BMatC= 2.99D-07 BMatP= 1.75D-06
 IDIUse=1 WtCom= 1.00D+00 WtEn= 0.00D+00
 Coeff-Com:  0.495D-04-0.109D-03-0.178D-04 0.141D-02 0.203D-02-0.242D-02
 Coeff-Com: -0.324D-01-0.484D-01 0.676D-01 0.322D+00 0.690D+00
 Coeff:      0.495D-04-0.109D-03-0.178D-04 0.141D-02 0.203D-02-0.242D-02
 Coeff:     -0.324D-01-0.484D-01 0.676D-01 0.322D+00 0.690D+00
 Gap=     0.095 Goal=   None    Shift=    0.000
 RMSDP=1.86D-06 MaxDP=5.23D-04 DE=-3.03D-06 OVMax= 7.97D-04

 Cycle  13  Pass 1  IDiag  1:
 RMSU=  6.57D-07    CP:  1.01D+00  1.12D+00  1.12D+00  1.34D+00  1.24D+00
                    CP:  1.30D+00  1.74D+00  1.69D+00  1.51D+00  1.22D+00
                    CP:  1.07D+00
 E= -1876.43074843843     Delta-E=       -0.000000440041 Rises=F Damp=F
 DIIS: error= 4.28D-06 at cycle  12 NSaved=  12.
 NSaved=12 IEnMin=12 EnMin= -1876.43074843843     IErMin=12 ErrMin= 4.28D-06
 ErrMax= 4.28D-06  0.00D+00 EMaxC= 1.00D-01 BMatC= 5.99D-08 BMatP= 2.99D-07
 IDIUse=1 WtCom= 1.00D+00 WtEn= 0.00D+00
 Coeff-Com:  0.612D-04 0.640D-04-0.294D-03-0.806D-03 0.143D-04 0.658D-02
 Coeff-Com:  0.212D-02-0.249D-01-0.533D-01 0.267D-02 0.332D+00 0.736D+00
 Coeff:      0.612D-04 0.640D-04-0.294D-03-0.806D-03 0.143D-04 0.658D-02
 Coeff:      0.212D-02-0.249D-01-0.533D-01 0.267D-02 0.332D+00 0.736D+00
 Gap=     0.095 Goal=   None    Shift=    0.000
 RMSDP=8.03D-07 MaxDP=1.83D-04 DE=-4.40D-07 OVMax= 3.74D-04

 Cycle  14  Pass 1  IDiag  1:
 RMSU=  3.14D-07    CP:  1.01D+00  1.12D+00  1.12D+00  1.34D+00  1.24D+00
                    CP:  1.30D+00  1.74D+00  1.70D+00  1.54D+00  1.27D+00
                    CP:  1.26D+00  1.08D+00
 E= -1876.43074853787     Delta-E=       -0.000000099438 Rises=F Damp=F
 DIIS: error= 1.90D-06 at cycle  13 NSaved=  13.
 NSaved=13 IEnMin=13 EnMin= -1876.43074853787     IErMin=13 ErrMin= 1.90D-06
 ErrMax= 1.90D-06  0.00D+00 EMaxC= 1.00D-01 BMatC= 7.01D-09 BMatP= 5.99D-08
 IDIUse=1 WtCom= 1.00D+00 WtEn= 0.00D+00
 Coeff-Com: -0.214D-06 0.657D-04-0.116D-03-0.382D-03-0.327D-03 0.347D-02
 Coeff-Com:  0.402D-02-0.546D-02-0.290D-01-0.359D-01 0.678D-01 0.311D+00
 Coeff-Com:  0.685D+00
 Coeff:     -0.214D-06 0.657D-04-0.116D-03-0.382D-03-0.327D-03 0.347D-02
 Coeff:      0.402D-02-0.546D-02-0.290D-01-0.359D-01 0.678D-01 0.311D+00
 Coeff:      0.685D+00
 Gap=     0.095 Goal=   None    Shift=    0.000
 RMSDP=2.83D-07 MaxDP=7.18D-05 DE=-9.94D-08 OVMax= 1.09D-04

 Cycle  15  Pass 1  IDiag  1:
 RMSU=  1.09D-07    CP:  1.01D+00  1.12D+00  1.12D+00  1.34D+00  1.24D+00
                    CP:  1.30D+00  1.75D+00  1.70D+00  1.55D+00  1.30D+00
                    CP:  1.31D+00  1.24D+00  1.16D+00
 E= -1876.43074854926     Delta-E=       -0.000000011385 Rises=F Damp=F
 DIIS: error= 8.80D-07 at cycle  14 NSaved=  14.
 NSaved=14 IEnMin=14 EnMin= -1876.43074854926     IErMin=14 ErrMin= 8.80D-07
 ErrMax= 8.80D-07  0.00D+00 EMaxC= 1.00D-01 BMatC= 1.78D-09 BMatP= 7.01D-09
 IDIUse=1 WtCom= 1.00D+00 WtEn= 0.00D+00
 Coeff-Com: -0.250D-04 0.317D-04 0.115D-04 0.567D-04-0.257D-03 0.191D-03
 Coeff-Com:  0.147D-02 0.412D-02 0.287D-03-0.217D-01-0.584D-01-0.458D-01
 Coeff-Com:  0.354D+00 0.766D+00
 Coeff:     -0.250D-04 0.317D-04 0.115D-04 0.567D-04-0.257D-03 0.191D-03
 Coeff:      0.147D-02 0.412D-02 0.287D-03-0.217D-01-0.584D-01-0.458D-01
 Coeff:      0.354D+00 0.766D+00
 Gap=     0.095 Goal=   None    Shift=    0.000
 RMSDP=1.70D-07 MaxDP=4.52D-05 DE=-1.14D-08 OVMax= 6.85D-05

 Cycle  16  Pass 1  IDiag  1:
 RMSU=  4.83D-08    CP:  1.01D+00  1.12D+00  1.12D+00  1.34D+00  1.24D+00
                    CP:  1.30D+00  1.75D+00  1.70D+00  1.55D+00  1.31D+00
                    CP:  1.35D+00  1.33D+00  1.39D+00  1.13D+00
 E= -1876.43074855261     Delta-E=       -0.000000003353 Rises=F Damp=F
 DIIS: error= 2.84D-07 at cycle  15 NSaved=  15.
 NSaved=15 IEnMin=15 EnMin= -1876.43074855261     IErMin=15 ErrMin= 2.84D-07
 ErrMax= 2.84D-07  0.00D+00 EMaxC= 1.00D-01 BMatC= 2.26D-10 BMatP= 1.78D-09
 IDIUse=1 WtCom= 1.00D+00 WtEn= 0.00D+00
 Coeff-Com: -0.631D-05 0.203D-05 0.119D-04 0.715D-04-0.882D-04-0.399D-03
 Coeff-Com: -0.812D-04 0.220D-02 0.445D-02-0.362D-02-0.293D-01-0.594D-01
 Coeff-Com:  0.370D-01 0.286D+00 0.763D+00
 Coeff:     -0.631D-05 0.203D-05 0.119D-04 0.715D-04-0.882D-04-0.399D-03
 Coeff:     -0.812D-04 0.220D-02 0.445D-02-0.362D-02-0.293D-01-0.594D-01
 Coeff:      0.370D-01 0.286D+00 0.763D+00
 Gap=     0.095 Goal=   None    Shift=    0.000
 RMSDP=6.67D-08 MaxDP=2.15D-05 DE=-3.35D-09 OVMax= 3.06D-05

 Cycle  17  Pass 1  IDiag  1:
 RMSU=  1.90D-08    CP:  1.01D+00  1.12D+00  1.12D+00  1.34D+00  1.24D+00
                    CP:  1.30D+00  1.75D+00  1.70D+00  1.55D+00  1.31D+00
                    CP:  1.36D+00  1.36D+00  1.46D+00  1.27D+00  1.03D+00
 E= -1876.43074855298     Delta-E=       -0.000000000369 Rises=F Damp=F
 DIIS: error= 1.35D-07 at cycle  16 NSaved=  16.
 NSaved=16 IEnMin=16 EnMin= -1876.43074855298     IErMin=16 ErrMin= 1.35D-07
 ErrMax= 1.35D-07  0.00D+00 EMaxC= 1.00D-01 BMatC= 4.59D-11 BMatP= 2.26D-10
 IDIUse=1 WtCom= 1.00D+00 WtEn= 0.00D+00
 Coeff-Com: -0.330D-05 0.129D-05 0.649D-05 0.352D-04-0.998D-05-0.250D-03
 Coeff-Com: -0.282D-03 0.486D-03 0.215D-02 0.107D-02-0.629D-02-0.247D-01
 Coeff-Com: -0.386D-01 0.137D-01 0.383D+00 0.670D+00
 Coeff:     -0.330D-05 0.129D-05 0.649D-05 0.352D-04-0.998D-05-0.250D-03
 Coeff:     -0.282D-03 0.486D-03 0.215D-02 0.107D-02-0.629D-02-0.247D-01
 Coeff:     -0.386D-01 0.137D-01 0.383D+00 0.670D+00
 Gap=     0.095 Goal=   None    Shift=    0.000
 RMSDP=2.49D-08 MaxDP=7.85D-06 DE=-3.69D-10 OVMax= 1.07D-05

 Cycle  18  Pass 1  IDiag  1:
 RMSU=  7.07D-09    CP:  1.01D+00  1.12D+00  1.12D+00  1.34D+00  1.24D+00
                    CP:  1.30D+00  1.75D+00  1.70D+00  1.55D+00  1.31D+00
                    CP:  1.37D+00  1.37D+00  1.49D+00  1.33D+00  1.16D+00
                    CP:  9.54D-01
 E= -1876.43074855304     Delta-E=       -0.000000000062 Rises=F Damp=F
 DIIS: error= 4.67D-08 at cycle  17 NSaved=  17.
 NSaved=17 IEnMin=17 EnMin= -1876.43074855304     IErMin=17 ErrMin= 4.67D-08
 ErrMax= 4.67D-08  0.00D+00 EMaxC= 1.00D-01 BMatC= 4.93D-12 BMatP= 4.59D-11
 IDIUse=1 WtCom= 1.00D+00 WtEn= 0.00D+00
 Coeff-Com:  0.228D-06-0.805D-06 0.103D-05 0.530D-05 0.338D-05-0.552D-04
 Coeff-Com: -0.118D-03-0.707D-04 0.383D-03 0.102D-02 0.144D-02-0.265D-02
 Coeff-Com: -0.201D-01-0.324D-01 0.695D-01 0.294D+00 0.689D+00
 Coeff:      0.228D-06-0.805D-06 0.103D-05 0.530D-05 0.338D-05-0.552D-04
 Coeff:     -0.118D-03-0.707D-04 0.383D-03 0.102D-02 0.144D-02-0.265D-02
 Coeff:     -0.201D-01-0.324D-01 0.695D-01 0.294D+00 0.689D+00
 Gap=     0.095 Goal=   None    Shift=    0.000
 RMSDP=5.99D-09 MaxDP=1.17D-06 DE=-6.18D-11 OVMax= 3.23D-06

 Cycle  19  Pass 1  IDiag  1:
 RMSU=  2.49D-09    CP:  1.01D+00  1.12D+00  1.12D+00  1.34D+00  1.24D+00
                    CP:  1.30D+00  1.75D+00  1.70D+00  1.55D+00  1.31D+00
                    CP:  1.37D+00  1.37D+00  1.50D+00  1.34D+00  1.19D+00
                    CP:  1.08D+00  9.66D-01
 E= -1876.43074855309     Delta-E=       -0.000000000051 Rises=F Damp=F
 DIIS: error= 1.41D-08 at cycle  18 NSaved=  18.
 NSaved=18 IEnMin=18 EnMin= -1876.43074855309     IErMin=18 ErrMin= 1.41D-08
 ErrMax= 1.41D-08  0.00D+00 EMaxC= 1.00D-01 BMatC= 1.13D-12 BMatP= 4.93D-12
 IDIUse=1 WtCom= 1.00D+00 WtEn= 0.00D+00
 Coeff-Com:  0.292D-06-0.327D-06 0.375D-08-0.166D-05 0.340D-05 0.891D-05
 Coeff-Com: -0.167D-04-0.111D-03-0.154D-03 0.311D-03 0.152D-02 0.218D-02
 Coeff-Com: -0.407D-02-0.194D-01-0.258D-01 0.385D-01 0.351D+00 0.656D+00
 Coeff:      0.292D-06-0.327D-06 0.375D-08-0.166D-05 0.340D-05 0.891D-05
 Coeff:     -0.167D-04-0.111D-03-0.154D-03 0.311D-03 0.152D-02 0.218D-02
 Coeff:     -0.407D-02-0.194D-01-0.258D-01 0.385D-01 0.351D+00 0.656D+00
 Gap=     0.095 Goal=   None    Shift=    0.000
 RMSDP=2.94D-09 MaxDP=7.60D-07 DE=-5.09D-11 OVMax= 1.04D-06

 SCF Done:  E(RM062X) =  -1876.43074855     A.U. after   19 cycles
            NFock= 19  Conv=0.29D-08     -V/T= 2.0047
 KE= 1.867621961722D+03 PE=-1.320676427174D+04 EE= 5.035120513830D+03
 Leave Link  502 at Sat Jun 22 17:49:22 2024, MaxMem=  2684354560 cpu:           24352.1 elap:            1525.6
 (Enter /storage/apps/GAUSSIAN/G16_RevA03/g16/l601.exe)
 Copying SCF densities to generalized density rwf, IOpCl= 0 IROHF=0.

 **********************************************************************

            Population analysis using the SCF density.

 **********************************************************************

 Alpha  occ. eigenvalues --  -19.78135 -19.76924 -19.75329 -19.71980 -19.64939
 Alpha  occ. eigenvalues --  -19.61883 -15.00913 -14.89697 -14.88526 -14.86371
 Alpha  occ. eigenvalues --  -14.85480 -14.84926 -14.84148 -14.81985 -14.81719
 Alpha  occ. eigenvalues --  -10.78681 -10.78637 -10.77113 -10.76732 -10.75551
 Alpha  occ. eigenvalues --  -10.74015 -10.73248 -10.73219 -10.72926 -10.72058
 Alpha  occ. eigenvalues --  -10.71877 -10.71437 -10.70147 -10.68889 -10.67665
 Alpha  occ. eigenvalues --  -10.66720 -10.66548 -10.65962 -10.64420 -10.60188
 Alpha  occ. eigenvalues --  -10.59884 -10.59514 -10.59245 -10.59125  -1.32546
 Alpha  occ. eigenvalues --   -1.28988  -1.27491  -1.26771  -1.25893  -1.22297
 Alpha  occ. eigenvalues --   -1.17152  -1.16397  -1.15927  -1.13542  -1.13356
 Alpha  occ. eigenvalues --   -1.10376  -1.09687  -1.08713  -1.06633  -1.06145
 Alpha  occ. eigenvalues --   -1.04038  -1.01667  -1.01337  -0.99645  -0.97805
 Alpha  occ. eigenvalues --   -0.93279  -0.92395  -0.91716  -0.91650  -0.89850
 Alpha  occ. eigenvalues --   -0.87629  -0.87294  -0.84741  -0.83240  -0.81644
 Alpha  occ. eigenvalues --   -0.81506  -0.80451  -0.78611  -0.78252  -0.76683
 Alpha  occ. eigenvalues --   -0.76129  -0.75982  -0.74841  -0.74221  -0.73189
 Alpha  occ. eigenvalues --   -0.73043  -0.71765  -0.71282  -0.70750  -0.70133
 Alpha  occ. eigenvalues --   -0.69572  -0.69012  -0.68573  -0.68327  -0.67126
 Alpha  occ. eigenvalues --   -0.66559  -0.66249  -0.66144  -0.65762  -0.65014
 Alpha  occ. eigenvalues --   -0.63969  -0.63819  -0.63285  -0.62990  -0.62360
 Alpha  occ. eigenvalues --   -0.62098  -0.61187  -0.61137  -0.60561  -0.60454
 Alpha  occ. eigenvalues --   -0.60139  -0.59664  -0.58675  -0.58379  -0.57197
 Alpha  occ. eigenvalues --   -0.56756  -0.56457  -0.56143  -0.55798  -0.54263
 Alpha  occ. eigenvalues --   -0.53684  -0.53255  -0.52954  -0.52577  -0.52095
 Alpha  occ. eigenvalues --   -0.51949  -0.51245  -0.50688  -0.50176  -0.49834
 Alpha  occ. eigenvalues --   -0.49526  -0.49293  -0.47478  -0.46603  -0.46159
 Alpha  occ. eigenvalues --   -0.45804  -0.44045  -0.43266  -0.42723  -0.41200
 Alpha  occ. eigenvalues --   -0.40126  -0.39140  -0.37908  -0.36550  -0.36501
 Alpha  occ. eigenvalues --   -0.32079  -0.30025
 Alpha virt. eigenvalues --   -0.20557  -0.17026  -0.07588  -0.07224  -0.06505
 Alpha virt. eigenvalues --   -0.06133  -0.06054  -0.05707  -0.05264  -0.04145
 Alpha virt. eigenvalues --   -0.03387  -0.03268  -0.03187  -0.02552  -0.02074
 Alpha virt. eigenvalues --   -0.01300  -0.00685  -0.00330  -0.00131   0.00521
 Alpha virt. eigenvalues --    0.00730   0.01066   0.01578   0.01669   0.01792
 Alpha virt. eigenvalues --    0.01896   0.02368   0.02959   0.03284   0.03494
 Alpha virt. eigenvalues --    0.04076   0.04695   0.04855   0.05449   0.05528
 Alpha virt. eigenvalues --    0.06075   0.06268   0.06367   0.06803   0.06849
 Alpha virt. eigenvalues --    0.07142   0.07721   0.08360   0.08613   0.08994
 Alpha virt. eigenvalues --    0.09434   0.09782   0.09992   0.10208   0.10584
 Alpha virt. eigenvalues --    0.11075   0.11407   0.11675   0.12055   0.12284
 Alpha virt. eigenvalues --    0.12968   0.13082   0.13238   0.13889   0.13971
 Alpha virt. eigenvalues --    0.14184   0.14540   0.14711   0.14979   0.15215
 Alpha virt. eigenvalues --    0.15772   0.16253   0.16299   0.16563   0.17088
 Alpha virt. eigenvalues --    0.17415   0.17805   0.18393   0.18546   0.19157
 Alpha virt. eigenvalues --    0.19344   0.19491   0.19886   0.20068   0.20319
 Alpha virt. eigenvalues --    0.20442   0.21083   0.21168   0.21429   0.21799
 Alpha virt. eigenvalues --    0.21883   0.22226   0.22730   0.22924   0.23097
 Alpha virt. eigenvalues --    0.23583   0.23842   0.23980   0.24206   0.24694
 Alpha virt. eigenvalues --    0.24845   0.25261   0.25548   0.25789   0.25923
 Alpha virt. eigenvalues --    0.26317   0.26480   0.26837   0.27008   0.27650
 Alpha virt. eigenvalues --    0.27864   0.28441   0.28590   0.28719   0.28887
 Alpha virt. eigenvalues --    0.29122   0.29296   0.29652   0.29962   0.30155
 Alpha virt. eigenvalues --    0.30484   0.30677   0.30975   0.31245   0.31435
 Alpha virt. eigenvalues --    0.31452   0.31733   0.32171   0.32279   0.32651
 Alpha virt. eigenvalues --    0.32687   0.33263   0.33444   0.33758   0.34091
 Alpha virt. eigenvalues --    0.34383   0.34705   0.34824   0.35171   0.35214
 Alpha virt. eigenvalues --    0.35519   0.35740   0.36393   0.36459   0.36645
 Alpha virt. eigenvalues --    0.36806   0.36926   0.37434   0.37551   0.37822
 Alpha virt. eigenvalues --    0.37892   0.38149   0.38588   0.38744   0.39073
 Alpha virt. eigenvalues --    0.39345   0.39582   0.39819   0.40102   0.40321
 Alpha virt. eigenvalues --    0.40437   0.40925   0.41165   0.41179   0.41618
 Alpha virt. eigenvalues --    0.41974   0.42162   0.42242   0.42603   0.43048
 Alpha virt. eigenvalues --    0.43337   0.43514   0.43820   0.44021   0.44380
 Alpha virt. eigenvalues --    0.44628   0.44741   0.45145   0.45431   0.45723
 Alpha virt. eigenvalues --    0.45892   0.46155   0.46370   0.46628   0.46916
 Alpha virt. eigenvalues --    0.47295   0.47673   0.48066   0.48662   0.48760
 Alpha virt. eigenvalues --    0.48993   0.49375   0.49451   0.49923   0.50299
 Alpha virt. eigenvalues --    0.50833   0.51130   0.51256   0.51647   0.51954
 Alpha virt. eigenvalues --    0.52364   0.52458   0.52963   0.53035   0.53576
 Alpha virt. eigenvalues --    0.53949   0.54162   0.54395   0.54853   0.55328
 Alpha virt. eigenvalues --    0.55790   0.55800   0.56532   0.56790   0.56856
 Alpha virt. eigenvalues --    0.57187   0.57301   0.57890   0.58174   0.58482
 Alpha virt. eigenvalues --    0.58760   0.59030   0.59606   0.59841   0.60580
 Alpha virt. eigenvalues --    0.60742   0.60949   0.61076   0.61528   0.61815
 Alpha virt. eigenvalues --    0.62156   0.62538   0.62753   0.63122   0.63401
 Alpha virt. eigenvalues --    0.63616   0.64000   0.64381   0.64678   0.64882
 Alpha virt. eigenvalues --    0.65453   0.65899   0.66439   0.67178   0.67231
 Alpha virt. eigenvalues --    0.67519   0.67823   0.68484   0.68954   0.69345
 Alpha virt. eigenvalues --    0.69389   0.70255   0.70706   0.70930   0.71322
 Alpha virt. eigenvalues --    0.71399   0.72006   0.72105   0.72449   0.73134
 Alpha virt. eigenvalues --    0.73224   0.73589   0.74490   0.74927   0.75056
 Alpha virt. eigenvalues --    0.75395   0.75484   0.75990   0.76575   0.76992
 Alpha virt. eigenvalues --    0.77306   0.77465   0.77960   0.78682   0.79143
 Alpha virt. eigenvalues --    0.79420   0.79575   0.80005   0.80489   0.81083
 Alpha virt. eigenvalues --    0.81644   0.81838   0.82256   0.82590   0.83191
 Alpha virt. eigenvalues --    0.83872   0.84032   0.84423   0.84751   0.85352
 Alpha virt. eigenvalues --    0.85990   0.86269   0.86833   0.87282   0.87529
 Alpha virt. eigenvalues --    0.87990   0.88316   0.89014   0.89149   0.89296
 Alpha virt. eigenvalues --    0.89967   0.90699   0.91181   0.91663   0.91706
 Alpha virt. eigenvalues --    0.92573   0.92804   0.93151   0.93758   0.93878
 Alpha virt. eigenvalues --    0.95050   0.95673   0.96045   0.96661   0.97086
 Alpha virt. eigenvalues --    0.97556   0.97983   0.98742   0.98968   0.99237
 Alpha virt. eigenvalues --    0.99871   1.00431   1.00679   1.00935   1.01874
 Alpha virt. eigenvalues --    1.02239   1.02588   1.03184   1.04272   1.04483
 Alpha virt. eigenvalues --    1.04866   1.05130   1.05465   1.06000   1.06484
 Alpha virt. eigenvalues --    1.07303   1.07688   1.08420   1.08675   1.09517
 Alpha virt. eigenvalues --    1.10200   1.10315   1.10643   1.11191   1.11428
 Alpha virt. eigenvalues --    1.12376   1.12440   1.13106   1.13832   1.14556
 Alpha virt. eigenvalues --    1.15273   1.15354   1.15961   1.16593   1.16775
 Alpha virt. eigenvalues --    1.17282   1.17492   1.18078   1.19121   1.19845
 Alpha virt. eigenvalues --    1.20546   1.21048   1.21613   1.22426   1.22774
 Alpha virt. eigenvalues --    1.23315   1.23681   1.24035   1.24221   1.24730
 Alpha virt. eigenvalues --    1.24951   1.25348   1.25914   1.27093   1.27519
 Alpha virt. eigenvalues --    1.27745   1.27919   1.28240   1.28988   1.29323
 Alpha virt. eigenvalues --    1.29770   1.30267   1.30918   1.32154   1.32430
 Alpha virt. eigenvalues --    1.32738   1.32987   1.34097   1.34361   1.34671
 Alpha virt. eigenvalues --    1.35004   1.35675   1.35836   1.36182   1.36810
 Alpha virt. eigenvalues --    1.37268   1.37907   1.38733   1.38788   1.39360
 Alpha virt. eigenvalues --    1.39636   1.39782   1.40238   1.40937   1.41484
 Alpha virt. eigenvalues --    1.42276   1.42434   1.43056   1.43361   1.43741
 Alpha virt. eigenvalues --    1.44070   1.44503   1.44730   1.45271   1.45845
 Alpha virt. eigenvalues --    1.46468   1.46893   1.47228   1.47670   1.47968
 Alpha virt. eigenvalues --    1.48153   1.48457   1.48853   1.49373   1.49549
 Alpha virt. eigenvalues --    1.50566   1.50759   1.51270   1.51582   1.51806
 Alpha virt. eigenvalues --    1.52233   1.52807   1.53046   1.53647   1.53729
 Alpha virt. eigenvalues --    1.54096   1.54328   1.54803   1.55219   1.55795
 Alpha virt. eigenvalues --    1.56100   1.56407   1.56703   1.57053   1.57274
 Alpha virt. eigenvalues --    1.57757   1.57858   1.58201   1.58443   1.58748
 Alpha virt. eigenvalues --    1.59207   1.59776   1.60090   1.60548   1.60879
 Alpha virt. eigenvalues --    1.61271   1.61520   1.62073   1.62242   1.62643
 Alpha virt. eigenvalues --    1.62876   1.63773   1.64134   1.64769   1.65251
 Alpha virt. eigenvalues --    1.65516   1.66045   1.66426   1.66917   1.67573
 Alpha virt. eigenvalues --    1.67620   1.68055   1.68531   1.69491   1.70023
 Alpha virt. eigenvalues --    1.70509   1.70898   1.71000   1.71529   1.71931
 Alpha virt. eigenvalues --    1.72338   1.72923   1.73199   1.73599   1.74310
 Alpha virt. eigenvalues --    1.74609   1.75025   1.75718   1.76155   1.76361
 Alpha virt. eigenvalues --    1.76859   1.77556   1.78141   1.78577   1.79407
 Alpha virt. eigenvalues --    1.79968   1.80042   1.80435   1.80868   1.81315
 Alpha virt. eigenvalues --    1.81906   1.82010   1.82683   1.82756   1.83190
 Alpha virt. eigenvalues --    1.83871   1.84219   1.84448   1.85031   1.85564
 Alpha virt. eigenvalues --    1.86184   1.86432   1.86642   1.87152   1.87572
 Alpha virt. eigenvalues --    1.87985   1.88466   1.88894   1.89658   1.89936
 Alpha virt. eigenvalues --    1.90501   1.90999   1.91356   1.91491   1.92367
 Alpha virt. eigenvalues --    1.93130   1.93744   1.94107   1.94952   1.95090
 Alpha virt. eigenvalues --    1.95392   1.96032   1.96821   1.97089   1.97657
 Alpha virt. eigenvalues --    1.98085   1.98507   1.98875   1.98992   1.99978
 Alpha virt. eigenvalues --    2.00150   2.01191   2.01760   2.02495   2.02799
 Alpha virt. eigenvalues --    2.03075   2.03377   2.03937   2.04211   2.05187
 Alpha virt. eigenvalues --    2.05867   2.06161   2.06695   2.07393   2.07850
 Alpha virt. eigenvalues --    2.08523   2.08933   2.09323   2.10130   2.10303
 Alpha virt. eigenvalues --    2.10795   2.10876   2.11998   2.12140   2.12368
 Alpha virt. eigenvalues --    2.12630   2.13940   2.14150   2.14928   2.15626
 Alpha virt. eigenvalues --    2.15936   2.16454   2.16481   2.17199   2.17278
 Alpha virt. eigenvalues --    2.18140   2.18868   2.19143   2.19852   2.20122
 Alpha virt. eigenvalues --    2.20816   2.21304   2.21476   2.21885   2.22480
 Alpha virt. eigenvalues --    2.22853   2.23267   2.24315   2.24473   2.25222
 Alpha virt. eigenvalues --    2.25538   2.25696   2.26661   2.26721   2.27136
 Alpha virt. eigenvalues --    2.27331   2.28393   2.29782   2.29827   2.30490
 Alpha virt. eigenvalues --    2.31754   2.31871   2.32769   2.33091   2.33479
 Alpha virt. eigenvalues --    2.33989   2.34876   2.34967   2.35504   2.36224
 Alpha virt. eigenvalues --    2.36439   2.36881   2.37519   2.38080   2.38657
 Alpha virt. eigenvalues --    2.39269   2.39936   2.40033   2.40703   2.41160
 Alpha virt. eigenvalues --    2.41464   2.41802   2.42518   2.43433   2.44598
 Alpha virt. eigenvalues --    2.45329   2.46156   2.46272   2.46710   2.47178
 Alpha virt. eigenvalues --    2.47609   2.48016   2.48201   2.49153   2.49802
 Alpha virt. eigenvalues --    2.49892   2.50853   2.51429   2.51764   2.52130
 Alpha virt. eigenvalues --    2.52839   2.53405   2.53720   2.54299   2.54680
 Alpha virt. eigenvalues --    2.55134   2.55957   2.56620   2.57032   2.57501
 Alpha virt. eigenvalues --    2.57991   2.58431   2.58727   2.58979   2.60026
 Alpha virt. eigenvalues --    2.60342   2.60968   2.61299   2.61389   2.61687
 Alpha virt. eigenvalues --    2.62140   2.63526   2.63650   2.64024   2.64329
 Alpha virt. eigenvalues --    2.64574   2.64811   2.65343   2.65520   2.66180
 Alpha virt. eigenvalues --    2.66827   2.67008   2.67440   2.67968   2.68179
 Alpha virt. eigenvalues --    2.68304   2.68468   2.69265   2.69919   2.70108
 Alpha virt. eigenvalues --    2.70453   2.70827   2.71230   2.71549   2.71723
 Alpha virt. eigenvalues --    2.72494   2.72797   2.73101   2.74555   2.74999
 Alpha virt. eigenvalues --    2.75182   2.75572   2.76137   2.76488   2.77045
 Alpha virt. eigenvalues --    2.77326   2.77341   2.77583   2.77960   2.78663
 Alpha virt. eigenvalues --    2.78966   2.79413   2.80162   2.80325   2.81117
 Alpha virt. eigenvalues --    2.81330   2.81997   2.82490   2.83268   2.83919
 Alpha virt. eigenvalues --    2.83998   2.84305   2.84686   2.85061   2.85321
 Alpha virt. eigenvalues --    2.86248   2.86454   2.86865   2.87201   2.87359
 Alpha virt. eigenvalues --    2.87822   2.88071   2.88534   2.89114   2.89292
 Alpha virt. eigenvalues --    2.89561   2.89985   2.90174   2.90548   2.91217
 Alpha virt. eigenvalues --    2.91573   2.91673   2.92309   2.92515   2.92905
 Alpha virt. eigenvalues --    2.93034   2.93253   2.94141   2.94463   2.94842
 Alpha virt. eigenvalues --    2.95377   2.95583   2.95923   2.96345   2.96698
 Alpha virt. eigenvalues --    2.97388   2.97834   2.98324   2.98441   2.99082
 Alpha virt. eigenvalues --    2.99763   2.99891   3.00365   3.00716   3.01405
 Alpha virt. eigenvalues --    3.01763   3.02388   3.02630   3.03088   3.03481
 Alpha virt. eigenvalues --    3.03912   3.04050   3.04740   3.04927   3.05507
 Alpha virt. eigenvalues --    3.05678   3.05884   3.06466   3.06611   3.07562
 Alpha virt. eigenvalues --    3.07618   3.07883   3.08322   3.08933   3.09371
 Alpha virt. eigenvalues --    3.09900   3.10066   3.10636   3.10851   3.11406
 Alpha virt. eigenvalues --    3.11573   3.12477   3.12990   3.13384   3.13654
 Alpha virt. eigenvalues --    3.13890   3.14155   3.14344   3.14693   3.14784
 Alpha virt. eigenvalues --    3.15071   3.15508   3.15952   3.16096   3.16635
 Alpha virt. eigenvalues --    3.16855   3.17333   3.17679   3.17865   3.18070
 Alpha virt. eigenvalues --    3.18724   3.18886   3.19115   3.19931   3.20333
 Alpha virt. eigenvalues --    3.20593   3.20921   3.21254   3.21674   3.22225
 Alpha virt. eigenvalues --    3.23000   3.23222   3.23740   3.24142   3.24526
 Alpha virt. eigenvalues --    3.24964   3.25551   3.26144   3.26346   3.26980
 Alpha virt. eigenvalues --    3.27109   3.27418   3.27908   3.28187   3.28465
 Alpha virt. eigenvalues --    3.28764   3.29672   3.30155   3.30480   3.31085
 Alpha virt. eigenvalues --    3.31155   3.31352   3.31859   3.32316   3.32826
 Alpha virt. eigenvalues --    3.33076   3.33257   3.33499   3.33827   3.34511
 Alpha virt. eigenvalues --    3.34961   3.35246   3.35972   3.36133   3.36411
 Alpha virt. eigenvalues --    3.36484   3.36987   3.37537   3.37894   3.38253
 Alpha virt. eigenvalues --    3.38879   3.39398   3.39906   3.40211   3.40957
 Alpha virt. eigenvalues --    3.41073   3.41284   3.42055   3.42687   3.43036
 Alpha virt. eigenvalues --    3.43493   3.44093   3.44454   3.44526   3.45319
 Alpha virt. eigenvalues --    3.46292   3.46773   3.47703   3.48106   3.48889
 Alpha virt. eigenvalues --    3.49300   3.49770   3.49936   3.51149   3.51686
 Alpha virt. eigenvalues --    3.52057   3.52740   3.52853   3.53343   3.54286
 Alpha virt. eigenvalues --    3.54445   3.55245   3.56551   3.56991   3.57995
 Alpha virt. eigenvalues --    3.58983   3.59504   3.59848   3.60481   3.61608
 Alpha virt. eigenvalues --    3.62578   3.62820   3.63659   3.64624   3.64946
 Alpha virt. eigenvalues --    3.65638   3.66894   3.67881   3.67890   3.68834
 Alpha virt. eigenvalues --    3.69860   3.70577   3.70807   3.71119   3.71765
 Alpha virt. eigenvalues --    3.72821   3.73479   3.73886   3.74244   3.74988
 Alpha virt. eigenvalues --    3.75846   3.76556   3.77488   3.77848   3.78594
 Alpha virt. eigenvalues --    3.78999   3.79402   3.80433   3.80856   3.81709
 Alpha virt. eigenvalues --    3.82532   3.83011   3.83650   3.84430   3.85544
 Alpha virt. eigenvalues --    3.85938   3.87047   3.87274   3.87962   3.88977
 Alpha virt. eigenvalues --    3.89759   3.90509   3.90744   3.91520   3.92593
 Alpha virt. eigenvalues --    3.93792   3.94112   3.95171   3.95681   3.96158
 Alpha virt. eigenvalues --    3.96618   3.97502   3.99436   3.99902   4.00514
 Alpha virt. eigenvalues --    4.01573   4.02152   4.03060   4.03544   4.03821
 Alpha virt. eigenvalues --    4.04177   4.05592   4.05667   4.06883   4.07313
 Alpha virt. eigenvalues --    4.07873   4.08715   4.08887   4.09379   4.10730
 Alpha virt. eigenvalues --    4.10859   4.11376   4.12051   4.12166   4.13012
 Alpha virt. eigenvalues --    4.13528   4.14361   4.14793   4.14993   4.16761
 Alpha virt. eigenvalues --    4.18588   4.18702   4.19484   4.20249   4.21128
 Alpha virt. eigenvalues --    4.21583   4.21826   4.22784   4.23284   4.24209
 Alpha virt. eigenvalues --    4.24517   4.25457   4.25932   4.26855   4.28721
 Alpha virt. eigenvalues --    4.29795   4.29883   4.30731   4.31115   4.32460
 Alpha virt. eigenvalues --    4.32794   4.35492   4.35844   4.38075   4.38189
 Alpha virt. eigenvalues --    4.39037   4.39942   4.41001   4.41389   4.42224
 Alpha virt. eigenvalues --    4.42578   4.45238   4.45924   4.47656   4.49365
 Alpha virt. eigenvalues --    4.49970   4.50989   4.51763   4.52227   4.52856
 Alpha virt. eigenvalues --    4.53498   4.54041   4.55107   4.55937   4.56176
 Alpha virt. eigenvalues --    4.56968   4.57405   4.58482   4.59162   4.59571
 Alpha virt. eigenvalues --    4.60218   4.60462   4.61123   4.61415   4.63817
 Alpha virt. eigenvalues --    4.64116   4.64382   4.65049   4.65908   4.67178
 Alpha virt. eigenvalues --    4.67866   4.68263   4.69166   4.69409   4.70341
 Alpha virt. eigenvalues --    4.71675   4.73265   4.73570   4.74912   4.75242
 Alpha virt. eigenvalues --    4.75706   4.76902   4.77964   4.78892   4.79760
 Alpha virt. eigenvalues --    4.80724   4.81448   4.82504   4.83830   4.85730
 Alpha virt. eigenvalues --    4.86860   4.87181   4.87801   4.88874   4.89316
 Alpha virt. eigenvalues --    4.90442   4.91901   4.92086   4.92262   4.93057
 Alpha virt. eigenvalues --    4.93502   4.94277   4.94783   4.95874   4.96590
 Alpha virt. eigenvalues --    4.97201   4.97852   4.98656   4.98781   5.00193
 Alpha virt. eigenvalues --    5.00546   5.01707   5.01936   5.02077   5.02199
 Alpha virt. eigenvalues --    5.03409   5.03987   5.04382   5.05593   5.05951
 Alpha virt. eigenvalues --    5.06844   5.07778   5.08228   5.08634   5.09212
 Alpha virt. eigenvalues --    5.09803   5.11191   5.11766   5.12177   5.13255
 Alpha virt. eigenvalues --    5.14172   5.14260   5.15247   5.15322   5.16102
 Alpha virt. eigenvalues --    5.16463   5.17070   5.17508   5.18750   5.19284
 Alpha virt. eigenvalues --    5.19955   5.20233   5.20949   5.21845   5.22335
 Alpha virt. eigenvalues --    5.22894   5.23966   5.24900   5.25065   5.25873
 Alpha virt. eigenvalues --    5.26093   5.26644   5.27358   5.27449   5.28946
 Alpha virt. eigenvalues --    5.29228   5.29482   5.30091   5.32113   5.33485
 Alpha virt. eigenvalues --    5.33930   5.35482   5.36037   5.36482   5.37338
 Alpha virt. eigenvalues --    5.38291   5.38831   5.39185   5.40699   5.43078
 Alpha virt. eigenvalues --    5.45124   5.48744   5.49761   5.50477   5.51362
 Alpha virt. eigenvalues --    5.53698   5.54273   5.54852   5.55539   5.56449
 Alpha virt. eigenvalues --    5.57269   5.59040   5.59725   5.61277   5.61741
 Alpha virt. eigenvalues --    5.62415   5.62999   5.63505   5.63912   5.66329
 Alpha virt. eigenvalues --    5.66765   5.68853   5.69322   5.69991   5.71635
 Alpha virt. eigenvalues --    5.73927   5.76111   5.77081   5.79621   5.80606
 Alpha virt. eigenvalues --    5.80867   5.81643   5.82122   5.85445   5.86437
 Alpha virt. eigenvalues --    5.87958   5.91822   5.93592   5.94607   5.94924
 Alpha virt. eigenvalues --    5.95129   5.95947   5.98175   6.01704   6.09148
 Alpha virt. eigenvalues --    6.11958   6.17008   6.19070   6.19266   6.23288
 Alpha virt. eigenvalues --    6.31845   6.33349   6.34325   6.37361   6.38812
 Alpha virt. eigenvalues --    6.49034   6.51646   6.54346   6.55235   6.56260
 Alpha virt. eigenvalues --    6.58968   6.60757   6.63472   6.65801   6.68207
 Alpha virt. eigenvalues --    6.70712   6.71327   6.73912   6.75543   6.75733
 Alpha virt. eigenvalues --    6.78465   6.83389   6.86106   6.95774   6.96321
 Alpha virt. eigenvalues --    6.98558   7.00341   7.00861   7.03320   7.04209
 Alpha virt. eigenvalues --    7.06537   7.06979   7.13623  22.39218  22.42743
 Alpha virt. eigenvalues --   22.56796  22.57663  22.65492  22.70982  22.74652
 Alpha virt. eigenvalues --   22.76393  22.77547  22.81504  22.82686  22.84531
 Alpha virt. eigenvalues --   22.93122  22.97669  22.98386  22.98915  23.01693
 Alpha virt. eigenvalues --   23.15620  23.16619  23.18405  23.25218  23.32326
 Alpha virt. eigenvalues --   23.40751  23.50560  32.00584  32.03009  32.08829
 Alpha virt. eigenvalues --   32.40851  32.57510  32.63990  32.75940  32.89685
 Alpha virt. eigenvalues --   32.95911  44.01455  44.03780  44.04068  44.05591
 Alpha virt. eigenvalues --   44.07080  44.25949
          Condensed to atoms (all electrons):
 Mulliken charges:
               1
     1  C   -0.067735
     2  H    0.138787
     3  O   -0.305196
     4  C    0.001165
     5  H    0.178446
     6  O   -0.511983
     7  H    0.350583
     8  C    0.004129
     9  H    0.169206
    10  O   -0.467306
    11  H    0.364706
    12  C    0.052486
    13  H    0.145323
    14  N    0.033811
    15  C   -0.023213
    16  H    0.164635
    17  C    0.061569
    18  C   -0.138171
    19  H    0.273145
    20  H   -0.019280
    21  C   -0.211679
    22  H    0.188084
    23  C    0.037972
    24  H    0.200011
    25  C    0.362358
    26  O   -0.356807
    27  N   -0.497655
    28  H    0.254819
    29  H    0.295611
    30  N   -0.382107
    31  C    0.456263
    32  N   -0.539798
    33  H    0.289870
    34  H    0.273921
    35  N   -0.315998
    36  H    0.267209
    37  C    0.262873
    38  O   -0.458264
    39  C   -0.023851
    40  N   -0.338051
    41  H    0.259746
    42  C    0.058194
    43  C   -0.238345
    44  H    0.180381
    45  H    0.178176
    46  N   -0.388104
    47  H    0.254045
    48  C    0.337396
    49  C   -0.252761
    50  H    0.151067
    51  H    0.217071
    52  N   -0.411330
    53  H    0.240592
    54  C    0.095624
    55  C   -0.184958
    56  H    0.173947
    57  C   -0.195363
    58  H    0.147192
    59  C    0.294778
    60  C   -0.182364
    61  H    0.113415
    62  C   -0.186327
    63  H    0.106105
    64  C    0.323814
    65  O   -0.439301
    66  N   -0.527000
    67  H    0.248192
    68  H    0.160301
    69  H    0.295930
 Sum of Mulliken charges =   1.00000
 Mulliken charges with hydrogens summed into heavy atoms:
               1
     1  C    0.231352
     3  O   -0.305196
     4  C    0.179611
     6  O   -0.161400
     8  C    0.173335
    10  O   -0.102601
    12  C    0.197809
    14  N    0.033811
    15  C    0.141422
    17  C    0.061569
    18  C    0.134973
    21  C   -0.023595
    23  C    0.237983
    25  C    0.362358
    26  O   -0.356807
    27  N    0.052776
    30  N   -0.382107
    31  C    0.456263
    32  N    0.023992
    35  N   -0.048788
    37  C    0.262873
    38  O   -0.458264
    39  C   -0.023851
    40  N   -0.078305
    42  C    0.038914
    43  C    0.120211
    46  N   -0.134060
    48  C    0.337396
    49  C    0.115377
    52  N   -0.170738
    54  C    0.095624
    55  C   -0.011010
    57  C   -0.048171
    59  C    0.294778
    60  C   -0.068949
    62  C   -0.080223
    64  C    0.323814
    65  O   -0.439301
    66  N    0.017123
 Electronic spatial extent (au):  <R**2>=          27385.5872
 Charge=              1.0000 electrons
 Dipole moment (field-independent basis, Debye):
    X=             -6.9933    Y=             -8.2355    Z=             20.7366  Tot=             23.3824
 Quadrupole moment (field-independent basis, Debye-Ang):
   XX=           -137.5224   YY=           -224.8513   ZZ=           -113.4063
   XY=             -5.2508   XZ=            -83.3211   YZ=             67.6104
 Traceless Quadrupole moment (field-independent basis, Debye-Ang):
   XX=             21.0709   YY=            -66.2580   ZZ=             45.1870
   XY=             -5.2508   XZ=            -83.3211   YZ=             67.6104
 Octapole moment (field-independent basis, Debye-Ang**2):
  XXX=            681.4689  YYY=           -114.2726  ZZZ=            798.2965  XYY=            239.4380
  XXY=           -118.3938  XXZ=            303.2207  XZZ=            -17.2503  YZZ=           -107.3439
  YYZ=            177.3891  XYZ=           -102.6353
 Hexadecapole moment (field-independent basis, Debye-Ang**3):
 XXXX=          -6558.5740 YYYY=          -5034.3348 ZZZZ=         -15432.5068 XXXY=           1261.9933
 XXXZ=           -567.0578 YYYX=           1824.7838 YYYZ=           1458.7212 ZZZX=          -1916.7028
 ZZZY=           3812.5588 XXYY=          -2043.2846 XXZZ=          -3205.8441 YYZZ=          -5191.8427
 XXYZ=           1060.4772 YYXZ=           -150.5353 ZZXY=            500.4460
 N-N= 4.427591047636D+03 E-N=-1.320676427801D+04  KE= 1.867621961722D+03
 No NMR shielding tensors so no spin-rotation constants.
 Leave Link  601 at Sat Jun 22 17:49:23 2024, MaxMem=  2684354560 cpu:              10.0 elap:               0.8
 (Enter /storage/apps/GAUSSIAN/G16_RevA03/g16/l602.exe)

 **********************************************************************

            Electrostatic Properties Using The SCF Density

 **********************************************************************

       Atomic Center    1 is at  -4.154352  0.384173  6.716290
       Atomic Center    2 is at  -3.958559  0.433358  7.719127
       Atomic Center    3 is at  -2.988794 -0.212306  6.048031
       Atomic Center    4 is at  -4.285504  1.784512  6.113895
       Atomic Center    5 is at  -5.247799  2.141638  6.108869
       Atomic Center    6 is at  -3.436277  2.742105  6.790584
       Atomic Center    7 is at  -3.637244  2.827922  7.745564
       Atomic Center    8 is at  -3.682674  1.623202  4.705299
       Atomic Center    9 is at  -4.351071  1.220448  4.040602
       Atomic Center   10 is at  -3.209476  2.863767  4.192891
       Atomic Center   11 is at  -3.012241  3.424633  4.968163
       Atomic Center   12 is at  -2.508611  0.648278  4.996929
       Atomic Center   13 is at  -1.684319  1.168384  5.321598
       Atomic Center   14 is at  -2.068914 -0.220897  3.877732
       Atomic Center   15 is at  -0.733258 -0.254944  3.575199
       Atomic Center   16 is at  -0.157417  0.417155  4.077599
       Atomic Center   17 is at  -0.221700 -1.144249  2.684188
       Atomic Center   18 is at  -1.123429 -1.986764  1.970999
       Atomic Center   19 is at  -0.746727 -2.731086  1.385320
       Atomic Center   20 is at  -1.048353 -1.015239  0.292819
       Atomic Center   21 is at  -2.481077 -1.932157  2.295466
       Atomic Center   22 is at  -3.139854 -2.560165  1.837893
       Atomic Center   23 is at  -2.938242 -1.073800  3.241325
       Atomic Center   24 is at  -3.915802 -1.037882  3.527325
       Atomic Center   25 is at   1.259766 -1.357690  2.492327
       Atomic Center   26 is at   1.658931 -2.287851  1.765388
       Atomic Center   27 is at   2.155192 -0.563289  3.156021
       Atomic Center   28 is at   1.870662  0.135624  3.838554
       Atomic Center   29 is at   3.128883 -0.871122  3.183742
       Atomic Center   30 is at   2.151676 -3.103407 -1.937154
       Atomic Center   31 is at   3.274425 -2.432521 -2.274466
       Atomic Center   32 is at   4.393430 -3.108108 -2.658827
       Atomic Center   33 is at   4.422134 -4.120770 -2.606848
       Atomic Center   34 is at   5.247799 -2.588184 -2.913488
       Atomic Center   35 is at   3.339482 -1.057035 -2.264230
       Atomic Center   36 is at   4.263377 -0.601776 -2.406981
       Atomic Center   37 is at   2.253189 -0.264332 -1.922639
       Atomic Center   38 is at   2.404462  1.009108 -1.873926
       Atomic Center   39 is at   1.049209 -0.963326 -1.620727
       Atomic Center   40 is at  -0.134621 -0.228305 -1.342714
       Atomic Center   41 is at   0.036185  0.738752 -1.066415
       Atomic Center   42 is at  -1.241101 -0.910025 -0.714758
       Atomic Center   43 is at  -1.380877 -2.336336 -1.283970
       Atomic Center   44 is at  -2.067728 -2.853237 -0.734497
       Atomic Center   45 is at  -1.726615 -2.291104 -2.248347
       Atomic Center   46 is at  -0.092963 -3.026521 -1.223503
       Atomic Center   47 is at  -0.093732 -4.034483 -1.355660
       Atomic Center   48 is at   1.047059 -2.344818 -1.611819
       Atomic Center   49 is at  -2.598276 -0.112300 -0.805092
       Atomic Center   50 is at  -2.990556 -0.034916  0.134324
       Atomic Center   51 is at  -3.262116 -0.648021 -1.370966
       Atomic Center   52 is at  -2.473447  1.243303 -1.340254
       Atomic Center   53 is at  -2.737848  1.993915 -0.705737
       Atomic Center   54 is at  -2.229986  2.137570 -5.434445
       Atomic Center   55 is at  -2.406110  3.154732 -4.465947
       Atomic Center   56 is at  -2.460475  4.120770 -4.784133
       Atomic Center   57 is at  -2.480811  2.867353 -3.141626
       Atomic Center   58 is at  -2.596644  3.616806 -2.460802
       Atomic Center   59 is at  -2.397706  1.524602 -2.688961
       Atomic Center   60 is at  -2.227578  0.500709 -3.654341
       Atomic Center   61 is at  -2.162173 -0.472593 -3.361737
       Atomic Center   62 is at  -2.142888  0.805047 -4.974046
       Atomic Center   63 is at  -2.024996  0.043662 -5.640797
       Atomic Center   64 is at  -2.133110  2.486235 -6.849157
       Atomic Center   65 is at  -2.406534  3.666888 -7.274342
       Atomic Center   66 is at  -1.733366  1.533098 -7.745564
       Atomic Center   67 is at  -1.558326  0.576759 -7.455927
       Atomic Center   68 is at  -5.024833 -0.248347  6.542278
       Atomic Center   69 is at  -1.652125  1.701762 -8.819366
 -----------------------------------------------------------------

              Electrostatic Properties (Atomic Units)

 -----------------------------------------------------------------
    Center     Electric         -------- Electric Field --------
               Potential          X             Y             Z
 -----------------------------------------------------------------
    1 Atom    -14.581558     -0.006363      0.007795     -0.004250
    2 Atom     -0.979961      0.015212      0.000857      0.072070
    3 Atom    -22.196223      0.015331     -0.031077      0.009091
    4 Atom    -14.568100     -0.000024     -0.011570     -0.005083
    5 Atom     -0.978500     -0.067620      0.022500     -0.003558
    6 Atom    -22.205595      0.026614      0.016507     -0.022885
    7 Atom     -0.850298     -0.005450     -0.000434      0.006773
    8 Atom    -14.560559      0.003712     -0.001880      0.011707
    9 Atom     -0.959984     -0.048925     -0.027775     -0.046178
   10 Atom    -22.222885      0.002041      0.006466     -0.039516
   11 Atom     -0.872514      0.004205      0.011159      0.012302
   12 Atom    -14.514421     -0.010568      0.009798      0.001811
   13 Atom     -0.950371      0.056361      0.036360      0.019553
   14 Atom    -18.120606     -0.000137      0.000357      0.000490
   15 Atom    -14.537221     -0.001149     -0.008688     -0.005914
   16 Atom     -0.905903      0.040015      0.047552      0.038709
   17 Atom    -14.576529     -0.001857     -0.002931     -0.001904
   18 Atom    -14.577731     -0.001040      0.005924      0.009488
   19 Atom     -0.947999      0.029862     -0.052125     -0.046028
   20 Atom     -1.014099      0.014857     -0.007855      0.069873
   21 Atom    -14.593970      0.007700      0.005591      0.003201
   22 Atom     -0.938197     -0.047929     -0.045256     -0.032375
   23 Atom    -14.540755      0.007607     -0.003631     -0.005543
   24 Atom     -0.911557     -0.068903      0.003164      0.022506
   25 Atom    -14.516224      0.004353     -0.012148     -0.008249
   26 Atom    -22.263225      0.008571     -0.021886     -0.017468
   27 Atom    -18.230255     -0.003530     -0.000141     -0.009658
   28 Atom     -0.879194     -0.000538      0.008458      0.007295
   29 Atom     -0.885865      0.010882     -0.003495     -0.003409
   30 Atom    -18.315587      0.000591     -0.025963     -0.001001
   31 Atom    -14.544857     -0.012761     -0.004133      0.004202
   32 Atom    -18.261066     -0.004917      0.002840     -0.001720
   33 Atom     -0.916380     -0.001784     -0.014240      0.001052
   34 Atom     -0.908204     -0.000121     -0.003944     -0.000138
   35 Atom    -18.243403     -0.004922     -0.002109     -0.000397
   36 Atom     -0.899813     -0.005772      0.006499     -0.000644
   37 Atom    -14.583585     -0.007498      0.016462      0.003988
   38 Atom    -22.332036      0.002346      0.026119      0.000472
   39 Atom    -14.656755      0.004352     -0.005332     -0.000383
   40 Atom    -18.284747     -0.005571     -0.001031     -0.017391
   41 Atom     -0.955833      0.001987      0.016520      0.000977
   42 Atom    -14.623096     -0.005966     -0.001464     -0.005427
   43 Atom    -14.636367      0.003159      0.010320      0.000646
   44 Atom     -1.004627     -0.051795     -0.040660      0.043652
   45 Atom     -1.022157     -0.024716      0.005275     -0.070732
   46 Atom    -18.271001      0.004025      0.005402      0.011984
   47 Atom     -0.934741      0.003920     -0.015388     -0.004004
   48 Atom    -14.600697      0.005019      0.009002     -0.001508
   49 Atom    -14.633962      0.009164     -0.002011     -0.004818
   50 Atom     -1.004221     -0.028752      0.006397      0.070434
   51 Atom     -1.017776     -0.049604     -0.040163     -0.043862
   52 Atom    -18.275013      0.008531     -0.002860     -0.002038
   53 Atom     -0.939484     -0.003112      0.011104      0.004285
   54 Atom    -14.705177     -0.000210     -0.002399      0.008219
   55 Atom    -14.716597      0.001429     -0.011697     -0.001218
   56 Atom     -1.067651     -0.004534      0.069850     -0.024987
   57 Atom    -14.715432      0.001535     -0.011121     -0.007500
   58 Atom     -1.047785     -0.008317      0.054337      0.049306
   59 Atom    -14.644236      0.000313      0.003044     -0.014083
   60 Atom    -14.711523     -0.000240      0.012554     -0.000813
   61 Atom     -1.042597      0.005621     -0.068413      0.021342
   62 Atom    -14.706445     -0.001730      0.014493      0.005321
   63 Atom     -1.043681      0.007993     -0.055311     -0.046528
   64 Atom    -14.614143     -0.005011      0.018195     -0.003428
   65 Atom    -22.363046     -0.005331      0.022493     -0.007289
   66 Atom    -18.309235      0.000409      0.006586     -0.000487
   67 Atom     -0.967415      0.003959     -0.012304      0.004179
   68 Atom     -0.973373     -0.014724     -0.010208     -0.005431
   69 Atom     -0.948856     -0.006751      0.003983      0.042074
 -----------------------------------------------------------------
 Leave Link  602 at Sat Jun 22 17:49:23 2024, MaxMem=  2684354560 cpu:               3.7 elap:               0.3
 (Enter /storage/apps/GAUSSIAN/G16_RevA03/g16/l701.exe)
[...]
     Eigenvalues ---    1.75937   1.77690   1.77732   1.86914   1.92731
     Eigenvalues ---    2.06664
 Quadratic step=5.700D+00 exceeds max=3.000D-01 adjusted using Lamda=-3.855D-01.
 Angle between NR and scaled steps=  82.19 degrees.
 Angle between quadratic step and forces=  22.48 degrees.
 Linear search not attempted -- first point.
 Variable       Old X    -DE/DX   Delta X   Delta X   Delta X     New X
                                 (Linear)    (Quad)   (Total)
    X1       -7.85059   0.00718   0.00000   0.01170   0.01170  -7.83889
    Y1        0.72598   0.00071   0.00000  -0.00156  -0.00156   0.72442
    Z1       12.69195  -0.06234   0.00000  -0.03712  -0.03712  12.65483
    X2       -7.48059   0.01103   0.00000   0.01458   0.01458  -7.46601
    Y2        0.81893   0.00025   0.00000  -0.00451  -0.00451   0.81442
    Z2       14.58704   0.05135   0.00000   0.04351   0.04351  14.63055
    X3       -5.64800  -0.00309   0.00000  -0.01039  -0.01039  -5.65839
    Y3       -0.40120   0.01252   0.00000  -0.00016  -0.00016  -0.40136
    Z3       11.42912  -0.01198   0.00000  -0.01549  -0.01549  11.41364
    X4       -8.09843   0.04985   0.00000   0.02668   0.02668  -8.07175
    Y4        3.37224  -0.01370   0.00000  -0.00429  -0.00429   3.36795
    Z4       11.55359   0.01395   0.00000   0.01246   0.01246  11.56605
    X5       -9.91690  -0.04785   0.00000  -0.04581  -0.04581  -9.96271
    Y5        4.04711   0.01505   0.00000   0.01198   0.01198   4.05909
    Z5       11.54409  -0.00340   0.00000  -0.00576  -0.00576  11.53833
    X6       -6.49362  -0.00471   0.00000   0.00462   0.00462  -6.48900
    Y6        5.18183  -0.01153   0.00000  -0.01727  -0.01727   5.16455
    Z6       12.83234   0.00120   0.00000  -0.00119  -0.00119  12.83115
    X7       -6.87340  -0.00116   0.00000  -0.00726  -0.00726  -6.88065
    Y7        5.34400  -0.00347   0.00000  -0.00760  -0.00760   5.33639
    Z7       14.63699  -0.01794   0.00000  -0.02289  -0.02289  14.61410
    X8       -6.95924   0.05296   0.00000   0.03122   0.03122  -6.92802
    Y8        3.06741   0.04320   0.00000   0.02613   0.02613   3.09354
    Z8        8.89173   0.03670   0.00000   0.02701   0.02701   8.91874
    X9       -8.22233  -0.03490   0.00000  -0.02891  -0.02891  -8.25124
    Y9        2.30631  -0.02002   0.00000  -0.01100  -0.01100   2.29531
    Z9        7.63563  -0.03254   0.00000  -0.02201  -0.02201   7.61362
   X10       -6.06503  -0.00591   0.00000  -0.00115  -0.00115  -6.06619
   Y10        5.41173  -0.01428   0.00000  -0.01090  -0.01090   5.40084
   Z10        7.92342   0.00693   0.00000   0.00500   0.00500   7.92841
   X11       -5.69231  -0.00094   0.00000   0.00049   0.00049  -5.69182
   Y11        6.47162  -0.00408   0.00000  -0.00348  -0.00348   6.46814
   Z11        9.38847  -0.00743   0.00000  -0.01094  -0.01094   9.37752
   X12       -4.74059  -0.06151   0.00000  -0.03622  -0.03622  -4.77681
   Y12        1.22507  -0.03788   0.00000  -0.02215  -0.02215   1.20292
   Z12        9.44283   0.00714   0.00000   0.01098   0.01098   9.45380
   X13       -3.18290   0.03983   0.00000   0.03388   0.03388  -3.14902
   Y13        2.20793   0.02569   0.00000   0.01917   0.01917   2.22709
   Z13       10.05636   0.01238   0.00000   0.01079   0.01079  10.06715
   X14       -3.90968   0.00499   0.00000  -0.00378  -0.00378  -3.91346
   Y14       -0.41744  -0.00608   0.00000   0.00106   0.00106  -0.41637
   Z14        7.32785  -0.00960   0.00000  -0.00079  -0.00079   7.32707
   X15       -1.38566  -0.04946   0.00000  -0.02838  -0.02838  -1.41404
   Y15       -0.48178  -0.02743   0.00000  -0.01251  -0.01251  -0.49429
   Z15        6.75615  -0.01447   0.00000  -0.00255  -0.00255   6.75360
   X16       -0.29747   0.02809   0.00000   0.02126   0.02126  -0.27622
   Y16        0.78831   0.03388   0.00000   0.03185   0.03185   0.82016
   Z16        7.70555   0.02868   0.00000   0.03271   0.03271   7.73825
   X17       -0.41895  -0.00174   0.00000   0.00234   0.00234  -0.41661
   Y17       -2.16232  -0.01507   0.00000  -0.00990  -0.00990  -2.17222
   Z17        5.07238  -0.01509   0.00000  -0.00463  -0.00463   5.06775
   X18       -2.12297  -0.00779   0.00000   0.00908   0.00908  -2.11389
   Y18       -3.75444   0.04162   0.00000   0.01237   0.01237  -3.74207
   Z18        3.72465   0.05215   0.00000   0.03747   0.03747   3.76211
   X19       -1.41111   0.02205   0.00000   0.02555   0.02555  -1.38556
   Y19       -5.16100  -0.03650   0.00000  -0.02998  -0.02998  -5.19098
   Z19        2.61788  -0.03435   0.00000  -0.03443  -0.03443   2.58344
   X20       -1.98110   0.01112   0.00000   0.01407   0.01407  -1.96703
   Y20       -1.91852  -0.00563   0.00000  -0.00266  -0.00266  -1.92118
   Z20        0.55335   0.04923   0.00000   0.04441   0.04441   0.59775
   X21       -4.68856   0.03698   0.00000   0.02137   0.02137  -4.66719
   Y21       -3.65125   0.02299   0.00000   0.01438   0.01438  -3.63687
   Z21        4.33780   0.01247   0.00000   0.00918   0.00918   4.34698
   X22       -5.93346  -0.03433   0.00000  -0.03172  -0.03172  -5.96519
   Y22       -4.83801  -0.03211   0.00000  -0.02884  -0.02884  -4.86685
   Z22        3.47311  -0.02295   0.00000  -0.02292  -0.02292   3.45020
   X23       -5.55247   0.05837   0.00000   0.02892   0.02892  -5.52356
   Y23       -2.02919   0.01965   0.00000   0.01968   0.01968  -2.00950
   Z23        6.12522   0.00424   0.00000   0.00928   0.00928   6.13449
   X24       -7.39979  -0.04854   0.00000  -0.04435  -0.04435  -7.44414
   Y24       -1.96131   0.00305   0.00000   0.00835   0.00835  -1.95296
   Z24        6.66568   0.01699   0.00000   0.02134   0.02134   6.68702
   X25        2.38061   0.03730   0.00000   0.01617   0.01617   2.39678
   Y25       -2.56566  -0.03512   0.00000  -0.01246  -0.01246  -2.57812
   Z25        4.70982  -0.02566   0.00000  -0.00527  -0.00527   4.70455
   X26        3.13492  -0.02625   0.00000  -0.02745  -0.02745   3.10748
   Y26       -4.32341   0.03960   0.00000   0.02197   0.02197  -4.30144
   Z26        3.33610   0.02915   0.00000   0.01292   0.01292   3.34902
   X27        4.07272  -0.01292   0.00000  -0.01507  -0.01507   4.05765
   Y27       -1.06446   0.00010   0.00000  -0.00617  -0.00617  -1.07063
   Z27        5.96402   0.00571   0.00000   0.00342   0.00342   5.96744
   X28        3.53504   0.00528   0.00000   0.00342   0.00342   3.53846
   Y28        0.25629  -0.00793   0.00000  -0.00979  -0.00979   0.24651
   Z28        7.25382  -0.00798   0.00000  -0.00875  -0.00875   7.24506
   X29        5.91273  -0.01150   0.00000  -0.02018  -0.02018   5.89255
   Y29       -1.64618   0.00335   0.00000   0.00594   0.00594  -1.64024
   Z29        6.01640  -0.00401   0.00000  -0.00894  -0.00894   6.00747
   X30        4.06608   0.02397   0.00000   0.01412   0.01412   4.08020
   Y30       -5.86459   0.02624   0.00000   0.02080   0.02080  -5.84379
   Z30       -3.66069  -0.00931   0.00000  -0.00890  -0.00890  -3.66959
   X31        6.18777  -0.03332   0.00000  -0.02244  -0.02244   6.16532
   Y31       -4.59680  -0.01324   0.00000  -0.00515  -0.00515  -4.60194
   Z31       -4.29812   0.01034   0.00000   0.00737   0.00737  -4.29075
   X32        8.30238   0.00843   0.00000  -0.01072  -0.01072   8.29166
   Y32       -5.87347   0.01401   0.00000   0.01276   0.01276  -5.86071
   Z32       -5.02445  -0.00058   0.00000   0.00553   0.00553  -5.01893
   X33        8.35662  -0.00270   0.00000  -0.00790  -0.00790   8.34872
   Y33       -7.78713   0.00935   0.00000   0.01790   0.01790  -7.76922
   Z33       -4.92623   0.00011   0.00000   0.00102   0.00102  -4.92521
   X34        9.91690  -0.01889   0.00000  -0.02593  -0.02593   9.89097
   Y34       -4.89096  -0.01469   0.00000  -0.01719  -0.01719  -4.90815
   Z34       -5.50569   0.00572   0.00000   0.00840   0.00840  -5.49729
   X35        6.31071   0.01856   0.00000  -0.00308  -0.00308   6.30763
   Y35       -1.99751  -0.02048   0.00000  -0.01658  -0.01658  -2.01408
   Z35       -4.27877  -0.00154   0.00000   0.00648   0.00648  -4.27229
   X36        8.05662  -0.02522   0.00000  -0.03721  -0.03721   8.01940
   Y36       -1.13719  -0.00359   0.00000  -0.00611  -0.00611  -1.14330
   Z36       -4.54854   0.00238   0.00000   0.00248   0.00248  -4.54606
   X37        4.25791   0.00743   0.00000  -0.00069  -0.00069   4.25722
   Y37       -0.49952   0.07874   0.00000   0.02462   0.02462  -0.47489
   Z37       -3.63326   0.00527   0.00000   0.00619   0.00619  -3.62707
   X38        4.54377  -0.01187   0.00000  -0.01492  -0.01492   4.52886
   Y38        1.90694  -0.07220   0.00000  -0.04914  -0.04914   1.85780
   Z38       -3.54121  -0.00120   0.00000   0.00229   0.00229  -3.53891
   X39        1.98272  -0.01565   0.00000  -0.00715  -0.00715   1.97557
   Y39       -1.82042   0.00009   0.00000   0.00369   0.00369  -1.81674
   Z39       -3.06273   0.00272   0.00000   0.00107   0.00107  -3.06166
   X40       -0.25440   0.00794   0.00000   0.00818   0.00818  -0.24622
   Y40       -0.43143  -0.00399   0.00000  -0.00165  -0.00165  -0.43308
   Z40       -2.53736  -0.00232   0.00000  -0.01097  -0.01097  -2.54833
   X41        0.06838  -0.00182   0.00000  -0.00124  -0.00124   0.06713
   Y41        1.39604  -0.00590   0.00000  -0.00781  -0.00781   1.38823
   Z41       -2.01523  -0.00444   0.00000  -0.00978  -0.00978  -2.02501
   X42       -2.34534  -0.00513   0.00000   0.00998   0.00998  -2.33536
   Y42       -1.71970   0.01144   0.00000   0.01462   0.01462  -1.70508
   Z42       -1.35070  -0.05324   0.00000  -0.03233  -0.03233  -1.38303
   X43       -2.60948   0.06163   0.00000   0.03477   0.03477  -2.57471
   Y43       -4.41503   0.02946   0.00000   0.01875   0.01875  -4.39629
   Z43       -2.42635   0.01474   0.00000   0.00184   0.00184  -2.42452
   X44       -3.90744  -0.03738   0.00000  -0.02923  -0.02923  -3.93667
   Y44       -5.39184  -0.02965   0.00000  -0.02576  -0.02576  -5.41759
   Z44       -1.38800   0.03273   0.00000   0.03721   0.03721  -1.35078
   X45       -3.26283  -0.01777   0.00000  -0.01343  -0.01343  -3.27626
   Y45       -4.32956   0.00474   0.00000   0.00928   0.00928  -4.32028
   Z45       -4.24876  -0.05074   0.00000  -0.05739  -0.05739  -4.30615
   X46       -0.17567   0.00120   0.00000   0.01466   0.01466  -0.16101
   Y46       -5.71930   0.00139   0.00000   0.00658   0.00658  -5.71271
   Z46       -2.31209   0.00039   0.00000   0.00139   0.00139  -2.31069
   X47       -0.17713   0.00384   0.00000   0.00903   0.00903  -0.16810
   Y47       -7.62407   0.00810   0.00000   0.01360   0.01360  -7.61046
   Z47       -2.56183  -0.00150   0.00000  -0.00392  -0.00392  -2.56575
   X48        1.97866   0.01558   0.00000   0.01745   0.01745   1.99611
   Y48       -4.43106  -0.00656   0.00000   0.00080   0.00080  -4.43027
   Z48       -3.04590  -0.00152   0.00000  -0.00030  -0.00030  -3.04619
   X49       -4.91003   0.06428   0.00000   0.03742   0.03742  -4.87261
   Y49       -0.21222   0.03187   0.00000   0.01773   0.01773  -0.19448
   Z49       -1.52140  -0.03139   0.00000  -0.02384  -0.02384  -1.54524
   X50       -5.65133  -0.02042   0.00000  -0.01015  -0.01015  -5.66148
   Y50       -0.06598   0.00469   0.00000   0.00709   0.00709  -0.05889
   Z50        0.25383   0.05136   0.00000   0.04785   0.04785   0.30169
   X51       -6.16451  -0.03543   0.00000  -0.03073  -0.03073  -6.19523
   Y51       -1.22458  -0.02914   0.00000  -0.02783  -0.02783  -1.25241
   Z51       -2.59075  -0.03235   0.00000  -0.04116  -0.04116  -2.63191
   X52       -4.67414  -0.00039   0.00000   0.00659   0.00659  -4.66755
   Y52        2.34950  -0.00622   0.00000  -0.00058  -0.00058   2.34892
   Z52       -2.53271   0.01615   0.00000   0.00679   0.00679  -2.52592
   X53       -5.17378   0.00259   0.00000   0.00236   0.00236  -5.17142
   Y53        3.76795  -0.00618   0.00000  -0.00628  -0.00628   3.76168
   Z53       -1.33365  -0.01050   0.00000  -0.01242  -0.01242  -1.34607
   X54       -4.21406   0.00030   0.00000  -0.00053  -0.00053  -4.21459
   Y54        4.03942  -0.01279   0.00000  -0.00179  -0.00179   4.03763
   Z54      -10.26961   0.02671   0.00000  -0.00271  -0.00271 -10.27232
   X55       -4.54689   0.00679   0.00000   0.00343   0.00343  -4.54346
   Y55        5.96158  -0.05433   0.00000  -0.03350  -0.03350   5.92808
   Z55       -8.43942  -0.01615   0.00000  -0.01757  -0.01757  -8.45698
   X56       -4.64962  -0.00337   0.00000  -0.00345  -0.00345  -4.65308
   Y56        7.78713   0.04980   0.00000   0.04456   0.04456   7.83168
   Z56       -9.04070  -0.01844   0.00000  -0.02321  -0.02321  -9.06391
   X57       -4.68805   0.00550   0.00000   0.00004   0.00004  -4.68801
   Y57        5.41851  -0.05819   0.00000  -0.03831  -0.03831   5.38020
   Z57       -5.93681  -0.01099   0.00000  -0.00123  -0.00123  -5.93804
   X58       -4.90695  -0.00606   0.00000  -0.00575  -0.00575  -4.91269
   Y58        6.83477   0.03882   0.00000   0.03251   0.03251   6.86728
   Z58       -4.65024   0.03586   0.00000   0.03595   0.03595  -4.61429
   X59       -4.53101  -0.00029   0.00000  -0.00458  -0.00458  -4.53559
   Y59        2.88108   0.00292   0.00000  -0.00013  -0.00013   2.88095
   Z59       -5.08140  -0.01502   0.00000   0.00181   0.00181  -5.07959
   X60       -4.20951  -0.00781   0.00000  -0.00942  -0.00942  -4.21893
   Y60        0.94620   0.05316   0.00000   0.03254   0.03254   0.97875
   Z60       -6.90570   0.02003   0.00000   0.01971   0.01971  -6.88600
   X61       -4.08591   0.00425   0.00000   0.00441   0.00441  -4.08151
   Y61       -0.89307  -0.04888   0.00000  -0.04382  -0.04382  -0.93689
   Z61       -6.35276   0.01601   0.00000   0.02088   0.02088  -6.33188
   X62       -4.04947  -0.00610   0.00000  -0.00682  -0.00682  -4.05629
   Y62        1.52132   0.06118   0.00000   0.03926   0.03926   1.56058
   Z62       -9.39958   0.00613   0.00000  -0.00053  -0.00053  -9.40011
   X63       -3.82669   0.00549   0.00000   0.00380   0.00380  -3.82289
   Y63        0.08251  -0.03986   0.00000  -0.03444  -0.03444   0.04807
   Z63      -10.65956  -0.03327   0.00000  -0.03155  -0.03155 -10.69111
   X64       -4.03099  -0.01463   0.00000  -0.00605  -0.00605  -4.03705
   Y64        4.69830   0.07826   0.00000   0.02618   0.02618   4.72448
   Z64      -12.94303  -0.05963   0.00000  -0.04255  -0.04255 -12.98558
   X65       -4.54769   0.01775   0.00000   0.00946   0.00946  -4.53823
   Y65        6.92941  -0.07342   0.00000  -0.04230  -0.04230   6.88711
   Z65      -13.74651   0.03189   0.00000   0.02162   0.02162 -13.72489
   X66       -3.27559   0.00500   0.00000  -0.00312  -0.00312  -3.27870
   Y66        2.89714  -0.00734   0.00000   0.00175   0.00175   2.89889
   Z66      -14.63699  -0.03945   0.00000  -0.02235  -0.02235 -14.65935
   X67       -2.94481  -0.00010   0.00000   0.00096   0.00096  -2.94385
   Y67        1.08992   0.00995   0.00000   0.01576   0.01576   1.10568
   Z67      -14.08966  -0.00224   0.00000  -0.00645  -0.00645 -14.09611
   X68       -9.49556  -0.00028   0.00000   0.00090   0.00090  -9.49466
   Y68       -0.46931   0.00055   0.00000   0.00345   0.00345  -0.46586
   Z68       12.36311  -0.00268   0.00000  -0.01359  -0.01359  12.34952
   X69       -3.12206  -0.00833   0.00000  -0.01360  -0.01360  -3.13567
   Y69        3.21586   0.00107   0.00000   0.00769   0.00769   3.22355
   Z69      -16.66619   0.06141   0.00000   0.07405   0.07405 -16.59214
         Item               Value     Threshold  Converged?
 Maximum Force            0.078737     0.000450     NO 
 RMS     Force            0.027575     0.000300     NO 
 Maximum Displacement     0.074046     0.001800     NO 
 RMS     Displacement     0.020854     0.001200     NO 
 Predicted change in Energy=-7.234923D-02
 GradGradGradGradGradGradGradGradGradGradGradGradGradGradGradGradGradGrad

 Leave Link  103 at Sat Jun 22 17:55:09 2024, MaxMem=  2684354560 cpu:               6.2 elap:               0.4
 (Enter /storage/apps/GAUSSIAN/G16_RevA03/g16/l9999.exe)

 Test job not archived.
 1\1\GINC-T076\Force\RM062X\def2TZVP\C24H30N9O6(1+)\LV87696\22-Jun-2024
 \0\\#P M062X/Def2TZVP scf=(direct,conver=8) EmpiricalDispersion=GD3 No
 Symm force Charge Prop=(Field,Read)\\Gaussian run using SANDER externa
 l interface, route from template gau_job.tpl\\1,1\C,-4.1543518384,0.38
 41730624,6.7162898085\H,-3.9585585138,0.4333575799,7.7191273218\O,-2.9
 887942725,-0.2123059999,6.0480312326\C,-4.2855035777,1.784511573,6.113
 8950259\H,-5.2477987605,2.1416383915,6.1088693493\O,-3.436276885,2.742
 1049874,6.7905841272\H,-3.6372442432,2.8279224545,7.7455637543\C,-3.68
 26736349,1.6232024344,4.7052985163\H,-4.3510713841,1.2204483408,4.0406
 020938\O,-3.2094762509,2.863766806,4.1928908347\H,-3.0122405959,3.4246
 32575,4.9681628953\C,-2.5086112719,0.648278217,4.9969292324\H,-1.68431
 8604,1.1683840457,5.3215977188\N,-2.0689143207,-0.2208972307,3.8777319
 634\C,-0.7332581062,-0.254944397,3.575199268\H,-0.157416811,0.41715525
 77,4.0775994936\C,-0.2216997248,-1.1442485794,2.6841884025\C,-1.123429
 2738,-1.9867639469,1.9709990113\H,-0.7467265694,-2.7310859453,1.385320
 2249\H,-1.0483528536,-1.0152388,0.2928186206\C,-2.4810772395,-1.932157
 4171,2.295465537\H,-3.1398542579,-2.560165439,1.8378930508\C,-2.938242
 4362,-1.0738002242,3.2413245976\H,-3.9158015738,-1.0378821375,3.527324
 8319\C,1.2597657221,-1.3576904209,2.492327307\O,1.6589308122,-2.287851
 3152,1.7653884741\N,2.1551923256,-0.5632894411,3.1560211573\H,1.870661
 8121,0.1356240979,3.8385543085\H,3.1288830629,-0.8711215032,3.18374239
 51\N,2.1516757885,-3.1034070195,-1.937153853\C,3.2744245013,-2.4325214
 643,-2.2744658977\N,4.3934297331,-3.1081081993,-2.6588267152\H,4.42213
 39349,-4.1207699224,-2.6068479669\H,5.2477987605,-2.5881839632,-2.9134
 878052\N,3.3394823151,-1.0570345756,-2.264229862\H,4.26337741,-0.60177
 6152,-2.4069814952\C,2.2531890499,-0.2643319839,-1.9226388761\O,2.4044
 620159,1.0091077952,-1.8739256815\C,1.0492086849,-0.9633255439,-1.6207
 269042\N,-0.1346208929,-0.2283054722,-1.3427135018\H,0.0361846714,0.73
 87521395,-1.0664148416\C,-1.2411012472,-0.9100246792,-0.7147580947\C,-
 1.3808773801,-2.3363356168,-1.2839699034\H,-2.0677277271,-2.8532372664
 ,-0.7344974659\H,-1.7266151314,-2.2911037546,-2.2483467192\N,-0.092962
 7342,-3.0265212046,-1.2235027102\H,-0.0937318435,-4.0344825026,-1.3556
 600531\C,1.0470593005,-2.3448178184,-1.6118191442\C,-2.5982759018,-0.1
 122995579,-0.8050916837\H,-2.99055626,-0.0349158642,0.1343235496\H,-3.
 2621163426,-0.648020743,-1.3709663446\N,-2.4734466846,1.2433026254,-1.
 3402537764\H,-2.7378475583,1.9939152365,-0.7057368102\C,-2.2299863186,
 2.1375700088,-5.4344445008\C,-2.4061096076,3.1547323334,-4.465946979\H
 ,-2.4604750693,4.1207699224,-4.7841331933\C,-2.4808114166,2.8673530238
 ,-3.1416260451\H,-2.5966441797,3.6168060437,-2.4608019634\C,-2.3977062
 131,1.5246016921,-2.6889611561\C,-2.2275779933,0.5007087758,-3.6543407
 017\H,-2.1621729749,-0.4725929795,-3.3617367668\C,-2.1428883448,0.8050
 469163,-4.9740457711\H,-2.0249959645,0.0436615346,-5.6407972064\C,-2.1
 33109743,2.4862345861,-6.8491569749\O,-2.4065339718,3.666888333,-7.274
 3419793\N,-1.7333658677,1.5330978821,-7.7455637543\H,-1.5583259579,0.5
 767593888,-7.4559268657\H,-5.0248331609,-0.2483473591,6.5422777878\H,-
 1.6521249885,1.7017623366,-8.8193664463\\Version=ES64L-G16RevA.03\HF=-
 1876.4307486\RMSD=2.945e-09\RMSF=2.757e-02\Dipole=-0.9328912,-3.278607
 5,8.1999647\Quadrupole=15.6657307,-49.2611743,33.5954436,-3.9038704,-6
 1.9472207,50.2666567\PG=C01 [X(C24H30N9O6)]\\@


 THE DIFFICULTY IN SCIENCE IS OFTEN NOT SO MUCH HOW
 TO MAKE A DISCOVERY BUT RATHER TO KNOW ONE HAS MADE IT.

                                                   -- J. D. BERNAL
 Job cpu time:       0 days  8 hours 20 minutes 51.1 seconds.
 Elapsed time:       0 days  0 hours 31 minutes 23.2 seconds.
 File lengths (MBytes):  RWF=   1039 Int=      0 D2E=      0 Chk=    113 Scr=      1
 Normal termination of Gaussian 16 at Sat Jun 22 17:55:09 2024.
