 Entering Gaussian System, Link 0=g16
 Initial command:
 /storage/apps/GAUSSIAN/G16_RevA03/g16/l1.exe "/scratch/tmp/2140831/Gau-71122.inp" -scrdir="/scratch/tmp/2140831/"
 Entering Link 1 = /storage/apps/GAUSSIAN/G16_RevA03/g16/l1.exe PID=     71123.
  
 Copyright (c) 1988,1990,1992,1993,1995,1998,2003,2009,2016,
            Gaussian, Inc.  All Rights Reserved.
  
 This is part of the Gaussian(R) 16 program.  It is based on
 the Gaussian(R) 09 system (copyright 2009, Gaussian, Inc.),
 the Gaussian(R) 03 system (copyright 2003, Gaussian, Inc.),
 the Gaussian(R) 98 system (copyright 1998, Gaussian, Inc.),
 the Gaussian(R) 94 system (copyright 1995, Gaussian, Inc.),
 the Gaussian 92(TM) system (copyright 1992, Gaussian, Inc.),
 the Gaussian 90(TM) system (copyright 1990, Gaussian, Inc.),
 the Gaussian 88(TM) system (copyright 1988, Gaussian, Inc.),
 the Gaussian 86(TM) system (copyright 1986, Carnegie Mellon
 University), and the Gaussian 82(TM) system (copyright 1983,
 Carnegie Mellon University). Gaussian is a federally registered
 trademark of Gaussian, Inc.
  
 This software contains proprietary and confidential information,
 including trade secrets, belonging to Gaussian, Inc.
  
 This software is provided under written license and may be
 used, copied, transmitted, or stored only in accord with that
 written license.
  
 The following legend is applicable only to US Government
 contracts under FAR:
  
                    RESTRICTED RIGHTS LEGEND
  
 Use, reproduction and disclosure by the US Government is
 subject to restrictions as set forth in subparagraphs (a)
 and (c) of the Commercial Computer Software - Restricted
 Rights clause in FAR 52.227-19.
  
 Gaussian, Inc.
 340 Quinnipiac St., Bldg. 40, Wallingford CT 06492
  
  
 ---------------------------------------------------------------
 Warning -- This program may not be used in any manner that
 competes with the business of Gaussian, Inc. or will provide
 assistance to any competitor of Gaussian, Inc.  The licensee
 of this program is prohibited from giving any competitor of
 Gaussian, Inc. access to this program.  By using this program,
 the user acknowledges that Gaussian, Inc. is engaged in the
 business of creating and licensing software in the field of
 computational chemistry and represents and warrants to the
 licensee that it is not a competitor of Gaussian, Inc. and that
 it will not use this program in any manner prohibited above.
 ---------------------------------------------------------------
  

 Cite this work as:
 Gaussian 16, Revision A.03,
 M. J. Frisch, G. W. Trucks, H. B. Schlegel, G. E. Scuseria, 
 M. A. Robb, J. R. Cheeseman, G. Scalmani, V. Barone, 
 G. A. Petersson, H. Nakatsuji, X. Li, M. Caricato, A. V. Marenich, 
 J. Bloino, B. G. Janesko, R. Gomperts, B. Mennucci, H. P. Hratchian, 
 J. V. Ortiz, A. F. Izmaylov, J. L. Sonnenberg, D. Williams-Young, 
 F. Ding, F. Lipparini, F. Egidi, J. Goings, B. Peng, A. Petrone, 
 T. Henderson, D. Ranasinghe, V. G. Zakrzewski, J. Gao, N. Rega, 
 G. Zheng, W. Liang, M. Hada, M. Ehara, K. Toyota, R. Fukuda, 
 J. Hasegawa, M. Ishida, T. Nakajima, Y. Honda, O. Kitao, H. Nakai, 
 T. Vreven, K. Throssell, J. A. Montgomery, Jr., J. E. Peralta, 
 F. Ogliaro, M. J. Bearpark, J. J. Heyd, E. N. Brothers, K. N. Kudin, 
 V. N. Staroverov, T. A. Keith, R. Kobayashi, J. Normand, 
 K. Raghavachari, A. P. Rendell, J. C. Burant, S. S. Iyengar, 
 J. Tomasi, M. Cossi, J. M. Millam, M. Klene, C. Adamo, R. Cammi, 
 J. W. Ochterski, R. L. Martin, K. Morokuma, O. Farkas, 
 J. B. Foresman, and D. J. Fox, Gaussian, Inc., Wallingford CT, 2016.
 
 ******************************************
 Gaussian 16:  ES64L-G16RevA.03 25-Dec-2016
                22-Jun-2024 
 ******************************************
 %chk=gau_job.chk
 %NProcShared=16
 Will use up to   16 processors via shared memory.
 %mem=20GB
 ----------------------------------------------------------------------
 #P M062X/Def2TZVP scf=(direct,conver=8) EmpiricalDispersion=GD3 NoSymm
  force Charge Prop=(Field,Read)
 ----------------------------------------------------------------------
 1/10=7,18=10,28=-2,30=1,38=1,125=101/1,3;
 2/12=2,15=1,17=6,18=5,29=2,40=1/2;
 3/5=44,7=101,11=2,25=1,30=1,71=1,74=-55,124=31/1,2,3;
 4//1;
 5/5=2,6=8,38=5/2;
 6/7=2,8=2,9=2,10=2,14=2,15=1,28=1/1,2;
 7/7=1,16=-2,29=1,30=1/1,2,3,16;
 1/10=7,18=10,28=-2,30=1/3;
 99/12=1/99;
 Leave Link    1 at Sat Jun 22 17:27:07 2024, MaxMem=  2684354560 cpu:               0.6 elap:               0.0
 (Enter /storage/apps/GAUSSIAN/G16_RevA03/g16/l101.exe)
 ----------------------------------------------------------------------
 Gaussian run using SANDER external interface, route from template gau_
 job.tpl
 ----------------------------------------------------------------------
 Symbolic Z-matrix:
 Charge =  1 Multiplicity = 1
 C                    -4.16622   0.39525   6.73645 
 H                    -3.98089   0.44582   7.74121 
 O                    -2.99205  -0.20024   6.08227 
 C                    -4.29225   1.79284   6.12756 
 H                    -5.25343   2.15294   6.11949 
 O                    -3.44024   2.75088   6.79953 
 H                    -3.63642   2.83862   7.75575 
 C                    -3.68768   1.62204   4.7203 
 H                    -4.35498   1.21545   4.05682 
 O                    -3.21257   2.85846   4.20107 
 H                    -3.01695   3.42474   4.97284 
 C                    -2.51404   0.64847   5.02156 
 H                    -1.68876   1.17173   5.3385 
 N                    -2.07507  -0.23685   3.91288 
 C                    -0.73986  -0.27343   3.6092 
 H                    -0.1658    0.41318   4.09369 
 C                    -0.22985  -1.18021   2.73456 
 C                    -1.13385  -2.04081   2.04922 
 H                    -0.75979  -2.77515   1.44969 
 H                    -1.01786  -0.98643   0.27059 
 C                    -2.48182  -1.97276   2.35756 
 H                    -3.1416   -2.60422   1.90622 
 C                    -2.94307  -1.09722   3.2894 
 H                    -3.92219  -1.05286   3.56874 
 C                     1.25221  -1.39467   2.53644 
 O                     1.6471   -2.34323   1.8324 
 N                     2.15027  -0.57829   3.16875 
 H                     1.869     0.13271   3.84017 
 H                     3.12548  -0.88226   3.19464 
 N                     2.14944  -3.10184  -1.95117 
 C                     3.27493  -2.43383  -2.28341 
 N                     4.39858  -3.1125   -2.64902 
 H                     4.42313  -4.12523  -2.59915 
 H                     5.25343  -2.59454  -2.90548 
 N                     3.34011  -1.0584   -2.28169 
 H                     4.26605  -0.60494  -2.4149 
 C                     2.2494   -0.26304  -1.95917 
 O                     2.40473   1.01047  -1.91058 
 C                     1.04079  -0.9592   -1.66969 
 N                    -0.15003  -0.22262  -1.41366 
 H                     0.02704   0.74526  -1.14259 
 C                    -1.23694  -0.90091  -0.73279 
 C                    -1.38617  -2.33094  -1.29369 
 H                    -2.06332  -2.84672  -0.73088 
 H                    -1.74875  -2.28752  -2.25187 
 N                    -0.09828  -3.02055  -1.25356 
 H                    -0.09837  -4.02987  -1.37192 
 C                     1.04076  -2.34027  -1.64417 
 C                    -2.60273  -0.11559  -0.83006 
 H                    -3.00537  -0.04823   0.10578 
 H                    -3.25559  -0.65394  -1.40601 
 N                    -2.48889   1.24388  -1.35763 
 H                    -2.75116   1.99151  -0.71899 
 C                    -2.23604   2.14262  -5.44874 
 C                    -2.41802   3.15933  -4.48085 
 H                    -2.47308   4.12523  -4.7993 
 C                    -2.497     2.87156  -3.1569 
 H                    -2.61687   3.6206   -2.47632 
 C                    -2.4114    1.52863  -2.70471 
 C                    -2.23742   0.50508  -3.67027 
 H                    -2.17059  -0.4682   -3.37816 
 C                    -2.14887   0.80982  -4.98904 
 H                    -2.02747   0.04887  -5.65565 
 C                    -2.13443   2.4894   -6.8624 
 O                    -2.40579   3.66991  -7.28999 
 N                    -1.73371   1.53391  -7.75575 
 H                    -1.55886   0.57856  -7.46304 
 H                    -5.03373  -0.23889   6.55373 
 H                    -1.65074   1.69938  -8.82991 
 
 ITRead=  0  0  0  0  0  0  0  0  0  0  0  0  0  0  0  0  0  0  0  0
 ITRead=  0  0  0  0  0  0  0  0  0  0  0  0  0  0  0  0  0  0  0  0
 ITRead=  0  0  0  0  0  0  0  0  0  0  0  0  0  0  0  0  0  0  0  0
 ITRead=  0  0  0  0  0  0  0  0  0
 MicOpt= -1 -1 -1 -1 -1 -1 -1 -1 -1 -1 -1 -1 -1 -1 -1 -1 -1 -1 -1 -1
 MicOpt= -1 -1 -1 -1 -1 -1 -1 -1 -1 -1 -1 -1 -1 -1 -1 -1 -1 -1 -1 -1
 MicOpt= -1 -1 -1 -1 -1 -1 -1 -1 -1 -1 -1 -1 -1 -1 -1 -1 -1 -1 -1 -1
 MicOpt= -1 -1 -1 -1 -1 -1 -1 -1 -1
 NAtoms=     69 NQM=       69 NQMF=       0 NMMI=      0 NMMIF=      0
                NMic=       0 NMicF=      0.
                    Isotopes and Nuclear Properties:
 (Nuclear quadrupole moments (NQMom) in fm**2, nuclear magnetic moments (NMagM)
  in nuclear magnetons)

  Atom         1           2           3           4           5           6           7           8           9          10
 IAtWgt=          12           1          16          12           1          16           1          12           1          16
 AtmWgt=  12.0000000   1.0078250  15.9949146  12.0000000   1.0078250  15.9949146   1.0078250  12.0000000   1.0078250  15.9949146
 NucSpn=           0           1           0           0           1           0           1           0           1           0
 AtZEff=  -0.0000000  -0.0000000  -0.0000000  -0.0000000  -0.0000000  -0.0000000  -0.0000000  -0.0000000  -0.0000000  -0.0000000
 NQMom=    0.0000000   0.0000000   0.0000000   0.0000000   0.0000000   0.0000000   0.0000000   0.0000000   0.0000000   0.0000000
 NMagM=    0.0000000   2.7928460   0.0000000   0.0000000   2.7928460   0.0000000   2.7928460   0.0000000   2.7928460   0.0000000
 AtZNuc=   6.0000000   1.0000000   8.0000000   6.0000000   1.0000000   8.0000000   1.0000000   6.0000000   1.0000000   8.0000000

  Atom        11          12          13          14          15          16          17          18          19          20
 IAtWgt=           1          12           1          14          12           1          12          12           1           1
 AtmWgt=   1.0078250  12.0000000   1.0078250  14.0030740  12.0000000   1.0078250  12.0000000  12.0000000   1.0078250   1.0078250
 NucSpn=           1           0           1           2           0           1           0           0           1           1
 AtZEff=  -0.0000000  -0.0000000  -0.0000000  -0.0000000  -0.0000000  -0.0000000  -0.0000000  -0.0000000  -0.0000000  -0.0000000
 NQMom=    0.0000000   0.0000000   0.0000000   2.0440000   0.0000000   0.0000000   0.0000000   0.0000000   0.0000000   0.0000000
 NMagM=    2.7928460   0.0000000   2.7928460   0.4037610   0.0000000   2.7928460   0.0000000   0.0000000   2.7928460   2.7928460
 AtZNuc=   1.0000000   6.0000000   1.0000000   7.0000000   6.0000000   1.0000000   6.0000000   6.0000000   1.0000000   1.0000000

  Atom        21          22          23          24          25          26          27          28          29          30
 IAtWgt=          12           1          12           1          12          16          14           1           1          14
 AtmWgt=  12.0000000   1.0078250  12.0000000   1.0078250  12.0000000  15.9949146  14.0030740   1.0078250   1.0078250  14.0030740
 NucSpn=           0           1           0           1           0           0           2           1           1           2
 AtZEff=  -0.0000000  -0.0000000  -0.0000000  -0.0000000  -0.0000000  -0.0000000  -0.0000000  -0.0000000  -0.0000000  -0.0000000
 NQMom=    0.0000000   0.0000000   0.0000000   0.0000000   0.0000000   0.0000000   2.0440000   0.0000000   0.0000000   2.0440000
 NMagM=    0.0000000   2.7928460   0.0000000   2.7928460   0.0000000   0.0000000   0.4037610   2.7928460   2.7928460   0.4037610
 AtZNuc=   6.0000000   1.0000000   6.0000000   1.0000000   6.0000000   8.0000000   7.0000000   1.0000000   1.0000000   7.0000000

  Atom        31          32          33          34          35          36          37          38          39          40
 IAtWgt=          12          14           1           1          14           1          12          16          12          14
 AtmWgt=  12.0000000  14.0030740   1.0078250   1.0078250  14.0030740   1.0078250  12.0000000  15.9949146  12.0000000  14.0030740
 NucSpn=           0           2           1           1           2           1           0           0           0           2
 AtZEff=  -0.0000000  -0.0000000  -0.0000000  -0.0000000  -0.0000000  -0.0000000  -0.0000000  -0.0000000  -0.0000000  -0.0000000
 NQMom=    0.0000000   2.0440000   0.0000000   0.0000000   2.0440000   0.0000000   0.0000000   0.0000000   0.0000000   2.0440000
 NMagM=    0.0000000   0.4037610   2.7928460   2.7928460   0.4037610   2.7928460   0.0000000   0.0000000   0.0000000   0.4037610
 AtZNuc=   6.0000000   7.0000000   1.0000000   1.0000000   7.0000000   1.0000000   6.0000000   8.0000000   6.0000000   7.0000000

  Atom        41          42          43          44          45          46          47          48          49          50
 IAtWgt=           1          12          12           1           1          14           1          12          12           1
 AtmWgt=   1.0078250  12.0000000  12.0000000   1.0078250   1.0078250  14.0030740   1.0078250  12.0000000  12.0000000   1.0078250
 NucSpn=           1           0           0           1           1           2           1           0           0           1
 AtZEff=  -0.0000000  -0.0000000  -0.0000000  -0.0000000  -0.0000000  -0.0000000  -0.0000000  -0.0000000  -0.0000000  -0.0000000
 NQMom=    0.0000000   0.0000000   0.0000000   0.0000000   0.0000000   2.0440000   0.0000000   0.0000000   0.0000000   0.0000000
 NMagM=    2.7928460   0.0000000   0.0000000   2.7928460   2.7928460   0.4037610   2.7928460   0.0000000   0.0000000   2.7928460
 AtZNuc=   1.0000000   6.0000000   6.0000000   1.0000000   1.0000000   7.0000000   1.0000000   6.0000000   6.0000000   1.0000000

  Atom        51          52          53          54          55          56          57          58          59          60
 IAtWgt=           1          14           1          12          12           1          12           1          12          12
 AtmWgt=   1.0078250  14.0030740   1.0078250  12.0000000  12.0000000   1.0078250  12.0000000   1.0078250  12.0000000  12.0000000
 NucSpn=           1           2           1           0           0           1           0           1           0           0
 AtZEff=  -0.0000000  -0.0000000  -0.0000000  -0.0000000  -0.0000000  -0.0000000  -0.0000000  -0.0000000  -0.0000000  -0.0000000
 NQMom=    0.0000000   2.0440000   0.0000000   0.0000000   0.0000000   0.0000000   0.0000000   0.0000000   0.0000000   0.0000000
 NMagM=    2.7928460   0.4037610   2.7928460   0.0000000   0.0000000   2.7928460   0.0000000   2.7928460   0.0000000   0.0000000
 AtZNuc=   1.0000000   7.0000000   1.0000000   6.0000000   6.0000000   1.0000000   6.0000000   1.0000000   6.0000000   6.0000000

  Atom        61          62          63          64          65          66          67          68          69
 IAtWgt=           1          12           1          12          16          14           1           1           1
 AtmWgt=   1.0078250  12.0000000   1.0078250  12.0000000  15.9949146  14.0030740   1.0078250   1.0078250   1.0078250
 NucSpn=           1           0           1           0           0           2           1           1           1
 AtZEff=  -0.0000000  -0.0000000  -0.0000000  -0.0000000  -0.0000000  -0.0000000  -0.0000000  -0.0000000  -0.0000000
 NQMom=    0.0000000   0.0000000   0.0000000   0.0000000   0.0000000   2.0440000   0.0000000   0.0000000   0.0000000
 NMagM=    2.7928460   0.0000000   2.7928460   0.0000000   0.0000000   0.4037610   2.7928460   2.7928460   2.7928460
 AtZNuc=   1.0000000   6.0000000   1.0000000   6.0000000   8.0000000   7.0000000   1.0000000   1.0000000   1.0000000
 Background charge distribution read from input stream:
 Leave Link  101 at Sat Jun 22 17:27:07 2024, MaxMem=  2684354560 cpu:               1.6 elap:               0.1
 (Enter /storage/apps/GAUSSIAN/G16_RevA03/g16/l103.exe)

 GradGradGradGradGradGradGradGradGradGradGradGradGradGradGradGradGradGrad
 Berny optimization.
 Initialization pass.
 Trust Radius=3.00D-01 FncErr=1.00D-07 GrdErr=1.00D-07 EigMax=2.50D+02 EigMin=1.00D-04
 Number of steps in this run=      2 maximum allowed number of steps=      2.
 GradGradGradGradGradGradGradGradGradGradGradGradGradGradGradGradGradGrad

 Leave Link  103 at Sat Jun 22 17:27:07 2024, MaxMem=  2684354560 cpu:               0.3 elap:               0.0
 (Enter /storage/apps/GAUSSIAN/G16_RevA03/g16/l202.exe)
 Symmetry turned off by external request.
 Stoichiometry    C24H30N9O6(1+)
 Framework group  C1[X(C24H30N9O6)]
 Deg. of freedom   201
 Full point group                 C1      NOp   1
                          Input orientation:                          
 ---------------------------------------------------------------------
 Center     Atomic      Atomic             Coordinates (Angstroms)
 Number     Number       Type             X           Y           Z
 ---------------------------------------------------------------------
      1          6           0       -4.166222    0.395249    6.736445
      2          1           0       -3.980886    0.445820    7.741206
      3          8           0       -2.992049   -0.200240    6.082267
      4          6           0       -4.292248    1.792840    6.127562
      5          1           0       -5.253432    2.152942    6.119485
      6          8           0       -3.440241    2.750884    6.799532
      7          1           0       -3.636416    2.838619    7.755745
      8          6           0       -3.687680    1.622042    4.720303
      9          1           0       -4.354976    1.215448    4.056815
     10          8           0       -3.212566    2.858460    4.201075
     11          1           0       -3.016947    3.424735    4.972842
     12          6           0       -2.514044    0.648466    5.021565
     13          1           0       -1.688756    1.171729    5.338498
     14          7           0       -2.075069   -0.236849    3.912879
     15          6           0       -0.739861   -0.273433    3.609198
     16          1           0       -0.165800    0.413180    4.093686
     17          6           0       -0.229852   -1.180207    2.734561
     18          6           0       -1.133849   -2.040809    2.049216
     19          1           0       -0.759786   -2.775155    1.449687
     20          1           0       -1.017862   -0.986431    0.270591
     21          6           0       -2.481823   -1.972762    2.357563
     22          1           0       -3.141597   -2.604216    1.906218
     23          6           0       -2.943068   -1.097216    3.289399
     24          1           0       -3.922195   -1.052855    3.568741
     25          6           0        1.252207   -1.394668    2.536444
     26          8           0        1.647100   -2.343229    1.832402
     27          7           0        2.150269   -0.578292    3.168753
     28          1           0        1.868998    0.132714    3.840168
     29          1           0        3.125476   -0.882257    3.194641
     30          7           0        2.149435   -3.101841   -1.951173
     31          6           0        3.274933   -2.433834   -2.283405
     32          7           0        4.398580   -3.112499   -2.649018
     33          1           0        4.423135   -4.125231   -2.599147
     34          1           0        5.253432   -2.594536   -2.905485
     35          7           0        3.340106   -1.058404   -2.281691
     36          1           0        4.266052   -0.604938   -2.414896
     37          6           0        2.249397   -0.263041   -1.959171
     38          8           0        2.404730    1.010465   -1.910579
     39          6           0        1.040793   -0.959201   -1.669694
     40          7           0       -0.150028   -0.222625   -1.413657
     41          1           0        0.027042    0.745257   -1.142593
     42          6           0       -1.236944   -0.900909   -0.732791
     43          6           0       -1.386170   -2.330940   -1.293688
     44          1           0       -2.063322   -2.846722   -0.730880
     45          1           0       -1.748751   -2.287517   -2.251867
     46          7           0       -0.098281   -3.020547   -1.253565
     47          1           0       -0.098372   -4.029871   -1.371919
     48          6           0        1.040762   -2.340272   -1.644171
     49          6           0       -2.602733   -0.115591   -0.830059
     50          1           0       -3.005371   -0.048232    0.105777
     51          1           0       -3.255586   -0.653941   -1.406011
     52          7           0       -2.488890    1.243884   -1.357633
     53          1           0       -2.751161    1.991511   -0.718989
     54          6           0       -2.236039    2.142621   -5.448743
     55          6           0       -2.418019    3.159326   -4.480845
     56          1           0       -2.473082    4.125231   -4.799299
     57          6           0       -2.497002    2.871562   -3.156898
     58          1           0       -2.616873    3.620605   -2.476319
     59          6           0       -2.411399    1.528632   -2.704714
     60          6           0       -2.237423    0.505083   -3.670267
     61          1           0       -2.170594   -0.468203   -3.378155
     62          6           0       -2.148871    0.809823   -4.989045
     63          1           0       -2.027467    0.048871   -5.655646
     64          6           0       -2.134426    2.489396   -6.862402
     65          8           0       -2.405789    3.669915   -7.289994
     66          7           0       -1.733709    1.533908   -7.755745
     67          1           0       -1.558862    0.578558   -7.463036
     68          1           0       -5.033735   -0.238893    6.553729
     69          1           0       -1.650740    1.699382   -8.829912
 ---------------------------------------------------------------------
 Rotational constants (GHZ):           0.1085828           0.0512177           0.0387042
 Leave Link  202 at Sat Jun 22 17:27:07 2024, MaxMem=  2684354560 cpu:               0.2 elap:               0.0
 (Enter /storage/apps/GAUSSIAN/G16_RevA03/g16/l301.exe)
 Standard basis: def2TZVP (5D, 7F)
 Ernie: Thresh=  0.10000D-02 Tol=  0.10000D-05 Strict=F.
  1389 basis functions,  2229 primitive gaussians,  1584 cartesian basis functions
   142 alpha electrons      142 beta electrons
       nuclear repulsion energy      4415.2458267688 Hartrees.
 IExCor= 4336 DFT=T Ex+Corr=M062X ExCW=0 ScaHFX=  0.540000
 ScaDFX=  1.000000  1.000000  1.000000  1.000000 ScalE2=  1.000000  1.000000
 IRadAn=      5 IRanWt=     -1 IRanGd=            0 ICorTp=0 IEmpDi=131
 NAtoms=   69 NActive=   69 NUniq=   69 SFac= 1.00D+00 NAtFMM=   60 NAOKFM=T Big=T
 Integral buffers will be    131072 words long.
 Raffenetti 2 integral format.
 Two-electron integral symmetry is turned off.
 R6Disp:  Grimme-D3 Dispersion energy=       -0.0065165971 Hartrees.
 Nuclear repulsion after empirical dispersion term =     4415.2393101716 Hartrees.
 Leave Link  301 at Sat Jun 22 17:27:07 2024, MaxMem=  2684354560 cpu:               0.9 elap:               0.1
 (Enter /storage/apps/GAUSSIAN/G16_RevA03/g16/l302.exe)
 NPDir=0 NMtPBC=     1 NCelOv=     1 NCel=       1 NClECP=     1 NCelD=      1
         NCelK=      1 NCelE2=     1 NClLst=     1 CellRange=     0.0.
 One-electron integrals computed using PRISM.
   1 Symmetry operations used in ECPInt.
 ECPInt:  NShTT=  150975 NPrTT=  462228 LenC2=  106869 LenP2D=  215980.
 LDataN:  DoStor=T MaxTD1= 6 Len=  172
 NBasis=  1389 RedAO= T EigKep=  6.02D-06  NBF=  1389
 NBsUse=  1389 1.00D-06 EigRej= -1.00D+00 NBFU=  1389
 Precomputing XC quadrature grid using
 IXCGrd= 4 IRadAn=           5 IRanWt=          -1 IRanGd=           0 AccXCQ= 0.00D+00.
 Generated NRdTot=       0 NPtTot=           0 NUsed=           0 NTot=          32
 NSgBfM=  1484  1484  1484  1484  1484 MxSgAt=    69 MxSgA2=    69.
 Leave Link  302 at Sat Jun 22 17:27:10 2024, MaxMem=  2684354560 cpu:              43.8 elap:               2.8
 (Enter /storage/apps/GAUSSIAN/G16_RevA03/g16/l303.exe)
 DipDrv:  MaxL=1.
 Leave Link  303 at Sat Jun 22 17:27:10 2024, MaxMem=  2684354560 cpu:               4.0 elap:               0.3
 (Enter /storage/apps/GAUSSIAN/G16_RevA03/g16/l401.exe)
 ExpMin= 9.52D-02 ExpMax= 2.70D+04 ExpMxC= 9.22D+02 IAcc=3 IRadAn=         5 AccDes= 0.00D+00
 Harris functional with IExCor= 1009 and IRadAn=       5 diagonalized for initial guess.
 HarFok:  IExCor= 1009 AccDes= 0.00D+00 IRadAn=         5 IDoV= 1 UseB2=F ITyADJ=14
 ICtDFT=  3500011 ScaDFX=  1.000000  1.000000  1.000000  1.000000
 FoFCou: FMM=F IPFlag=           0 FMFlag=      100000 FMFlg1=        2001
         NFxFlg=           0 DoJE=T BraDBF=F KetDBF=T FulRan=T
         wScrn=  0.000000 ICntrl=       500 IOpCl=  0 I1Cent=   200000004 NGrid=           0
         NMat0=    1 NMatS0=      1 NMatT0=    0 NMatD0=    1 NMtDS0=    0 NMtDT0=    0
 Symmetry not used in FoFCou.
 Harris En= -1875.51158748614    
 JPrj=0 DoOrth=F DoCkMO=F.
 Leave Link  401 at Sat Jun 22 17:27:17 2024, MaxMem=  2684354560 cpu:             103.6 elap:               6.5
 (Enter /storage/apps/GAUSSIAN/G16_RevA03/g16/l502.exe)
 Two-electron integral symmetry not used.
 Closed shell SCF:
 Using DIIS extrapolation, IDIIS=  1040.
 NGot=  2684354560 LenX=  2679300873 LenY=  2676790233
 Requested convergence on RMS density matrix=1.00D-08 within 128 cycles.
 Requested convergence on MAX density matrix=1.00D-06.
 Requested convergence on             energy=1.00D-06.
 No special actions if energy rises.
 Fock matrices will be formed incrementally for  20 cycles.
 Integral accuracy reduced to 1.0D-05 until final iterations.

 Cycle   1  Pass 0  IDiag  1:
 FoFJK:  IHMeth= 1 ICntrl=       0 DoSepK=F KAlg= 0 I1Cent=           0 FoldK=F
 IRaf= 690000000 NMat=       1 IRICut=       1 DoRegI=T DoRafI=F ISym2E= 0 IDoP0=0 IntGTp=1.
 FoFCou: FMM=T IPFlag=           0 FMFlag=      100000 FMFlg1=        2001
         NFxFlg=           0 DoJE=F BraDBF=F KetDBF=F FulRan=T
         wScrn=  0.000000 ICntrl=         0 IOpCl=  0 I1Cent=           0 NGrid=           0
         NMat0=    1 NMatS0=      1 NMatT0=    0 NMatD0=    1 NMtDS0=    0 NMtDT0=    0
 Symmetry not used in FoFCou.
 FMM levels:  10  Number of levels for PrismC:   9
 E= -1875.45832578999    
 DIIS: error= 1.61D-02 at cycle   1 NSaved=   1.
 NSaved= 1 IEnMin= 1 EnMin= -1875.45832578999     IErMin= 1 ErrMin= 1.61D-02
 ErrMax= 1.61D-02  0.00D+00 EMaxC= 1.00D-01 BMatC= 1.38D+00 BMatP= 1.38D+00
 IDIUse=3 WtCom= 8.39D-01 WtEn= 1.61D-01
 Coeff-Com:  0.100D+01
 Coeff-En:   0.100D+01
 Coeff:      0.100D+01
 Gap=    -0.007 Goal=   None    Shift=    0.000
 GapD=   -0.007 DampG=0.250 DampE=0.500 DampFc=0.2500 IDamp=-1.
 Damping current iteration by 2.50D-01
 RMSDP=5.20D+01 MaxDP=1.07D+04              OVMax= 9.98D-01

 Problem detected with inexpensive integrals.
 Switching to full accuracy and repeating last cycle.
 Cycle   2  Pass 1  IDiag  1:
 E= -1875.45845401205     Delta-E=       -0.000128222061 Rises=F Damp=F
 DIIS: error= 1.61D-02 at cycle   1 NSaved=   1.
 NSaved= 1 IEnMin= 1 EnMin= -1875.45845401205     IErMin= 1 ErrMin= 1.61D-02
 ErrMax= 1.61D-02  0.00D+00 EMaxC= 1.00D-01 BMatC= 1.38D+00 BMatP= 1.38D+00
 IDIUse=3 WtCom= 8.39D-01 WtEn= 1.61D-01
 Coeff-Com:  0.100D+01
 Coeff-En:   0.100D+01
 Coeff:      0.100D+01
 Gap=    -0.007 Goal=   None    Shift=    0.000
 GapD=   -0.007 DampG=0.250 DampE=0.500 DampFc=0.2500 IDamp=-1.
 Damping current iteration by 2.50D-01
 RMSDP=4.10D-03 MaxDP=1.23D+00 DE=-1.28D-04 OVMax= 9.04D-01

 Cycle   3  Pass 1  IDiag  1:
 RMSU=  1.02D-03    CP:  1.01D+00
 E= -1875.69027653093     Delta-E=       -0.231822518876 Rises=F Damp=T
 DIIS: error= 9.69D-03 at cycle   2 NSaved=   2.
 NSaved= 2 IEnMin= 2 EnMin= -1875.69027653093     IErMin= 2 ErrMin= 9.69D-03
 ErrMax= 9.69D-03  0.00D+00 EMaxC= 1.00D-01 BMatC= 4.53D-01 BMatP= 1.38D+00
 IDIUse=3 WtCom= 9.03D-01 WtEn= 9.69D-02
 Coeff-Com: -0.627D+00 0.163D+01
 Coeff-En:   0.627D-01 0.937D+00
 Coeff:     -0.560D+00 0.156D+01
 Gap=     0.255 Goal=   None    Shift=    0.000
 GapD=    0.255 DampG=1.000 DampE=1.000 DampFc=1.0000 IDamp=-1.
 RMSDP=1.17D-03 MaxDP=1.44D-01 DE=-2.32D-01 OVMax= 6.95D-01

 Cycle   4  Pass 1  IDiag  1:
 RMSU=  1.17D-03    CP:  1.00D+00  1.08D+00
 E= -1875.89647568404     Delta-E=       -0.206199153108 Rises=F Damp=F
 DIIS: error= 1.61D-02 at cycle   3 NSaved=   3.
 NSaved= 3 IEnMin= 3 EnMin= -1875.89647568404     IErMin= 2 ErrMin= 9.69D-03
 ErrMax= 1.61D-02  0.00D+00 EMaxC= 1.00D-01 BMatC= 5.54D-01 BMatP= 4.53D-01
 IDIUse=2 WtCom= 0.00D+00 WtEn= 1.00D+00
 Coeff-En:   0.000D+00 0.346D+00 0.654D+00
 Coeff:      0.000D+00 0.346D+00 0.654D+00
 Gap=     0.314 Goal=   None    Shift=    0.000
 RMSDP=1.79D-03 MaxDP=2.44D-01 DE=-2.06D-01 OVMax= 9.90D-01

 Cycle   5  Pass 1  IDiag  1:
 RMSU=  1.49D-03    CP:  9.98D-01  1.73D+00  3.80D-01
 E= -1870.01424199221     Delta-E=        5.882233691826 Rises=F Damp=F
 DIIS: error= 4.14D-02 at cycle   4 NSaved=   4.
 NSaved= 4 IEnMin= 3 EnMin= -1875.89647568404     IErMin= 2 ErrMin= 9.69D-03
 ErrMax= 4.14D-02  0.00D+00 EMaxC= 1.00D-01 BMatC= 2.53D+00 BMatP= 4.53D-01
 IDIUse=2 WtCom= 0.00D+00 WtEn= 1.00D+00
 Coeff-En:   0.000D+00 0.000D+00 0.851D+00 0.149D+00
 Coeff:      0.000D+00 0.000D+00 0.851D+00 0.149D+00
 Gap=    -0.129 Goal=   None    Shift=    0.000
 RMSDP=1.88D-03 MaxDP=5.69D-01 DE= 5.88D+00 OVMax= 9.99D-01

 Cycle   6  Pass 1  IDiag  1:
 RMSU=  1.20D-03    CP:  1.01D+00  1.18D+00  5.07D-01  1.07D-01
 E= -1876.30056285948     Delta-E=       -6.286320867270 Rises=F Damp=F
 DIIS: error= 8.41D-03 at cycle   5 NSaved=   5.
 NSaved= 5 IEnMin= 5 EnMin= -1876.30056285948     IErMin= 5 ErrMin= 8.41D-03
 ErrMax= 8.41D-03  0.00D+00 EMaxC= 1.00D-01 BMatC= 1.69D-01 BMatP= 4.53D-01
 IDIUse=3 WtCom= 9.16D-01 WtEn= 8.41D-02
 Coeff-Com: -0.136D+00 0.281D+00 0.372D+00 0.437D-01 0.439D+00
 Coeff-En:   0.000D+00 0.000D+00 0.160D+00 0.000D+00 0.840D+00
 Coeff:     -0.124D+00 0.257D+00 0.354D+00 0.400D-01 0.472D+00
 Gap=     0.192 Goal=   None    Shift=    0.000
 RMSDP=8.07D-04 MaxDP=3.59D-01 DE=-6.29D+00 OVMax= 1.27D-01

 Cycle   7  Pass 1  IDiag  1:
 RMSU=  4.32D-04    CP:  1.01D+00  1.08D+00  6.60D-01  1.25D-01  4.58D-01
 E= -1876.39665298674     Delta-E=       -0.096090127263 Rises=F Damp=F
 DIIS: error= 3.78D-03 at cycle   6 NSaved=   6.
 NSaved= 6 IEnMin= 6 EnMin= -1876.39665298674     IErMin= 6 ErrMin= 3.78D-03
 ErrMax= 3.78D-03  0.00D+00 EMaxC= 1.00D-01 BMatC= 3.89D-02 BMatP= 1.69D-01
 IDIUse=3 WtCom= 9.62D-01 WtEn= 3.78D-02
 Coeff-Com: -0.124D+00 0.175D+00 0.192D-01-0.209D-02 0.244D+00 0.687D+00
 Coeff-En:   0.000D+00 0.000D+00 0.000D+00 0.000D+00 0.208D+00 0.792D+00
 Coeff:     -0.119D+00 0.169D+00 0.185D-01-0.201D-02 0.243D+00 0.691D+00
 Gap=     0.086 Goal=   None    Shift=    0.000
 RMSDP=2.68D-04 MaxDP=1.18D-01 DE=-9.61D-02 OVMax= 5.12D-02

 Cycle   8  Pass 1  IDiag  1:
 RMSU=  1.28D-04    CP:  1.01D+00  1.15D+00  5.84D-01  1.27D-01  6.31D-01
                    CP:  9.76D-01
 E= -1876.43069064987     Delta-E=       -0.034037663127 Rises=F Damp=F
 DIIS: error= 7.97D-04 at cycle   7 NSaved=   7.
 NSaved= 7 IEnMin= 7 EnMin= -1876.43069064987     IErMin= 7 ErrMin= 7.97D-04
 ErrMax= 7.97D-04  0.00D+00 EMaxC= 1.00D-01 BMatC= 1.32D-03 BMatP= 3.89D-02
 IDIUse=3 WtCom= 9.92D-01 WtEn= 7.97D-03
 Coeff-Com: -0.589D-01 0.824D-01-0.209D-01 0.166D-03 0.490D-01 0.285D+00
 Coeff-Com:  0.664D+00
 Coeff-En:   0.000D+00 0.000D+00 0.000D+00 0.000D+00 0.000D+00 0.000D+00
 Coeff-En:   0.100D+01
 Coeff:     -0.585D-01 0.818D-01-0.208D-01 0.164D-03 0.486D-01 0.282D+00
 Coeff:      0.667D+00
 Gap=     0.085 Goal=   None    Shift=    0.000
 RMSDP=5.06D-05 MaxDP=7.63D-03 DE=-3.40D-02 OVMax= 2.04D-02

 Cycle   9  Pass 1  IDiag  1:
 RMSU=  4.13D-05    CP:  1.01D+00  1.16D+00  5.75D-01  1.29D-01  6.20D-01
                    CP:  1.02D+00  1.00D+00
 E= -1876.43208679680     Delta-E=       -0.001396146929 Rises=F Damp=F
 DIIS: error= 4.07D-04 at cycle   8 NSaved=   8.
 NSaved= 8 IEnMin= 8 EnMin= -1876.43208679680     IErMin= 8 ErrMin= 4.07D-04
 ErrMax= 4.07D-04  0.00D+00 EMaxC= 1.00D-01 BMatC= 4.47D-04 BMatP= 1.32D-03
 IDIUse=3 WtCom= 9.96D-01 WtEn= 4.07D-03
 Coeff-Com: -0.188D-01 0.270D-01-0.260D-01-0.302D-03-0.235D-01 0.425D-01
 Coeff-Com:  0.362D+00 0.637D+00
 Coeff-En:   0.000D+00 0.000D+00 0.000D+00 0.000D+00 0.000D+00 0.000D+00
 Coeff-En:   0.000D+00 0.100D+01
 Coeff:     -0.187D-01 0.269D-01-0.259D-01-0.301D-03-0.234D-01 0.423D-01
 Coeff:      0.360D+00 0.639D+00
 Gap=     0.086 Goal=   None    Shift=    0.000
 RMSDP=4.35D-05 MaxDP=1.28D-02 DE=-1.40D-03 OVMax= 1.33D-02

 Cycle  10  Pass 1  IDiag  1:
 RMSU=  2.51D-05    CP:  1.01D+00  1.15D+00  5.66D-01  1.31D-01  6.32D-01
                    CP:  1.06D+00  1.20D+00  1.03D+00
 E= -1876.43263981984     Delta-E=       -0.000553023035 Rises=F Damp=F
 DIIS: error= 1.29D-04 at cycle   9 NSaved=   9.
 NSaved= 9 IEnMin= 9 EnMin= -1876.43263981984     IErMin= 9 ErrMin= 1.29D-04
 ErrMax= 1.29D-04  0.00D+00 EMaxC= 1.00D-01 BMatC= 3.18D-05 BMatP= 4.47D-04
 IDIUse=3 WtCom= 9.99D-01 WtEn= 1.29D-03
 Coeff-Com: -0.255D-02 0.478D-02-0.412D-02 0.905D-04-0.125D-01-0.201D-01
 Coeff-Com:  0.261D-01 0.206D+00 0.803D+00
 Coeff-En:   0.000D+00 0.000D+00 0.000D+00 0.000D+00 0.000D+00 0.000D+00
 Coeff-En:   0.000D+00 0.000D+00 0.100D+01
 Coeff:     -0.254D-02 0.478D-02-0.412D-02 0.904D-04-0.125D-01-0.201D-01
 Coeff:      0.260D-01 0.205D+00 0.803D+00
 Gap=     0.087 Goal=   None    Shift=    0.000
 RMSDP=1.77D-05 MaxDP=2.75D-03 DE=-5.53D-04 OVMax= 9.44D-03

 Cycle  11  Pass 1  IDiag  1:
 RMSU=  1.08D-05    CP:  1.01D+00  1.15D+00  5.63D-01  1.31D-01  6.29D-01
                    CP:  1.07D+00  1.24D+00  1.26D+00  1.22D+00
 E= -1876.43272304433     Delta-E=       -0.000083224497 Rises=F Damp=F
 DIIS: error= 7.16D-05 at cycle  10 NSaved=  10.
 NSaved=10 IEnMin=10 EnMin= -1876.43272304433     IErMin=10 ErrMin= 7.16D-05
 ErrMax= 7.16D-05  0.00D+00 EMaxC= 1.00D-01 BMatC= 1.23D-05 BMatP= 3.18D-05
 IDIUse=1 WtCom= 1.00D+00 WtEn= 0.00D+00
 Coeff-Com:  0.198D-02-0.220D-02 0.376D-02-0.247D-03 0.223D-03-0.133D-01
 Coeff-Com: -0.641D-01-0.804D-01 0.399D+00 0.756D+00
 Coeff:      0.198D-02-0.220D-02 0.376D-02-0.247D-03 0.223D-03-0.133D-01
 Coeff:     -0.641D-01-0.804D-01 0.399D+00 0.756D+00
 Gap=     0.087 Goal=   None    Shift=    0.000
 RMSDP=1.19D-05 MaxDP=2.14D-03 DE=-8.32D-05 OVMax= 6.99D-03

 Cycle  12  Pass 1  IDiag  1:
 RMSU=  4.77D-06    CP:  1.01D+00  1.15D+00  5.62D-01  1.32D-01  6.28D-01
                    CP:  1.08D+00  1.26D+00  1.38D+00  1.50D+00  1.31D+00
 E= -1876.43274721951     Delta-E=       -0.000024175173 Rises=F Damp=F
 DIIS: error= 4.41D-05 at cycle  11 NSaved=  11.
 NSaved=11 IEnMin=11 EnMin= -1876.43274721951     IErMin=11 ErrMin= 4.41D-05
 ErrMax= 4.41D-05  0.00D+00 EMaxC= 1.00D-01 BMatC= 4.70D-06 BMatP= 1.23D-05
 IDIUse=1 WtCom= 1.00D+00 WtEn= 0.00D+00
 Coeff-Com:  0.158D-02-0.212D-02 0.284D-02-0.165D-03 0.179D-02-0.880D-03
 Coeff-Com: -0.184D-01-0.517D-01 0.341D-01 0.278D+00 0.755D+00
 Coeff:      0.158D-02-0.212D-02 0.284D-02-0.165D-03 0.179D-02-0.880D-03
 Coeff:     -0.184D-01-0.517D-01 0.341D-01 0.278D+00 0.755D+00
 Gap=     0.088 Goal=   None    Shift=    0.000
 RMSDP=6.04D-06 MaxDP=1.63D-03 DE=-2.42D-05 OVMax= 2.26D-03

 Cycle  13  Pass 1  IDiag  1:
 RMSU=  2.08D-06    CP:  1.01D+00  1.15D+00  5.62D-01  1.32D-01  6.26D-01
                    CP:  1.07D+00  1.27D+00  1.43D+00  1.58D+00  1.59D+00
                    CP:  1.36D+00
 E= -1876.43275270413     Delta-E=       -0.000005484628 Rises=F Damp=F
 DIIS: error= 2.41D-05 at cycle  12 NSaved=  12.
 NSaved=12 IEnMin=12 EnMin= -1876.43275270413     IErMin=12 ErrMin= 2.41D-05
 ErrMax= 2.41D-05  0.00D+00 EMaxC= 1.00D-01 BMatC= 1.58D-06 BMatP= 4.70D-06
 IDIUse=1 WtCom= 1.00D+00 WtEn= 0.00D+00
 Coeff-Com:  0.606D-03-0.959D-03 0.466D-03-0.730D-04 0.306D-03 0.381D-02
 Coeff-Com:  0.149D-01 0.100D-01-0.980D-01-0.870D-01 0.271D+00 0.885D+00
 Coeff:      0.606D-03-0.959D-03 0.466D-03-0.730D-04 0.306D-03 0.381D-02
 Coeff:      0.149D-01 0.100D-01-0.980D-01-0.870D-01 0.271D+00 0.885D+00
 Gap=     0.088 Goal=   None    Shift=    0.000
 RMSDP=4.03D-06 MaxDP=1.34D-03 DE=-5.48D-06 OVMax= 1.83D-03

 Cycle  14  Pass 1  IDiag  1:
 RMSU=  1.14D-06    CP:  1.01D+00  1.14D+00  5.63D-01  1.32D-01  6.24D-01
                    CP:  1.07D+00  1.26D+00  1.46D+00  1.62D+00  1.75D+00
                    CP:  1.69D+00  1.17D+00
 E= -1876.43275487486     Delta-E=       -0.000002170724 Rises=F Damp=F
 DIIS: error= 1.05D-05 at cycle  13 NSaved=  13.
 NSaved=13 IEnMin=13 EnMin= -1876.43275487486     IErMin=13 ErrMin= 1.05D-05
 ErrMax= 1.05D-05  0.00D+00 EMaxC= 1.00D-01 BMatC= 3.03D-07 BMatP= 1.58D-06
 IDIUse=1 WtCom= 1.00D+00 WtEn= 0.00D+00
 Coeff-Com:  0.937D-04-0.164D-03-0.183D-03-0.102D-04-0.387D-03 0.128D-02
 Coeff-Com:  0.100D-01 0.185D-01-0.432D-01-0.886D-01-0.114D+00 0.387D+00
 Coeff-Com:  0.829D+00
 Coeff:      0.937D-04-0.164D-03-0.183D-03-0.102D-04-0.387D-03 0.128D-02
 Coeff:      0.100D-01 0.185D-01-0.432D-01-0.886D-01-0.114D+00 0.387D+00
 Coeff:      0.829D+00
 Gap=     0.088 Goal=   None    Shift=    0.000
 RMSDP=2.10D-06 MaxDP=6.59D-04 DE=-2.17D-06 OVMax= 7.05D-04

 Cycle  15  Pass 1  IDiag  1:
 RMSU=  4.09D-07    CP:  1.01D+00  1.14D+00  5.63D-01  1.32D-01  6.24D-01
                    CP:  1.07D+00  1.26D+00  1.47D+00  1.64D+00  1.84D+00
                    CP:  1.85D+00  1.46D+00  1.10D+00
 E= -1876.43275528910     Delta-E=       -0.000000414241 Rises=F Damp=F
 DIIS: error= 1.47D-06 at cycle  14 NSaved=  14.
 NSaved=14 IEnMin=14 EnMin= -1876.43275528910     IErMin=14 ErrMin= 1.47D-06
 ErrMax= 1.47D-06  0.00D+00 EMaxC= 1.00D-01 BMatC= 1.49D-08 BMatP= 3.03D-07
 IDIUse=1 WtCom= 1.00D+00 WtEn= 0.00D+00
 Coeff-Com:  0.367D-04-0.556D-04-0.113D-03 0.160D-05-0.209D-03 0.820D-05
 Coeff-Com:  0.270D-02 0.711D-02-0.591D-02-0.249D-01-0.846D-01 0.817D-01
 Coeff-Com:  0.368D+00 0.657D+00
 Coeff:      0.367D-04-0.556D-04-0.113D-03 0.160D-05-0.209D-03 0.820D-05
 Coeff:      0.270D-02 0.711D-02-0.591D-02-0.249D-01-0.846D-01 0.817D-01
 Coeff:      0.368D+00 0.657D+00
 Gap=     0.088 Goal=   None    Shift=    0.000
 RMSDP=3.06D-07 MaxDP=7.30D-05 DE=-4.14D-07 OVMax= 1.61D-04

 Cycle  16  Pass 1  IDiag  1:
 RMSU=  1.40D-07    CP:  1.01D+00  1.14D+00  5.63D-01  1.32D-01  6.23D-01
                    CP:  1.07D+00  1.26D+00  1.47D+00  1.64D+00  1.85D+00
                    CP:  1.87D+00  1.49D+00  1.22D+00  1.01D+00
 E= -1876.43275531086     Delta-E=       -0.000000021763 Rises=F Damp=F
 DIIS: error= 1.08D-06 at cycle  15 NSaved=  15.
 NSaved=15 IEnMin=15 EnMin= -1876.43275531086     IErMin=15 ErrMin= 1.08D-06
 ErrMax= 1.08D-06  0.00D+00 EMaxC= 1.00D-01 BMatC= 3.19D-09 BMatP= 1.49D-08
 IDIUse=1 WtCom= 1.00D+00 WtEn= 0.00D+00
 Coeff-Com:  0.140D-04-0.197D-04-0.272D-04 0.496D-05-0.169D-04-0.262D-03
 Coeff-Com: -0.287D-03-0.843D-05 0.501D-02 0.323D-02-0.227D-01-0.302D-01
 Coeff-Com:  0.213D-01 0.320D+00 0.705D+00
 Coeff:      0.140D-04-0.197D-04-0.272D-04 0.496D-05-0.169D-04-0.262D-03
 Coeff:     -0.287D-03-0.843D-05 0.501D-02 0.323D-02-0.227D-01-0.302D-01
 Coeff:      0.213D-01 0.320D+00 0.705D+00
 Gap=     0.088 Goal=   None    Shift=    0.000
 RMSDP=1.83D-07 MaxDP=5.12D-05 DE=-2.18D-08 OVMax= 7.58D-05

 Cycle  17  Pass 1  IDiag  1:
 RMSU=  6.62D-08    CP:  1.01D+00  1.14D+00  5.63D-01  1.32D-01  6.24D-01
                    CP:  1.07D+00  1.26D+00  1.47D+00  1.64D+00  1.85D+00
                    CP:  1.89D+00  1.52D+00  1.26D+00  1.15D+00  1.08D+00
 E= -1876.43275531604     Delta-E=       -0.000000005174 Rises=F Damp=F
 DIIS: error= 4.11D-07 at cycle  16 NSaved=  16.
 NSaved=16 IEnMin=16 EnMin= -1876.43275531604     IErMin=16 ErrMin= 4.11D-07
 ErrMax= 4.11D-07  0.00D+00 EMaxC= 1.00D-01 BMatC= 5.67D-10 BMatP= 3.19D-09
 IDIUse=1 WtCom= 1.00D+00 WtEn= 0.00D+00
 Coeff-Com:  0.229D-05-0.233D-05 0.320D-05 0.220D-05 0.220D-04-0.152D-03
 Coeff-Com: -0.360D-03-0.109D-02 0.312D-02 0.429D-02 0.179D-02-0.225D-01
 Coeff-Com: -0.426D-01 0.461D-01 0.268D+00 0.743D+00
 Coeff:      0.229D-05-0.233D-05 0.320D-05 0.220D-05 0.220D-04-0.152D-03
 Coeff:     -0.360D-03-0.109D-02 0.312D-02 0.429D-02 0.179D-02-0.225D-01
 Coeff:     -0.426D-01 0.461D-01 0.268D+00 0.743D+00
 Gap=     0.088 Goal=   None    Shift=    0.000
 RMSDP=7.61D-08 MaxDP=2.01D-05 DE=-5.17D-09 OVMax= 3.65D-05

 Cycle  18  Pass 1  IDiag  1:
 RMSU=  2.46D-08    CP:  1.01D+00  1.14D+00  5.63D-01  1.32D-01  6.24D-01
                    CP:  1.07D+00  1.26D+00  1.48D+00  1.64D+00  1.85D+00
                    CP:  1.89D+00  1.53D+00  1.28D+00  1.20D+00  1.22D+00
                    CP:  1.16D+00
 E= -1876.43275531712     Delta-E=       -0.000000001089 Rises=F Damp=F
 DIIS: error= 2.06D-07 at cycle  17 NSaved=  17.
 NSaved=17 IEnMin=17 EnMin= -1876.43275531712     IErMin=17 ErrMin= 2.06D-07
 ErrMax= 2.06D-07  0.00D+00 EMaxC= 1.00D-01 BMatC= 1.43D-10 BMatP= 5.67D-10
 IDIUse=1 WtCom= 1.00D+00 WtEn= 0.00D+00
 Coeff-Com: -0.170D-05 0.271D-05 0.684D-05 0.631D-06 0.156D-04-0.307D-04
 Coeff-Com: -0.623D-04-0.526D-03 0.517D-03 0.107D-02 0.497D-02-0.335D-02
 Coeff-Com: -0.234D-01-0.513D-01-0.660D-01 0.349D+00 0.789D+00
 Coeff:     -0.170D-05 0.271D-05 0.684D-05 0.631D-06 0.156D-04-0.307D-04
 Coeff:     -0.623D-04-0.526D-03 0.517D-03 0.107D-02 0.497D-02-0.335D-02
 Coeff:     -0.234D-01-0.513D-01-0.660D-01 0.349D+00 0.789D+00
 Gap=     0.088 Goal=   None    Shift=    0.000
 RMSDP=4.79D-08 MaxDP=1.23D-05 DE=-1.09D-09 OVMax= 2.21D-05

 Cycle  19  Pass 1  IDiag  1:
 RMSU=  9.34D-09    CP:  1.01D+00  1.14D+00  5.63D-01  1.32D-01  6.24D-01
                    CP:  1.07D+00  1.26D+00  1.48D+00  1.64D+00  1.85D+00
                    CP:  1.89D+00  1.53D+00  1.29D+00  1.23D+00  1.30D+00
                    CP:  1.38D+00  1.21D+00
 E= -1876.43275531732     Delta-E=       -0.000000000195 Rises=F Damp=F
 DIIS: error= 5.58D-08 at cycle  18 NSaved=  18.
 NSaved=18 IEnMin=18 EnMin= -1876.43275531732     IErMin=18 ErrMin= 5.58D-08
 ErrMax= 5.58D-08  0.00D+00 EMaxC= 1.00D-01 BMatC= 1.32D-11 BMatP= 1.43D-10
 IDIUse=1 WtCom= 1.00D+00 WtEn= 0.00D+00
 Coeff-Com: -0.366D-06 0.433D-06 0.248D-05 0.151D-06 0.521D-05 0.291D-05
 Coeff-Com:  0.273D-04-0.974D-04-0.186D-03-0.151D-03 0.157D-02 0.175D-02
 Coeff-Com: -0.408D-02-0.251D-01-0.645D-01 0.665D-01 0.334D+00 0.691D+00
 Coeff:     -0.366D-06 0.433D-06 0.248D-05 0.151D-06 0.521D-05 0.291D-05
 Coeff:      0.273D-04-0.974D-04-0.186D-03-0.151D-03 0.157D-02 0.175D-02
 Coeff:     -0.408D-02-0.251D-01-0.645D-01 0.665D-01 0.334D+00 0.691D+00
 Gap=     0.088 Goal=   None    Shift=    0.000
 RMSDP=1.28D-08 MaxDP=3.08D-06 DE=-1.95D-10 OVMax= 6.41D-06

 Cycle  20  Pass 1  IDiag  1:
 RMSU=  3.40D-09    CP:  1.01D+00  1.14D+00  5.63D-01  1.32D-01  6.24D-01
                    CP:  1.07D+00  1.26D+00  1.48D+00  1.64D+00  1.85D+00
                    CP:  1.90D+00  1.53D+00  1.29D+00  1.23D+00  1.32D+00
                    CP:  1.45D+00  1.31D+00  1.13D+00
 E= -1876.43275531733     Delta-E=       -0.000000000010 Rises=F Damp=F
 DIIS: error= 1.91D-08 at cycle  19 NSaved=  19.
 NSaved=19 IEnMin=19 EnMin= -1876.43275531733     IErMin=19 ErrMin= 1.91D-08
 ErrMax= 1.91D-08  0.00D+00 EMaxC= 1.00D-01 BMatC= 1.68D-12 BMatP= 1.32D-11
 IDIUse=1 WtCom= 1.00D+00 WtEn= 0.00D+00
 Coeff-Com: -0.171D-06 0.191D-06 0.615D-07 0.307D-08 0.344D-06 0.580D-05
 Coeff-Com:  0.207D-04 0.423D-04-0.150D-03-0.225D-03-0.315D-03 0.126D-02
 Coeff-Com:  0.191D-02-0.161D-02-0.179D-01-0.266D-01 0.139D-01 0.281D+00
 Coeff-Com:  0.749D+00
 Coeff:     -0.171D-06 0.191D-06 0.615D-07 0.307D-08 0.344D-06 0.580D-05
 Coeff:      0.207D-04 0.423D-04-0.150D-03-0.225D-03-0.315D-03 0.126D-02
 Coeff:      0.191D-02-0.161D-02-0.179D-01-0.266D-01 0.139D-01 0.281D+00
 Coeff:      0.749D+00
 Gap=     0.088 Goal=   None    Shift=    0.000
 RMSDP=5.31D-09 MaxDP=1.31D-06 DE=-1.00D-11 OVMax= 2.85D-06

 Cycle  21  Pass 1  IDiag  1:
 RMSU=  1.53D-09    CP:  1.01D+00  1.14D+00  5.63D-01  1.32D-01  6.24D-01
                    CP:  1.07D+00  1.26D+00  1.48D+00  1.64D+00  1.85D+00
                    CP:  1.90D+00  1.53D+00  1.29D+00  1.23D+00  1.33D+00
                    CP:  1.47D+00  1.36D+00  1.28D+00  1.12D+00
 E= -1876.43275531735     Delta-E=       -0.000000000023 Rises=F Damp=F
 DIIS: error= 7.04D-09 at cycle  20 NSaved=  20.
 NSaved=20 IEnMin=20 EnMin= -1876.43275531735     IErMin=20 ErrMin= 7.04D-09
 ErrMax= 7.04D-09  0.00D+00 EMaxC= 1.00D-01 BMatC= 3.17D-13 BMatP= 1.68D-12
 IDIUse=1 WtCom= 1.00D+00 WtEn= 0.00D+00
 Coeff-Com: -0.441D-07 0.460D-07-0.265D-06-0.317D-07-0.346D-06 0.260D-05
 Coeff-Com:  0.542D-05 0.309D-04-0.471D-04-0.709D-04-0.359D-03 0.364D-03
 Coeff-Com:  0.129D-02 0.254D-02-0.422D-03-0.218D-01-0.364D-01 0.263D-01
 Coeff-Com:  0.350D+00 0.679D+00
 Coeff:     -0.441D-07 0.460D-07-0.265D-06-0.317D-07-0.346D-06 0.260D-05
 Coeff:      0.542D-05 0.309D-04-0.471D-04-0.709D-04-0.359D-03 0.364D-03
 Coeff:      0.129D-02 0.254D-02-0.422D-03-0.218D-01-0.364D-01 0.263D-01
 Coeff:      0.350D+00 0.679D+00
 Gap=     0.088 Goal=   None    Shift=    0.000
 RMSDP=1.85D-09 MaxDP=4.94D-07 DE=-2.27D-11 OVMax= 1.00D-06

 SCF Done:  E(RM062X) =  -1876.43275532     A.U. after   21 cycles
            NFock= 21  Conv=0.19D-08     -V/T= 2.0047
 KE= 1.867634329791D+03 PE=-1.318216007605D+04 EE= 5.022853680768D+03
 Leave Link  502 at Sat Jun 22 17:54:34 2024, MaxMem=  2684354560 cpu:           26137.1 elap:            1637.5
 (Enter /storage/apps/GAUSSIAN/G16_RevA03/g16/l601.exe)
 Copying SCF densities to generalized density rwf, IOpCl= 0 IROHF=0.

 **********************************************************************

            Population analysis using the SCF density.

 **********************************************************************

 Alpha  occ. eigenvalues --  -19.78444 -19.77126 -19.75554 -19.72239 -19.64620
 Alpha  occ. eigenvalues --  -19.61701 -15.01532 -14.89953 -14.88251 -14.86131
 Alpha  occ. eigenvalues --  -14.85183 -14.84697 -14.83446 -14.81712 -14.81551
 Alpha  occ. eigenvalues --  -10.79031 -10.78919 -10.77502 -10.77307 -10.75268
 Alpha  occ. eigenvalues --  -10.74303 -10.73484 -10.73460 -10.73390 -10.72315
 Alpha  occ. eigenvalues --  -10.71784 -10.71563 -10.69827 -10.68698 -10.67259
 Alpha  occ. eigenvalues --  -10.66423 -10.66233 -10.65740 -10.64015 -10.59949
 Alpha  occ. eigenvalues --  -10.59648 -10.59255 -10.59043 -10.58921  -1.32912
 Alpha  occ. eigenvalues --   -1.29283  -1.27792  -1.27152  -1.26152  -1.22000
 Alpha  occ. eigenvalues --   -1.16845  -1.16002  -1.15741  -1.13801  -1.13121
 Alpha  occ. eigenvalues --   -1.10855  -1.09193  -1.08433  -1.07072  -1.05846
 Alpha  occ. eigenvalues --   -1.03877  -1.01591  -1.01431  -0.99971  -0.97453
 Alpha  occ. eigenvalues --   -0.93751  -0.92167  -0.91940  -0.91467  -0.89497
 Alpha  occ. eigenvalues --   -0.87616  -0.87343  -0.85006  -0.82893  -0.81828
 Alpha  occ. eigenvalues --   -0.81327  -0.80766  -0.78410  -0.77956  -0.76982
 Alpha  occ. eigenvalues --   -0.76416  -0.75880  -0.75118  -0.73952  -0.73457
 Alpha  occ. eigenvalues --   -0.73353  -0.71538  -0.71188  -0.70964  -0.69937
 Alpha  occ. eigenvalues --   -0.69859  -0.69325  -0.68629  -0.68282  -0.66805
 Alpha  occ. eigenvalues --   -0.66405  -0.66284  -0.66001  -0.65495  -0.65258
 Alpha  occ. eigenvalues --   -0.64203  -0.63568  -0.63525  -0.62765  -0.62600
 Alpha  occ. eigenvalues --   -0.61864  -0.61454  -0.61012  -0.60828  -0.60139
 Alpha  occ. eigenvalues --   -0.59996  -0.59782  -0.58629  -0.58362  -0.57000
 Alpha  occ. eigenvalues --   -0.56931  -0.56238  -0.55851  -0.55422  -0.53986
 Alpha  occ. eigenvalues --   -0.53891  -0.53122  -0.52978  -0.52398  -0.52039
 Alpha  occ. eigenvalues --   -0.51701  -0.51022  -0.50912  -0.50436  -0.49659
 Alpha  occ. eigenvalues --   -0.49550  -0.49337  -0.47751  -0.46860  -0.46042
 Alpha  occ. eigenvalues --   -0.45947  -0.43819  -0.43012  -0.42528  -0.40986
 Alpha  occ. eigenvalues --   -0.39818  -0.38840  -0.37696  -0.36375  -0.36325
 Alpha  occ. eigenvalues --   -0.31847  -0.29754
 Alpha virt. eigenvalues --   -0.20925  -0.17394  -0.07802  -0.07364  -0.06708
 Alpha virt. eigenvalues --   -0.06316  -0.06028  -0.05698  -0.05110  -0.04253
 Alpha virt. eigenvalues --   -0.03452  -0.03153  -0.03086  -0.02331  -0.02201
 Alpha virt. eigenvalues --   -0.01403  -0.00812  -0.00504  -0.00298   0.00417
 Alpha virt. eigenvalues --    0.00747   0.00957   0.01534   0.01634   0.01769
 Alpha virt. eigenvalues --    0.01876   0.02181   0.02857   0.03179   0.03493
 Alpha virt. eigenvalues --    0.04103   0.04724   0.04891   0.05405   0.05579
 Alpha virt. eigenvalues --    0.05959   0.06273   0.06325   0.06704   0.06795
 Alpha virt. eigenvalues --    0.07059   0.07595   0.08215   0.08592   0.08897
 Alpha virt. eigenvalues --    0.09441   0.09639   0.09943   0.10287   0.10476
 Alpha virt. eigenvalues --    0.10976   0.11475   0.11611   0.12092   0.12297
 Alpha virt. eigenvalues --    0.12838   0.12952   0.13214   0.13734   0.13866
 Alpha virt. eigenvalues --    0.14245   0.14552   0.14800   0.15027   0.15247
 Alpha virt. eigenvalues --    0.15804   0.16142   0.16399   0.16635   0.17000
 Alpha virt. eigenvalues --    0.17494   0.17883   0.18398   0.18629   0.19149
 Alpha virt. eigenvalues --    0.19342   0.19418   0.19805   0.20044   0.20140
 Alpha virt. eigenvalues --    0.20436   0.20944   0.21236   0.21410   0.21717
 Alpha virt. eigenvalues --    0.21804   0.22277   0.22698   0.22894   0.23046
 Alpha virt. eigenvalues --    0.23584   0.23889   0.24054   0.24339   0.24656
 Alpha virt. eigenvalues --    0.24783   0.25140   0.25400   0.25740   0.25868
 Alpha virt. eigenvalues --    0.26381   0.26507   0.26616   0.27024   0.27609
 Alpha virt. eigenvalues --    0.27876   0.28379   0.28452   0.28595   0.28909
 Alpha virt. eigenvalues --    0.29081   0.29340   0.29606   0.29981   0.30229
 Alpha virt. eigenvalues --    0.30487   0.30642   0.30896   0.31185   0.31397
 Alpha virt. eigenvalues --    0.31521   0.31680   0.32090   0.32254   0.32524
 Alpha virt. eigenvalues --    0.32643   0.33136   0.33388   0.33777   0.34136
 Alpha virt. eigenvalues --    0.34303   0.34559   0.34806   0.35214   0.35293
 Alpha virt. eigenvalues --    0.35512   0.35731   0.36372   0.36394   0.36487
 Alpha virt. eigenvalues --    0.36759   0.36931   0.37369   0.37454   0.37834
 Alpha virt. eigenvalues --    0.37911   0.38110   0.38487   0.38681   0.39132
 Alpha virt. eigenvalues --    0.39466   0.39525   0.39746   0.40108   0.40209
 Alpha virt. eigenvalues --    0.40405   0.40815   0.41014   0.41225   0.41702
 Alpha virt. eigenvalues --    0.41870   0.42031   0.42208   0.42665   0.43201
 Alpha virt. eigenvalues --    0.43263   0.43401   0.43742   0.43935   0.44419
 Alpha virt. eigenvalues --    0.44600   0.44653   0.45208   0.45330   0.45710
 Alpha virt. eigenvalues --    0.45864   0.46118   0.46255   0.46630   0.46832
 Alpha virt. eigenvalues --    0.47263   0.47513   0.48200   0.48553   0.48740
 Alpha virt. eigenvalues --    0.49018   0.49297   0.49402   0.49871   0.50238
 Alpha virt. eigenvalues --    0.50749   0.50996   0.51111   0.51557   0.51784
 Alpha virt. eigenvalues --    0.52233   0.52370   0.52806   0.53057   0.53485
 Alpha virt. eigenvalues --    0.53831   0.54057   0.54215   0.54748   0.55348
 Alpha virt. eigenvalues --    0.55654   0.55889   0.56349   0.56784   0.56869
 Alpha virt. eigenvalues --    0.57160   0.57235   0.57847   0.58055   0.58389
 Alpha virt. eigenvalues --    0.58640   0.59044   0.59532   0.59858   0.60386
 Alpha virt. eigenvalues --    0.60607   0.60792   0.61147   0.61546   0.61651
 Alpha virt. eigenvalues --    0.62087   0.62660   0.62665   0.63067   0.63393
 Alpha virt. eigenvalues --    0.63704   0.63868   0.64321   0.64734   0.64784
 Alpha virt. eigenvalues --    0.65479   0.65763   0.66299   0.66927   0.67198
 Alpha virt. eigenvalues --    0.67664   0.67983   0.68466   0.68810   0.69022
 Alpha virt. eigenvalues --    0.69532   0.69804   0.70704   0.70782   0.71302
 Alpha virt. eigenvalues --    0.71492   0.71738   0.72032   0.72387   0.72973
 Alpha virt. eigenvalues --    0.73241   0.73361   0.74255   0.74744   0.75006
 Alpha virt. eigenvalues --    0.75206   0.75472   0.75819   0.76302   0.77031
 Alpha virt. eigenvalues --    0.77129   0.77636   0.77814   0.78526   0.78922
 Alpha virt. eigenvalues --    0.79241   0.79504   0.79647   0.80204   0.80964
 Alpha virt. eigenvalues --    0.81565   0.81765   0.82337   0.82628   0.83126
 Alpha virt. eigenvalues --    0.83530   0.83879   0.84410   0.84598   0.84996
 Alpha virt. eigenvalues --    0.85761   0.86309   0.86797   0.87061   0.87410
 Alpha virt. eigenvalues --    0.88020   0.88402   0.88980   0.89076   0.89219
 Alpha virt. eigenvalues --    0.89457   0.90702   0.91168   0.91273   0.91759
 Alpha virt. eigenvalues --    0.92066   0.92753   0.93053   0.93507   0.93656
 Alpha virt. eigenvalues --    0.94958   0.95667   0.95753   0.96320   0.97017
 Alpha virt. eigenvalues --    0.97400   0.97709   0.98441   0.98739   0.99278
 Alpha virt. eigenvalues --    0.99732   1.00263   1.00615   1.01024   1.01465
 Alpha virt. eigenvalues --    1.01997   1.02456   1.03041   1.04278   1.04380
 Alpha virt. eigenvalues --    1.04785   1.05039   1.05175   1.05739   1.06594
 Alpha virt. eigenvalues --    1.07225   1.07825   1.08299   1.08573   1.09313
 Alpha virt. eigenvalues --    1.09968   1.10296   1.10711   1.11071   1.11283
 Alpha virt. eigenvalues --    1.12126   1.12463   1.12987   1.13631   1.14692
 Alpha virt. eigenvalues --    1.15220   1.15388   1.16006   1.16274   1.16657
 Alpha virt. eigenvalues --    1.17121   1.17500   1.18062   1.18845   1.19635
 Alpha virt. eigenvalues --    1.20295   1.20906   1.21611   1.22332   1.22872
 Alpha virt. eigenvalues --    1.23352   1.23765   1.23873   1.24282   1.24619
 Alpha virt. eigenvalues --    1.24775   1.25431   1.25880   1.27199   1.27357
 Alpha virt. eigenvalues --    1.27474   1.27782   1.28236   1.28845   1.29071
 Alpha virt. eigenvalues --    1.29731   1.30156   1.30638   1.31845   1.32322
 Alpha virt. eigenvalues --    1.32522   1.32839   1.33976   1.34197   1.34582
 Alpha virt. eigenvalues --    1.35194   1.35477   1.35728   1.36200   1.36732
 Alpha virt. eigenvalues --    1.37380   1.37722   1.38562   1.38759   1.39053
 Alpha virt. eigenvalues --    1.39433   1.39715   1.40297   1.40851   1.41427
 Alpha virt. eigenvalues --    1.42300   1.42446   1.43021   1.43363   1.43492
 Alpha virt. eigenvalues --    1.44200   1.44496   1.44690   1.45194   1.45811
 Alpha virt. eigenvalues --    1.46385   1.46673   1.47059   1.47683   1.47876
 Alpha virt. eigenvalues --    1.48013   1.48413   1.48820   1.49179   1.49558
 Alpha virt. eigenvalues --    1.50153   1.50741   1.50950   1.51378   1.51710
 Alpha virt. eigenvalues --    1.52177   1.52708   1.52992   1.53518   1.53664
 Alpha virt. eigenvalues --    1.53950   1.54320   1.54901   1.55277   1.55851
 Alpha virt. eigenvalues --    1.55982   1.56211   1.56440   1.56902   1.57244
 Alpha virt. eigenvalues --    1.57391   1.57764   1.58000   1.58263   1.58750
 Alpha virt. eigenvalues --    1.59000   1.59728   1.60167   1.60409   1.60788
 Alpha virt. eigenvalues --    1.61024   1.61391   1.62057   1.62093   1.62450
 Alpha virt. eigenvalues --    1.62994   1.63780   1.64013   1.64658   1.65039
 Alpha virt. eigenvalues --    1.65634   1.65967   1.66351   1.66957   1.67245
 Alpha virt. eigenvalues --    1.67683   1.68099   1.68463   1.69193   1.70063
 Alpha virt. eigenvalues --    1.70133   1.70606   1.70853   1.71664   1.71774
 Alpha virt. eigenvalues --    1.72371   1.72628   1.73234   1.73590   1.74264
 Alpha virt. eigenvalues --    1.74454   1.74629   1.75816   1.76167   1.76358
 Alpha virt. eigenvalues --    1.76911   1.77502   1.77900   1.78382   1.79138
 Alpha virt. eigenvalues --    1.79771   1.79919   1.80104   1.80559   1.81119
 Alpha virt. eigenvalues --    1.81815   1.82118   1.82386   1.82835   1.82928
 Alpha virt. eigenvalues --    1.83534   1.84126   1.84266   1.84803   1.85517
 Alpha virt. eigenvalues --    1.85917   1.86374   1.86709   1.87060   1.87550
 Alpha virt. eigenvalues --    1.88020   1.88273   1.88833   1.89571   1.89980
 Alpha virt. eigenvalues --    1.90243   1.90751   1.91182   1.91492   1.92165
 Alpha virt. eigenvalues --    1.92955   1.93676   1.94099   1.94449   1.95112
 Alpha virt. eigenvalues --    1.95256   1.95805   1.96406   1.96833   1.97669
 Alpha virt. eigenvalues --    1.97737   1.98184   1.98641   1.98992   1.99804
 Alpha virt. eigenvalues --    2.00094   2.00727   2.01711   2.02365   2.02603
 Alpha virt. eigenvalues --    2.02996   2.03330   2.03728   2.04028   2.04911
 Alpha virt. eigenvalues --    2.05730   2.06091   2.06592   2.07271   2.07698
 Alpha virt. eigenvalues --    2.08604   2.08744   2.09267   2.10110   2.10482
 Alpha virt. eigenvalues --    2.10611   2.10864   2.11538   2.11858   2.12232
 Alpha virt. eigenvalues --    2.12663   2.13709   2.14193   2.14470   2.15562
 Alpha virt. eigenvalues --    2.15745   2.16418   2.16545   2.16994   2.17453
 Alpha virt. eigenvalues --    2.17762   2.18449   2.18993   2.19727   2.20248
 Alpha virt. eigenvalues --    2.20873   2.20969   2.21372   2.21886   2.22229
 Alpha virt. eigenvalues --    2.22723   2.23156   2.24366   2.24653   2.25029
 Alpha virt. eigenvalues --    2.25384   2.25839   2.26418   2.26522   2.27036
 Alpha virt. eigenvalues --    2.27624   2.27990   2.29080   2.29543   2.30402
 Alpha virt. eigenvalues --    2.31372   2.31452   2.32198   2.33036   2.33445
 Alpha virt. eigenvalues --    2.34160   2.34599   2.34890   2.35398   2.36060
 Alpha virt. eigenvalues --    2.36157   2.36518   2.37552   2.37937   2.38252
 Alpha virt. eigenvalues --    2.39269   2.39705   2.39913   2.40180   2.40791
 Alpha virt. eigenvalues --    2.41240   2.41893   2.42400   2.43219   2.44414
 Alpha virt. eigenvalues --    2.45224   2.45773   2.45997   2.46355   2.47021
 Alpha virt. eigenvalues --    2.47364   2.47933   2.48168   2.48886   2.49603
 Alpha virt. eigenvalues --    2.49877   2.50280   2.51231   2.51589   2.52171
 Alpha virt. eigenvalues --    2.52823   2.53081   2.53698   2.53945   2.54250
 Alpha virt. eigenvalues --    2.55204   2.55715   2.56461   2.56621   2.56978
 Alpha virt. eigenvalues --    2.57716   2.58364   2.58640   2.58970   2.59910
 Alpha virt. eigenvalues --    2.60433   2.60758   2.61149   2.61455   2.61631
 Alpha virt. eigenvalues --    2.61956   2.63112   2.63534   2.63930   2.64032
 Alpha virt. eigenvalues --    2.64522   2.64743   2.65107   2.65582   2.66058
 Alpha virt. eigenvalues --    2.66566   2.67010   2.67267   2.67468   2.68164
 Alpha virt. eigenvalues --    2.68286   2.68453   2.69323   2.69636   2.69888
 Alpha virt. eigenvalues --    2.70406   2.70513   2.70975   2.71422   2.71470
 Alpha virt. eigenvalues --    2.72390   2.72808   2.73264   2.74343   2.74390
 Alpha virt. eigenvalues --    2.75127   2.75730   2.76006   2.76183   2.77038
 Alpha virt. eigenvalues --    2.77132   2.77212   2.77492   2.77755   2.78559
 Alpha virt. eigenvalues --    2.78906   2.79687   2.80140   2.80468   2.80692
 Alpha virt. eigenvalues --    2.81366   2.81877   2.82271   2.83043   2.83641
 Alpha virt. eigenvalues --    2.83725   2.84176   2.84614   2.84802   2.85378
 Alpha virt. eigenvalues --    2.85888   2.86266   2.86569   2.86886   2.87241
 Alpha virt. eigenvalues --    2.87905   2.88297   2.88644   2.88903   2.89316
 Alpha virt. eigenvalues --    2.89710   2.89932   2.90053   2.90602   2.90925
 Alpha virt. eigenvalues --    2.91357   2.91611   2.92137   2.92355   2.92759
 Alpha virt. eigenvalues --    2.92958   2.93272   2.93595   2.94555   2.94737
 Alpha virt. eigenvalues --    2.95199   2.95509   2.95961   2.96097   2.96919
 Alpha virt. eigenvalues --    2.96998   2.97584   2.97911   2.98346   2.98996
 Alpha virt. eigenvalues --    2.99878   2.99972   3.00103   3.00778   3.01556
 Alpha virt. eigenvalues --    3.01796   3.02401   3.02586   3.02873   3.03242
 Alpha virt. eigenvalues --    3.03732   3.03907   3.04254   3.04722   3.05266
 Alpha virt. eigenvalues --    3.05783   3.05882   3.06373   3.06526   3.07473
 Alpha virt. eigenvalues --    3.07839   3.07964   3.08199   3.08744   3.09228
 Alpha virt. eigenvalues --    3.09729   3.09992   3.10234   3.11067   3.11159
 Alpha virt. eigenvalues --    3.11626   3.12212   3.12957   3.13113   3.13285
 Alpha virt. eigenvalues --    3.13516   3.13946   3.14268   3.14564   3.14711
 Alpha virt. eigenvalues --    3.14982   3.15264   3.15670   3.15879   3.16648
 Alpha virt. eigenvalues --    3.16737   3.17037   3.17277   3.17521   3.18014
 Alpha virt. eigenvalues --    3.18400   3.18590   3.19067   3.19851   3.20166
 Alpha virt. eigenvalues --    3.20543   3.20898   3.21141   3.21593   3.22086
 Alpha virt. eigenvalues --    3.22721   3.22923   3.23604   3.23787   3.24258
 Alpha virt. eigenvalues --    3.24683   3.25529   3.26005   3.26429   3.26852
 Alpha virt. eigenvalues --    3.27190   3.27356   3.27769   3.28215   3.28458
 Alpha virt. eigenvalues --    3.28782   3.29413   3.30055   3.30488   3.30696
 Alpha virt. eigenvalues --    3.30986   3.31177   3.31504   3.32148   3.32683
 Alpha virt. eigenvalues --    3.32894   3.33348   3.33532   3.33691   3.34082
 Alpha virt. eigenvalues --    3.34575   3.35150   3.35742   3.35958   3.36119
 Alpha virt. eigenvalues --    3.36272   3.36585   3.37453   3.37726   3.38152
 Alpha virt. eigenvalues --    3.38696   3.38975   3.39916   3.40223   3.40813
 Alpha virt. eigenvalues --    3.41188   3.41410   3.42192   3.42782   3.42982
 Alpha virt. eigenvalues --    3.43573   3.44157   3.44416   3.44898   3.45217
 Alpha virt. eigenvalues --    3.46168   3.46406   3.47683   3.47906   3.48676
 Alpha virt. eigenvalues --    3.49326   3.49869   3.50024   3.50883   3.51350
 Alpha virt. eigenvalues --    3.51800   3.52348   3.52724   3.52994   3.54073
 Alpha virt. eigenvalues --    3.54167   3.55244   3.56199   3.56384   3.57905
 Alpha virt. eigenvalues --    3.58631   3.59635   3.59777   3.60488   3.61235
 Alpha virt. eigenvalues --    3.62509   3.62734   3.63377   3.64412   3.64577
 Alpha virt. eigenvalues --    3.65143   3.67242   3.67518   3.67750   3.68218
 Alpha virt. eigenvalues --    3.69406   3.70449   3.70712   3.71038   3.71434
 Alpha virt. eigenvalues --    3.72467   3.73434   3.74020   3.74361   3.74645
 Alpha virt. eigenvalues --    3.75622   3.76893   3.77049   3.77863   3.78571
 Alpha virt. eigenvalues --    3.78707   3.79442   3.80092   3.80922   3.81820
 Alpha virt. eigenvalues --    3.82323   3.82781   3.83620   3.84195   3.85110
 Alpha virt. eigenvalues --    3.85610   3.87010   3.87421   3.88189   3.88933
 Alpha virt. eigenvalues --    3.89697   3.90185   3.90729   3.91321   3.92279
 Alpha virt. eigenvalues --    3.93578   3.94108   3.94835   3.95396   3.95563
 Alpha virt. eigenvalues --    3.96686   3.97181   3.99453   4.00104   4.00450
 Alpha virt. eigenvalues --    4.01321   4.02200   4.02823   4.03341   4.03980
 Alpha virt. eigenvalues --    4.04351   4.05192   4.05767   4.06842   4.07055
 Alpha virt. eigenvalues --    4.07709   4.08394   4.08912   4.09475   4.10341
 Alpha virt. eigenvalues --    4.10937   4.11473   4.11796   4.12309   4.13245
 Alpha virt. eigenvalues --    4.13823   4.14484   4.14695   4.15342   4.16700
 Alpha virt. eigenvalues --    4.18514   4.18661   4.19601   4.20001   4.21060
 Alpha virt. eigenvalues --    4.21593   4.21908   4.22943   4.23387   4.24011
 Alpha virt. eigenvalues --    4.24521   4.25420   4.26168   4.26803   4.28536
 Alpha virt. eigenvalues --    4.29744   4.29962   4.30585   4.31473   4.32281
 Alpha virt. eigenvalues --    4.32750   4.35005   4.35716   4.37838   4.38208
 Alpha virt. eigenvalues --    4.39047   4.40130   4.40608   4.41604   4.41787
 Alpha virt. eigenvalues --    4.42492   4.45241   4.46338   4.47892   4.49636
 Alpha virt. eigenvalues --    4.50046   4.50945   4.51571   4.52008   4.52408
 Alpha virt. eigenvalues --    4.53262   4.53850   4.54450   4.55596   4.56372
 Alpha virt. eigenvalues --    4.56770   4.57373   4.58206   4.59046   4.59460
 Alpha virt. eigenvalues --    4.59754   4.60845   4.61331   4.61627   4.63658
 Alpha virt. eigenvalues --    4.63814   4.64398   4.64705   4.65959   4.67375
 Alpha virt. eigenvalues --    4.68071   4.68227   4.68814   4.69154   4.70313
 Alpha virt. eigenvalues --    4.71501   4.73394   4.73918   4.74752   4.75063
 Alpha virt. eigenvalues --    4.75902   4.76715   4.78127   4.78682   4.79666
 Alpha virt. eigenvalues --    4.80946   4.81293   4.82662   4.83812   4.85825
 Alpha virt. eigenvalues --    4.86936   4.87039   4.87988   4.88742   4.89444
 Alpha virt. eigenvalues --    4.90208   4.91467   4.91905   4.92397   4.92594
 Alpha virt. eigenvalues --    4.93466   4.93965   4.94884   4.96084   4.96737
 Alpha virt. eigenvalues --    4.97226   4.97973   4.98938   4.98980   5.00254
 Alpha virt. eigenvalues --    5.00470   5.01645   5.01746   5.02034   5.02302
 Alpha virt. eigenvalues --    5.03179   5.03580   5.04455   5.05645   5.05793
 Alpha virt. eigenvalues --    5.06746   5.07742   5.08206   5.08867   5.09069
 Alpha virt. eigenvalues --    5.09773   5.11204   5.11784   5.12605   5.13418
 Alpha virt. eigenvalues --    5.13944   5.14337   5.14956   5.15361   5.15878
 Alpha virt. eigenvalues --    5.16606   5.17081   5.17392   5.18687   5.19445
 Alpha virt. eigenvalues --    5.19921   5.20364   5.20688   5.22089   5.22525
 Alpha virt. eigenvalues --    5.22685   5.23973   5.25077   5.25209   5.25654
 Alpha virt. eigenvalues --    5.26178   5.26547   5.27189   5.27599   5.28823
 Alpha virt. eigenvalues --    5.28951   5.29185   5.30043   5.32321   5.33523
 Alpha virt. eigenvalues --    5.33802   5.35675   5.35859   5.36352   5.37027
 Alpha virt. eigenvalues --    5.38319   5.38496   5.39105   5.41112   5.43177
 Alpha virt. eigenvalues --    5.45331   5.49252   5.49782   5.50211   5.51500
 Alpha virt. eigenvalues --    5.53736   5.54233   5.54972   5.55678   5.56206
 Alpha virt. eigenvalues --    5.57594   5.58849   5.59423   5.61195   5.61618
 Alpha virt. eigenvalues --    5.62691   5.62761   5.63592   5.63753   5.66055
 Alpha virt. eigenvalues --    5.66955   5.68541   5.69045   5.69940   5.71418
 Alpha virt. eigenvalues --    5.73640   5.75732   5.77228   5.79724   5.80255
 Alpha virt. eigenvalues --    5.81046   5.81824   5.81912   5.85081   5.86732
 Alpha virt. eigenvalues --    5.87973   5.91882   5.93235   5.94221   5.95082
 Alpha virt. eigenvalues --    5.95321   5.96160   5.97781   6.01785   6.08902
 Alpha virt. eigenvalues --    6.11716   6.16820   6.19247   6.19479   6.23402
 Alpha virt. eigenvalues --    6.30954   6.33060   6.34621   6.37521   6.38584
 Alpha virt. eigenvalues --    6.48545   6.51456   6.54565   6.55392   6.56095
 Alpha virt. eigenvalues --    6.58656   6.60958   6.63240   6.65607   6.67902
 Alpha virt. eigenvalues --    6.70654   6.71110   6.73490   6.75307   6.76009
 Alpha virt. eigenvalues --    6.78631   6.83182   6.85883   6.95243   6.96518
 Alpha virt. eigenvalues --    6.98714   7.00052   7.00641   7.03111   7.03918
 Alpha virt. eigenvalues --    7.06675   7.07181   7.13310  22.38886  22.43233
 Alpha virt. eigenvalues --   22.56454  22.56855  22.64982  22.71552  22.74072
 Alpha virt. eigenvalues --   22.76726  22.77469  22.81017  22.81867  22.84208
 Alpha virt. eigenvalues --   22.93447  22.97685  22.98180  22.99197  23.01203
 Alpha virt. eigenvalues --   23.15362  23.16625  23.18689  23.25531  23.32209
 Alpha virt. eigenvalues --   23.40547  23.50946  32.00754  32.02629  32.09062
 Alpha virt. eigenvalues --   32.40885  32.57368  32.64025  32.75167  32.89156
 Alpha virt. eigenvalues --   32.95222  44.01389  44.03115  44.03978  44.05354
 Alpha virt. eigenvalues --   44.07157  44.25732
          Condensed to atoms (all electrons):
 Mulliken charges:
               1
     1  C   -0.070246
     2  H    0.140410
     3  O   -0.304822
     4  C    0.002836
     5  H    0.179422
     6  O   -0.511978
     7  H    0.351178
     8  C    0.004406
     9  H    0.169687
    10  O   -0.466219
    11  H    0.365143
    12  C    0.052186
    13  H    0.145833
    14  N    0.037823
    15  C   -0.021609
    16  H    0.167262
    17  C    0.066406
    18  C   -0.151815
    19  H    0.267954
    20  H    0.017580
    21  C   -0.193621
    22  H    0.189484
    23  C    0.040679
    24  H    0.201404
    25  C    0.362587
    26  O   -0.353139
    27  N   -0.495353
    28  H    0.255212
    29  H    0.296738
    30  N   -0.383076
    31  C    0.455583
    32  N   -0.541720
    33  H    0.289198
    34  H    0.273508
    35  N   -0.316612
    36  H    0.266284
    37  C    0.262808
    38  O   -0.460944
    39  C   -0.021953
    40  N   -0.350601
    41  H    0.257246
    42  C    0.032335
    43  C   -0.238781
    44  H    0.174926
    45  H    0.176741
    46  N   -0.385939
    47  H    0.253520
    48  C    0.332687
    49  C   -0.250071
    50  H    0.144786
    51  H    0.215212
    52  N   -0.412544
    53  H    0.239087
    54  C    0.096238
    55  C   -0.185268
    56  H    0.173324
    57  C   -0.195453
    58  H    0.146525
    59  C    0.290767
    60  C   -0.176089
    61  H    0.113787
    62  C   -0.186394
    63  H    0.104960
    64  C    0.323362
    65  O   -0.440429
    66  N   -0.526955
    67  H    0.248145
    68  H    0.161027
    69  H    0.295349
 Sum of Mulliken charges =   1.00000
 Mulliken charges with hydrogens summed into heavy atoms:
               1
     1  C    0.231192
     3  O   -0.304822
     4  C    0.182258
     6  O   -0.160800
     8  C    0.174093
    10  O   -0.101077
    12  C    0.198020
    14  N    0.037823
    15  C    0.145653
    17  C    0.066406
    18  C    0.116138
    21  C   -0.004137
    23  C    0.242083
    25  C    0.362587
    26  O   -0.353139
    27  N    0.056596
    30  N   -0.383076
    31  C    0.455583
    32  N    0.020986
    35  N   -0.050329
    37  C    0.262808
    38  O   -0.460944
    39  C   -0.021953
    40  N   -0.093356
    42  C    0.049915
    43  C    0.112887
    46  N   -0.132420
    48  C    0.332687
    49  C    0.109927
    52  N   -0.173457
    54  C    0.096238
    55  C   -0.011943
    57  C   -0.048928
    59  C    0.290767
    60  C   -0.062302
    62  C   -0.081434
    64  C    0.323362
    65  O   -0.440429
    66  N    0.016538
 Electronic spatial extent (au):  <R**2>=          27582.6065
 Charge=              1.0000 electrons
 Dipole moment (field-independent basis, Debye):
    X=             -7.3116    Y=             -8.2945    Z=             21.8184  Tot=             24.4602
 Quadrupole moment (field-independent basis, Debye-Ang):
   XX=           -137.0661   YY=           -224.9772   ZZ=           -112.1927
   XY=             -4.6490   XZ=            -85.0827   YZ=             67.6837
 Traceless Quadrupole moment (field-independent basis, Debye-Ang):
   XX=             21.0126   YY=            -66.8985   ZZ=             45.8859
   XY=             -4.6490   XZ=            -85.0827   YZ=             67.6837
 Octapole moment (field-independent basis, Debye-Ang**2):
  XXX=            679.3927  YYY=           -110.6687  ZZZ=            823.2752  XYY=            237.7149
  XXY=           -116.9751  XXZ=            313.1859  XZZ=            -23.7141  YZZ=           -108.6295
  YYZ=            183.1695  XYZ=           -103.6607
 Hexadecapole moment (field-independent basis, Debye-Ang**3):
 XXXX=          -6573.7298 YYYY=          -5073.2370 ZZZZ=         -15610.5647 XXXY=           1269.5290
 XXXZ=           -583.5850 YYYX=           1835.0959 YYYZ=           1485.4317 ZZZX=          -1981.3352
 ZZZY=           3884.7773 XXYY=          -2050.7042 XXZZ=          -3216.0019 YYZZ=          -5235.4356
 XXYZ=           1070.7004 YYXZ=           -160.3170 ZZXY=            505.2211
 N-N= 4.415239310172D+03 E-N=-1.318216007736D+04  KE= 1.867634329791D+03
 No NMR shielding tensors so no spin-rotation constants.
 Leave Link  601 at Sat Jun 22 17:54:35 2024, MaxMem=  2684354560 cpu:               9.6 elap:               0.8
 (Enter /storage/apps/GAUSSIAN/G16_RevA03/g16/l602.exe)

 **********************************************************************

            Electrostatic Properties Using The SCF Density

 **********************************************************************

       Atomic Center    1 is at  -4.166222  0.395249  6.736445
       Atomic Center    2 is at  -3.980886  0.445820  7.741206
       Atomic Center    3 is at  -2.992049 -0.200240  6.082267
       Atomic Center    4 is at  -4.292248  1.792840  6.127562
       Atomic Center    5 is at  -5.253432  2.152942  6.119485
       Atomic Center    6 is at  -3.440241  2.750884  6.799532
       Atomic Center    7 is at  -3.636416  2.838619  7.755745
       Atomic Center    8 is at  -3.687680  1.622042  4.720303
       Atomic Center    9 is at  -4.354976  1.215448  4.056815
       Atomic Center   10 is at  -3.212566  2.858460  4.201075
       Atomic Center   11 is at  -3.016947  3.424735  4.972842
       Atomic Center   12 is at  -2.514044  0.648466  5.021565
       Atomic Center   13 is at  -1.688756  1.171729  5.338498
       Atomic Center   14 is at  -2.075069 -0.236849  3.912879
       Atomic Center   15 is at  -0.739861 -0.273433  3.609198
       Atomic Center   16 is at  -0.165800  0.413180  4.093686
       Atomic Center   17 is at  -0.229852 -1.180207  2.734561
       Atomic Center   18 is at  -1.133849 -2.040809  2.049216
       Atomic Center   19 is at  -0.759786 -2.775155  1.449687
       Atomic Center   20 is at  -1.017862 -0.986431  0.270591
       Atomic Center   21 is at  -2.481823 -1.972762  2.357563
       Atomic Center   22 is at  -3.141597 -2.604216  1.906218
       Atomic Center   23 is at  -2.943068 -1.097216  3.289399
       Atomic Center   24 is at  -3.922195 -1.052855  3.568741
       Atomic Center   25 is at   1.252207 -1.394668  2.536444
       Atomic Center   26 is at   1.647100 -2.343229  1.832402
       Atomic Center   27 is at   2.150269 -0.578292  3.168753
       Atomic Center   28 is at   1.868998  0.132714  3.840168
       Atomic Center   29 is at   3.125476 -0.882257  3.194641
       Atomic Center   30 is at   2.149435 -3.101841 -1.951173
       Atomic Center   31 is at   3.274933 -2.433834 -2.283405
       Atomic Center   32 is at   4.398580 -3.112499 -2.649018
       Atomic Center   33 is at   4.423135 -4.125231 -2.599147
       Atomic Center   34 is at   5.253432 -2.594536 -2.905485
       Atomic Center   35 is at   3.340106 -1.058404 -2.281691
       Atomic Center   36 is at   4.266052 -0.604938 -2.414896
       Atomic Center   37 is at   2.249397 -0.263041 -1.959171
       Atomic Center   38 is at   2.404730  1.010465 -1.910579
       Atomic Center   39 is at   1.040793 -0.959201 -1.669694
       Atomic Center   40 is at  -0.150028 -0.222625 -1.413657
       Atomic Center   41 is at   0.027042  0.745257 -1.142593
       Atomic Center   42 is at  -1.236944 -0.900909 -0.732791
       Atomic Center   43 is at  -1.386170 -2.330940 -1.293688
       Atomic Center   44 is at  -2.063322 -2.846722 -0.730880
       Atomic Center   45 is at  -1.748751 -2.287517 -2.251867
       Atomic Center   46 is at  -0.098281 -3.020547 -1.253565
       Atomic Center   47 is at  -0.098372 -4.029871 -1.371919
       Atomic Center   48 is at   1.040762 -2.340272 -1.644171
       Atomic Center   49 is at  -2.602733 -0.115591 -0.830059
       Atomic Center   50 is at  -3.005371 -0.048232  0.105777
       Atomic Center   51 is at  -3.255586 -0.653941 -1.406011
       Atomic Center   52 is at  -2.488890  1.243884 -1.357633
       Atomic Center   53 is at  -2.751161  1.991511 -0.718989
       Atomic Center   54 is at  -2.236039  2.142621 -5.448743
       Atomic Center   55 is at  -2.418019  3.159326 -4.480845
       Atomic Center   56 is at  -2.473082  4.125231 -4.799299
       Atomic Center   57 is at  -2.497002  2.871562 -3.156898
       Atomic Center   58 is at  -2.616873  3.620605 -2.476319
       Atomic Center   59 is at  -2.411399  1.528632 -2.704714
       Atomic Center   60 is at  -2.237423  0.505083 -3.670267
       Atomic Center   61 is at  -2.170594 -0.468203 -3.378155
       Atomic Center   62 is at  -2.148871  0.809823 -4.989045
       Atomic Center   63 is at  -2.027467  0.048871 -5.655646
       Atomic Center   64 is at  -2.134426  2.489396 -6.862402
       Atomic Center   65 is at  -2.405789  3.669915 -7.289994
       Atomic Center   66 is at  -1.733709  1.533908 -7.755745
       Atomic Center   67 is at  -1.558862  0.578558 -7.463036
       Atomic Center   68 is at  -5.033735 -0.238893  6.553729
       Atomic Center   69 is at  -1.650740  1.699382 -8.829912
 -----------------------------------------------------------------

              Electrostatic Properties (Atomic Units)

 -----------------------------------------------------------------
    Center     Electric         -------- Electric Field --------
               Potential          X             Y             Z
 -----------------------------------------------------------------
    1 Atom    -14.579024     -0.006399      0.007832     -0.004331
    2 Atom     -0.977345      0.014439      0.001025      0.072164
    3 Atom    -22.193122      0.015580     -0.030804      0.009741
    4 Atom    -14.565747     -0.000056     -0.011596     -0.004980
    5 Atom     -0.976255     -0.067543      0.022697     -0.003814
    6 Atom    -22.203560      0.026514      0.016519     -0.022965
    7 Atom     -0.848203     -0.005401     -0.000450      0.006444
    8 Atom    -14.557665      0.003607     -0.001721      0.011733
    9 Atom     -0.957277     -0.048910     -0.028036     -0.046081
   10 Atom    -22.220649      0.002151      0.006250     -0.039592
   11 Atom     -0.870282      0.004214      0.011279      0.012245
   12 Atom    -14.510968     -0.010647      0.009995      0.001945
   13 Atom     -0.947112      0.056456      0.036447      0.019008
   14 Atom    -18.114666     -0.000278      0.000199      0.000402
   15 Atom    -14.533338     -0.001003     -0.008664     -0.005711
   16 Atom     -0.902180      0.040033      0.048513      0.037527
   17 Atom    -14.571859     -0.001929     -0.003049     -0.002036
   18 Atom    -14.575941     -0.000251      0.006796      0.008637
   19 Atom     -0.944489      0.029804     -0.051757     -0.046742
   20 Atom     -1.021222      0.016155     -0.006720      0.068303
   21 Atom    -14.590833      0.006889      0.005446      0.003103
   22 Atom     -0.934885     -0.048085     -0.045437     -0.032081
   23 Atom    -14.535127      0.007770     -0.003407     -0.005196
   24 Atom     -0.906696     -0.069069      0.003729      0.022126
   25 Atom    -14.513391      0.004626     -0.012442     -0.008016
   26 Atom    -22.260714      0.008552     -0.022342     -0.016953
   27 Atom    -18.227742     -0.003598     -0.000259     -0.009722
   28 Atom     -0.876823     -0.000472      0.008753      0.007065
   29 Atom     -0.883573      0.010823     -0.003490     -0.003406
   30 Atom    -18.318283      0.000691     -0.025923     -0.000711
   31 Atom    -14.547680     -0.012959     -0.004061      0.004141
   32 Atom    -18.263415     -0.004740      0.002871     -0.001260
   33 Atom     -0.918528     -0.001803     -0.014244      0.001010
   34 Atom     -0.910376     -0.000112     -0.003975     -0.000196
   35 Atom    -18.246164     -0.004978     -0.002133     -0.000467
   36 Atom     -0.902494     -0.005682      0.006625     -0.000761
[...]
     Eigenvalues ---    1.59011   1.59094   1.61554   1.61993   1.73272
     Eigenvalues ---    1.76251   1.77673   1.77820   1.86906   1.92431
     Eigenvalues ---    2.07048
 Quadratic step=6.086D+00 exceeds max=3.000D-01 adjusted using Lamda=-3.844D-01.
 Angle between NR and scaled steps=  82.84 degrees.
 Angle between quadratic step and forces=  22.50 degrees.
 Linear search not attempted -- first point.
 Variable       Old X    -DE/DX   Delta X   Delta X   Delta X     New X
                                 (Linear)    (Quad)   (Total)
    X1       -7.87302   0.00776   0.00000   0.01209   0.01209  -7.86093
    Y1        0.74691   0.00072   0.00000  -0.00159  -0.00159   0.74532
    Z1       12.73004  -0.06234   0.00000  -0.03703  -0.03703  12.69301
    X2       -7.52278   0.01049   0.00000   0.01418   0.01418  -7.50860
    Y2        0.84248   0.00038   0.00000  -0.00417  -0.00417   0.83831
    Z2       14.62876   0.05139   0.00000   0.04367   0.04367  14.67243
    X3       -5.65415  -0.00295   0.00000  -0.01018  -0.01018  -5.66433
    Y3       -0.37840   0.01221   0.00000  -0.00056  -0.00056  -0.37896
    Z3       11.49382  -0.01233   0.00000  -0.01548  -0.01548  11.47834
    X4       -8.11117   0.04989   0.00000   0.02674   0.02674  -8.08443
    Y4        3.38798  -0.01393   0.00000  -0.00441  -0.00441   3.38357
    Z4       11.57941   0.01408   0.00000   0.01252   0.01252  11.59194
    X5       -9.92755  -0.04779   0.00000  -0.04578  -0.04578  -9.97332
    Y5        4.06847   0.01518   0.00000   0.01206   0.01206   4.08053
    Z5       11.56415  -0.00360   0.00000  -0.00598  -0.00598  11.55817
    X6       -6.50111  -0.00472   0.00000   0.00460   0.00460  -6.49651
    Y6        5.19842  -0.01155   0.00000  -0.01734  -0.01734   5.18108
    Z6       12.84925   0.00153   0.00000  -0.00106  -0.00106  12.84819
    X7       -6.87183  -0.00124   0.00000  -0.00750  -0.00750  -6.87933
    Y7        5.36421  -0.00353   0.00000  -0.00757  -0.00757   5.35664
    Z7       14.65623  -0.01825   0.00000  -0.02323  -0.02323  14.63300
    X8       -6.96871   0.05291   0.00000   0.03114   0.03114  -6.93757
    Y8        3.06522   0.04333   0.00000   0.02617   0.02617   3.09138
    Z8        8.92008   0.03650   0.00000   0.02696   0.02696   8.94704
    X9       -8.22971  -0.03491   0.00000  -0.02905  -0.02905  -8.25876
    Y9        2.29686  -0.02021   0.00000  -0.01128  -0.01128   2.28558
    Z9        7.66627  -0.03246   0.00000  -0.02190  -0.02190   7.64437
   X10       -6.07087  -0.00592   0.00000  -0.00119  -0.00119  -6.07206
   Y10        5.40171  -0.01423   0.00000  -0.01097  -0.01097   5.39074
   Z10        7.93888   0.00698   0.00000   0.00498   0.00498   7.94386
   X11       -5.70120  -0.00089   0.00000   0.00053   0.00053  -5.70067
   Y11        6.47181  -0.00410   0.00000  -0.00354  -0.00354   6.46827
   Z11        9.39731  -0.00739   0.00000  -0.01106  -0.01106   9.38625
   X12       -4.75085  -0.06180   0.00000  -0.03645  -0.03645  -4.78730
   Y12        1.22542  -0.03740   0.00000  -0.02190  -0.02190   1.20352
   Z12        9.48938   0.00829   0.00000   0.01172   0.01172   9.50111
   X13       -3.19129   0.03991   0.00000   0.03403   0.03403  -3.15726
   Y13        2.21425   0.02569   0.00000   0.01911   0.01911   2.23336
   Z13       10.08830   0.01198   0.00000   0.01051   0.01051  10.09881
   X14       -3.92131   0.00410   0.00000  -0.00421  -0.00421  -3.92552
   Y14       -0.44758  -0.00750   0.00000   0.00024   0.00024  -0.44734
   Z14        7.39427  -0.01058   0.00000  -0.00136  -0.00136   7.39291
   X15       -1.39814  -0.04896   0.00000  -0.02808  -0.02808  -1.42622
   Y15       -0.51671  -0.02764   0.00000  -0.01282  -0.01282  -0.52953
   Z15        6.82039  -0.01362   0.00000  -0.00230  -0.00230   6.81810
   X16       -0.31332   0.02815   0.00000   0.02149   0.02149  -0.29183
   Y16        0.78080   0.03454   0.00000   0.03238   0.03238   0.81318
   Z16        7.73595   0.02786   0.00000   0.03221   0.03221   7.76816
   X17       -0.43436  -0.00216   0.00000   0.00323   0.00323  -0.43113
   Y17       -2.23027  -0.01620   0.00000  -0.01049  -0.01049  -2.24076
   Z17        5.16757  -0.01465   0.00000  -0.00448  -0.00448   5.16309
   X18       -2.14266  -0.00028   0.00000   0.01376   0.01376  -2.12890
   Y18       -3.85657   0.04334   0.00000   0.01521   0.01521  -3.84136
   Z18        3.87246   0.04865   0.00000   0.03247   0.03247   3.90493
   X19       -1.43579   0.02206   0.00000   0.02712   0.02712  -1.40867
   Y19       -5.24428  -0.03631   0.00000  -0.03044  -0.03044  -5.27472
   Z19        2.73951  -0.03484   0.00000  -0.03522  -0.03522   2.70429
   X20       -1.92348   0.01189   0.00000   0.01436   0.01436  -1.90912
   Y20       -1.86409  -0.00485   0.00000  -0.00224  -0.00224  -1.86633
   Z20        0.51134   0.04763   0.00000   0.04211   0.04211   0.55345
   X21       -4.68997   0.02994   0.00000   0.01706   0.01706  -4.67290
   Y21       -3.72798   0.02269   0.00000   0.01429   0.01429  -3.71369
   Z21        4.45515   0.01370   0.00000   0.00960   0.00960   4.46474
   X22       -5.93676  -0.03448   0.00000  -0.03349  -0.03349  -5.97025
   Y22       -4.92125  -0.03222   0.00000  -0.02968  -0.02968  -4.95094
   Z22        3.60223  -0.02275   0.00000  -0.02272  -0.02272   3.57951
   X23       -5.56159   0.05915   0.00000   0.02832   0.02832  -5.53327
   Y23       -2.07344   0.02063   0.00000   0.02041   0.02041  -2.05303
   Z23        6.21606   0.00504   0.00000   0.01009   0.01009   6.22615
   X24       -7.41187  -0.04868   0.00000  -0.04483  -0.04483  -7.45670
   Y24       -1.98961   0.00343   0.00000   0.00893   0.00893  -1.98067
   Z24        6.74394   0.01674   0.00000   0.02190   0.02190   6.76584
   X25        2.36633   0.03772   0.00000   0.01678   0.01678   2.38310
   Y25       -2.63554  -0.03578   0.00000  -0.01266  -0.01266  -2.64820
   Z25        4.79318  -0.02522   0.00000  -0.00497  -0.00497   4.78822
   X26        3.11257  -0.02641   0.00000  -0.02768  -0.02768   3.08489
   Y26       -4.42806   0.04041   0.00000   0.02188   0.02188  -4.40618
   Z26        3.46274   0.02859   0.00000   0.01298   0.01298   3.47572
   X27        4.06342  -0.01324   0.00000  -0.01527  -0.01527   4.04815
   Y27       -1.09281  -0.00008   0.00000  -0.00640  -0.00640  -1.09922
   Z27        5.98808   0.00600   0.00000   0.00415   0.00415   5.99222
   X28        3.53189   0.00525   0.00000   0.00334   0.00334   3.53524
   Y28        0.25079  -0.00790   0.00000  -0.00959  -0.00959   0.24120
   Z28        7.25687  -0.00793   0.00000  -0.00870  -0.00870   7.24817
   X29        5.90629  -0.01159   0.00000  -0.02041  -0.02041   5.88588
   Y29       -1.66722   0.00326   0.00000   0.00581   0.00581  -1.66142
   Z29        6.03700  -0.00395   0.00000  -0.00872  -0.00872   6.02828
   X30        4.06184   0.02443   0.00000   0.01445   0.01445   4.07630
   Y30       -5.86163   0.02605   0.00000   0.02063   0.02063  -5.84100
   Z30       -3.68718  -0.00951   0.00000  -0.00922  -0.00922  -3.69640
   X31        6.18873  -0.03388   0.00000  -0.02271  -0.02271   6.16602
   Y31       -4.59928  -0.01310   0.00000  -0.00511  -0.00511  -4.60439
   Z31       -4.31501   0.01038   0.00000   0.00729   0.00729  -4.30772
   X32        8.31211   0.00864   0.00000  -0.01067  -0.01067   8.30144
   Y32       -5.88177   0.01396   0.00000   0.01283   0.01283  -5.86894
   Z32       -5.00592  -0.00087   0.00000   0.00507   0.00507  -5.00085
   X33        8.35851  -0.00263   0.00000  -0.00774  -0.00774   8.35077
   Y33       -7.79556   0.00935   0.00000   0.01799   0.01799  -7.77757
   Z33       -4.91168   0.00010   0.00000   0.00093   0.00093  -4.91074
   X34        9.92755  -0.01890   0.00000  -0.02596  -0.02596   9.90159
   Y34       -4.90296  -0.01468   0.00000  -0.01716  -0.01716  -4.92012
   Z34       -5.49057   0.00567   0.00000   0.00812   0.00812  -5.48245
   X35        6.31189   0.01850   0.00000  -0.00332  -0.00332   6.30857
   Y35       -2.00009  -0.02075   0.00000  -0.01676  -0.01676  -2.01685
   Z35       -4.31177  -0.00143   0.00000   0.00632   0.00632  -4.30545
   X36        8.06167  -0.02519   0.00000  -0.03734  -0.03734   8.02433
   Y36       -1.14317  -0.00344   0.00000  -0.00590  -0.00590  -1.14907
   Z36       -4.56349   0.00208   0.00000   0.00193   0.00193  -4.56156
   X37        4.25074   0.00751   0.00000  -0.00069  -0.00069   4.25006
   Y37       -0.49708   0.07828   0.00000   0.02435   0.02435  -0.47273
   Z37       -3.70230   0.00573   0.00000   0.00718   0.00718  -3.69512
   X38        4.54428  -0.01226   0.00000  -0.01555  -0.01555   4.52873
   Y38        1.90950  -0.07198   0.00000  -0.04918  -0.04918   1.86032
   Z38       -3.61047  -0.00156   0.00000   0.00150   0.00150  -3.60897
   X39        1.96681  -0.01528   0.00000  -0.00690  -0.00690   1.95991
   Y39       -1.81263  -0.00008   0.00000   0.00370   0.00370  -1.80893
   Z39       -3.15526   0.00297   0.00000   0.00223   0.00223  -3.15303
   X40       -0.28351   0.00759   0.00000   0.00793   0.00793  -0.27558
   Y40       -0.42070  -0.00377   0.00000  -0.00173  -0.00173  -0.42243
   Z40       -2.67142  -0.00107   0.00000  -0.00950  -0.00950  -2.68092
   X41        0.05110  -0.00183   0.00000  -0.00133  -0.00133   0.04977
   Y41        1.40833  -0.00623   0.00000  -0.00827  -0.00827   1.40006
   Z41       -2.15919  -0.00387   0.00000  -0.00825  -0.00825  -2.16743
   X42       -2.33749  -0.00678   0.00000   0.00889   0.00889  -2.32860
   Y42       -1.70247   0.01048   0.00000   0.01421   0.01421  -1.68826
   Z42       -1.38477  -0.05375   0.00000  -0.03318  -0.03318  -1.41795
   X43       -2.61948   0.06229   0.00000   0.03519   0.03519  -2.58429
   Y43       -4.40484   0.02950   0.00000   0.01862   0.01862  -4.38621
   Z43       -2.44472   0.01531   0.00000   0.00297   0.00297  -2.44175
   X44       -3.89911  -0.03678   0.00000  -0.02880  -0.02880  -3.92792
   Y44       -5.37952  -0.02962   0.00000  -0.02598  -0.02598  -5.40551
   Z44       -1.38116   0.03335   0.00000   0.03804   0.03804  -1.34312
   X45       -3.30466  -0.01861   0.00000  -0.01395  -0.01395  -3.31861
   Y45       -4.32278   0.00475   0.00000   0.00936   0.00936  -4.31342
   Z45       -4.25541  -0.05043   0.00000  -0.05640  -0.05640  -4.31181
   X46       -0.18573   0.00091   0.00000   0.01481   0.01481  -0.17091
   Y46       -5.70801   0.00093   0.00000   0.00620   0.00620  -5.70181
   Z46       -2.36889   0.00078   0.00000   0.00195   0.00195  -2.36695
   X47       -0.18590   0.00390   0.00000   0.00917   0.00917  -0.17673
   Y47       -7.61535   0.00804   0.00000   0.01336   0.01336  -7.60200
   Z47       -2.59255  -0.00168   0.00000  -0.00433  -0.00433  -2.59688
   X48        1.96675   0.01594   0.00000   0.01786   0.01786   1.98462
   Y48       -4.42247  -0.00596   0.00000   0.00114   0.00114  -4.42133
   Z48       -3.10703  -0.00132   0.00000   0.00009   0.00009  -3.10694
   X49       -4.91845   0.06479   0.00000   0.03792   0.03792  -4.88054
   Y49       -0.21844   0.03211   0.00000   0.01770   0.01770  -0.20073
   Z49       -1.56858  -0.02926   0.00000  -0.02203  -0.02203  -1.59062
   X50       -5.67933  -0.02094   0.00000  -0.01063  -0.01063  -5.68995
   Y50       -0.09114   0.00412   0.00000   0.00656   0.00656  -0.08458
   Z50        0.19989   0.05125   0.00000   0.04851   0.04851   0.24839
   X51       -6.15217  -0.03482   0.00000  -0.02996  -0.02996  -6.18213
   Y51       -1.23577  -0.02914   0.00000  -0.02755  -0.02755  -1.26332
   Z51       -2.65698  -0.03279   0.00000  -0.04121  -0.04121  -2.69818
   X52       -4.70332  -0.00017   0.00000   0.00689   0.00689  -4.69643
   Y52        2.35060  -0.00636   0.00000  -0.00087  -0.00087   2.34973
   Z52       -2.56555   0.01606   0.00000   0.00680   0.00680  -2.55875
   X53       -5.19894   0.00259   0.00000   0.00248   0.00248  -5.19646
   Y53        3.76341  -0.00610   0.00000  -0.00619  -0.00619   3.75722
   Z53       -1.35869  -0.01054   0.00000  -0.01263  -0.01263  -1.37132
   X54       -4.22550   0.00016   0.00000  -0.00058  -0.00058  -4.22609
   Y54        4.04897  -0.01277   0.00000  -0.00165  -0.00165   4.04731
   Z54      -10.29663   0.02695   0.00000  -0.00277  -0.00277 -10.29940
   X55       -4.56939   0.00700   0.00000   0.00365   0.00365  -4.56575
   Y55        5.97026  -0.05439   0.00000  -0.03351  -0.03351   5.93675
   Z55       -8.46757  -0.01640   0.00000  -0.01781  -0.01781  -8.48538
   X56       -4.67345  -0.00340   0.00000  -0.00343  -0.00343  -4.67687
   Y56        7.79556   0.04979   0.00000   0.04464   0.04464   7.84019
   Z56       -9.06936  -0.01845   0.00000  -0.02334  -0.02334  -9.09271
   X57       -4.71865   0.00573   0.00000   0.00020   0.00020  -4.71845
   Y57        5.42647  -0.05840   0.00000  -0.03850  -0.03850   5.38796
   Z57       -5.96567  -0.01082   0.00000  -0.00127  -0.00127  -5.96694
   X58       -4.94517  -0.00626   0.00000  -0.00589  -0.00589  -4.95106
   Y58        6.84195   0.03877   0.00000   0.03242   0.03242   6.87437
   Z58       -4.67956   0.03587   0.00000   0.03597   0.03597  -4.64360
   X59       -4.55688  -0.00042   0.00000  -0.00490  -0.00490  -4.56178
   Y59        2.88870   0.00303   0.00000  -0.00023  -0.00023   2.88847
   Z59       -5.11117  -0.01535   0.00000   0.00146   0.00146  -5.10970
   X60       -4.22812  -0.00822   0.00000  -0.01001  -0.01001  -4.23813
   Y60        0.95447   0.05311   0.00000   0.03260   0.03260   0.98707
   Z60       -6.93580   0.01979   0.00000   0.01936   0.01936  -6.91644
   X61       -4.10183   0.00444   0.00000   0.00467   0.00467  -4.09715
   Y61       -0.88478  -0.04871   0.00000  -0.04355  -0.04355  -0.92832
   Z61       -6.38379   0.01596   0.00000   0.02072   0.02072  -6.36306
   X62       -4.06078  -0.00632   0.00000  -0.00711  -0.00711  -4.06789
   Y62        1.53034   0.06120   0.00000   0.03942   0.03942   1.56976
   Z62       -9.42793   0.00635   0.00000  -0.00051  -0.00051  -9.42844
   X63       -3.83136   0.00564   0.00000   0.00391   0.00391  -3.82745
   Y63        0.09235  -0.03983   0.00000  -0.03437  -0.03437   0.05799
   Z63      -10.68762  -0.03320   0.00000  -0.03150  -0.03150 -10.71912
   X64       -4.03348  -0.01454   0.00000  -0.00605  -0.00605  -4.03953
   Y64        4.70428   0.07849   0.00000   0.02646   0.02646   4.73074
   Z64      -12.96806  -0.05985   0.00000  -0.04290  -0.04290 -13.01096
   X65       -4.54628   0.01764   0.00000   0.00950   0.00950  -4.53678
   Y65        6.93513  -0.07342   0.00000  -0.04220  -0.04220   6.89293
   Z65      -13.77609   0.03179   0.00000   0.02110   0.02110 -13.75499
   X66       -3.27623   0.00511   0.00000  -0.00299  -0.00299  -3.27923
   Y66        2.89867  -0.00738   0.00000   0.00198   0.00198   2.90064
   Z66      -14.65623  -0.03981   0.00000  -0.02283  -0.02283 -14.67906
   X67       -2.94582  -0.00009   0.00000   0.00101   0.00101  -2.94482
   Y67        1.09332   0.00994   0.00000   0.01595   0.01595   1.10926
   Z67      -14.10309  -0.00231   0.00000  -0.00676  -0.00676 -14.10986
   X68       -9.51238  -0.00034   0.00000   0.00087   0.00087  -9.51151
   Y68       -0.45144   0.00056   0.00000   0.00352   0.00352  -0.44793
   Z68       12.38475  -0.00260   0.00000  -0.01330  -0.01330  12.37146
   X69       -3.11945  -0.00839   0.00000  -0.01357  -0.01357  -3.13302
   Y69        3.21137   0.00127   0.00000   0.00809   0.00809   3.21945
   Z69      -16.68612   0.06144   0.00000   0.07391   0.07391 -16.61220
         Item               Value     Threshold  Converged?
 Maximum Force            0.078485     0.000450     NO 
 RMS     Force            0.027541     0.000300     NO 
 Maximum Displacement     0.073912     0.001800     NO 
 RMS     Displacement     0.020859     0.001200     NO 
 Predicted change in Energy=-7.224430D-02
 GradGradGradGradGradGradGradGradGradGradGradGradGradGradGradGradGradGrad

 Leave Link  103 at Sat Jun 22 18:00:07 2024, MaxMem=  2684354560 cpu:               3.1 elap:               0.2
 (Enter /storage/apps/GAUSSIAN/G16_RevA03/g16/l9999.exe)

 Test job not archived.
 1\1\GINC-T078\Force\RM062X\def2TZVP\C24H30N9O6(1+)\LV87696\22-Jun-2024
 \0\\#P M062X/Def2TZVP scf=(direct,conver=8) EmpiricalDispersion=GD3 No
 Symm force Charge Prop=(Field,Read)\\Gaussian run using SANDER externa
 l interface, route from template gau_job.tpl\\1,1\C,-4.1662216898,0.39
 52487796,6.7364451461\H,-3.9808862843,0.4458195888,7.7412058343\O,-2.9
 920488817,-0.2002403498,6.0822673076\C,-4.2922475044,1.7928395651,6.12
 75622178\H,-5.2534321695,2.1529418196,6.1194850569\O,-3.4402409028,2.7
 508838005,6.7995317685\H,-3.6364158675,2.8386185182,7.7557453093\C,-3.
 6876801977,1.6220423436,4.7203032771\H,-4.3549762092,1.2154483461,4.05
 68154154\O,-3.2125663655,2.8584598298,4.2010749252\H,-3.0169468095,3.4
 247352185,4.9728415942\C,-2.5140435689,0.6484663851,5.0215649686\H,-1.
 6887562802,1.1717291256,5.3384980903\N,-2.0750692566,-0.2368488757,3.9
 128785421\C,-0.7398613347,-0.2734328463,3.6091975311\H,-0.1657999689,0
 .4131796698,4.0936859902\C,-0.2298524134,-1.1802067075,2.7345610837\C,
 -1.1338488327,-2.0408091782,2.049215766\H,-0.7597858887,-2.7751546966,
 1.4496866752\H,-1.0178615454,-0.9864313642,0.2705905008\C,-2.481822645
 ,-1.9727622042,2.3575627061\H,-3.1415968946,-2.6042156412,1.9062181138
 \C,-2.9430678128,-1.0972157973,3.289399424\H,-3.9221946086,-1.05285527
 61,3.5687413082\C,1.2522067781,-1.3946682748,2.5364442431\O,1.64709994
 72,-2.343229068,1.8324024776\N,2.150268803,-0.5782919177,3.1687529472\
 H,1.8689980405,0.1327144,3.8401684049\H,3.1254762865,-0.8822571538,3.1
 946413078\N,2.1494353495,-3.1018409522,-1.9511726569\C,3.2749330032,-2
 .4338335562,-2.2834052024\N,4.3985803088,-3.1124992749,-2.6490182163\H
 ,4.4231347313,-4.125231446,-2.5991474425\H,5.2534321695,-2.594535653,-
 2.9054846743\N,3.3401061717,-1.0584039148,-2.281691266\H,4.2660520676,
 -0.6049382873,-2.4148964062\C,2.2493968673,-0.2630414746,-1.9591710981
 \O,2.404729649,1.0104652313,-1.9105785674\C,1.0407930452,-0.9592006062
 ,-1.6696935774\N,-0.1500277623,-0.2226247457,-1.4136566726\H,0.0270416
 532,0.7452571507,-1.1425927497\C,-1.2369441673,-0.9009086797,-0.732790
 7226\C,-1.3861698796,-2.3309404459,-1.2936881657\H,-2.0633216171,-2.84
 6721898,-0.7308796205\H,-1.7487508646,-2.2875167926,-2.251867044\N,-0.
 0982814946,-3.0205470508,-1.2535645395\H,-0.0983719371,-4.0298706677,-
 1.3719185135\C,1.0407615227,-2.3402717122,-1.6441710436\C,-2.602732948
 6,-0.1155908337,-0.8300590107\H,-3.005370629,-0.0482316285,0.105776610
 8\H,-3.2555861951,-0.6539407351,-1.4060112879\N,-2.4888903501,1.243884
 2172,-1.3576325846\H,-2.7511607919,1.9915113296,-0.7189886747\C,-2.236
 0389067,2.1426208042,-5.4487434818\C,-2.4180192751,3.1593260134,-4.480
 845425\H,-2.4730819898,4.125231446,-4.7992994795\C,-2.4970015812,2.871
 5618618,-3.1568975139\H,-2.6168732915,3.6206045318,-2.4763189913\C,-2.
 4113986606,1.528632417,-2.7047135251\C,-2.2374225976,0.5050833836,-3.6
 702665332\H,-2.1705944375,-0.4682028819,-3.3781552914\C,-2.1488711032,
 0.8098233051,-4.9890446551\H,-2.027466686,0.0488712233,-5.6556462285\C
 ,-2.1344258015,2.4893959825,-6.8624015639\O,-2.405789475,3.6699146694,
 -7.2899938034\N,-1.7337088048,1.5339081911,-7.7557453093\H,-1.55886171
 8,0.5785583459,-7.4630362594\H,-5.0337347391,-0.2388929572,6.553728515
 6\H,-1.6507399619,1.6993819676,-8.8299122425\\Version=ES64L-G16RevA.03
 \HF=-1876.4327553\RMSD=1.850e-09\RMSF=2.754e-02\Dipole=-1.0478159,-3.2
 929756,8.6224002\Quadrupole=15.6223462,-49.7374057,34.1150595,-3.45643
 15,-63.2568726,50.3211782\PG=C01 [X(C24H30N9O6)]\\@


 THE ONLY DIFFERENCE BETWEEN ECCENTRICS AND JOGGERS
 IS THAT JOGGERS WEAR SWEATBANDS WHEN THEY RUN IN THE RAIN.
 Job cpu time:       0 days  8 hours 46 minutes 42.6 seconds.
 Elapsed time:       0 days  0 hours 33 minutes  0.1 seconds.
 File lengths (MBytes):  RWF=   1039 Int=      0 D2E=      0 Chk=    113 Scr=      1
 Normal termination of Gaussian 16 at Sat Jun 22 18:00:07 2024.
