 Entering Gaussian System, Link 0=g16
 Initial command:
 /storage/apps/GAUSSIAN/G16_RevA03/g16/l1.exe "/scratch/tmp/2140832/Gau-101297.inp" -scrdir="/scratch/tmp/2140832/"
 Entering Link 1 = /storage/apps/GAUSSIAN/G16_RevA03/g16/l1.exe PID=    101299.
  
 Copyright (c) 1988,1990,1992,1993,1995,1998,2003,2009,2016,
            Gaussian, Inc.  All Rights Reserved.
  
 This is part of the Gaussian(R) 16 program.  It is based on
 the Gaussian(R) 09 system (copyright 2009, Gaussian, Inc.),
 the Gaussian(R) 03 system (copyright 2003, Gaussian, Inc.),
 the Gaussian(R) 98 system (copyright 1998, Gaussian, Inc.),
 the Gaussian(R) 94 system (copyright 1995, Gaussian, Inc.),
 the Gaussian 92(TM) system (copyright 1992, Gaussian, Inc.),
 the Gaussian 90(TM) system (copyright 1990, Gaussian, Inc.),
 the Gaussian 88(TM) system (copyright 1988, Gaussian, Inc.),
 the Gaussian 86(TM) system (copyright 1986, Carnegie Mellon
 University), and the Gaussian 82(TM) system (copyright 1983,
 Carnegie Mellon University). Gaussian is a federally registered
 trademark of Gaussian, Inc.
  
 This software contains proprietary and confidential information,
 including trade secrets, belonging to Gaussian, Inc.
  
 This software is provided under written license and may be
 used, copied, transmitted, or stored only in accord with that
 written license.
  
 The following legend is applicable only to US Government
 contracts under FAR:
  
                    RESTRICTED RIGHTS LEGEND
  
 Use, reproduction and disclosure by the US Government is
 subject to restrictions as set forth in subparagraphs (a)
 and (c) of the Commercial Computer Software - Restricted
 Rights clause in FAR 52.227-19.
  
 Gaussian, Inc.
 340 Quinnipiac St., Bldg. 40, Wallingford CT 06492
  
  
 ---------------------------------------------------------------
 Warning -- This program may not be used in any manner that
 competes with the business of Gaussian, Inc. or will provide
 assistance to any competitor of Gaussian, Inc.  The licensee
 of this program is prohibited from giving any competitor of
 Gaussian, Inc. access to this program.  By using this program,
 the user acknowledges that Gaussian, Inc. is engaged in the
 business of creating and licensing software in the field of
 computational chemistry and represents and warrants to the
 licensee that it is not a competitor of Gaussian, Inc. and that
 it will not use this program in any manner prohibited above.
 ---------------------------------------------------------------
  

 Cite this work as:
 Gaussian 16, Revision A.03,
 M. J. Frisch, G. W. Trucks, H. B. Schlegel, G. E. Scuseria, 
 M. A. Robb, J. R. Cheeseman, G. Scalmani, V. Barone, 
 G. A. Petersson, H. Nakatsuji, X. Li, M. Caricato, A. V. Marenich, 
 J. Bloino, B. G. Janesko, R. Gomperts, B. Mennucci, H. P. Hratchian, 
 J. V. Ortiz, A. F. Izmaylov, J. L. Sonnenberg, D. Williams-Young, 
 F. Ding, F. Lipparini, F. Egidi, J. Goings, B. Peng, A. Petrone, 
 T. Henderson, D. Ranasinghe, V. G. Zakrzewski, J. Gao, N. Rega, 
 G. Zheng, W. Liang, M. Hada, M. Ehara, K. Toyota, R. Fukuda, 
 J. Hasegawa, M. Ishida, T. Nakajima, Y. Honda, O. Kitao, H. Nakai, 
 T. Vreven, K. Throssell, J. A. Montgomery, Jr., J. E. Peralta, 
 F. Ogliaro, M. J. Bearpark, J. J. Heyd, E. N. Brothers, K. N. Kudin, 
 V. N. Staroverov, T. A. Keith, R. Kobayashi, J. Normand, 
 K. Raghavachari, A. P. Rendell, J. C. Burant, S. S. Iyengar, 
 J. Tomasi, M. Cossi, J. M. Millam, M. Klene, C. Adamo, R. Cammi, 
 J. W. Ochterski, R. L. Martin, K. Morokuma, O. Farkas, 
 J. B. Foresman, and D. J. Fox, Gaussian, Inc., Wallingford CT, 2016.
 
 ******************************************
 Gaussian 16:  ES64L-G16RevA.03 25-Dec-2016
                22-Jun-2024 
 ******************************************
 %chk=gau_job.chk
 %NProcShared=16
 Will use up to   16 processors via shared memory.
 %mem=20GB
 ----------------------------------------------------------------------
 #P M062X/Def2TZVP scf=(direct,conver=8) EmpiricalDispersion=GD3 NoSymm
  force Charge Prop=(Field,Read)
 ----------------------------------------------------------------------
 1/10=7,18=10,28=-2,30=1,38=1,125=101/1,3;
 2/12=2,15=1,17=6,18=5,29=2,40=1/2;
 3/5=44,7=101,11=2,25=1,30=1,71=1,74=-55,124=31/1,2,3;
 4//1;
 5/5=2,6=8,38=5/2;
 6/7=2,8=2,9=2,10=2,14=2,15=1,28=1/1,2;
 7/7=1,16=-2,29=1,30=1/1,2,3,16;
 1/10=7,18=10,28=-2,30=1/3;
 99/12=1/99;
 Leave Link    1 at Sat Jun 22 17:27:07 2024, MaxMem=  2684354560 cpu:               0.9 elap:               0.1
 (Enter /storage/apps/GAUSSIAN/G16_RevA03/g16/l101.exe)
 ----------------------------------------------------------------------
 Gaussian run using SANDER external interface, route from template gau_
 job.tpl
 ----------------------------------------------------------------------
 Symbolic Z-matrix:
 Charge =  1 Multiplicity = 1
 C                    -4.16856   0.39725   6.74057 
 H                    -3.98541   0.44833   7.74571 
 O                    -2.99255  -0.19812   6.08926 
 C                    -4.29336   1.79426   6.13026 
 H                    -5.25428   2.15506   6.12117 
 O                    -3.44084   2.75231   6.80145 
 H                    -3.63598   2.84024   7.75794 
 C                    -3.68798   1.62151   4.72354 
 H                    -4.35468   1.21363   4.06024 
 O                    -3.2125    2.8569    4.20264 
 H                    -3.01645   3.42412   4.97358 
 C                    -2.51449   0.64864   5.02709 
 H                    -1.68889   1.17206   5.3429 
 N                    -2.07579  -0.23983   3.92064 
 C                    -0.74064  -0.27767   3.61702 
 H                    -0.16651   0.4134    4.09505 
 C                    -0.23091  -1.19163   2.74971 
 C                    -1.13525  -2.06042   2.0766 
 H                    -0.76215  -2.79206   1.47324 
 H                    -1.00742  -0.97421   0.26339 
 C                    -2.48189  -1.98569   2.37687 
 H                    -3.14226  -2.61664   1.92565 
 C                    -2.94428  -1.10134   3.30059 
 H                    -3.92452  -1.05131   3.57498 
 C                     1.25127  -1.4028    2.54618 
 O                     1.64583  -2.3528    1.84422 
 N                     2.14937  -0.58092   3.17118 
 H                     1.8689    0.13012   3.84294 
 H                     3.12547  -0.88225   3.19391 
 N                     2.14915  -3.10146  -1.95362 
 C                     3.27518  -2.43409  -2.28496 
 N                     4.39962  -3.11347  -2.64696 
 H                     4.42308  -4.12622  -2.5976 
 H                     5.25428  -2.59595  -2.90487 
 N                     3.34076  -1.05872  -2.28425 
 H                     4.26722  -0.6056   -2.41448 
 C                     2.24896  -0.26284  -1.96664 
 O                     2.40505   1.01068  -1.91717 
 C                     1.03914  -0.95817  -1.68122 
 N                    -0.15368  -0.21995  -1.43463 
 H                     0.02623   0.74703  -1.16133 
 C                    -1.23477  -0.89646  -0.73853 
 C                    -1.38645  -2.32824  -1.29608 
 H                    -2.0623   -2.84379  -0.73131 
 H                    -1.75134  -2.28477  -2.25327 
 N                    -0.09915  -3.01866  -1.25892 
 H                    -0.09913  -4.02862  -1.37157 
 C                     1.03963  -2.33913  -1.65071 
 C                    -2.60301  -0.11561  -0.83632 
 H                    -3.00732  -0.05094   0.09906 
 H                    -3.25329  -0.65533  -1.41377 
 N                    -2.49252   1.24473  -1.36156 
 H                    -2.7536    1.99142  -0.72145 
 C                    -2.23673   2.14351  -5.45179 
 C                    -2.41949   3.16039  -4.48426 
 H                    -2.4741    4.12622  -4.80299 
 C                    -2.49943   2.87296  -3.16035 
 H                    -2.61958   3.62216  -2.48 
 C                    -2.41404   1.53007  -2.7081 
 C                    -2.23956   0.50622  -3.67343 
 H                    -2.17279  -0.46705  -3.38127 
 C                    -2.1498    0.81071  -4.99201 
 H                    -2.02745   0.04975  -5.65842 
 C                    -2.13436   2.48971  -6.86517 
 O                    -2.4056    3.67016  -7.2933 
 N                    -1.73344   1.53384  -7.75794 
 H                    -1.55844   0.57867  -7.46478 
 H                    -5.03544  -0.2373    6.55628 
 H                    -1.65021   1.69884  -8.83216 
 
 ITRead=  0  0  0  0  0  0  0  0  0  0  0  0  0  0  0  0  0  0  0  0
 ITRead=  0  0  0  0  0  0  0  0  0  0  0  0  0  0  0  0  0  0  0  0
 ITRead=  0  0  0  0  0  0  0  0  0  0  0  0  0  0  0  0  0  0  0  0
 ITRead=  0  0  0  0  0  0  0  0  0
 MicOpt= -1 -1 -1 -1 -1 -1 -1 -1 -1 -1 -1 -1 -1 -1 -1 -1 -1 -1 -1 -1
 MicOpt= -1 -1 -1 -1 -1 -1 -1 -1 -1 -1 -1 -1 -1 -1 -1 -1 -1 -1 -1 -1
 MicOpt= -1 -1 -1 -1 -1 -1 -1 -1 -1 -1 -1 -1 -1 -1 -1 -1 -1 -1 -1 -1
 MicOpt= -1 -1 -1 -1 -1 -1 -1 -1 -1
 NAtoms=     69 NQM=       69 NQMF=       0 NMMI=      0 NMMIF=      0
                NMic=       0 NMicF=      0.
                    Isotopes and Nuclear Properties:
 (Nuclear quadrupole moments (NQMom) in fm**2, nuclear magnetic moments (NMagM)
  in nuclear magnetons)

  Atom         1           2           3           4           5           6           7           8           9          10
 IAtWgt=          12           1          16          12           1          16           1          12           1          16
 AtmWgt=  12.0000000   1.0078250  15.9949146  12.0000000   1.0078250  15.9949146   1.0078250  12.0000000   1.0078250  15.9949146
 NucSpn=           0           1           0           0           1           0           1           0           1           0
 AtZEff=  -0.0000000  -0.0000000  -0.0000000  -0.0000000  -0.0000000  -0.0000000  -0.0000000  -0.0000000  -0.0000000  -0.0000000
 NQMom=    0.0000000   0.0000000   0.0000000   0.0000000   0.0000000   0.0000000   0.0000000   0.0000000   0.0000000   0.0000000
 NMagM=    0.0000000   2.7928460   0.0000000   0.0000000   2.7928460   0.0000000   2.7928460   0.0000000   2.7928460   0.0000000
 AtZNuc=   6.0000000   1.0000000   8.0000000   6.0000000   1.0000000   8.0000000   1.0000000   6.0000000   1.0000000   8.0000000

  Atom        11          12          13          14          15          16          17          18          19          20
 IAtWgt=           1          12           1          14          12           1          12          12           1           1
 AtmWgt=   1.0078250  12.0000000   1.0078250  14.0030740  12.0000000   1.0078250  12.0000000  12.0000000   1.0078250   1.0078250
 NucSpn=           1           0           1           2           0           1           0           0           1           1
 AtZEff=  -0.0000000  -0.0000000  -0.0000000  -0.0000000  -0.0000000  -0.0000000  -0.0000000  -0.0000000  -0.0000000  -0.0000000
 NQMom=    0.0000000   0.0000000   0.0000000   2.0440000   0.0000000   0.0000000   0.0000000   0.0000000   0.0000000   0.0000000
 NMagM=    2.7928460   0.0000000   2.7928460   0.4037610   0.0000000   2.7928460   0.0000000   0.0000000   2.7928460   2.7928460
 AtZNuc=   1.0000000   6.0000000   1.0000000   7.0000000   6.0000000   1.0000000   6.0000000   6.0000000   1.0000000   1.0000000

  Atom        21          22          23          24          25          26          27          28          29          30
 IAtWgt=          12           1          12           1          12          16          14           1           1          14
 AtmWgt=  12.0000000   1.0078250  12.0000000   1.0078250  12.0000000  15.9949146  14.0030740   1.0078250   1.0078250  14.0030740
 NucSpn=           0           1           0           1           0           0           2           1           1           2
 AtZEff=  -0.0000000  -0.0000000  -0.0000000  -0.0000000  -0.0000000  -0.0000000  -0.0000000  -0.0000000  -0.0000000  -0.0000000
 NQMom=    0.0000000   0.0000000   0.0000000   0.0000000   0.0000000   0.0000000   2.0440000   0.0000000   0.0000000   2.0440000
 NMagM=    0.0000000   2.7928460   0.0000000   2.7928460   0.0000000   0.0000000   0.4037610   2.7928460   2.7928460   0.4037610
 AtZNuc=   6.0000000   1.0000000   6.0000000   1.0000000   6.0000000   8.0000000   7.0000000   1.0000000   1.0000000   7.0000000

  Atom        31          32          33          34          35          36          37          38          39          40
 IAtWgt=          12          14           1           1          14           1          12          16          12          14
 AtmWgt=  12.0000000  14.0030740   1.0078250   1.0078250  14.0030740   1.0078250  12.0000000  15.9949146  12.0000000  14.0030740
 NucSpn=           0           2           1           1           2           1           0           0           0           2
 AtZEff=  -0.0000000  -0.0000000  -0.0000000  -0.0000000  -0.0000000  -0.0000000  -0.0000000  -0.0000000  -0.0000000  -0.0000000
 NQMom=    0.0000000   2.0440000   0.0000000   0.0000000   2.0440000   0.0000000   0.0000000   0.0000000   0.0000000   2.0440000
 NMagM=    0.0000000   0.4037610   2.7928460   2.7928460   0.4037610   2.7928460   0.0000000   0.0000000   0.0000000   0.4037610
 AtZNuc=   6.0000000   7.0000000   1.0000000   1.0000000   7.0000000   1.0000000   6.0000000   8.0000000   6.0000000   7.0000000

  Atom        41          42          43          44          45          46          47          48          49          50
 IAtWgt=           1          12          12           1           1          14           1          12          12           1
 AtmWgt=   1.0078250  12.0000000  12.0000000   1.0078250   1.0078250  14.0030740   1.0078250  12.0000000  12.0000000   1.0078250
 NucSpn=           1           0           0           1           1           2           1           0           0           1
 AtZEff=  -0.0000000  -0.0000000  -0.0000000  -0.0000000  -0.0000000  -0.0000000  -0.0000000  -0.0000000  -0.0000000  -0.0000000
 NQMom=    0.0000000   0.0000000   0.0000000   0.0000000   0.0000000   2.0440000   0.0000000   0.0000000   0.0000000   0.0000000
 NMagM=    2.7928460   0.0000000   0.0000000   2.7928460   2.7928460   0.4037610   2.7928460   0.0000000   0.0000000   2.7928460
 AtZNuc=   1.0000000   6.0000000   6.0000000   1.0000000   1.0000000   7.0000000   1.0000000   6.0000000   6.0000000   1.0000000

  Atom        51          52          53          54          55          56          57          58          59          60
 IAtWgt=           1          14           1          12          12           1          12           1          12          12
 AtmWgt=   1.0078250  14.0030740   1.0078250  12.0000000  12.0000000   1.0078250  12.0000000   1.0078250  12.0000000  12.0000000
 NucSpn=           1           2           1           0           0           1           0           1           0           0
 AtZEff=  -0.0000000  -0.0000000  -0.0000000  -0.0000000  -0.0000000  -0.0000000  -0.0000000  -0.0000000  -0.0000000  -0.0000000
 NQMom=    0.0000000   2.0440000   0.0000000   0.0000000   0.0000000   0.0000000   0.0000000   0.0000000   0.0000000   0.0000000
 NMagM=    2.7928460   0.4037610   2.7928460   0.0000000   0.0000000   2.7928460   0.0000000   2.7928460   0.0000000   0.0000000
 AtZNuc=   1.0000000   7.0000000   1.0000000   6.0000000   6.0000000   1.0000000   6.0000000   1.0000000   6.0000000   6.0000000

  Atom        61          62          63          64          65          66          67          68          69
 IAtWgt=           1          12           1          12          16          14           1           1           1
 AtmWgt=   1.0078250  12.0000000   1.0078250  12.0000000  15.9949146  14.0030740   1.0078250   1.0078250   1.0078250
 NucSpn=           1           0           1           0           0           2           1           1           1
 AtZEff=  -0.0000000  -0.0000000  -0.0000000  -0.0000000  -0.0000000  -0.0000000  -0.0000000  -0.0000000  -0.0000000
 NQMom=    0.0000000   0.0000000   0.0000000   0.0000000   0.0000000   2.0440000   0.0000000   0.0000000   0.0000000
 NMagM=    2.7928460   0.0000000   2.7928460   0.0000000   0.0000000   0.4037610   2.7928460   2.7928460   2.7928460
 AtZNuc=   1.0000000   6.0000000   1.0000000   6.0000000   8.0000000   7.0000000   1.0000000   1.0000000   1.0000000
 Background charge distribution read from input stream:
 Leave Link  101 at Sat Jun 22 17:27:07 2024, MaxMem=  2684354560 cpu:               2.4 elap:               0.2
 (Enter /storage/apps/GAUSSIAN/G16_RevA03/g16/l103.exe)

 GradGradGradGradGradGradGradGradGradGradGradGradGradGradGradGradGradGrad
 Berny optimization.
 Initialization pass.
 Trust Radius=3.00D-01 FncErr=1.00D-07 GrdErr=1.00D-07 EigMax=2.50D+02 EigMin=1.00D-04
 Number of steps in this run=      2 maximum allowed number of steps=      2.
 GradGradGradGradGradGradGradGradGradGradGradGradGradGradGradGradGradGrad

 Leave Link  103 at Sat Jun 22 17:27:07 2024, MaxMem=  2684354560 cpu:               0.3 elap:               0.1
 (Enter /storage/apps/GAUSSIAN/G16_RevA03/g16/l202.exe)
 Symmetry turned off by external request.
 Stoichiometry    C24H30N9O6(1+)
 Framework group  C1[X(C24H30N9O6)]
 Deg. of freedom   201
 Full point group                 C1      NOp   1
                          Input orientation:                          
 ---------------------------------------------------------------------
 Center     Atomic      Atomic             Coordinates (Angstroms)
 Number     Number       Type             X           Y           Z
 ---------------------------------------------------------------------
      1          6           0       -4.168559    0.397248    6.740575
      2          1           0       -3.985406    0.448329    7.745712
      3          8           0       -2.992552   -0.198117    6.089258
      4          6           0       -4.293364    1.794264    6.130261
      5          1           0       -5.254275    2.155056    6.121170
      6          8           0       -3.440842    2.752315    6.801455
      7          1           0       -3.635976    2.840237    7.757940
      8          6           0       -3.687980    1.621506    4.723543
      9          1           0       -4.354681    1.213630    4.060243
     10          8           0       -3.212504    2.856902    4.202640
     11          1           0       -3.016453    3.424125    4.973579
     12          6           0       -2.514492    0.648640    5.027094
     13          1           0       -1.688891    1.172063    5.342902
     14          7           0       -2.075787   -0.239833    3.920638
     15          6           0       -0.740643   -0.277674    3.617022
     16          1           0       -0.166510    0.413403    4.095046
     17          6           0       -0.230910   -1.191630    2.749706
     18          6           0       -1.135247   -2.060423    2.076597
     19          1           0       -0.762152   -2.792057    1.473242
     20          1           0       -1.007421   -0.974214    0.263390
     21          6           0       -2.481894   -1.985694    2.376869
     22          1           0       -3.142261   -2.616641    1.925646
     23          6           0       -2.944284   -1.101342    3.300591
     24          1           0       -3.924525   -1.051306    3.574980
     25          6           0        1.251269   -1.402803    2.546183
     26          8           0        1.645831   -2.352803    1.844221
     27          7           0        2.149369   -0.580919    3.171177
     28          1           0        1.868905    0.130125    3.842940
     29          1           0        3.125472   -0.882251    3.193908
     30          7           0        2.149145   -3.101455   -1.953621
     31          6           0        3.275175   -2.434095   -2.284956
     32          7           0        4.399619   -3.113470   -2.646956
     33          1           0        4.423081   -4.126218   -2.597600
     34          1           0        5.254275   -2.595949   -2.904872
     35          7           0        3.340756   -1.058723   -2.284253
     36          1           0        4.267217   -0.605602   -2.414477
     37          6           0        2.248964   -0.262839   -1.966636
     38          8           0        2.405047    1.010678   -1.917171
     39          6           0        1.039135   -0.958173   -1.681219
     40          7           0       -0.153680   -0.219948   -1.434629
     41          1           0        0.026231    0.747031   -1.161332
     42          6           0       -1.234772   -0.896462   -0.738531
     43          6           0       -1.386453   -2.328242   -1.296077
     44          1           0       -2.062301   -2.843794   -0.731311
     45          1           0       -1.751342   -2.284771   -2.253272
     46          7           0       -0.099152   -3.018659   -1.258917
     47          1           0       -0.099128   -4.028619   -1.371573
     48          6           0        1.039630   -2.339134   -1.650706
     49          6           0       -2.603012   -0.115609   -0.836319
     50          1           0       -3.007320   -0.050941    0.099058
     51          1           0       -3.253287   -0.655333   -1.413773
     52          7           0       -2.492520    1.244731   -1.361556
     53          1           0       -2.753600    1.991419   -0.721450
     54          6           0       -2.236728    2.143515   -5.451789
     55          6           0       -2.419485    3.160391   -4.484261
     56          1           0       -2.474095    4.126218   -4.802986
     57          6           0       -2.499430    2.872961   -3.160347
     58          1           0       -2.619578    3.622164   -2.479999
     59          6           0       -2.414037    1.530068   -2.708104
     60          6           0       -2.239562    0.506216   -3.673431
     61          1           0       -2.172790   -0.467046   -3.381275
     62          6           0       -2.149803    0.810713   -4.992010
     63          1           0       -2.027453    0.049750   -5.658416
     64          6           0       -2.134362    2.489710   -6.865167
     65          8           0       -2.405602    3.670156   -7.293305
     66          7           0       -1.733440    1.533838   -7.757940
     67          1           0       -1.558438    0.578667   -7.464777
     68          1           0       -5.035441   -0.237301    6.556282
     69          1           0       -1.650211    1.698845   -8.832158
 ---------------------------------------------------------------------
 Rotational constants (GHZ):           0.1084899           0.0511171           0.0386373
 Leave Link  202 at Sat Jun 22 17:27:07 2024, MaxMem=  2684354560 cpu:               0.7 elap:               0.1
 (Enter /storage/apps/GAUSSIAN/G16_RevA03/g16/l301.exe)
 Standard basis: def2TZVP (5D, 7F)
 Ernie: Thresh=  0.10000D-02 Tol=  0.10000D-05 Strict=F.
  1389 basis functions,  2229 primitive gaussians,  1584 cartesian basis functions
   142 alpha electrons      142 beta electrons
       nuclear repulsion energy      4412.4234747829 Hartrees.
 IExCor= 4336 DFT=T Ex+Corr=M062X ExCW=0 ScaHFX=  0.540000
 ScaDFX=  1.000000  1.000000  1.000000  1.000000 ScalE2=  1.000000  1.000000
 IRadAn=      5 IRanWt=     -1 IRanGd=            0 ICorTp=0 IEmpDi=131
 NAtoms=   69 NActive=   69 NUniq=   69 SFac= 1.00D+00 NAtFMM=   60 NAOKFM=T Big=T
 Integral buffers will be    131072 words long.
 Raffenetti 2 integral format.
 Two-electron integral symmetry is turned off.
 R6Disp:  Grimme-D3 Dispersion energy=       -0.0065121685 Hartrees.
 Nuclear repulsion after empirical dispersion term =     4412.4169626144 Hartrees.
 Leave Link  301 at Sat Jun 22 17:27:07 2024, MaxMem=  2684354560 cpu:               1.5 elap:               0.1
 (Enter /storage/apps/GAUSSIAN/G16_RevA03/g16/l302.exe)
 NPDir=0 NMtPBC=     1 NCelOv=     1 NCel=       1 NClECP=     1 NCelD=      1
         NCelK=      1 NCelE2=     1 NClLst=     1 CellRange=     0.0.
 One-electron integrals computed using PRISM.
   1 Symmetry operations used in ECPInt.
 ECPInt:  NShTT=  150975 NPrTT=  462228 LenC2=  106798 LenP2D=  215803.
 LDataN:  DoStor=T MaxTD1= 6 Len=  172
 NBasis=  1389 RedAO= T EigKep=  6.03D-06  NBF=  1389
 NBsUse=  1389 1.00D-06 EigRej= -1.00D+00 NBFU=  1389
 Precomputing XC quadrature grid using
 IXCGrd= 4 IRadAn=           5 IRanWt=          -1 IRanGd=           0 AccXCQ= 0.00D+00.
 Generated NRdTot=       0 NPtTot=           0 NUsed=           0 NTot=          32
 NSgBfM=  1478  1459  1466  1466  1478 MxSgAt=    69 MxSgA2=    69.
 Leave Link  302 at Sat Jun 22 17:27:10 2024, MaxMem=  2684354560 cpu:              45.7 elap:               2.9
 (Enter /storage/apps/GAUSSIAN/G16_RevA03/g16/l303.exe)
 DipDrv:  MaxL=1.
 Leave Link  303 at Sat Jun 22 17:27:11 2024, MaxMem=  2684354560 cpu:               4.3 elap:               0.3
 (Enter /storage/apps/GAUSSIAN/G16_RevA03/g16/l401.exe)
 ExpMin= 9.52D-02 ExpMax= 2.70D+04 ExpMxC= 9.22D+02 IAcc=3 IRadAn=         5 AccDes= 0.00D+00
 Harris functional with IExCor= 1009 and IRadAn=       5 diagonalized for initial guess.
 HarFok:  IExCor= 1009 AccDes= 0.00D+00 IRadAn=         5 IDoV= 1 UseB2=F ITyADJ=14
 ICtDFT=  3500011 ScaDFX=  1.000000  1.000000  1.000000  1.000000
 FoFCou: FMM=F IPFlag=           0 FMFlag=      100000 FMFlg1=        2001
         NFxFlg=           0 DoJE=T BraDBF=F KetDBF=T FulRan=T
         wScrn=  0.000000 ICntrl=       500 IOpCl=  0 I1Cent=   200000004 NGrid=           0
         NMat0=    1 NMatS0=      1 NMatT0=    0 NMatD0=    1 NMtDS0=    0 NMtDT0=    0
 Symmetry not used in FoFCou.
 Harris En= -1875.51316478340    
 JPrj=0 DoOrth=F DoCkMO=F.
 Leave Link  401 at Sat Jun 22 17:27:18 2024, MaxMem=  2684354560 cpu:             108.1 elap:               6.8
 (Enter /storage/apps/GAUSSIAN/G16_RevA03/g16/l502.exe)
 Two-electron integral symmetry not used.
 Closed shell SCF:
 Using DIIS extrapolation, IDIIS=  1040.
 NGot=  2684354560 LenX=  2679300873 LenY=  2676790233
 Requested convergence on RMS density matrix=1.00D-08 within 128 cycles.
 Requested convergence on MAX density matrix=1.00D-06.
 Requested convergence on             energy=1.00D-06.
 No special actions if energy rises.
 Fock matrices will be formed incrementally for  20 cycles.
 Integral accuracy reduced to 1.0D-05 until final iterations.

 Cycle   1  Pass 0  IDiag  1:
 FoFJK:  IHMeth= 1 ICntrl=       0 DoSepK=F KAlg= 0 I1Cent=           0 FoldK=F
 IRaf= 690000000 NMat=       1 IRICut=       1 DoRegI=T DoRafI=F ISym2E= 0 IDoP0=0 IntGTp=1.
 FoFCou: FMM=T IPFlag=           0 FMFlag=      100000 FMFlg1=        2001
         NFxFlg=           0 DoJE=F BraDBF=F KetDBF=F FulRan=T
         wScrn=  0.000000 ICntrl=         0 IOpCl=  0 I1Cent=           0 NGrid=           0
         NMat0=    1 NMatS0=      1 NMatT0=    0 NMatD0=    1 NMtDS0=    0 NMtDT0=    0
 Symmetry not used in FoFCou.
 FMM levels:  10  Number of levels for PrismC:   9
 E= -1875.45807044715    
 DIIS: error= 1.62D-02 at cycle   1 NSaved=   1.
 NSaved= 1 IEnMin= 1 EnMin= -1875.45807044715     IErMin= 1 ErrMin= 1.62D-02
 ErrMax= 1.62D-02  0.00D+00 EMaxC= 1.00D-01 BMatC= 1.38D+00 BMatP= 1.38D+00
 IDIUse=3 WtCom= 8.38D-01 WtEn= 1.62D-01
 Coeff-Com:  0.100D+01
 Coeff-En:   0.100D+01
 Coeff:      0.100D+01
 Gap=    -0.008 Goal=   None    Shift=    0.000
 GapD=   -0.008 DampG=0.250 DampE=0.500 DampFc=0.2500 IDamp=-1.
 Damping current iteration by 2.50D-01
 RMSDP=5.13D+01 MaxDP=1.06D+04              OVMax= 9.98D-01

 Problem detected with inexpensive integrals.
 Switching to full accuracy and repeating last cycle.
 Cycle   2  Pass 1  IDiag  1:
 E= -1875.45819898665     Delta-E=       -0.000128539497 Rises=F Damp=F
 DIIS: error= 1.62D-02 at cycle   1 NSaved=   1.
 NSaved= 1 IEnMin= 1 EnMin= -1875.45819898665     IErMin= 1 ErrMin= 1.62D-02
 ErrMax= 1.62D-02  0.00D+00 EMaxC= 1.00D-01 BMatC= 1.38D+00 BMatP= 1.38D+00
 IDIUse=3 WtCom= 8.38D-01 WtEn= 1.62D-01
 Coeff-Com:  0.100D+01
 Coeff-En:   0.100D+01
 Coeff:      0.100D+01
 Gap=    -0.008 Goal=   None    Shift=    0.000
 GapD=   -0.008 DampG=0.250 DampE=0.500 DampFc=0.2500 IDamp=-1.
 Damping current iteration by 2.50D-01
 RMSDP=4.08D-03 MaxDP=1.23D+00 DE=-1.29D-04 OVMax= 9.05D-01

 Cycle   3  Pass 1  IDiag  1:
 RMSU=  1.02D-03    CP:  1.01D+00
 E= -1875.69024595686     Delta-E=       -0.232046970208 Rises=F Damp=T
 DIIS: error= 9.72D-03 at cycle   2 NSaved=   2.
 NSaved= 2 IEnMin= 2 EnMin= -1875.69024595686     IErMin= 2 ErrMin= 9.72D-03
 ErrMax= 9.72D-03  0.00D+00 EMaxC= 1.00D-01 BMatC= 4.54D-01 BMatP= 1.38D+00
 IDIUse=3 WtCom= 9.03D-01 WtEn= 9.72D-02
 Coeff-Com: -0.626D+00 0.163D+01
 Coeff-En:   0.640D-01 0.936D+00
 Coeff:     -0.559D+00 0.156D+01
 Gap=     0.257 Goal=   None    Shift=    0.000
 GapD=    0.257 DampG=1.000 DampE=1.000 DampFc=1.0000 IDamp=-1.
 RMSDP=1.17D-03 MaxDP=1.43D-01 DE=-2.32D-01 OVMax= 6.94D-01

 Cycle   4  Pass 1  IDiag  1:
 RMSU=  1.16D-03    CP:  1.00D+00  1.08D+00
 E= -1875.89663620709     Delta-E=       -0.206390250231 Rises=F Damp=F
 DIIS: error= 1.84D-02 at cycle   3 NSaved=   3.
 NSaved= 3 IEnMin= 3 EnMin= -1875.89663620709     IErMin= 2 ErrMin= 9.72D-03
 ErrMax= 1.84D-02  0.00D+00 EMaxC= 1.00D-01 BMatC= 5.55D-01 BMatP= 4.54D-01
 IDIUse=2 WtCom= 0.00D+00 WtEn= 1.00D+00
 Coeff-En:   0.000D+00 0.346D+00 0.654D+00
 Coeff:      0.000D+00 0.346D+00 0.654D+00
 Gap=     0.314 Goal=   None    Shift=    0.000
 RMSDP=1.78D-03 MaxDP=2.44D-01 DE=-2.06D-01 OVMax= 9.90D-01

 Cycle   5  Pass 1  IDiag  1:
 RMSU=  1.48D-03    CP:  9.98D-01  1.73D+00  3.79D-01
 E= -1870.01490083394     Delta-E=        5.881735373144 Rises=F Damp=F
 DIIS: error= 4.13D-02 at cycle   4 NSaved=   4.
 NSaved= 4 IEnMin= 3 EnMin= -1875.89663620709     IErMin= 2 ErrMin= 9.72D-03
 ErrMax= 4.13D-02  0.00D+00 EMaxC= 1.00D-01 BMatC= 2.53D+00 BMatP= 4.54D-01
 IDIUse=2 WtCom= 0.00D+00 WtEn= 1.00D+00
 Coeff-En:   0.000D+00 0.000D+00 0.851D+00 0.149D+00
 Coeff:      0.000D+00 0.000D+00 0.851D+00 0.149D+00
 Gap=    -0.129 Goal=   None    Shift=    0.000
 RMSDP=1.88D-03 MaxDP=5.68D-01 DE= 5.88D+00 OVMax= 9.99D-01

 Cycle   6  Pass 1  IDiag  1:
 RMSU=  1.20D-03    CP:  1.01D+00  1.18D+00  5.08D-01  1.06D-01
 E= -1876.30191766339     Delta-E=       -6.287016829450 Rises=F Damp=F
 DIIS: error= 8.31D-03 at cycle   5 NSaved=   5.
 NSaved= 5 IEnMin= 5 EnMin= -1876.30191766339     IErMin= 5 ErrMin= 8.31D-03
 ErrMax= 8.31D-03  0.00D+00 EMaxC= 1.00D-01 BMatC= 1.68D-01 BMatP= 4.54D-01
 IDIUse=3 WtCom= 9.17D-01 WtEn= 8.31D-02
 Coeff-Com: -0.136D+00 0.282D+00 0.372D+00 0.436D-01 0.439D+00
 Coeff-En:   0.000D+00 0.000D+00 0.158D+00 0.000D+00 0.842D+00
 Coeff:     -0.125D+00 0.258D+00 0.354D+00 0.400D-01 0.473D+00
 Gap=     0.191 Goal=   None    Shift=    0.000
 RMSDP=8.05D-04 MaxDP=3.57D-01 DE=-6.29D+00 OVMax= 1.27D-01

 Cycle   7  Pass 1  IDiag  1:
 RMSU=  4.32D-04    CP:  1.01D+00  1.09D+00  6.60D-01  1.25D-01  4.59D-01
 E= -1876.39725440614     Delta-E=       -0.095336742746 Rises=F Damp=F
 DIIS: error= 3.81D-03 at cycle   6 NSaved=   6.
 NSaved= 6 IEnMin= 6 EnMin= -1876.39725440614     IErMin= 6 ErrMin= 3.81D-03
 ErrMax= 3.81D-03  0.00D+00 EMaxC= 1.00D-01 BMatC= 3.88D-02 BMatP= 1.68D-01
 IDIUse=3 WtCom= 9.62D-01 WtEn= 3.81D-02
 Coeff-Com: -0.124D+00 0.176D+00 0.188D-01-0.208D-02 0.244D+00 0.688D+00
 Coeff-En:   0.000D+00 0.000D+00 0.000D+00 0.000D+00 0.209D+00 0.791D+00
 Coeff:     -0.120D+00 0.169D+00 0.181D-01-0.200D-02 0.243D+00 0.692D+00
 Gap=     0.084 Goal=   None    Shift=    0.000
 RMSDP=2.68D-04 MaxDP=1.17D-01 DE=-9.53D-02 OVMax= 5.09D-02

 Cycle   8  Pass 1  IDiag  1:
 RMSU=  1.27D-04    CP:  1.01D+00  1.15D+00  5.85D-01  1.27D-01  6.32D-01
                    CP:  9.78D-01
 E= -1876.43123906358     Delta-E=       -0.033984657444 Rises=F Damp=F
 DIIS: error= 8.14D-04 at cycle   7 NSaved=   7.
 NSaved= 7 IEnMin= 7 EnMin= -1876.43123906358     IErMin= 7 ErrMin= 8.14D-04
 ErrMax= 8.14D-04  0.00D+00 EMaxC= 1.00D-01 BMatC= 1.33D-03 BMatP= 3.88D-02
 IDIUse=3 WtCom= 9.92D-01 WtEn= 8.14D-03
 Coeff-Com: -0.592D-01 0.827D-01-0.215D-01 0.200D-03 0.483D-01 0.285D+00
 Coeff-Com:  0.665D+00
 Coeff-En:   0.000D+00 0.000D+00 0.000D+00 0.000D+00 0.000D+00 0.000D+00
 Coeff-En:   0.100D+01
 Coeff:     -0.587D-01 0.820D-01-0.213D-01 0.198D-03 0.479D-01 0.282D+00
 Coeff:      0.668D+00
 Gap=     0.084 Goal=   None    Shift=    0.000
 RMSDP=5.07D-05 MaxDP=7.92D-03 DE=-3.40D-02 OVMax= 2.01D-02

 Cycle   9  Pass 1  IDiag  1:
 RMSU=  4.10D-05    CP:  1.01D+00  1.17D+00  5.76D-01  1.29D-01  6.21D-01
                    CP:  1.03D+00  1.01D+00
 E= -1876.43263284438     Delta-E=       -0.001393780795 Rises=F Damp=F
 DIIS: error= 4.79D-04 at cycle   8 NSaved=   8.
 NSaved= 8 IEnMin= 8 EnMin= -1876.43263284438     IErMin= 8 ErrMin= 4.79D-04
 ErrMax= 4.79D-04  0.00D+00 EMaxC= 1.00D-01 BMatC= 4.53D-04 BMatP= 1.33D-03
 IDIUse=3 WtCom= 9.95D-01 WtEn= 4.79D-03
 Coeff-Com: -0.191D-01 0.274D-01-0.264D-01-0.288D-03-0.237D-01 0.433D-01
 Coeff-Com:  0.362D+00 0.637D+00
 Coeff-En:   0.000D+00 0.000D+00 0.000D+00 0.000D+00 0.000D+00 0.000D+00
 Coeff-En:   0.000D+00 0.100D+01
 Coeff:     -0.190D-01 0.272D-01-0.263D-01-0.286D-03-0.236D-01 0.431D-01
 Coeff:      0.361D+00 0.638D+00
 Gap=     0.085 Goal=   None    Shift=    0.000
 RMSDP=4.35D-05 MaxDP=1.29D-02 DE=-1.39D-03 OVMax= 1.32D-02

 Cycle  10  Pass 1  IDiag  1:
 RMSU=  2.50D-05    CP:  1.01D+00  1.16D+00  5.66D-01  1.31D-01  6.33D-01
                    CP:  1.06D+00  1.20D+00  1.03D+00
 E= -1876.43318831391     Delta-E=       -0.000555469533 Rises=F Damp=F
 DIIS: error= 1.36D-04 at cycle   9 NSaved=   9.
 NSaved= 9 IEnMin= 9 EnMin= -1876.43318831391     IErMin= 9 ErrMin= 1.36D-04
 ErrMax= 1.36D-04  0.00D+00 EMaxC= 1.00D-01 BMatC= 3.22D-05 BMatP= 4.53D-04
 IDIUse=3 WtCom= 9.99D-01 WtEn= 1.36D-03
 Coeff-Com: -0.272D-02 0.501D-02-0.440D-02 0.104D-03-0.126D-01-0.197D-01
 Coeff-Com:  0.257D-01 0.207D+00 0.802D+00
 Coeff-En:   0.000D+00 0.000D+00 0.000D+00 0.000D+00 0.000D+00 0.000D+00
 Coeff-En:   0.000D+00 0.000D+00 0.100D+01
 Coeff:     -0.272D-02 0.501D-02-0.439D-02 0.104D-03-0.126D-01-0.197D-01
 Coeff:      0.257D-01 0.207D+00 0.802D+00
 Gap=     0.085 Goal=   None    Shift=    0.000
 RMSDP=1.76D-05 MaxDP=2.61D-03 DE=-5.55D-04 OVMax= 9.58D-03

 Cycle  11  Pass 1  IDiag  1:
 RMSU=  1.07D-05    CP:  1.01D+00  1.16D+00  5.63D-01  1.31D-01  6.30D-01
                    CP:  1.08D+00  1.24D+00  1.26D+00  1.22D+00
 E= -1876.43327210810     Delta-E=       -0.000083794186 Rises=F Damp=F
 DIIS: error= 7.26D-05 at cycle  10 NSaved=  10.
 NSaved=10 IEnMin=10 EnMin= -1876.43327210810     IErMin=10 ErrMin= 7.26D-05
 ErrMax= 7.26D-05  0.00D+00 EMaxC= 1.00D-01 BMatC= 1.21D-05 BMatP= 3.22D-05
 IDIUse=1 WtCom= 1.00D+00 WtEn= 0.00D+00
 Coeff-Com:  0.186D-02-0.203D-02 0.361D-02-0.241D-03 0.171D-03-0.131D-01
 Coeff-Com: -0.640D-01-0.784D-01 0.399D+00 0.754D+00
 Coeff:      0.186D-02-0.203D-02 0.361D-02-0.241D-03 0.171D-03-0.131D-01
 Coeff:     -0.640D-01-0.784D-01 0.399D+00 0.754D+00
 Gap=     0.086 Goal=   None    Shift=    0.000
 RMSDP=1.18D-05 MaxDP=2.06D-03 DE=-8.38D-05 OVMax= 7.10D-03

 Cycle  12  Pass 1  IDiag  1:
 RMSU=  4.77D-06    CP:  1.01D+00  1.15D+00  5.62D-01  1.31D-01  6.29D-01
                    CP:  1.08D+00  1.27D+00  1.38D+00  1.50D+00  1.31D+00
 E= -1876.43329644251     Delta-E=       -0.000024334413 Rises=F Damp=F
 DIIS: error= 4.31D-05 at cycle  11 NSaved=  11.
 NSaved=11 IEnMin=11 EnMin= -1876.43329644251     IErMin=11 ErrMin= 4.31D-05
 ErrMax= 4.31D-05  0.00D+00 EMaxC= 1.00D-01 BMatC= 4.49D-06 BMatP= 1.21D-05
 IDIUse=1 WtCom= 1.00D+00 WtEn= 0.00D+00
 Coeff-Com:  0.151D-02-0.202D-02 0.276D-02-0.162D-03 0.173D-02-0.919D-03
 Coeff-Com: -0.184D-01-0.506D-01 0.382D-01 0.278D+00 0.750D+00
 Coeff:      0.151D-02-0.202D-02 0.276D-02-0.162D-03 0.173D-02-0.919D-03
 Coeff:     -0.184D-01-0.506D-01 0.382D-01 0.278D+00 0.750D+00
 Gap=     0.086 Goal=   None    Shift=    0.000
 RMSDP=5.98D-06 MaxDP=1.60D-03 DE=-2.43D-05 OVMax= 2.41D-03

 Cycle  13  Pass 1  IDiag  1:
 RMSU=  2.05D-06    CP:  1.01D+00  1.15D+00  5.63D-01  1.31D-01  6.27D-01
                    CP:  1.08D+00  1.27D+00  1.42D+00  1.58D+00  1.60D+00
                    CP:  1.38D+00
 E= -1876.43330192798     Delta-E=       -0.000005485473 Rises=F Damp=F
 DIIS: error= 2.58D-05 at cycle  12 NSaved=  12.
 NSaved=12 IEnMin=12 EnMin= -1876.43330192798     IErMin=12 ErrMin= 2.58D-05
 ErrMax= 2.58D-05  0.00D+00 EMaxC= 1.00D-01 BMatC= 1.54D-06 BMatP= 4.49D-06
 IDIUse=1 WtCom= 1.00D+00 WtEn= 0.00D+00
 Coeff-Com:  0.604D-03-0.954D-03 0.464D-03-0.737D-04 0.303D-03 0.375D-02
 Coeff-Com:  0.149D-01 0.967D-02-0.962D-01-0.879D-01 0.261D+00 0.894D+00
 Coeff:      0.604D-03-0.954D-03 0.464D-03-0.737D-04 0.303D-03 0.375D-02
 Coeff:      0.149D-01 0.967D-02-0.962D-01-0.879D-01 0.261D+00 0.894D+00
 Gap=     0.086 Goal=   None    Shift=    0.000
 RMSDP=4.13D-06 MaxDP=1.32D-03 DE=-5.49D-06 OVMax= 1.99D-03

 Cycle  14  Pass 1  IDiag  1:
 RMSU=  1.14D-06    CP:  1.01D+00  1.15D+00  5.63D-01  1.31D-01  6.25D-01
                    CP:  1.08D+00  1.27D+00  1.45D+00  1.62D+00  1.77D+00
                    CP:  1.72D+00  1.20D+00
 E= -1876.43330418104     Delta-E=       -0.000002253058 Rises=F Damp=F
 DIIS: error= 1.08D-05 at cycle  13 NSaved=  13.
 NSaved=13 IEnMin=13 EnMin= -1876.43330418104     IErMin=13 ErrMin= 1.08D-05
 ErrMax= 1.08D-05  0.00D+00 EMaxC= 1.00D-01 BMatC= 3.11D-07 BMatP= 1.54D-06
 IDIUse=1 WtCom= 1.00D+00 WtEn= 0.00D+00
 Coeff-Com:  0.891D-04-0.155D-03-0.186D-03-0.100D-04-0.399D-03 0.125D-02
 Coeff-Com:  0.102D-01 0.187D-01-0.426D-01-0.903D-01-0.128D+00 0.389D+00
 Coeff-Com:  0.842D+00
 Coeff:      0.891D-04-0.155D-03-0.186D-03-0.100D-04-0.399D-03 0.125D-02
 Coeff:      0.102D-01 0.187D-01-0.426D-01-0.903D-01-0.128D+00 0.389D+00
 Coeff:      0.842D+00
 Gap=     0.086 Goal=   None    Shift=    0.000
 RMSDP=2.23D-06 MaxDP=6.88D-04 DE=-2.25D-06 OVMax= 8.31D-04

 Cycle  15  Pass 1  IDiag  1:
 RMSU=  4.10D-07    CP:  1.01D+00  1.15D+00  5.63D-01  1.31D-01  6.24D-01
                    CP:  1.08D+00  1.27D+00  1.47D+00  1.64D+00  1.86D+00
                    CP:  1.90D+00  1.52D+00  1.14D+00
 E= -1876.43330463548     Delta-E=       -0.000000454442 Rises=F Damp=F
 DIIS: error= 1.53D-06 at cycle  14 NSaved=  14.
 NSaved=14 IEnMin=14 EnMin= -1876.43330463548     IErMin=14 ErrMin= 1.53D-06
 ErrMax= 1.53D-06  0.00D+00 EMaxC= 1.00D-01 BMatC= 1.51D-08 BMatP= 3.11D-07
 IDIUse=1 WtCom= 1.00D+00 WtEn= 0.00D+00
 Coeff-Com:  0.385D-04-0.583D-04-0.115D-03 0.187D-05-0.209D-03-0.184D-04
 Coeff-Com:  0.269D-02 0.705D-02-0.547D-02-0.248D-01-0.905D-01 0.781D-01
 Coeff-Com:  0.370D+00 0.663D+00
 Coeff:      0.385D-04-0.583D-04-0.115D-03 0.187D-05-0.209D-03-0.184D-04
 Coeff:      0.269D-02 0.705D-02-0.547D-02-0.248D-01-0.905D-01 0.781D-01
 Coeff:      0.370D+00 0.663D+00
 Gap=     0.086 Goal=   None    Shift=    0.000
 RMSDP=3.43D-07 MaxDP=8.54D-05 DE=-4.54D-07 OVMax= 1.92D-04

 Cycle  16  Pass 1  IDiag  1:
 RMSU=  1.41D-07    CP:  1.01D+00  1.15D+00  5.63D-01  1.31D-01  6.24D-01
                    CP:  1.08D+00  1.27D+00  1.47D+00  1.64D+00  1.87D+00
                    CP:  1.93D+00  1.56D+00  1.25D+00  1.04D+00
 E= -1876.43330466010     Delta-E=       -0.000000024620 Rises=F Damp=F
 DIIS: error= 1.05D-06 at cycle  15 NSaved=  15.
 NSaved=15 IEnMin=15 EnMin= -1876.43330466010     IErMin=15 ErrMin= 1.05D-06
 ErrMax= 1.05D-06  0.00D+00 EMaxC= 1.00D-01 BMatC= 3.34D-09 BMatP= 1.51D-08
 IDIUse=1 WtCom= 1.00D+00 WtEn= 0.00D+00
 Coeff-Com:  0.130D-04-0.179D-04-0.264D-04 0.534D-05-0.135D-04-0.280D-03
 Coeff-Com: -0.338D-03-0.136D-03 0.546D-02 0.401D-02-0.229D-01-0.346D-01
 Coeff-Com:  0.163D-01 0.321D+00 0.712D+00
 Coeff:      0.130D-04-0.179D-04-0.264D-04 0.534D-05-0.135D-04-0.280D-03
 Coeff:     -0.338D-03-0.136D-03 0.546D-02 0.401D-02-0.229D-01-0.346D-01
 Coeff:      0.163D-01 0.321D+00 0.712D+00
 Gap=     0.086 Goal=   None    Shift=    0.000
 RMSDP=2.07D-07 MaxDP=5.76D-05 DE=-2.46D-08 OVMax= 9.42D-05

 Cycle  17  Pass 1  IDiag  1:
 RMSU=  6.80D-08    CP:  1.01D+00  1.15D+00  5.63D-01  1.31D-01  6.24D-01
                    CP:  1.08D+00  1.27D+00  1.47D+00  1.64D+00  1.88D+00
                    CP:  1.95D+00  1.59D+00  1.30D+00  1.19D+00  1.12D+00
 E= -1876.43330466626     Delta-E=       -0.000000006155 Rises=F Damp=F
 DIIS: error= 4.42D-07 at cycle  16 NSaved=  16.
 NSaved=16 IEnMin=16 EnMin= -1876.43330466626     IErMin=16 ErrMin= 4.42D-07
 ErrMax= 4.42D-07  0.00D+00 EMaxC= 1.00D-01 BMatC= 6.40D-10 BMatP= 3.34D-09
 IDIUse=1 WtCom= 1.00D+00 WtEn= 0.00D+00
 Coeff-Com:  0.179D-05-0.160D-05 0.374D-05 0.221D-05 0.249D-04-0.158D-03
 Coeff-Com: -0.392D-03-0.118D-02 0.327D-02 0.470D-02 0.275D-02-0.243D-01
 Coeff-Com: -0.462D-01 0.413D-01 0.277D+00 0.743D+00
 Coeff:      0.179D-05-0.160D-05 0.374D-05 0.221D-05 0.249D-04-0.158D-03
 Coeff:     -0.392D-03-0.118D-02 0.327D-02 0.470D-02 0.275D-02-0.243D-01
 Coeff:     -0.462D-01 0.413D-01 0.277D+00 0.743D+00
 Gap=     0.086 Goal=   None    Shift=    0.000
 RMSDP=8.65D-08 MaxDP=2.26D-05 DE=-6.16D-09 OVMax= 4.40D-05

 Cycle  18  Pass 1  IDiag  1:
 RMSU=  2.73D-08    CP:  1.01D+00  1.15D+00  5.63D-01  1.31D-01  6.24D-01
                    CP:  1.08D+00  1.27D+00  1.47D+00  1.64D+00  1.88D+00
                    CP:  1.95D+00  1.60D+00  1.33D+00  1.25D+00  1.28D+00
                    CP:  1.16D+00
 E= -1876.43330466748     Delta-E=       -0.000000001217 Rises=F Damp=F
 DIIS: error= 2.09D-07 at cycle  17 NSaved=  17.
 NSaved=17 IEnMin=17 EnMin= -1876.43330466748     IErMin=17 ErrMin= 2.09D-07
 ErrMax= 2.09D-07  0.00D+00 EMaxC= 1.00D-01 BMatC= 1.50D-10 BMatP= 6.40D-10
 IDIUse=1 WtCom= 1.00D+00 WtEn= 0.00D+00
 Coeff-Com: -0.188D-05 0.300D-05 0.730D-05 0.691D-06 0.165D-04-0.308D-04
 Coeff-Com: -0.645D-04-0.544D-03 0.523D-03 0.111D-02 0.543D-02-0.334D-02
 Coeff-Com: -0.240D-01-0.546D-01-0.589D-01 0.350D+00 0.784D+00
 Coeff:     -0.188D-05 0.300D-05 0.730D-05 0.691D-06 0.165D-04-0.308D-04
 Coeff:     -0.645D-04-0.544D-03 0.523D-03 0.111D-02 0.543D-02-0.334D-02
 Coeff:     -0.240D-01-0.546D-01-0.589D-01 0.350D+00 0.784D+00
 Gap=     0.086 Goal=   None    Shift=    0.000
 RMSDP=5.22D-08 MaxDP=1.35D-05 DE=-1.22D-09 OVMax= 2.61D-05

 Cycle  19  Pass 1  IDiag  1:
 RMSU=  1.01D-08    CP:  1.01D+00  1.15D+00  5.63D-01  1.31D-01  6.24D-01
                    CP:  1.08D+00  1.27D+00  1.47D+00  1.65D+00  1.88D+00
                    CP:  1.96D+00  1.61D+00  1.34D+00  1.28D+00  1.37D+00
                    CP:  1.38D+00  1.16D+00
 E= -1876.43330466770     Delta-E=       -0.000000000222 Rises=F Damp=F
 DIIS: error= 6.23D-08 at cycle  18 NSaved=  18.
 NSaved=18 IEnMin=18 EnMin= -1876.43330466770     IErMin=18 ErrMin= 6.23D-08
 ErrMax= 6.23D-08  0.00D+00 EMaxC= 1.00D-01 BMatC= 1.58D-11 BMatP= 1.50D-10
 IDIUse=1 WtCom= 1.00D+00 WtEn= 0.00D+00
 Coeff-Com: -0.501D-06 0.622D-06 0.264D-05 0.119D-06 0.562D-05 0.386D-05
 Coeff-Com:  0.277D-04-0.107D-03-0.208D-03-0.163D-03 0.177D-02 0.193D-02
 Coeff-Com: -0.441D-02-0.280D-01-0.646D-01 0.695D-01 0.348D+00 0.676D+00
 Coeff:     -0.501D-06 0.622D-06 0.264D-05 0.119D-06 0.562D-05 0.386D-05
 Coeff:      0.277D-04-0.107D-03-0.208D-03-0.163D-03 0.177D-02 0.193D-02
 Coeff:     -0.441D-02-0.280D-01-0.646D-01 0.695D-01 0.348D+00 0.676D+00
 Gap=     0.086 Goal=   None    Shift=    0.000
 RMSDP=1.44D-08 MaxDP=3.49D-06 DE=-2.22D-10 OVMax= 7.59D-06

 Cycle  20  Pass 1  IDiag  1:
 RMSU=  3.75D-09    CP:  1.01D+00  1.15D+00  5.63D-01  1.31D-01  6.24D-01
                    CP:  1.08D+00  1.27D+00  1.47D+00  1.65D+00  1.88D+00
                    CP:  1.96D+00  1.61D+00  1.34D+00  1.29D+00  1.39D+00
                    CP:  1.45D+00  1.29D+00  1.11D+00
 E= -1876.43330466773     Delta-E=       -0.000000000033 Rises=F Damp=F
 DIIS: error= 2.30D-08 at cycle  19 NSaved=  19.
 NSaved=19 IEnMin=19 EnMin= -1876.43330466773     IErMin=19 ErrMin= 2.30D-08
 ErrMax= 2.30D-08  0.00D+00 EMaxC= 1.00D-01 BMatC= 2.09D-12 BMatP= 1.58D-11
 IDIUse=1 WtCom= 1.00D+00 WtEn= 0.00D+00
 Coeff-Com: -0.188D-06 0.216D-06 0.160D-06 0.194D-07 0.487D-06 0.612D-05
 Coeff-Com:  0.227D-04 0.426D-04-0.161D-03-0.243D-03-0.308D-03 0.138D-02
 Coeff-Com:  0.191D-02-0.243D-02-0.194D-01-0.248D-01 0.303D-01 0.296D+00
 Coeff-Com:  0.718D+00
 Coeff:     -0.188D-06 0.216D-06 0.160D-06 0.194D-07 0.487D-06 0.612D-05
 Coeff:      0.227D-04 0.426D-04-0.161D-03-0.243D-03-0.308D-03 0.138D-02
 Coeff:      0.191D-02-0.243D-02-0.194D-01-0.248D-01 0.303D-01 0.296D+00
 Coeff:      0.718D+00
 Gap=     0.086 Goal=   None    Shift=    0.000
 RMSDP=5.43D-09 MaxDP=1.28D-06 DE=-3.27D-11 OVMax= 3.06D-06

 Cycle  21  Pass 1  IDiag  1:
 RMSU=  1.74D-09    CP:  1.01D+00  1.15D+00  5.63D-01  1.31D-01  6.24D-01
                    CP:  1.08D+00  1.27D+00  1.47D+00  1.65D+00  1.88D+00
                    CP:  1.96D+00  1.61D+00  1.34D+00  1.29D+00  1.40D+00
                    CP:  1.47D+00  1.32D+00  1.27D+00  1.06D+00
 E= -1876.43330466772     Delta-E=        0.000000000009 Rises=F Damp=F
 DIIS: error= 8.23D-09 at cycle  20 NSaved=  20.
 NSaved=20 IEnMin=19 EnMin= -1876.43330466773     IErMin=20 ErrMin= 8.23D-09
 ErrMax= 8.23D-09  0.00D+00 EMaxC= 1.00D-01 BMatC= 4.47D-13 BMatP= 2.09D-12
 IDIUse=1 WtCom= 1.00D+00 WtEn= 0.00D+00
 Coeff-Com: -0.721D-07 0.827D-07-0.303D-06-0.403D-07-0.395D-06 0.308D-05
 Coeff-Com:  0.638D-05 0.350D-04-0.566D-04-0.857D-04-0.412D-03 0.427D-03
 Coeff-Com:  0.147D-02 0.265D-02-0.139D-02-0.242D-01-0.356D-01 0.354D-01
 Coeff-Com:  0.358D+00 0.664D+00
 Coeff:     -0.721D-07 0.827D-07-0.303D-06-0.403D-07-0.395D-06 0.308D-05
 Coeff:      0.638D-05 0.350D-04-0.566D-04-0.857D-04-0.412D-03 0.427D-03
 Coeff:      0.147D-02 0.265D-02-0.139D-02-0.242D-01-0.356D-01 0.354D-01
 Coeff:      0.358D+00 0.664D+00
 Gap=     0.086 Goal=   None    Shift=    0.000
 RMSDP=2.40D-09 MaxDP=6.00D-07 DE= 9.09D-12 OVMax= 1.31D-06

 SCF Done:  E(RM062X) =  -1876.43330467     A.U. after   21 cycles
            NFock= 21  Conv=0.24D-08     -V/T= 2.0047
 KE= 1.867640957906D+03 PE=-1.317655006461D+04 EE= 5.020058839418D+03
 Leave Link  502 at Sat Jun 22 17:55:41 2024, MaxMem=  2684354560 cpu:           27187.0 elap:            1703.9
 (Enter /storage/apps/GAUSSIAN/G16_RevA03/g16/l601.exe)
 Copying SCF densities to generalized density rwf, IOpCl= 0 IROHF=0.

 **********************************************************************

            Population analysis using the SCF density.

 **********************************************************************

 Alpha  occ. eigenvalues --  -19.78536 -19.77185 -19.75622 -19.72316 -19.64519
 Alpha  occ. eigenvalues --  -19.61643 -15.01716 -14.90029 -14.88168 -14.86060
 Alpha  occ. eigenvalues --  -14.85090 -14.84624 -14.83238 -14.81631 -14.81499
 Alpha  occ. eigenvalues --  -10.79132 -10.79003 -10.77627 -10.77479 -10.75184
 Alpha  occ. eigenvalues --  -10.74385 -10.73576 -10.73552 -10.73498 -10.72391
 Alpha  occ. eigenvalues --  -10.71897 -10.71461 -10.69730 -10.68638 -10.67130
 Alpha  occ. eigenvalues --  -10.66329 -10.66140 -10.65669 -10.63881 -10.59874
 Alpha  occ. eigenvalues --  -10.59572 -10.59174 -10.58976 -10.58853  -1.33022
 Alpha  occ. eigenvalues --   -1.29372  -1.27882  -1.27264  -1.26227  -1.21912
 Alpha  occ. eigenvalues --   -1.16752  -1.15887  -1.15682  -1.13881  -1.13057
 Alpha  occ. eigenvalues --   -1.11001  -1.09049  -1.08347  -1.07213  -1.05755
 Alpha  occ. eigenvalues --   -1.03824  -1.01669  -1.01361  -1.00070  -0.97339
 Alpha  occ. eigenvalues --   -0.93891  -0.92146  -0.91987  -0.91393  -0.89388
 Alpha  occ. eigenvalues --   -0.87717  -0.87258  -0.85085  -0.82784  -0.81926
 Alpha  occ. eigenvalues --   -0.81231  -0.80867  -0.78350  -0.77870  -0.77076
 Alpha  occ. eigenvalues --   -0.76546  -0.75805  -0.75206  -0.73869  -0.73542
 Alpha  occ. eigenvalues --   -0.73442  -0.71475  -0.71254  -0.70927  -0.70028
 Alpha  occ. eigenvalues --   -0.69793  -0.69423  -0.68709  -0.68199  -0.66716
 Alpha  occ. eigenvalues --   -0.66475  -0.66209  -0.65959  -0.65458  -0.65245
 Alpha  occ. eigenvalues --   -0.64286  -0.63643  -0.63445  -0.62732  -0.62621
 Alpha  occ. eigenvalues --   -0.61801  -0.61528  -0.61075  -0.60828  -0.60078
 Alpha  occ. eigenvalues --   -0.60020  -0.59697  -0.58706  -0.58265  -0.57057
 Alpha  occ. eigenvalues --   -0.56862  -0.56169  -0.55767  -0.55300  -0.54004
 Alpha  occ. eigenvalues --   -0.53862  -0.53182  -0.52944  -0.52341  -0.51990
 Alpha  occ. eigenvalues --   -0.51591  -0.51071  -0.50858  -0.50522  -0.49653
 Alpha  occ. eigenvalues --   -0.49557  -0.49281  -0.47833  -0.46940  -0.46111
 Alpha  occ. eigenvalues --   -0.45880  -0.43754  -0.42935  -0.42460  -0.40916
 Alpha  occ. eigenvalues --   -0.39723  -0.38750  -0.37629  -0.36319  -0.36269
 Alpha  occ. eigenvalues --   -0.31775  -0.29680
 Alpha virt. eigenvalues --   -0.21037  -0.17509  -0.07869  -0.07412  -0.06779
 Alpha virt. eigenvalues --   -0.06377  -0.06056  -0.05658  -0.05060  -0.04286
 Alpha virt. eigenvalues --   -0.03530  -0.03080  -0.03038  -0.02319  -0.02190
 Alpha virt. eigenvalues --   -0.01436  -0.00852  -0.00563  -0.00345   0.00378
 Alpha virt. eigenvalues --    0.00763   0.00934   0.01491   0.01584   0.01808
 Alpha virt. eigenvalues --    0.01901   0.02127   0.02820   0.03150   0.03506
 Alpha virt. eigenvalues --    0.04106   0.04730   0.04904   0.05367   0.05598
 Alpha virt. eigenvalues --    0.05944   0.06255   0.06346   0.06660   0.06787
 Alpha virt. eigenvalues --    0.07047   0.07555   0.08173   0.08573   0.08858
 Alpha virt. eigenvalues --    0.09459   0.09597   0.09926   0.10325   0.10441
 Alpha virt. eigenvalues --    0.10941   0.11489   0.11601   0.12105   0.12292
 Alpha virt. eigenvalues --    0.12802   0.12912   0.13189   0.13681   0.13849
 Alpha virt. eigenvalues --    0.14247   0.14560   0.14812   0.15018   0.15313
 Alpha virt. eigenvalues --    0.15825   0.16101   0.16448   0.16653   0.16980
 Alpha virt. eigenvalues --    0.17531   0.17893   0.18375   0.18666   0.19131
 Alpha virt. eigenvalues --    0.19333   0.19417   0.19756   0.20014   0.20157
 Alpha virt. eigenvalues --    0.20430   0.20894   0.21258   0.21387   0.21693
 Alpha virt. eigenvalues --    0.21792   0.22283   0.22672   0.22862   0.23081
 Alpha virt. eigenvalues --    0.23571   0.23885   0.24081   0.24393   0.24643
 Alpha virt. eigenvalues --    0.24774   0.25099   0.25359   0.25730   0.25869
 Alpha virt. eigenvalues --    0.26395   0.26480   0.26580   0.27042   0.27599
 Alpha virt. eigenvalues --    0.27893   0.28360   0.28413   0.28563   0.28906
 Alpha virt. eigenvalues --    0.29099   0.29361   0.29597   0.29978   0.30244
 Alpha virt. eigenvalues --    0.30476   0.30639   0.30887   0.31182   0.31371
 Alpha virt. eigenvalues --    0.31542   0.31677   0.32085   0.32255   0.32486
 Alpha virt. eigenvalues --    0.32658   0.33094   0.33386   0.33778   0.34134
 Alpha virt. eigenvalues --    0.34294   0.34521   0.34789   0.35233   0.35308
 Alpha virt. eigenvalues --    0.35528   0.35731   0.36373   0.36385   0.36441
 Alpha virt. eigenvalues --    0.36726   0.36944   0.37306   0.37444   0.37848
 Alpha virt. eigenvalues --    0.37921   0.38106   0.38476   0.38663   0.39146
 Alpha virt. eigenvalues --    0.39486   0.39524   0.39715   0.40103   0.40180
 Alpha virt. eigenvalues --    0.40416   0.40786   0.40974   0.41244   0.41731
 Alpha virt. eigenvalues --    0.41819   0.42017   0.42190   0.42687   0.43208
 Alpha virt. eigenvalues --    0.43258   0.43380   0.43725   0.43912   0.44431
 Alpha virt. eigenvalues --    0.44560   0.44656   0.45229   0.45280   0.45713
 Alpha virt. eigenvalues --    0.45885   0.46092   0.46290   0.46636   0.46823
 Alpha virt. eigenvalues --    0.47261   0.47478   0.48225   0.48541   0.48742
 Alpha virt. eigenvalues --    0.49008   0.49280   0.49405   0.49893   0.50220
 Alpha virt. eigenvalues --    0.50705   0.50954   0.51096   0.51528   0.51749
 Alpha virt. eigenvalues --    0.52213   0.52328   0.52797   0.53059   0.53489
 Alpha virt. eigenvalues --    0.53791   0.54045   0.54174   0.54743   0.55373
 Alpha virt. eigenvalues --    0.55614   0.55910   0.56292   0.56788   0.56894
 Alpha virt. eigenvalues --    0.57129   0.57241   0.57844   0.58010   0.58347
 Alpha virt. eigenvalues --    0.58648   0.59056   0.59495   0.59884   0.60317
 Alpha virt. eigenvalues --    0.60557   0.60778   0.61177   0.61514   0.61658
 Alpha virt. eigenvalues --    0.62056   0.62629   0.62707   0.63083   0.63430
 Alpha virt. eigenvalues --    0.63737   0.63846   0.64297   0.64755   0.64784
 Alpha virt. eigenvalues --    0.65437   0.65739   0.66254   0.66859   0.67181
 Alpha virt. eigenvalues --    0.67705   0.68060   0.68451   0.68756   0.68909
 Alpha virt. eigenvalues --    0.69580   0.69668   0.70709   0.70749   0.71317
 Alpha virt. eigenvalues --    0.71472   0.71707   0.71979   0.72316   0.72898
 Alpha virt. eigenvalues --    0.73196   0.73416   0.74182   0.74678   0.74958
 Alpha virt. eigenvalues --    0.75204   0.75474   0.75788   0.76226   0.77020
 Alpha virt. eigenvalues --    0.77102   0.77648   0.77795   0.78459   0.78874
 Alpha virt. eigenvalues --    0.79128   0.79346   0.79688   0.80108   0.80939
 Alpha virt. eigenvalues --    0.81485   0.81757   0.82374   0.82703   0.83114
 Alpha virt. eigenvalues --    0.83411   0.83834   0.84427   0.84588   0.84913
 Alpha virt. eigenvalues --    0.85701   0.86244   0.86839   0.86971   0.87418
 Alpha virt. eigenvalues --    0.87951   0.88494   0.88982   0.89021   0.89098
 Alpha virt. eigenvalues --    0.89436   0.90670   0.91090   0.91235   0.91701
 Alpha virt. eigenvalues --    0.91968   0.92742   0.93049   0.93418   0.93706
 Alpha virt. eigenvalues --    0.94948   0.95602   0.95698   0.96267   0.96951
 Alpha virt. eigenvalues --    0.97381   0.97671   0.98363   0.98708   0.99345
 Alpha virt. eigenvalues --    0.99723   1.00198   1.00626   1.01070   1.01326
 Alpha virt. eigenvalues --    1.01939   1.02416   1.02963   1.04166   1.04361
 Alpha virt. eigenvalues --    1.04799   1.04972   1.05216   1.05715   1.06597
 Alpha virt. eigenvalues --    1.07233   1.07874   1.08304   1.08524   1.09242
 Alpha virt. eigenvalues --    1.09855   1.10300   1.10755   1.11085   1.11237
 Alpha virt. eigenvalues --    1.12083   1.12451   1.12981   1.13602   1.14734
 Alpha virt. eigenvalues --    1.15172   1.15420   1.15999   1.16233   1.16648
 Alpha virt. eigenvalues --    1.17089   1.17490   1.18086   1.18797   1.19572
 Alpha virt. eigenvalues --    1.20181   1.20868   1.21637   1.22304   1.22873
 Alpha virt. eigenvalues --    1.23369   1.23759   1.23889   1.24324   1.24552
 Alpha virt. eigenvalues --    1.24774   1.25498   1.25878   1.27234   1.27250
 Alpha virt. eigenvalues --    1.27479   1.27743   1.28240   1.28752   1.29071
 Alpha virt. eigenvalues --    1.29695   1.30175   1.30559   1.31781   1.32287
 Alpha virt. eigenvalues --    1.32411   1.32866   1.33882   1.34209   1.34618
 Alpha virt. eigenvalues --    1.35254   1.35417   1.35712   1.36264   1.36751
 Alpha virt. eigenvalues --    1.37400   1.37675   1.38502   1.38792   1.39011
 Alpha virt. eigenvalues --    1.39351   1.39746   1.40316   1.40808   1.41404
 Alpha virt. eigenvalues --    1.42299   1.42465   1.42990   1.43354   1.43433
 Alpha virt. eigenvalues --    1.44253   1.44508   1.44689   1.45184   1.45794
 Alpha virt. eigenvalues --    1.46384   1.46625   1.47004   1.47683   1.47773
 Alpha virt. eigenvalues --    1.48003   1.48419   1.48824   1.49140   1.49560
 Alpha virt. eigenvalues --    1.50132   1.50760   1.50846   1.51333   1.51674
 Alpha virt. eigenvalues --    1.52185   1.52681   1.52974   1.53460   1.53623
 Alpha virt. eigenvalues --    1.53920   1.54335   1.54925   1.55231   1.55805
 Alpha virt. eigenvalues --    1.55985   1.56196   1.56376   1.56826   1.57238
 Alpha virt. eigenvalues --    1.57321   1.57740   1.57951   1.58212   1.58719
 Alpha virt. eigenvalues --    1.58984   1.59764   1.60207   1.60366   1.60798
 Alpha virt. eigenvalues --    1.60957   1.61351   1.62010   1.62101   1.62448
 Alpha virt. eigenvalues --    1.63046   1.63766   1.64030   1.64641   1.64953
 Alpha virt. eigenvalues --    1.65676   1.65969   1.66329   1.66957   1.67178
 Alpha virt. eigenvalues --    1.67715   1.68146   1.68420   1.69145   1.69943
 Alpha virt. eigenvalues --    1.70137   1.70528   1.70812   1.71692   1.71775
 Alpha virt. eigenvalues --    1.72385   1.72610   1.73240   1.73610   1.74195
 Alpha virt. eigenvalues --    1.74449   1.74525   1.75756   1.76243   1.76383
 Alpha virt. eigenvalues --    1.76937   1.77478   1.77853   1.78378   1.79002
 Alpha virt. eigenvalues --    1.79598   1.79815   1.80112   1.80533   1.81096
 Alpha virt. eigenvalues --    1.81808   1.82090   1.82329   1.82839   1.82935
 Alpha virt. eigenvalues --    1.83473   1.84119   1.84259   1.84835   1.85447
 Alpha virt. eigenvalues --    1.85885   1.86397   1.86729   1.87052   1.87468
 Alpha virt. eigenvalues --    1.88014   1.88362   1.88853   1.89571   1.90016
 Alpha virt. eigenvalues --    1.90172   1.90705   1.91096   1.91528   1.92142
 Alpha virt. eigenvalues --    1.92888   1.93656   1.94082   1.94366   1.95084
 Alpha virt. eigenvalues --    1.95294   1.95729   1.96227   1.96842   1.97594
 Alpha virt. eigenvalues --    1.97685   1.98117   1.98550   1.99035   1.99694
 Alpha virt. eigenvalues --    2.00079   2.00621   2.01660   2.02334   2.02497
 Alpha virt. eigenvalues --    2.02973   2.03293   2.03684   2.04053   2.04829
 Alpha virt. eigenvalues --    2.05632   2.06150   2.06550   2.07310   2.07667
 Alpha virt. eigenvalues --    2.08629   2.08677   2.09252   2.09998   2.10542
 Alpha virt. eigenvalues --    2.10619   2.10888   2.11420   2.11752   2.12269
 Alpha virt. eigenvalues --    2.12712   2.13683   2.14167   2.14392   2.15448
 Alpha virt. eigenvalues --    2.15719   2.16419   2.16605   2.16926   2.17403
 Alpha virt. eigenvalues --    2.17639   2.18384   2.19026   2.19660   2.20282
 Alpha virt. eigenvalues --    2.20776   2.20995   2.21409   2.21846   2.22129
 Alpha virt. eigenvalues --    2.22551   2.23237   2.24386   2.24652   2.25031
 Alpha virt. eigenvalues --    2.25339   2.25868   2.26305   2.26504   2.27088
 Alpha virt. eigenvalues --    2.27718   2.27921   2.28861   2.29511   2.30355
 Alpha virt. eigenvalues --    2.31296   2.31366   2.32020   2.32999   2.33398
 Alpha virt. eigenvalues --    2.34150   2.34550   2.34856   2.35411   2.35914
 Alpha virt. eigenvalues --    2.36140   2.36413   2.37519   2.37945   2.38139
 Alpha virt. eigenvalues --    2.39254   2.39623   2.39812   2.40019   2.40643
 Alpha virt. eigenvalues --    2.41207   2.41920   2.42388   2.43204   2.44390
 Alpha virt. eigenvalues --    2.45154   2.45630   2.45884   2.46276   2.47051
 Alpha virt. eigenvalues --    2.47386   2.47836   2.48231   2.48861   2.49572
 Alpha virt. eigenvalues --    2.49918   2.50086   2.51173   2.51565   2.52179
 Alpha virt. eigenvalues --    2.52826   2.52944   2.53619   2.53903   2.54159
 Alpha virt. eigenvalues --    2.55196   2.55650   2.56410   2.56543   2.56789
 Alpha virt. eigenvalues --    2.57656   2.58300   2.58639   2.59017   2.59862
 Alpha virt. eigenvalues --    2.60453   2.60666   2.61057   2.61440   2.61627
 Alpha virt. eigenvalues --    2.61917   2.62954   2.63456   2.63807   2.63992
 Alpha virt. eigenvalues --    2.64477   2.64716   2.65103   2.65583   2.66049
 Alpha virt. eigenvalues --    2.66535   2.67021   2.67202   2.67407   2.68116
 Alpha virt. eigenvalues --    2.68290   2.68485   2.69312   2.69594   2.69832
 Alpha virt. eigenvalues --    2.70391   2.70428   2.70857   2.71388   2.71493
 Alpha virt. eigenvalues --    2.72393   2.72830   2.73336   2.74126   2.74370
 Alpha virt. eigenvalues --    2.75089   2.75655   2.76062   2.76142   2.76960
 Alpha virt. eigenvalues --    2.77086   2.77225   2.77572   2.77745   2.78488
 Alpha virt. eigenvalues --    2.78992   2.79776   2.80086   2.80427   2.80670
 Alpha virt. eigenvalues --    2.81367   2.81882   2.82301   2.82928   2.83543
 Alpha virt. eigenvalues --    2.83696   2.84099   2.84566   2.84677   2.85443
 Alpha virt. eigenvalues --    2.85836   2.86096   2.86619   2.86816   2.87184
 Alpha virt. eigenvalues --    2.87934   2.88335   2.88670   2.88866   2.89272
 Alpha virt. eigenvalues --    2.89756   2.89902   2.90015   2.90516   2.90954
 Alpha virt. eigenvalues --    2.91359   2.91669   2.92071   2.92344   2.92755
 Alpha virt. eigenvalues --    2.92882   2.93328   2.93354   2.94616   2.94704
 Alpha virt. eigenvalues --    2.95227   2.95524   2.95974   2.96031   2.96723
 Alpha virt. eigenvalues --    2.97075   2.97570   2.97826   2.98378   2.98981
 Alpha virt. eigenvalues --    2.99898   2.99974   3.00112   3.00813   3.01606
 Alpha virt. eigenvalues --    3.01837   3.02385   3.02655   3.02749   3.03227
 Alpha virt. eigenvalues --    3.03553   3.03913   3.04151   3.04669   3.05230
 Alpha virt. eigenvalues --    3.05819   3.05879   3.06316   3.06526   3.07410
 Alpha virt. eigenvalues --    3.07910   3.08032   3.08154   3.08721   3.09097
 Alpha virt. eigenvalues --    3.09743   3.09959   3.10160   3.11085   3.11205
 Alpha virt. eigenvalues --    3.11645   3.12163   3.12911   3.12977   3.13149
 Alpha virt. eigenvalues --    3.13531   3.13823   3.14203   3.14602   3.14656
 Alpha virt. eigenvalues --    3.14950   3.15219   3.15622   3.15809   3.16620
 Alpha virt. eigenvalues --    3.16703   3.16958   3.17164   3.17537   3.17931
 Alpha virt. eigenvalues --    3.18334   3.18532   3.19115   3.19868   3.20150
 Alpha virt. eigenvalues --    3.20475   3.20922   3.21138   3.21583   3.22060
 Alpha virt. eigenvalues --    3.22627   3.22847   3.23505   3.23751   3.24185
 Alpha virt. eigenvalues --    3.24677   3.25491   3.25943   3.26452   3.26789
 Alpha virt. eigenvalues --    3.27210   3.27348   3.27705   3.28288   3.28506
 Alpha virt. eigenvalues --    3.28784   3.29355   3.29980   3.30320   3.30755
 Alpha virt. eigenvalues --    3.30877   3.31126   3.31558   3.32157   3.32688
 Alpha virt. eigenvalues --    3.32862   3.33380   3.33545   3.33625   3.33989
 Alpha virt. eigenvalues --    3.34430   3.35154   3.35672   3.35830   3.36050
 Alpha virt. eigenvalues --    3.36229   3.36497   3.37391   3.37719   3.38147
 Alpha virt. eigenvalues --    3.38595   3.38938   3.39942   3.40263   3.40793
 Alpha virt. eigenvalues --    3.41242   3.41487   3.42252   3.42824   3.42935
 Alpha virt. eigenvalues --    3.43612   3.44162   3.44482   3.45026   3.45207
 Alpha virt. eigenvalues --    3.46161   3.46323   3.47700   3.47840   3.48684
 Alpha virt. eigenvalues --    3.49358   3.49958   3.50069   3.50824   3.51251
 Alpha virt. eigenvalues --    3.51680   3.52165   3.52762   3.52944   3.54056
 Alpha virt. eigenvalues --    3.54085   3.55258   3.55996   3.56281   3.57876
 Alpha virt. eigenvalues --    3.58519   3.59625   3.59841   3.60457   3.61144
 Alpha virt. eigenvalues --    3.62427   3.62775   3.63296   3.64443   3.64482
 Alpha virt. eigenvalues --    3.64999   3.67316   3.67485   3.67713   3.68026
 Alpha virt. eigenvalues --    3.69204   3.70449   3.70645   3.71026   3.71418
 Alpha virt. eigenvalues --    3.72361   3.73451   3.74064   3.74366   3.74523
 Alpha virt. eigenvalues --    3.75564   3.76752   3.77081   3.77898   3.78477
 Alpha virt. eigenvalues --    3.78661   3.79462   3.79997   3.80957   3.81886
 Alpha virt. eigenvalues --    3.82242   3.82770   3.83631   3.84192   3.84930
 Alpha virt. eigenvalues --    3.85631   3.86979   3.87554   3.88254   3.88963
 Alpha virt. eigenvalues --    3.89681   3.90127   3.90747   3.91311   3.92176
 Alpha virt. eigenvalues --    3.93509   3.94075   3.94757   3.95330   3.95461
 Alpha virt. eigenvalues --    3.96558   3.97202   3.99449   4.00149   4.00429
 Alpha virt. eigenvalues --    4.01202   4.02271   4.02716   4.03319   4.04024
 Alpha virt. eigenvalues --    4.04435   4.05063   4.05792   4.06667   4.07050
 Alpha virt. eigenvalues --    4.07716   4.08288   4.08953   4.09474   4.10168
 Alpha virt. eigenvalues --    4.11014   4.11513   4.11762   4.12385   4.13313
 Alpha virt. eigenvalues --    4.13910   4.14423   4.14727   4.15546   4.16712
 Alpha virt. eigenvalues --    4.18507   4.18605   4.19608   4.19912   4.21093
 Alpha virt. eigenvalues --    4.21626   4.21990   4.22983   4.23482   4.23855
 Alpha virt. eigenvalues --    4.24624   4.25504   4.26265   4.26818   4.28536
 Alpha virt. eigenvalues --    4.29682   4.29981   4.30560   4.31601   4.32263
 Alpha virt. eigenvalues --    4.32754   4.34848   4.35717   4.37761   4.38217
 Alpha virt. eigenvalues --    4.39069   4.40206   4.40426   4.41570   4.41792
 Alpha virt. eigenvalues --    4.42473   4.45285   4.46501   4.47982   4.49726
 Alpha virt. eigenvalues --    4.50087   4.50895   4.51479   4.52056   4.52235
 Alpha virt. eigenvalues --    4.53244   4.53774   4.54202   4.55514   4.56447
 Alpha virt. eigenvalues --    4.56697   4.57391   4.58113   4.59016   4.59493
 Alpha virt. eigenvalues --    4.59614   4.60957   4.61421   4.61694   4.63548
 Alpha virt. eigenvalues --    4.63818   4.64366   4.64636   4.66013   4.67506
 Alpha virt. eigenvalues --    4.68110   4.68242   4.68765   4.69093   4.70299
 Alpha virt. eigenvalues --    4.71441   4.73452   4.74030   4.74652   4.75074
 Alpha virt. eigenvalues --    4.75873   4.76735   4.78197   4.78603   4.79650
 Alpha virt. eigenvalues --    4.80957   4.81269   4.82706   4.83809   4.85827
 Alpha virt. eigenvalues --    4.86908   4.87074   4.88048   4.88702   4.89543
 Alpha virt. eigenvalues --    4.90150   4.91312   4.91729   4.92472   4.92524
 Alpha virt. eigenvalues --    4.93514   4.93956   4.94918   4.96157   4.96814
 Alpha virt. eigenvalues --    4.97249   4.98027   4.98977   4.99084   5.00273
 Alpha virt. eigenvalues --    5.00410   5.01607   5.01659   5.02144   5.02356
 Alpha virt. eigenvalues --    5.03113   5.03488   5.04523   5.05544   5.05827
 Alpha virt. eigenvalues --    5.06725   5.07692   5.08247   5.08903   5.09067
 Alpha virt. eigenvalues --    5.09782   5.11226   5.11813   5.12724   5.13464
 Alpha virt. eigenvalues --    5.13876   5.14377   5.14877   5.15400   5.15808
 Alpha virt. eigenvalues --    5.16643   5.17098   5.17384   5.18683   5.19512
 Alpha virt. eigenvalues --    5.19894   5.20500   5.20629   5.22150   5.22544
 Alpha virt. eigenvalues --    5.22699   5.23997   5.25138   5.25253   5.25591
 Alpha virt. eigenvalues --    5.26191   5.26494   5.27089   5.27717   5.28807
 Alpha virt. eigenvalues --    5.28905   5.29108   5.30082   5.32375   5.33495
 Alpha virt. eigenvalues --    5.33840   5.35649   5.35870   5.36294   5.36933
 Alpha virt. eigenvalues --    5.38289   5.38448   5.39122   5.41215   5.43212
 Alpha virt. eigenvalues --    5.45394   5.49422   5.49793   5.50138   5.51563
 Alpha virt. eigenvalues --    5.53701   5.54301   5.55022   5.55730   5.56118
 Alpha virt. eigenvalues --    5.57756   5.58756   5.59322   5.61120   5.61641
 Alpha virt. eigenvalues --    5.62617   5.62896   5.63552   5.63798   5.65989
 Alpha virt. eigenvalues --    5.67016   5.68442   5.68972   5.69935   5.71327
 Alpha virt. eigenvalues --    5.73546   5.75620   5.77285   5.79781   5.80182
 Alpha virt. eigenvalues --    5.81128   5.81779   5.81950   5.85004   5.86814
 Alpha virt. eigenvalues --    5.87975   5.91900   5.93145   5.94091   5.95130
 Alpha virt. eigenvalues --    5.95382   5.96229   5.97657   6.01760   6.08856
 Alpha virt. eigenvalues --    6.11652   6.16802   6.19295   6.19539   6.23434
 Alpha virt. eigenvalues --    6.30745   6.32974   6.34726   6.37577   6.38517
 Alpha virt. eigenvalues --    6.48445   6.51400   6.54631   6.55446   6.56081
 Alpha virt. eigenvalues --    6.58563   6.61017   6.63164   6.65547   6.67827
 Alpha virt. eigenvalues --    6.70649   6.71052   6.73387   6.75232   6.76106
 Alpha virt. eigenvalues --    6.78685   6.83123   6.85815   6.95137   6.96589
 Alpha virt. eigenvalues --    6.98762   6.99994   7.00577   7.03048   7.03845
 Alpha virt. eigenvalues --    7.06721   7.07243   7.13222  22.38778  22.43407
 Alpha virt. eigenvalues --   22.56238  22.56710  22.64892  22.71731  22.73842
 Alpha virt. eigenvalues --   22.76758  22.77505  22.80733  22.81965  22.84239
 Alpha virt. eigenvalues --   22.93564  22.97616  22.98232  22.99285  23.01106
 Alpha virt. eigenvalues --   23.15326  23.16634  23.18775  23.25638  23.32258
 Alpha virt. eigenvalues --   23.40535  23.51081  32.00811  32.02521  32.09129
 Alpha virt. eigenvalues --   32.40913  32.57305  32.64050  32.74917  32.88945
 Alpha virt. eigenvalues --   32.95008  44.01355  44.02972  44.04036  44.05311
 Alpha virt. eigenvalues --   44.07180  44.25667
          Condensed to atoms (all electrons):
 Mulliken charges:
               1
     1  C   -0.070809
     2  H    0.140796
     3  O   -0.304743
     4  C    0.003312
     5  H    0.179664
     6  O   -0.511940
     7  H    0.351331
     8  C    0.004261
     9  H    0.169605
    10  O   -0.465792
    11  H    0.365230
    12  C    0.052143
    13  H    0.146125
    14  N    0.039006
    15  C   -0.020221
    16  H    0.168188
    17  C    0.063876
    18  C   -0.149113
    19  H    0.265311
    20  H    0.025656
    21  C   -0.189709
    22  H    0.189943
    23  C    0.041429
    24  H    0.201739
    25  C    0.362920
    26  O   -0.351952
    27  N   -0.494712
    28  H    0.255181
    29  H    0.297012
    30  N   -0.383264
    31  C    0.455490
    32  N   -0.542250
    33  H    0.288979
    34  H    0.273396
    35  N   -0.316862
    36  H    0.266019
    37  C    0.262903
    38  O   -0.461863
    39  C   -0.020608
    40  N   -0.353635
    41  H    0.256309
    42  C    0.026050
    43  C   -0.238934
    44  H    0.173385
    45  H    0.176671
    46  N   -0.385441
    47  H    0.253358
    48  C    0.329942
    49  C   -0.249560
    50  H    0.143152
    51  H    0.214544
    52  N   -0.412864
    53  H    0.238650
    54  C    0.096417
    55  C   -0.185329
    56  H    0.173120
    57  C   -0.195610
    58  H    0.146298
    59  C    0.289931
    60  C   -0.173939
    61  H    0.113653
    62  C   -0.186508
    63  H    0.104643
    64  C    0.323231
    65  O   -0.440827
    66  N   -0.526978
    67  H    0.248148
    68  H    0.161271
    69  H    0.295174
 Sum of Mulliken charges =   1.00000
 Mulliken charges with hydrogens summed into heavy atoms:
               1
     1  C    0.231259
     3  O   -0.304743
     4  C    0.182975
     6  O   -0.160610
     8  C    0.173866
    10  O   -0.100562
    12  C    0.198268
    14  N    0.039006
    15  C    0.147968
    17  C    0.063876
    18  C    0.116198
    21  C    0.000234
    23  C    0.243168
    25  C    0.362920
    26  O   -0.351952
    27  N    0.057481
    30  N   -0.383264
    31  C    0.455490
    32  N    0.020125
    35  N   -0.050844
    37  C    0.262903
    38  O   -0.461863
    39  C   -0.020608
    40  N   -0.097325
    42  C    0.051706
    43  C    0.111122
    46  N   -0.132084
    48  C    0.329942
    49  C    0.108137
    52  N   -0.174214
    54  C    0.096417
    55  C   -0.012210
    57  C   -0.049311
    59  C    0.289931
    60  C   -0.060286
    62  C   -0.081865
    64  C    0.323231
    65  O   -0.440827
    66  N    0.016343
 Electronic spatial extent (au):  <R**2>=          27626.3149
 Charge=              1.0000 electrons
 Dipole moment (field-independent basis, Debye):
    X=             -7.3936    Y=             -8.3260    Z=             22.1473  Tot=             24.7889
 Quadrupole moment (field-independent basis, Debye-Ang):
   XX=           -136.9938   YY=           -224.9723   ZZ=           -111.8633
   XY=             -4.4668   XZ=            -85.5716   YZ=             67.6325
 Traceless Quadrupole moment (field-independent basis, Debye-Ang):
   XX=             20.9493   YY=            -67.0292   ZZ=             46.0799
   XY=             -4.4668   XZ=            -85.5716   YZ=             67.6325
 Octapole moment (field-independent basis, Debye-Ang**2):
  XXX=            678.3428  YYY=           -110.0665  ZZZ=            830.1113  XYY=            237.2005
  XXY=           -116.6538  XXZ=            315.8123  XZZ=            -25.2478  YZZ=           -109.1993
  YYZ=            184.8648  XYZ=           -103.9777
 Hexadecapole moment (field-independent basis, Debye-Ang**3):
 XXXX=          -6575.9020 YYYY=          -5081.8656 ZZZZ=         -15652.4367 XXXY=           1271.8973
 XXXZ=           -588.0064 YYYX=           1837.6701 YYYZ=           1491.4261 ZZZX=          -1998.6573
 ZZZY=           3902.9724 XXYY=          -2052.9124 XXZZ=          -3218.4450 YYZZ=          -5245.7736
 XXYZ=           1073.4370 YYXZ=           -162.7653 ZZXY=            506.9952
 N-N= 4.412416962614D+03 E-N=-1.317655006754D+04  KE= 1.867640957906D+03
 No NMR shielding tensors so no spin-rotation constants.
 Leave Link  601 at Sat Jun 22 17:55:42 2024, MaxMem=  2684354560 cpu:              10.5 elap:               0.9
 (Enter /storage/apps/GAUSSIAN/G16_RevA03/g16/l602.exe)

 **********************************************************************

            Electrostatic Properties Using The SCF Density

 **********************************************************************

       Atomic Center    1 is at  -4.168559  0.397248  6.740575
       Atomic Center    2 is at  -3.985406  0.448329  7.745712
       Atomic Center    3 is at  -2.992552 -0.198117  6.089258
       Atomic Center    4 is at  -4.293364  1.794264  6.130261
       Atomic Center    5 is at  -5.254275  2.155056  6.121170
       Atomic Center    6 is at  -3.440842  2.752315  6.801455
       Atomic Center    7 is at  -3.635976  2.840237  7.757940
       Atomic Center    8 is at  -3.687980  1.621506  4.723543
       Atomic Center    9 is at  -4.354681  1.213630  4.060243
       Atomic Center   10 is at  -3.212504  2.856902  4.202640
       Atomic Center   11 is at  -3.016453  3.424125  4.973579
       Atomic Center   12 is at  -2.514492  0.648640  5.027094
       Atomic Center   13 is at  -1.688891  1.172063  5.342902
       Atomic Center   14 is at  -2.075787 -0.239833  3.920638
       Atomic Center   15 is at  -0.740643 -0.277674  3.617022
       Atomic Center   16 is at  -0.166510  0.413403  4.095046
       Atomic Center   17 is at  -0.230910 -1.191630  2.749706
       Atomic Center   18 is at  -1.135247 -2.060423  2.076597
       Atomic Center   19 is at  -0.762152 -2.792057  1.473242
       Atomic Center   20 is at  -1.007421 -0.974214  0.263390
       Atomic Center   21 is at  -2.481894 -1.985694  2.376869
       Atomic Center   22 is at  -3.142261 -2.616641  1.925646
       Atomic Center   23 is at  -2.944284 -1.101342  3.300591
       Atomic Center   24 is at  -3.924525 -1.051306  3.574980
       Atomic Center   25 is at   1.251269 -1.402803  2.546183
       Atomic Center   26 is at   1.645831 -2.352803  1.844221
       Atomic Center   27 is at   2.149369 -0.580919  3.171177
       Atomic Center   28 is at   1.868905  0.130125  3.842940
       Atomic Center   29 is at   3.125472 -0.882251  3.193908
       Atomic Center   30 is at   2.149145 -3.101455 -1.953621
       Atomic Center   31 is at   3.275175 -2.434095 -2.284956
       Atomic Center   32 is at   4.399619 -3.113470 -2.646956
       Atomic Center   33 is at   4.423081 -4.126218 -2.597600
       Atomic Center   34 is at   5.254275 -2.595949 -2.904872
       Atomic Center   35 is at   3.340756 -1.058723 -2.284253
       Atomic Center   36 is at   4.267217 -0.605602 -2.414477
       Atomic Center   37 is at   2.248964 -0.262839 -1.966636
       Atomic Center   38 is at   2.405047  1.010678 -1.917171
       Atomic Center   39 is at   1.039135 -0.958173 -1.681219
       Atomic Center   40 is at  -0.153680 -0.219948 -1.434629
       Atomic Center   41 is at   0.026231  0.747031 -1.161332
       Atomic Center   42 is at  -1.234772 -0.896462 -0.738531
       Atomic Center   43 is at  -1.386453 -2.328242 -1.296077
       Atomic Center   44 is at  -2.062301 -2.843794 -0.731311
       Atomic Center   45 is at  -1.751342 -2.284771 -2.253272
       Atomic Center   46 is at  -0.099152 -3.018659 -1.258917
       Atomic Center   47 is at  -0.099128 -4.028619 -1.371573
       Atomic Center   48 is at   1.039630 -2.339134 -1.650706
       Atomic Center   49 is at  -2.603012 -0.115609 -0.836319
       Atomic Center   50 is at  -3.007320 -0.050941  0.099058
       Atomic Center   51 is at  -3.253287 -0.655333 -1.413773
       Atomic Center   52 is at  -2.492520  1.244731 -1.361556
       Atomic Center   53 is at  -2.753600  1.991419 -0.721450
       Atomic Center   54 is at  -2.236728  2.143515 -5.451789
       Atomic Center   55 is at  -2.419485  3.160391 -4.484261
       Atomic Center   56 is at  -2.474095  4.126218 -4.802986
       Atomic Center   57 is at  -2.499430  2.872961 -3.160347
       Atomic Center   58 is at  -2.619578  3.622164 -2.479999
       Atomic Center   59 is at  -2.414037  1.530068 -2.708104
       Atomic Center   60 is at  -2.239562  0.506216 -3.673431
       Atomic Center   61 is at  -2.172790 -0.467046 -3.381275
       Atomic Center   62 is at  -2.149803  0.810713 -4.992010
       Atomic Center   63 is at  -2.027453  0.049750 -5.658416
       Atomic Center   64 is at  -2.134362  2.489710 -6.865167
       Atomic Center   65 is at  -2.405602  3.670156 -7.293305
       Atomic Center   66 is at  -1.733440  1.533838 -7.757940
       Atomic Center   67 is at  -1.558438  0.578667 -7.464777
       Atomic Center   68 is at  -5.035441 -0.237301  6.556282
       Atomic Center   69 is at  -1.650211  1.698845 -8.832158
 -----------------------------------------------------------------

              Electrostatic Properties (Atomic Units)

 -----------------------------------------------------------------
    Center     Electric         -------- Electric Field --------
               Potential          X             Y             Z
 -----------------------------------------------------------------
    1 Atom    -14.578268     -0.006391      0.007837     -0.004365
    2 Atom     -0.976592      0.014296      0.001063      0.072179
    3 Atom    -22.192206      0.015614     -0.030755      0.009861
    4 Atom    -14.565061     -0.000061     -0.011593     -0.004955
    5 Atom     -0.975600     -0.067530      0.022747     -0.003880
    6 Atom    -22.202969      0.026487      0.016532     -0.022981
    7 Atom     -0.847603     -0.005394     -0.000449      0.006388
    8 Atom    -14.556841      0.003584     -0.001672      0.011742
    9 Atom     -0.956440     -0.048899     -0.028081     -0.046070
   10 Atom    -22.219970      0.002142      0.006211     -0.039613
   11 Atom     -0.869616      0.004218      0.011330      0.012250
   12 Atom    -14.509979     -0.010683      0.010059      0.002000
   13 Atom     -0.946110      0.056463      0.036472      0.018928
   14 Atom    -18.112893     -0.000315      0.000158      0.000383
   15 Atom    -14.532101     -0.000972     -0.008691     -0.005618
   16 Atom     -0.900989      0.039961      0.048908      0.037087
   17 Atom    -14.570492     -0.001950     -0.003065     -0.002083
   18 Atom    -14.575221     -0.000126      0.007179      0.008147
   19 Atom     -0.943437      0.029796     -0.051840     -0.046760
   20 Atom     -1.023203      0.016589     -0.006550      0.068185
   21 Atom    -14.589781      0.006754      0.005430      0.003038
   22 Atom     -0.933789     -0.048104     -0.045447     -0.032006
   23 Atom    -14.533452      0.007825     -0.003410     -0.005064
   24 Atom     -0.905207     -0.069150      0.004130      0.021867
   25 Atom    -14.512547      0.004711     -0.012506     -0.007986
   26 Atom    -22.259961      0.008560     -0.022385     -0.016905
   27 Atom    -18.227000     -0.003628     -0.000255     -0.009743
   28 Atom     -0.876091     -0.000458      0.008759      0.007057
   29 Atom     -0.882911      0.010876     -0.003455     -0.003457
   30 Atom    -18.319090      0.000715     -0.025907     -0.000650
   31 Atom    -14.548518     -0.013005     -0.004045      0.004140
   32 Atom    -18.264117     -0.004697      0.002881     -0.001136
   33 Atom     -0.919172     -0.001794     -0.014242      0.000984
   34 Atom     -0.911019     -0.000117     -0.003995     -0.000209
   35 Atom    -18.247000     -0.004989     -0.002132     -0.000476
   36 Atom     -0.903297     -0.005636      0.006631     -0.000795
[...]
     Eigenvalues ---    1.29559   1.31739   1.38338   1.39903   1.40700
     Eigenvalues ---    1.43053   1.45121   1.51357   1.55226   1.55865
     Eigenvalues ---    1.59077   1.59301   1.61548   1.62005   1.73454
     Eigenvalues ---    1.76362   1.77655   1.77875   1.86894   1.92367
     Eigenvalues ---    2.07169
 Quadratic step=6.185D+00 exceeds max=3.000D-01 adjusted using Lamda=-3.840D-01.
 Angle between NR and scaled steps=  83.01 degrees.
 Angle between quadratic step and forces=  22.50 degrees.
 Linear search not attempted -- first point.
 Variable       Old X    -DE/DX   Delta X   Delta X   Delta X     New X
                                 (Linear)    (Quad)   (Total)
    X1       -7.87743   0.00789   0.00000   0.01219   0.01219  -7.86524
    Y1        0.75069   0.00073   0.00000  -0.00156  -0.00156   0.74913
    Z1       12.73784  -0.06235   0.00000  -0.03700  -0.03700  12.70084
    X2       -7.53133   0.01039   0.00000   0.01415   0.01415  -7.51717
    Y2        0.84722   0.00041   0.00000  -0.00410  -0.00410   0.84312
    Z2       14.63727   0.05140   0.00000   0.04372   0.04372  14.68099
    X3       -5.65510  -0.00289   0.00000  -0.01010  -0.01010  -5.66521
    Y3       -0.37439   0.01219   0.00000  -0.00055  -0.00055  -0.37493
    Z3       11.50703  -0.01240   0.00000  -0.01543  -0.01543  11.49160
    X4       -8.11328   0.04990   0.00000   0.02676   0.02676  -8.08652
    Y4        3.39067  -0.01396   0.00000  -0.00439  -0.00439   3.38628
    Z4       11.58451   0.01413   0.00000   0.01256   0.01256  11.59707
    X5       -9.92914  -0.04779   0.00000  -0.04579  -0.04579  -9.97493
    Y5        4.07246   0.01521   0.00000   0.01210   0.01210   4.08456
    Z5       11.56733  -0.00364   0.00000  -0.00601  -0.00601  11.56132
    X6       -6.50225  -0.00473   0.00000   0.00460   0.00460  -6.49765
    Y6        5.20112  -0.01156   0.00000  -0.01733  -0.01733   5.18379
    Z6       12.85289   0.00159   0.00000  -0.00105  -0.00105  12.85183
    X7       -6.87100  -0.00127   0.00000  -0.00756  -0.00756  -6.87856
    Y7        5.36727  -0.00354   0.00000  -0.00752  -0.00752   5.35975
    Z7       14.66038  -0.01831   0.00000  -0.02331  -0.02331  14.63707
    X8       -6.96927   0.05287   0.00000   0.03107   0.03107  -6.93821
    Y8        3.06420   0.04342   0.00000   0.02625   0.02625   3.09045
    Z8        8.92620   0.03645   0.00000   0.02696   0.02696   8.95317
    X9       -8.22915  -0.03491   0.00000  -0.02912  -0.02912  -8.25828
    Y9        2.29343  -0.02023   0.00000  -0.01127  -0.01127   2.28215
    Z9        7.67275  -0.03245   0.00000  -0.02189  -0.02189   7.65086
   X10       -6.07075  -0.00593   0.00000  -0.00122  -0.00122  -6.07197
   Y10        5.39876  -0.01422   0.00000  -0.01095  -0.01095   5.38781
   Z10        7.94184   0.00698   0.00000   0.00497   0.00497   7.94681
   X11       -5.70027  -0.00090   0.00000   0.00049   0.00049  -5.69978
   Y11        6.47066  -0.00408   0.00000  -0.00350  -0.00350   6.46716
   Z11        9.39870  -0.00737   0.00000  -0.01108  -0.01108   9.38762
   X12       -4.75170  -0.06192   0.00000  -0.03656  -0.03656  -4.78826
   Y12        1.22575  -0.03723   0.00000  -0.02178  -0.02178   1.20397
   Z12        9.49983   0.00858   0.00000   0.01195   0.01195   9.51178
   X13       -3.19154   0.03992   0.00000   0.03402   0.03402  -3.15752
   Y13        2.21488   0.02571   0.00000   0.01918   0.01918   2.23406
   Z13       10.09662   0.01192   0.00000   0.01049   0.01049  10.10711
   X14       -3.92267   0.00388   0.00000  -0.00432  -0.00432  -3.92699
   Y14       -0.45322  -0.00792   0.00000  -0.00011  -0.00011  -0.45333
   Z14        7.40893  -0.01083   0.00000  -0.00137  -0.00137   7.40757
   X15       -1.39961  -0.04890   0.00000  -0.02806  -0.02806  -1.42767
   Y15       -0.52473  -0.02785   0.00000  -0.01316  -0.01316  -0.53789
   Z15        6.83518  -0.01315   0.00000  -0.00191  -0.00191   6.83327
   X16       -0.31466   0.02807   0.00000   0.02131   0.02131  -0.29335
   Y16        0.78122   0.03485   0.00000   0.03271   0.03271   0.81392
   Z16        7.73852   0.02755   0.00000   0.03205   0.03205   7.77056
   X17       -0.43636  -0.00227   0.00000   0.00336   0.00336  -0.43300
   Y17       -2.25185  -0.01655   0.00000  -0.01063  -0.01063  -2.26249
   Z17        5.19619  -0.01444   0.00000  -0.00455  -0.00455   5.19164
   X18       -2.14531   0.00126   0.00000   0.01463   0.01463  -2.13068
   Y18       -3.89363   0.04423   0.00000   0.01676   0.01676  -3.87688
   Z18        3.92420   0.04678   0.00000   0.02970   0.02970   3.95390
   X19       -1.44026   0.02207   0.00000   0.02751   0.02751  -1.41275
   Y19       -5.27622  -0.03644   0.00000  -0.03093  -0.03093  -5.30715
   Z19        2.78402  -0.03480   0.00000  -0.03524  -0.03524   2.74879
   X20       -1.90375   0.01214   0.00000   0.01440   0.01440  -1.88935
   Y20       -1.84100  -0.00491   0.00000  -0.00292  -0.00292  -1.84392
   Z20        0.49773   0.04763   0.00000   0.04225   0.04225   0.53998
   X21       -4.69010   0.02858   0.00000   0.01636   0.01636  -4.67374
   Y21       -3.75242   0.02260   0.00000   0.01437   0.01437  -3.73805
   Z21        4.49163   0.01395   0.00000   0.00944   0.00944   4.50107
   X22       -5.93801  -0.03448   0.00000  -0.03376  -0.03376  -5.97177
   Y22       -4.94473  -0.03224   0.00000  -0.03002  -0.03002  -4.97475
   Z22        3.63894  -0.02267   0.00000  -0.02245  -0.02245   3.61649
   X23       -5.56389   0.05947   0.00000   0.02840   0.02840  -5.53549
   Y23       -2.08123   0.02059   0.00000   0.02025   0.02025  -2.06098
   Z23        6.23721   0.00549   0.00000   0.01053   0.01053   6.24775
   X24       -7.41628  -0.04873   0.00000  -0.04487  -0.04487  -7.46115
   Y24       -1.98668   0.00371   0.00000   0.00916   0.00916  -1.97752
   Z24        6.75573   0.01658   0.00000   0.02208   0.02208   6.77782
   X25        2.36456   0.03786   0.00000   0.01692   0.01692   2.38148
   Y25       -2.65091  -0.03592   0.00000  -0.01288  -0.01288  -2.66379
   Z25        4.81159  -0.02521   0.00000  -0.00474  -0.00474   4.80685
   X26        3.11017  -0.02649   0.00000  -0.02779  -0.02779   3.08238
   Y26       -4.44615   0.04046   0.00000   0.02168   0.02168  -4.42448
   Z26        3.48507   0.02864   0.00000   0.01319   0.01319   3.49826
   X27        4.06172  -0.01332   0.00000  -0.01530  -0.01530   4.04642
   Y27       -1.09778  -0.00014   0.00000  -0.00652  -0.00652  -1.10430
   Z27        5.99266   0.00610   0.00000   0.00436   0.00436   5.99701
   X28        3.53172   0.00524   0.00000   0.00332   0.00332   3.53503
   Y28        0.24590  -0.00790   0.00000  -0.00961  -0.00961   0.23629
   Z28        7.26210  -0.00794   0.00000  -0.00866  -0.00866   7.25345
   X29        5.90629  -0.01156   0.00000  -0.02041  -0.02041   5.88588
   Y29       -1.66721   0.00323   0.00000   0.00580   0.00580  -1.66141
   Z29        6.03561  -0.00392   0.00000  -0.00865  -0.00865   6.02696
   X30        4.06130   0.02457   0.00000   0.01457   0.01457   4.07587
   Y30       -5.86090   0.02601   0.00000   0.02065   0.02065  -5.84025
   Z30       -3.69181  -0.00953   0.00000  -0.00919  -0.00919  -3.70100
   X31        6.18918  -0.03400   0.00000  -0.02271  -0.02271   6.16647
   Y31       -4.59977  -0.01308   0.00000  -0.00509  -0.00509  -4.60487
   Z31       -4.31794   0.01048   0.00000   0.00740   0.00740  -4.31054
   X32        8.31408   0.00870   0.00000  -0.01064  -0.01064   8.30344
   Y32       -5.88361   0.01394   0.00000   0.01284   0.01284  -5.87077
   Z32       -5.00202  -0.00095   0.00000   0.00499   0.00499  -4.99704
   X33        8.35841  -0.00259   0.00000  -0.00767  -0.00767   8.35074
   Y33       -7.79742   0.00935   0.00000   0.01801   0.01801  -7.77941
   Z33       -4.90875   0.00008   0.00000   0.00087   0.00087  -4.90788
   X34        9.92914  -0.01890   0.00000  -0.02596  -0.02596   9.90318
   Y34       -4.90563  -0.01469   0.00000  -0.01718  -0.01718  -4.92281
   Z34       -5.48941   0.00568   0.00000   0.00807   0.00807  -5.48134
   X35        6.31311   0.01853   0.00000  -0.00333  -0.00333   6.30978
   Y35       -2.00070  -0.02079   0.00000  -0.01679  -0.01679  -2.01749
   Z35       -4.31661  -0.00143   0.00000   0.00625   0.00625  -4.31037
   X36        8.06387  -0.02516   0.00000  -0.03731  -0.03731   8.02656
   Y36       -1.14442  -0.00343   0.00000  -0.00590  -0.00590  -1.15032
   Z36       -4.56270   0.00198   0.00000   0.00174   0.00174  -4.56096
   X37        4.24993   0.00749   0.00000  -0.00068  -0.00068   4.24925
   Y37       -0.49669   0.07814   0.00000   0.02430   0.02430  -0.47239
   Z37       -3.71640   0.00590   0.00000   0.00735   0.00735  -3.70905
   X38        4.54488  -0.01226   0.00000  -0.01552  -0.01552   4.52935
   Y38        1.90990  -0.07188   0.00000  -0.04915  -0.04915   1.86076
   Z38       -3.62293  -0.00173   0.00000   0.00119   0.00119  -3.62174
   X39        1.96368  -0.01510   0.00000  -0.00683  -0.00683   1.95685
   Y39       -1.81068  -0.00014   0.00000   0.00375   0.00375  -1.80693
   Z39       -3.17704   0.00282   0.00000   0.00226   0.00226  -3.17479
   X40       -0.29041   0.00740   0.00000   0.00779   0.00779  -0.28262
   Y40       -0.41564  -0.00373   0.00000  -0.00189  -0.00189  -0.41754
   Z40       -2.71106  -0.00048   0.00000  -0.00871  -0.00871  -2.71976
   X41        0.04957  -0.00176   0.00000  -0.00125  -0.00125   0.04832
   Y41        1.41168  -0.00631   0.00000  -0.00840  -0.00840   1.40329
   Z41       -2.19460  -0.00384   0.00000  -0.00805  -0.00805  -2.20265
   X42       -2.33338  -0.00730   0.00000   0.00856   0.00856  -2.32482
   Y42       -1.69407   0.00982   0.00000   0.01363   0.01363  -1.68043
   Z42       -1.39562  -0.05383   0.00000  -0.03299  -0.03299  -1.42861
   X43       -2.62002   0.06247   0.00000   0.03531   0.03531  -2.58470
   Y43       -4.39974   0.02948   0.00000   0.01853   0.01853  -4.38121
   Z43       -2.44923   0.01579   0.00000   0.00350   0.00350  -2.44573
   X44       -3.89718  -0.03669   0.00000  -0.02883  -0.02883  -3.92601
   Y44       -5.37399  -0.02949   0.00000  -0.02584  -0.02584  -5.39983
   Z44       -1.38198   0.03344   0.00000   0.03832   0.03832  -1.34366
   X45       -3.30956  -0.01876   0.00000  -0.01403  -0.01403  -3.32358
   Y45       -4.31759   0.00472   0.00000   0.00930   0.00930  -4.30829
   Z45       -4.25807  -0.05044   0.00000  -0.05616  -0.05616  -4.31422
   X46       -0.18737   0.00082   0.00000   0.01486   0.01486  -0.17251
   Y46       -5.70444   0.00083   0.00000   0.00620   0.00620  -5.69824
   Z46       -2.37901   0.00083   0.00000   0.00203   0.00203  -2.37698
   X47       -0.18732   0.00390   0.00000   0.00918   0.00918  -0.17815
   Y47       -7.61299   0.00811   0.00000   0.01345   0.01345  -7.59953
   Z47       -2.59190  -0.00180   0.00000  -0.00462  -0.00462  -2.59651
   X48        1.96462   0.01603   0.00000   0.01798   0.01798   1.98260
   Y48       -4.42032  -0.00567   0.00000   0.00139   0.00139  -4.41894
   Z48       -3.11938  -0.00127   0.00000   0.00013   0.00013  -3.11925
   X49       -4.91898   0.06489   0.00000   0.03803   0.03803  -4.88095
   Y49       -0.21847   0.03222   0.00000   0.01766   0.01766  -0.20081
   Z49       -1.58041  -0.02864   0.00000  -0.02145  -0.02145  -1.60186
   X50       -5.68301  -0.02099   0.00000  -0.01072  -0.01072  -5.69373
   Y50       -0.09626   0.00394   0.00000   0.00637   0.00637  -0.08989
   Z50        0.18719   0.05122   0.00000   0.04873   0.04873   0.23592
   X51       -6.14782  -0.03474   0.00000  -0.02986  -0.02986  -6.17768
   Y51       -1.23840  -0.02912   0.00000  -0.02733  -0.02733  -1.26573
   Z51       -2.67164  -0.03294   0.00000  -0.04132  -0.04132  -2.71296
   X52       -4.71018  -0.00016   0.00000   0.00688   0.00688  -4.70330
   Y52        2.35220  -0.00640   0.00000  -0.00094  -0.00094   2.35126
   Z52       -2.57297   0.01600   0.00000   0.00675   0.00675  -2.56622
   X53       -5.20355   0.00257   0.00000   0.00247   0.00247  -5.20108
   Y53        3.76324  -0.00604   0.00000  -0.00607  -0.00607   3.75717
   Z53       -1.36334  -0.01059   0.00000  -0.01280  -0.01280  -1.37614
   X54       -4.22680   0.00014   0.00000  -0.00059  -0.00059  -4.22739
   Y54        4.05066  -0.01274   0.00000  -0.00158  -0.00158   4.04907
   Z54      -10.30239   0.02701   0.00000  -0.00282  -0.00282 -10.30521
   X55       -4.57216   0.00703   0.00000   0.00368   0.00368  -4.56848
   Y55        5.97227  -0.05438   0.00000  -0.03347  -0.03347   5.93880
   Z55       -8.47403  -0.01647   0.00000  -0.01791  -0.01791  -8.49193
   X56       -4.67536  -0.00339   0.00000  -0.00342  -0.00342  -4.67878
   Y56        7.79742   0.04980   0.00000   0.04470   0.04470   7.84212
   Z56       -9.07633  -0.01848   0.00000  -0.02344  -0.02344  -9.09977
   X57       -4.72324   0.00575   0.00000   0.00020   0.00020  -4.72303
   Y57        5.42911  -0.05845   0.00000  -0.03852  -0.03852   5.39059
   Z57       -5.97219  -0.01078   0.00000  -0.00131  -0.00131  -5.97350
   X58       -4.95029  -0.00628   0.00000  -0.00591  -0.00591  -4.95620
   Y58        6.84490   0.03877   0.00000   0.03241   0.03241   6.87731
   Z58       -4.68652   0.03587   0.00000   0.03597   0.03597  -4.65055
   X59       -4.56187  -0.00048   0.00000  -0.00506  -0.00506  -4.56693
   Y59        2.89141   0.00309   0.00000  -0.00021  -0.00021   2.89120
   Z59       -5.11757  -0.01547   0.00000   0.00130   0.00130  -5.11628
   X60       -4.23216  -0.00832   0.00000  -0.01021  -0.01021  -4.24237
   Y60        0.95661   0.05312   0.00000   0.03266   0.03266   0.98927
   Z60       -6.94178   0.01968   0.00000   0.01920   0.01920  -6.92258
   X61       -4.10598   0.00445   0.00000   0.00470   0.00470  -4.10128
   Y61       -0.88259  -0.04863   0.00000  -0.04341  -0.04341  -0.92600
   Z61       -6.38968   0.01595   0.00000   0.02067   0.02067  -6.36902
   X62       -4.06254  -0.00638   0.00000  -0.00720  -0.00720  -4.06974
   Y62        1.53203   0.06122   0.00000   0.03948   0.03948   1.57151
   Z62       -9.43353   0.00639   0.00000  -0.00056  -0.00056  -9.43409
   X63       -3.83133   0.00567   0.00000   0.00390   0.00390  -3.82743
   Y63        0.09401  -0.03984   0.00000  -0.03436  -0.03436   0.05965
   Z63      -10.69286  -0.03318   0.00000  -0.03151  -0.03151 -10.72437
   X64       -4.03336  -0.01455   0.00000  -0.00606  -0.00606  -4.03942
   Y64        4.70487   0.07856   0.00000   0.02656   0.02656   4.73143
   Z64      -12.97329  -0.05991   0.00000  -0.04303  -0.04303 -13.01631
   X65       -4.54593   0.01764   0.00000   0.00953   0.00953  -4.53640
   Y65        6.93559  -0.07341   0.00000  -0.04217  -0.04217   6.89342
   Z65      -13.78235   0.03175   0.00000   0.02093   0.02093 -13.76142
   X66       -3.27573   0.00515   0.00000  -0.00297  -0.00297  -3.27869
   Y66        2.89853  -0.00740   0.00000   0.00201   0.00201   2.90055
   Z66      -14.66038  -0.03992   0.00000  -0.02297  -0.02297 -14.68335
   X67       -2.94502  -0.00010   0.00000   0.00101   0.00101  -2.94401
   Y67        1.09352   0.00995   0.00000   0.01600   0.01600   1.10952
   Z67      -14.10638  -0.00231   0.00000  -0.00681  -0.00681 -14.11320
   X68       -9.51560  -0.00035   0.00000   0.00090   0.00090  -9.51470
   Y68       -0.44843   0.00056   0.00000   0.00355   0.00355  -0.44489
   Z68       12.38958  -0.00260   0.00000  -0.01326  -0.01326  12.37632
   X69       -3.11845  -0.00840   0.00000  -0.01357  -0.01357  -3.13201
   Y69        3.21035   0.00130   0.00000   0.00814   0.00814   3.21850
   Z69      -16.69036   0.06145   0.00000   0.07388   0.07388 -16.61648
         Item               Value     Threshold  Converged?
 Maximum Force            0.078563     0.000450     NO 
 RMS     Force            0.027538     0.000300     NO 
 Maximum Displacement     0.073881     0.001800     NO 
 RMS     Displacement     0.020860     0.001200     NO 
 Predicted change in Energy=-7.222456D-02
 GradGradGradGradGradGradGradGradGradGradGradGradGradGradGradGradGradGrad

 Leave Link  103 at Sat Jun 22 18:01:33 2024, MaxMem=  2684354560 cpu:               3.4 elap:               0.2
 (Enter /storage/apps/GAUSSIAN/G16_RevA03/g16/l9999.exe)

 Test job not archived.
 1\1\GINC-T039\Force\RM062X\def2TZVP\C24H30N9O6(1+)\LV87696\22-Jun-2024
 \0\\#P M062X/Def2TZVP scf=(direct,conver=8) EmpiricalDispersion=GD3 No
 Symm force Charge Prop=(Field,Read)\\Gaussian run using SANDER externa
 l interface, route from template gau_job.tpl\\1,1\C,-4.1685588635,0.39
 72475419,6.7405746903\H,-3.985406344,0.4483287304,7.7457121911\O,-2.99
 25519656,-0.1981169248,6.0892583971\C,-4.2933635692,1.7942641115,6.130
 2606415\H,-5.2542753344,2.1550555285,6.121169925\O,-3.4408419967,2.752
 3146232,6.8014546939\H,-3.6359763948,2.8402365617,7.7579398433\C,-3.68
 79804137,1.6215062506,4.723543452\H,-4.3546811765,1.2136295555,4.06024
 32427\O,-3.2125038535,2.8569019092,4.2026402507\H,-3.0164525112,3.4241
 249809,4.9735793631\C,-2.5144921553,0.6486401725,5.0270942149\H,-1.688
 8909868,1.1720627136,5.342902142\N,-2.0757873841,-0.2398328372,3.92063
 83993\C,-0.7406434328,-0.2776738484,3.6170219716\H,-0.1665099884,0.413
 402761,4.0950460852\C,-0.2309100715,-1.1916300576,2.7497064306\C,-1.13
 5246593,-2.0604228399,2.0765970003\H,-0.7621515234,-2.792057057,1.4732
 42356\H,-1.0074211331,-0.9742144677,0.2633898542\C,-2.481893889,-1.985
 6941529,2.3768685082\H,-3.1422611274,-2.6166409499,1.925646114\C,-2.94
 42836458,-1.1013416066,3.3005908207\H,-3.9245248529,-1.0513063281,3.57
 49799401\C,1.251269109,-1.4028034169,2.5461825181\O,1.6458312022,-2.35
 28031436,1.8442206468\N,2.1493688041,-0.580918872,3.1711769376\H,1.868
 9047299,0.1301249049,3.8429400444\H,3.1254723981,-0.8822511303,3.19390
 76591\N,2.1491450451,-3.1014551553,-1.9536206629\C,3.2751753467,-2.434
 094825,-2.2849563535\N,4.3996191431,-3.1134701832,-2.646956013\H,4.423
 0809699,-4.1262182937,-2.5976004597\H,5.2542753344,-2.5959486022,-2.90
 48718822\N,3.3407557298,-1.0587228816,-2.2842526595\H,4.2672172637,-0.
 6056015462,-2.414477165\C,2.2489644777,-0.262838513,-1.9666358778\O,2.
 4050466603,1.0106777006,-1.9171710448\C,1.0391353731,-0.9581729171,-1.
 6812190574\N,-0.1536804617,-0.2199482916,-1.4346292376\H,0.0262308489,
 0.7470310231,-1.16133221\C,-1.2347723109,-0.8964624786,-0.7385312282\C
 ,-1.3864528738,-2.3282424628,-1.2960768085\H,-2.0623014672,-2.84379388
 48,-0.7313105849\H,-1.7513419099,-2.2847707114,-2.2532716218\N,-0.0991
 522594,-3.0186594487,-1.2589173067\H,-0.0991275623,-4.0286186417,-1.37
 15728545\C,1.0396302365,-2.3391338569,-1.6507060506\C,-2.6030120142,-0
 .1156092181,-0.8363187792\H,-3.0073200281,-0.0509406438,0.0990580753\H
 ,-3.2532868171,-0.6553331935,-1.4137725531\N,-2.4925200449,1.244730598
 1,-1.3615556639\H,-2.7535999156,1.9914187817,-0.7214495518\C,-2.236728
 3283,2.1435149847,-5.4517892187\C,-2.4194851263,3.1603906026,-4.484261
 4492\H,-2.4740952704,4.1262182937,-4.8029856514\C,-2.4994302494,2.8729
 613171,-3.1603465138\H,-2.6195780705,3.6221640164,-2.4799993306\C,-2.4
 14036859,1.5300684375,-2.708103632\C,-2.2395615485,0.5062157064,-3.673
 4309251\H,-2.1727901452,-0.4670456089,-3.3812748697\C,-2.1498025655,0.
 8107133916,-4.9920101404\H,-2.02745271,0.0497498515,-5.6584159521\C,-2
 .1343622467,2.4897096408,-6.8651668794\O,-2.4056023246,3.6701560968,-7
 .2933047106\N,-1.7334403754,1.5338377548,-7.7579398433\H,-1.5584376819
 ,0.5786669707,-7.4647770262\H,-5.0354408358,-0.2373008674,6.5562815478
 \H,-1.6502107179,1.6988447114,-8.8321584097\\Version=ES64L-G16RevA.03\
 HF=-1876.4333047\RMSD=2.395e-09\RMSF=2.754e-02\Dipole=-1.0786858,-3.30
 32828,8.7505232\Quadrupole=15.5753032,-49.8345509,34.2592477,-3.320937
 5,-63.6203844,50.2830902\PG=C01 [X(C24H30N9O6)]\\@


 BLACK HOLES SUCK.
 Job cpu time:       0 days  9 hours  9 minutes 15.7 seconds.
 Elapsed time:       0 days  0 hours 34 minutes 25.9 seconds.
 File lengths (MBytes):  RWF=   1039 Int=      0 D2E=      0 Chk=    113 Scr=      1
 Normal termination of Gaussian 16 at Sat Jun 22 18:01:33 2024.
