 Entering Gaussian System, Link 0=g16
 Initial command:
 /storage/apps/GAUSSIAN/G16_RevA03/g16/l1.exe "/scratch/tmp/2140835/Gau-201393.inp" -scrdir="/scratch/tmp/2140835/"
 Entering Link 1 = /storage/apps/GAUSSIAN/G16_RevA03/g16/l1.exe PID=    201394.
  
 Copyright (c) 1988,1990,1992,1993,1995,1998,2003,2009,2016,
            Gaussian, Inc.  All Rights Reserved.
  
 This is part of the Gaussian(R) 16 program.  It is based on
 the Gaussian(R) 09 system (copyright 2009, Gaussian, Inc.),
 the Gaussian(R) 03 system (copyright 2003, Gaussian, Inc.),
 the Gaussian(R) 98 system (copyright 1998, Gaussian, Inc.),
 the Gaussian(R) 94 system (copyright 1995, Gaussian, Inc.),
 the Gaussian 92(TM) system (copyright 1992, Gaussian, Inc.),
 the Gaussian 90(TM) system (copyright 1990, Gaussian, Inc.),
 the Gaussian 88(TM) system (copyright 1988, Gaussian, Inc.),
 the Gaussian 86(TM) system (copyright 1986, Carnegie Mellon
 University), and the Gaussian 82(TM) system (copyright 1983,
 Carnegie Mellon University). Gaussian is a federally registered
 trademark of Gaussian, Inc.
  
 This software contains proprietary and confidential information,
 including trade secrets, belonging to Gaussian, Inc.
  
 This software is provided under written license and may be
 used, copied, transmitted, or stored only in accord with that
 written license.
  
 The following legend is applicable only to US Government
 contracts under FAR:
  
                    RESTRICTED RIGHTS LEGEND
  
 Use, reproduction and disclosure by the US Government is
 subject to restrictions as set forth in subparagraphs (a)
 and (c) of the Commercial Computer Software - Restricted
 Rights clause in FAR 52.227-19.
  
 Gaussian, Inc.
 340 Quinnipiac St., Bldg. 40, Wallingford CT 06492
  
  
 ---------------------------------------------------------------
 Warning -- This program may not be used in any manner that
 competes with the business of Gaussian, Inc. or will provide
 assistance to any competitor of Gaussian, Inc.  The licensee
 of this program is prohibited from giving any competitor of
 Gaussian, Inc. access to this program.  By using this program,
 the user acknowledges that Gaussian, Inc. is engaged in the
 business of creating and licensing software in the field of
 computational chemistry and represents and warrants to the
 licensee that it is not a competitor of Gaussian, Inc. and that
 it will not use this program in any manner prohibited above.
 ---------------------------------------------------------------
  

 Cite this work as:
 Gaussian 16, Revision A.03,
 M. J. Frisch, G. W. Trucks, H. B. Schlegel, G. E. Scuseria, 
 M. A. Robb, J. R. Cheeseman, G. Scalmani, V. Barone, 
 G. A. Petersson, H. Nakatsuji, X. Li, M. Caricato, A. V. Marenich, 
 J. Bloino, B. G. Janesko, R. Gomperts, B. Mennucci, H. P. Hratchian, 
 J. V. Ortiz, A. F. Izmaylov, J. L. Sonnenberg, D. Williams-Young, 
 F. Ding, F. Lipparini, F. Egidi, J. Goings, B. Peng, A. Petrone, 
 T. Henderson, D. Ranasinghe, V. G. Zakrzewski, J. Gao, N. Rega, 
 G. Zheng, W. Liang, M. Hada, M. Ehara, K. Toyota, R. Fukuda, 
 J. Hasegawa, M. Ishida, T. Nakajima, Y. Honda, O. Kitao, H. Nakai, 
 T. Vreven, K. Throssell, J. A. Montgomery, Jr., J. E. Peralta, 
 F. Ogliaro, M. J. Bearpark, J. J. Heyd, E. N. Brothers, K. N. Kudin, 
 V. N. Staroverov, T. A. Keith, R. Kobayashi, J. Normand, 
 K. Raghavachari, A. P. Rendell, J. C. Burant, S. S. Iyengar, 
 J. Tomasi, M. Cossi, J. M. Millam, M. Klene, C. Adamo, R. Cammi, 
 J. W. Ochterski, R. L. Martin, K. Morokuma, O. Farkas, 
 J. B. Foresman, and D. J. Fox, Gaussian, Inc., Wallingford CT, 2016.
 
 ******************************************
 Gaussian 16:  ES64L-G16RevA.03 25-Dec-2016
                22-Jun-2024 
 ******************************************
 %chk=gau_job.chk
 %NProcShared=16
 Will use up to   16 processors via shared memory.
 %mem=20GB
 ----------------------------------------------------------------------
 #P M062X/Def2TZVP scf=(direct,conver=8) EmpiricalDispersion=GD3 NoSymm
  force Charge Prop=(Field,Read)
 ----------------------------------------------------------------------
 1/10=7,18=10,28=-2,30=1,38=1,125=101/1,3;
 2/12=2,15=1,17=6,18=5,29=2,40=1/2;
 3/5=44,7=101,11=2,25=1,30=1,71=1,74=-55,124=31/1,2,3;
 4//1;
 5/5=2,6=8,38=5/2;
 6/7=2,8=2,9=2,10=2,14=2,15=1,28=1/1,2;
 7/7=1,16=-2,29=1,30=1/1,2,3,16;
 1/10=7,18=10,28=-2,30=1/3;
 99/12=1/99;
 Leave Link    1 at Sat Jun 22 17:27:46 2024, MaxMem=  2684354560 cpu:               1.0 elap:               0.1
 (Enter /storage/apps/GAUSSIAN/G16_RevA03/g16/l101.exe)
 ----------------------------------------------------------------------
 Gaussian run using SANDER external interface, route from template gau_
 job.tpl
 ----------------------------------------------------------------------
 Symbolic Z-matrix:
 Charge =  1 Multiplicity = 1
 C                    -4.17712   0.40476   6.7563 
 H                    -4.00211   0.45778   7.76278 
 O                    -2.9944   -0.18987   6.11679 
 C                    -4.29797   1.79929   6.14011 
 H                    -5.25812   2.16197   6.12737 
 O                    -3.44437   2.75816   6.80827 
 H                    -3.63621   2.84663   7.76562 
 C                    -3.68977   1.61909   4.73524 
 H                    -4.35476   1.20809   4.07212 
 O                    -3.21204   2.85097   4.20913 
 H                    -3.01715   3.42237   4.97726 
 C                    -2.51724   0.64749   5.04726 
 H                    -1.69028   1.17232   5.35705 
 N                    -2.08073  -0.25456   3.95037 
 C                    -0.74657  -0.29493   3.64363 
 H                    -0.17296   0.41079   4.10075 
 C                    -0.23888  -1.22912   2.79615 
 C                    -1.14379  -2.11874   2.15488 
 H                    -0.77293  -2.8501    1.55006 
 H                    -0.96954  -0.92518   0.23681 
 C                    -2.48729  -2.0298    2.44175 
 H                    -3.14953  -2.66154   1.99441 
 C                    -2.9506   -1.12354   3.34582 
 H                    -3.93212  -1.06214   3.61341 
 C                     1.24378  -1.43361   2.57913 
 O                     1.6368   -2.39076   1.887 
 N                     2.14234  -0.59407   3.17948 
 H                     1.86411   0.1223    3.84657 
 H                     3.12057  -0.88895   3.19655 
 N                     2.14944  -3.09986  -1.95834 
 C                     3.27679  -2.4355   -2.28998 
 N                     4.40322  -3.11745  -2.6412 
 H                     4.42432  -4.13008  -2.59123 
 H                     5.25812  -2.60141  -2.90091 
 N                     3.34359  -1.06029  -2.29635 
 H                     4.27144  -0.60847  -2.41968 
 C                     2.24858  -0.26201  -1.99588 
 O                     2.40704   1.01156  -1.94611 
 C                     1.03457  -0.95411  -1.72251 
 N                    -0.16486  -0.21213  -1.50487 
 H                     0.0236    0.75445  -1.232 
 C                    -1.22694  -0.88052  -0.75929 
 C                    -1.38617  -2.32046  -1.2932 
 H                    -2.05263  -2.8303   -0.71219 
 H                    -1.76788  -2.28737  -2.24428 
 N                    -0.0997   -3.011    -1.27202 
 H                    -0.09935  -4.02263  -1.36713 
 C                     1.03726  -2.33433  -1.67094 
 C                    -2.60255  -0.11331  -0.85459 
 H                    -3.00923  -0.05659   0.08014 
 H                    -3.24743  -0.65633  -1.43495 
 N                    -2.50491   1.24932  -1.37502 
 H                    -2.76123   1.99435  -0.73136 
 C                    -2.24073   2.1469   -5.46266 
 C                    -2.42571   3.16451  -4.49647 
 H                    -2.47911   4.13008  -4.81604 
 C                    -2.50869   2.87811  -3.17268 
 H                    -2.62974   3.62735  -2.49255 
 C                    -2.42393   1.53541  -2.72026 
 C                    -2.24889   0.51019  -3.68464 
 H                    -2.18271  -0.46296  -3.39209 
 C                    -2.15573   0.8139   -5.00267 
 H                    -2.0321    0.05271  -5.66856 
 C                    -2.13513   2.49131  -6.87514 
 O                    -2.40552   3.67153  -7.30517 
 N                    -1.73293   1.53398  -7.76562 
 H                    -1.55786   0.57952  -7.47034 
 H                    -5.04156  -0.23131   6.56589 
 H                    -1.64869   1.69695  -8.84007 
 
 ITRead=  0  0  0  0  0  0  0  0  0  0  0  0  0  0  0  0  0  0  0  0
 ITRead=  0  0  0  0  0  0  0  0  0  0  0  0  0  0  0  0  0  0  0  0
 ITRead=  0  0  0  0  0  0  0  0  0  0  0  0  0  0  0  0  0  0  0  0
 ITRead=  0  0  0  0  0  0  0  0  0
 MicOpt= -1 -1 -1 -1 -1 -1 -1 -1 -1 -1 -1 -1 -1 -1 -1 -1 -1 -1 -1 -1
 MicOpt= -1 -1 -1 -1 -1 -1 -1 -1 -1 -1 -1 -1 -1 -1 -1 -1 -1 -1 -1 -1
 MicOpt= -1 -1 -1 -1 -1 -1 -1 -1 -1 -1 -1 -1 -1 -1 -1 -1 -1 -1 -1 -1
 MicOpt= -1 -1 -1 -1 -1 -1 -1 -1 -1
 NAtoms=     69 NQM=       69 NQMF=       0 NMMI=      0 NMMIF=      0
                NMic=       0 NMicF=      0.
                    Isotopes and Nuclear Properties:
 (Nuclear quadrupole moments (NQMom) in fm**2, nuclear magnetic moments (NMagM)
  in nuclear magnetons)

  Atom         1           2           3           4           5           6           7           8           9          10
 IAtWgt=          12           1          16          12           1          16           1          12           1          16
 AtmWgt=  12.0000000   1.0078250  15.9949146  12.0000000   1.0078250  15.9949146   1.0078250  12.0000000   1.0078250  15.9949146
 NucSpn=           0           1           0           0           1           0           1           0           1           0
 AtZEff=  -0.0000000  -0.0000000  -0.0000000  -0.0000000  -0.0000000  -0.0000000  -0.0000000  -0.0000000  -0.0000000  -0.0000000
 NQMom=    0.0000000   0.0000000   0.0000000   0.0000000   0.0000000   0.0000000   0.0000000   0.0000000   0.0000000   0.0000000
 NMagM=    0.0000000   2.7928460   0.0000000   0.0000000   2.7928460   0.0000000   2.7928460   0.0000000   2.7928460   0.0000000
 AtZNuc=   6.0000000   1.0000000   8.0000000   6.0000000   1.0000000   8.0000000   1.0000000   6.0000000   1.0000000   8.0000000

  Atom        11          12          13          14          15          16          17          18          19          20
 IAtWgt=           1          12           1          14          12           1          12          12           1           1
 AtmWgt=   1.0078250  12.0000000   1.0078250  14.0030740  12.0000000   1.0078250  12.0000000  12.0000000   1.0078250   1.0078250
 NucSpn=           1           0           1           2           0           1           0           0           1           1
 AtZEff=  -0.0000000  -0.0000000  -0.0000000  -0.0000000  -0.0000000  -0.0000000  -0.0000000  -0.0000000  -0.0000000  -0.0000000
 NQMom=    0.0000000   0.0000000   0.0000000   2.0440000   0.0000000   0.0000000   0.0000000   0.0000000   0.0000000   0.0000000
 NMagM=    2.7928460   0.0000000   2.7928460   0.4037610   0.0000000   2.7928460   0.0000000   0.0000000   2.7928460   2.7928460
 AtZNuc=   1.0000000   6.0000000   1.0000000   7.0000000   6.0000000   1.0000000   6.0000000   6.0000000   1.0000000   1.0000000

  Atom        21          22          23          24          25          26          27          28          29          30
 IAtWgt=          12           1          12           1          12          16          14           1           1          14
 AtmWgt=  12.0000000   1.0078250  12.0000000   1.0078250  12.0000000  15.9949146  14.0030740   1.0078250   1.0078250  14.0030740
 NucSpn=           0           1           0           1           0           0           2           1           1           2
 AtZEff=  -0.0000000  -0.0000000  -0.0000000  -0.0000000  -0.0000000  -0.0000000  -0.0000000  -0.0000000  -0.0000000  -0.0000000
 NQMom=    0.0000000   0.0000000   0.0000000   0.0000000   0.0000000   0.0000000   2.0440000   0.0000000   0.0000000   2.0440000
 NMagM=    0.0000000   2.7928460   0.0000000   2.7928460   0.0000000   0.0000000   0.4037610   2.7928460   2.7928460   0.4037610
 AtZNuc=   6.0000000   1.0000000   6.0000000   1.0000000   6.0000000   8.0000000   7.0000000   1.0000000   1.0000000   7.0000000

  Atom        31          32          33          34          35          36          37          38          39          40
 IAtWgt=          12          14           1           1          14           1          12          16          12          14
 AtmWgt=  12.0000000  14.0030740   1.0078250   1.0078250  14.0030740   1.0078250  12.0000000  15.9949146  12.0000000  14.0030740
 NucSpn=           0           2           1           1           2           1           0           0           0           2
 AtZEff=  -0.0000000  -0.0000000  -0.0000000  -0.0000000  -0.0000000  -0.0000000  -0.0000000  -0.0000000  -0.0000000  -0.0000000
 NQMom=    0.0000000   2.0440000   0.0000000   0.0000000   2.0440000   0.0000000   0.0000000   0.0000000   0.0000000   2.0440000
 NMagM=    0.0000000   0.4037610   2.7928460   2.7928460   0.4037610   2.7928460   0.0000000   0.0000000   0.0000000   0.4037610
 AtZNuc=   6.0000000   7.0000000   1.0000000   1.0000000   7.0000000   1.0000000   6.0000000   8.0000000   6.0000000   7.0000000

  Atom        41          42          43          44          45          46          47          48          49          50
 IAtWgt=           1          12          12           1           1          14           1          12          12           1
 AtmWgt=   1.0078250  12.0000000  12.0000000   1.0078250   1.0078250  14.0030740   1.0078250  12.0000000  12.0000000   1.0078250
 NucSpn=           1           0           0           1           1           2           1           0           0           1
 AtZEff=  -0.0000000  -0.0000000  -0.0000000  -0.0000000  -0.0000000  -0.0000000  -0.0000000  -0.0000000  -0.0000000  -0.0000000
 NQMom=    0.0000000   0.0000000   0.0000000   0.0000000   0.0000000   2.0440000   0.0000000   0.0000000   0.0000000   0.0000000
 NMagM=    2.7928460   0.0000000   0.0000000   2.7928460   2.7928460   0.4037610   2.7928460   0.0000000   0.0000000   2.7928460
 AtZNuc=   1.0000000   6.0000000   6.0000000   1.0000000   1.0000000   7.0000000   1.0000000   6.0000000   6.0000000   1.0000000

  Atom        51          52          53          54          55          56          57          58          59          60
 IAtWgt=           1          14           1          12          12           1          12           1          12          12
 AtmWgt=   1.0078250  14.0030740   1.0078250  12.0000000  12.0000000   1.0078250  12.0000000   1.0078250  12.0000000  12.0000000
 NucSpn=           1           2           1           0           0           1           0           1           0           0
 AtZEff=  -0.0000000  -0.0000000  -0.0000000  -0.0000000  -0.0000000  -0.0000000  -0.0000000  -0.0000000  -0.0000000  -0.0000000
 NQMom=    0.0000000   2.0440000   0.0000000   0.0000000   0.0000000   0.0000000   0.0000000   0.0000000   0.0000000   0.0000000
 NMagM=    2.7928460   0.4037610   2.7928460   0.0000000   0.0000000   2.7928460   0.0000000   2.7928460   0.0000000   0.0000000
 AtZNuc=   1.0000000   7.0000000   1.0000000   6.0000000   6.0000000   1.0000000   6.0000000   1.0000000   6.0000000   6.0000000

  Atom        61          62          63          64          65          66          67          68          69
 IAtWgt=           1          12           1          12          16          14           1           1           1
 AtmWgt=   1.0078250  12.0000000   1.0078250  12.0000000  15.9949146  14.0030740   1.0078250   1.0078250   1.0078250
 NucSpn=           1           0           1           0           0           2           1           1           1
 AtZEff=  -0.0000000  -0.0000000  -0.0000000  -0.0000000  -0.0000000  -0.0000000  -0.0000000  -0.0000000  -0.0000000
 NQMom=    0.0000000   0.0000000   0.0000000   0.0000000   0.0000000   2.0440000   0.0000000   0.0000000   0.0000000
 NMagM=    2.7928460   0.0000000   2.7928460   0.0000000   0.0000000   0.4037610   2.7928460   2.7928460   2.7928460
 AtZNuc=   1.0000000   6.0000000   1.0000000   6.0000000   8.0000000   7.0000000   1.0000000   1.0000000   1.0000000
 Background charge distribution read from input stream:
 Leave Link  101 at Sat Jun 22 17:27:47 2024, MaxMem=  2684354560 cpu:               2.3 elap:               0.2
 (Enter /storage/apps/GAUSSIAN/G16_RevA03/g16/l103.exe)

 GradGradGradGradGradGradGradGradGradGradGradGradGradGradGradGradGradGrad
 Berny optimization.
 Initialization pass.
 Trust Radius=3.00D-01 FncErr=1.00D-07 GrdErr=1.00D-07 EigMax=2.50D+02 EigMin=1.00D-04
 Number of steps in this run=      2 maximum allowed number of steps=      2.
 GradGradGradGradGradGradGradGradGradGradGradGradGradGradGradGradGradGrad

 Leave Link  103 at Sat Jun 22 17:27:47 2024, MaxMem=  2684354560 cpu:               0.3 elap:               0.1
 (Enter /storage/apps/GAUSSIAN/G16_RevA03/g16/l202.exe)
 Symmetry turned off by external request.
 Stoichiometry    C24H30N9O6(1+)
 Framework group  C1[X(C24H30N9O6)]
 Deg. of freedom   201
 Full point group                 C1      NOp   1
                          Input orientation:                          
 ---------------------------------------------------------------------
 Center     Atomic      Atomic             Coordinates (Angstroms)
 Number     Number       Type             X           Y           Z
 ---------------------------------------------------------------------
      1          6           0       -4.177122    0.404764    6.756303
      2          1           0       -4.002112    0.457781    7.762782
      3          8           0       -2.994401   -0.189874    6.116793
      4          6           0       -4.297968    1.799292    6.140105
      5          1           0       -5.258122    2.161973    6.127372
      6          8           0       -3.444370    2.758157    6.808269
      7          1           0       -3.636205    2.846627    7.765618
      8          6           0       -3.689775    1.619091    4.735242
      9          1           0       -4.354756    1.208090    4.072118
     10          8           0       -3.212036    2.850972    4.209127
     11          1           0       -3.017154    3.422366    4.977261
     12          6           0       -2.517237    0.647495    5.047264
     13          1           0       -1.690282    1.172317    5.357049
     14          7           0       -2.080726   -0.254558    3.950367
     15          6           0       -0.746572   -0.294929    3.643627
     16          1           0       -0.172955    0.410790    4.100750
     17          6           0       -0.238877   -1.229115    2.796147
     18          6           0       -1.143792   -2.118736    2.154885
     19          1           0       -0.772933   -2.850100    1.550058
     20          1           0       -0.969544   -0.925178    0.236807
     21          6           0       -2.487294   -2.029803    2.441754
     22          1           0       -3.149526   -2.661545    1.994414
     23          6           0       -2.950604   -1.123544    3.345820
     24          1           0       -3.932124   -1.062137    3.613411
     25          6           0        1.243782   -1.433610    2.579131
     26          8           0        1.636797   -2.390762    1.887002
     27          7           0        2.142336   -0.594070    3.179481
     28          1           0        1.864114    0.122301    3.846574
     29          1           0        3.120574   -0.888949    3.196549
     30          7           0        2.149437   -3.099856   -1.958343
     31          6           0        3.276793   -2.435501   -2.289984
     32          7           0        4.403221   -3.117454   -2.641196
     33          1           0        4.424317   -4.130079   -2.591233
     34          1           0        5.258122   -2.601409   -2.900910
     35          7           0        3.343595   -1.060287   -2.296346
     36          1           0        4.271441   -0.608471   -2.419684
     37          6           0        2.248581   -0.262007   -1.995876
     38          8           0        2.407038    1.011560   -1.946111
     39          6           0        1.034571   -0.954106   -1.722509
     40          7           0       -0.164859   -0.212129   -1.504867
     41          1           0        0.023601    0.754446   -1.231996
     42          6           0       -1.226939   -0.880517   -0.759292
     43          6           0       -1.386169   -2.320465   -1.293202
     44          1           0       -2.052634   -2.830296   -0.712194
     45          1           0       -1.767878   -2.287374   -2.244284
     46          7           0       -0.099696   -3.010997   -1.272024
     47          1           0       -0.099352   -4.022626   -1.367133
     48          6           0        1.037258   -2.334329   -1.670945
     49          6           0       -2.602552   -0.113310   -0.854592
     50          1           0       -3.009230   -0.056586    0.080135
     51          1           0       -3.247432   -0.656335   -1.434955
     52          7           0       -2.504914    1.249325   -1.375018
     53          1           0       -2.761227    1.994351   -0.731358
     54          6           0       -2.240728    2.146903   -5.462658
     55          6           0       -2.425714    3.164506   -4.496472
     56          1           0       -2.479105    4.130079   -4.816036
     57          6           0       -2.508688    2.878112   -3.172684
     58          1           0       -2.629743    3.627350   -2.492553
     59          6           0       -2.423926    1.535408   -2.720259
     60          6           0       -2.248891    0.510192   -3.684644
     61          1           0       -2.182713   -0.462961   -3.392088
     62          6           0       -2.155733    0.813901   -5.002667
     63          1           0       -2.032104    0.052711   -5.668557
     64          6           0       -2.135132    2.491305   -6.875139
     65          8           0       -2.405522    3.671530   -7.305172
     66          7           0       -1.732929    1.533979   -7.765618
     67          1           0       -1.557857    0.579525   -7.470335
     68          1           0       -5.041562   -0.231306    6.565887
     69          1           0       -1.648693    1.696954   -8.840068
 ---------------------------------------------------------------------
 Rotational constants (GHZ):           0.1081624           0.0507605           0.0383970
 Leave Link  202 at Sat Jun 22 17:27:47 2024, MaxMem=  2684354560 cpu:               0.3 elap:               0.0
 (Enter /storage/apps/GAUSSIAN/G16_RevA03/g16/l301.exe)
 Standard basis: def2TZVP (5D, 7F)
 Ernie: Thresh=  0.10000D-02 Tol=  0.10000D-05 Strict=F.
  1389 basis functions,  2229 primitive gaussians,  1584 cartesian basis functions
   142 alpha electrons      142 beta electrons
       nuclear repulsion energy      4402.7036242774 Hartrees.
 IExCor= 4336 DFT=T Ex+Corr=M062X ExCW=0 ScaHFX=  0.540000
 ScaDFX=  1.000000  1.000000  1.000000  1.000000 ScalE2=  1.000000  1.000000
 IRadAn=      5 IRanWt=     -1 IRanGd=            0 ICorTp=0 IEmpDi=131
 NAtoms=   69 NActive=   69 NUniq=   69 SFac= 1.00D+00 NAtFMM=   60 NAOKFM=T Big=T
 Integral buffers will be    131072 words long.
 Raffenetti 2 integral format.
 Two-electron integral symmetry is turned off.
 R6Disp:  Grimme-D3 Dispersion energy=       -0.0064935343 Hartrees.
 Nuclear repulsion after empirical dispersion term =     4402.6971307430 Hartrees.
 Leave Link  301 at Sat Jun 22 17:27:47 2024, MaxMem=  2684354560 cpu:               1.3 elap:               0.1
 (Enter /storage/apps/GAUSSIAN/G16_RevA03/g16/l302.exe)
 NPDir=0 NMtPBC=     1 NCelOv=     1 NCel=       1 NClECP=     1 NCelD=      1
         NCelK=      1 NCelE2=     1 NClLst=     1 CellRange=     0.0.
 One-electron integrals computed using PRISM.
   1 Symmetry operations used in ECPInt.
 ECPInt:  NShTT=  150975 NPrTT=  462228 LenC2=  106625 LenP2D=  215274.
 LDataN:  DoStor=T MaxTD1= 6 Len=  172
 NBasis=  1389 RedAO= T EigKep=  6.05D-06  NBF=  1389
 NBsUse=  1389 1.00D-06 EigRej= -1.00D+00 NBFU=  1389
 Precomputing XC quadrature grid using
 IXCGrd= 4 IRadAn=           5 IRanWt=          -1 IRanGd=           0 AccXCQ= 0.00D+00.
 Generated NRdTot=       0 NPtTot=           0 NUsed=           0 NTot=          32
 NSgBfM=  1493  1479  1485  1491  1493 MxSgAt=    69 MxSgA2=    69.
 Leave Link  302 at Sat Jun 22 17:27:50 2024, MaxMem=  2684354560 cpu:              45.4 elap:               2.9
 (Enter /storage/apps/GAUSSIAN/G16_RevA03/g16/l303.exe)
 DipDrv:  MaxL=1.
 Leave Link  303 at Sat Jun 22 17:27:50 2024, MaxMem=  2684354560 cpu:               4.1 elap:               0.3
 (Enter /storage/apps/GAUSSIAN/G16_RevA03/g16/l401.exe)
 ExpMin= 9.52D-02 ExpMax= 2.70D+04 ExpMxC= 9.22D+02 IAcc=3 IRadAn=         5 AccDes= 0.00D+00
 Harris functional with IExCor= 1009 and IRadAn=       5 diagonalized for initial guess.
 HarFok:  IExCor= 1009 AccDes= 0.00D+00 IRadAn=         5 IDoV= 1 UseB2=F ITyADJ=14
 ICtDFT=  3500011 ScaDFX=  1.000000  1.000000  1.000000  1.000000
 FoFCou: FMM=F IPFlag=           0 FMFlag=      100000 FMFlg1=        2001
         NFxFlg=           0 DoJE=T BraDBF=F KetDBF=T FulRan=T
         wScrn=  0.000000 ICntrl=       500 IOpCl=  0 I1Cent=   200000004 NGrid=           0
         NMat0=    1 NMatS0=      1 NMatT0=    0 NMatD0=    1 NMtDS0=    0 NMtDT0=    0
 Symmetry not used in FoFCou.
 Harris En= -1875.51666064902    
 JPrj=0 DoOrth=F DoCkMO=F.
 Leave Link  401 at Sat Jun 22 17:27:57 2024, MaxMem=  2684354560 cpu:             105.7 elap:               6.7
 (Enter /storage/apps/GAUSSIAN/G16_RevA03/g16/l502.exe)
 Two-electron integral symmetry not used.
 Closed shell SCF:
 Using DIIS extrapolation, IDIIS=  1040.
 NGot=  2684354560 LenX=  2679300873 LenY=  2676790233
 Requested convergence on RMS density matrix=1.00D-08 within 128 cycles.
 Requested convergence on MAX density matrix=1.00D-06.
 Requested convergence on             energy=1.00D-06.
 No special actions if energy rises.
 Fock matrices will be formed incrementally for  20 cycles.
 Integral accuracy reduced to 1.0D-05 until final iterations.

 Cycle   1  Pass 0  IDiag  1:
 FoFJK:  IHMeth= 1 ICntrl=       0 DoSepK=F KAlg= 0 I1Cent=           0 FoldK=F
 IRaf= 690000000 NMat=       1 IRICut=       1 DoRegI=T DoRafI=F ISym2E= 0 IDoP0=0 IntGTp=1.
 FoFCou: FMM=T IPFlag=           0 FMFlag=      100000 FMFlg1=        2001
         NFxFlg=           0 DoJE=F BraDBF=F KetDBF=F FulRan=T
         wScrn=  0.000000 ICntrl=         0 IOpCl=  0 I1Cent=           0 NGrid=           0
         NMat0=    1 NMatS0=      1 NMatT0=    0 NMatD0=    1 NMtDS0=    0 NMtDT0=    0
 Symmetry not used in FoFCou.
 FMM levels:  10  Number of levels for PrismC:   9
 E= -1875.45741249899    
 DIIS: error= 1.54D-02 at cycle   1 NSaved=   1.
 NSaved= 1 IEnMin= 1 EnMin= -1875.45741249899     IErMin= 1 ErrMin= 1.54D-02
 ErrMax= 1.54D-02  0.00D+00 EMaxC= 1.00D-01 BMatC= 1.38D+00 BMatP= 1.38D+00
 IDIUse=3 WtCom= 8.46D-01 WtEn= 1.54D-01
 Coeff-Com:  0.100D+01
 Coeff-En:   0.100D+01
 Coeff:      0.100D+01
 Gap=    -0.012 Goal=   None    Shift=    0.000
 GapD=   -0.012 DampG=0.250 DampE=0.500 DampFc=0.2500 IDamp=-1.
 Damping current iteration by 2.50D-01
 RMSDP=5.09D+01 MaxDP=1.07D+04              OVMax= 9.48D-01

 Problem detected with inexpensive integrals.
 Switching to full accuracy and repeating last cycle.
 Cycle   2  Pass 1  IDiag  1:
 E= -1875.45753223083     Delta-E=       -0.000119731836 Rises=F Damp=F
 DIIS: error= 1.54D-02 at cycle   1 NSaved=   1.
 NSaved= 1 IEnMin= 1 EnMin= -1875.45753223083     IErMin= 1 ErrMin= 1.54D-02
 ErrMax= 1.54D-02  0.00D+00 EMaxC= 1.00D-01 BMatC= 1.38D+00 BMatP= 1.38D+00
 IDIUse=3 WtCom= 8.46D-01 WtEn= 1.54D-01
 Coeff-Com:  0.100D+01
 Coeff-En:   0.100D+01
 Coeff:      0.100D+01
 Gap=    -0.012 Goal=   None    Shift=    0.000
 GapD=   -0.012 DampG=0.250 DampE=0.500 DampFc=0.2500 IDamp=-1.
 Damping current iteration by 2.50D-01
 RMSDP=4.00D-03 MaxDP=1.20D+00 DE=-1.20D-04 OVMax= 8.44D-01

 Cycle   3  Pass 1  IDiag  1:
 RMSU=  9.98D-04    CP:  1.01D+00
 E= -1875.68964298273     Delta-E=       -0.232110751898 Rises=F Damp=T
 DIIS: error= 1.00D-02 at cycle   2 NSaved=   2.
 NSaved= 2 IEnMin= 2 EnMin= -1875.68964298273     IErMin= 2 ErrMin= 1.00D-02
 ErrMax= 1.00D-02  0.00D+00 EMaxC= 1.00D-01 BMatC= 4.54D-01 BMatP= 1.38D+00
 IDIUse=3 WtCom= 9.00D-01 WtEn= 1.00D-01
 Coeff-Com: -0.624D+00 0.162D+01
 Coeff-En:   0.683D-01 0.932D+00
 Coeff:     -0.555D+00 0.156D+01
 Gap=     0.264 Goal=   None    Shift=    0.000
 GapD=    0.264 DampG=1.000 DampE=0.500 DampFc=0.5000 IDamp=-1.
 Damping current iteration by 5.00D-01
 RMSDP=1.15D-03 MaxDP=1.43D-01 DE=-2.32D-01 OVMax= 6.85D-01

 Cycle   4  Pass 1  IDiag  1:
 RMSU=  5.75D-04    CP:  1.01D+00  1.04D+00
 E= -1875.96155601303     Delta-E=       -0.271913030307 Rises=F Damp=T
 DIIS: error= 9.29D-03 at cycle   3 NSaved=   3.
 NSaved= 3 IEnMin= 3 EnMin= -1875.96155601303     IErMin= 3 ErrMin= 9.29D-03
 ErrMax= 9.29D-03  0.00D+00 EMaxC= 1.00D-01 BMatC= 1.84D-01 BMatP= 4.54D-01
 IDIUse=3 WtCom= 9.07D-01 WtEn= 9.29D-02
 Coeff-Com: -0.574D+00 0.680D+00 0.894D+00
 Coeff-En:   0.000D+00 0.000D+00 0.100D+01
 Coeff:     -0.521D+00 0.617D+00 0.904D+00
 Gap=     0.199 Goal=   None    Shift=    0.000
 RMSDP=6.69D-04 MaxDP=1.10D-01 DE=-2.72D-01 OVMax= 2.12D-01

 Cycle   5  Pass 1  IDiag  1:
 RMSU=  6.24D-04    CP:  1.00D+00  1.01D+00  1.42D+00
 E= -1876.39133173360     Delta-E=       -0.429775720566 Rises=F Damp=F
 DIIS: error= 3.16D-03 at cycle   4 NSaved=   4.
 NSaved= 4 IEnMin= 4 EnMin= -1876.39133173360     IErMin= 4 ErrMin= 3.16D-03
 ErrMax= 3.16D-03  0.00D+00 EMaxC= 1.00D-01 BMatC= 3.38D-02 BMatP= 1.84D-01
 IDIUse=3 WtCom= 9.68D-01 WtEn= 3.16D-02
 Coeff-Com: -0.312D+00 0.421D+00 0.152D+00 0.739D+00
 Coeff-En:   0.000D+00 0.000D+00 0.000D+00 0.100D+01
 Coeff:     -0.302D+00 0.408D+00 0.147D+00 0.748D+00
 Gap=     0.078 Goal=   None    Shift=    0.000
 RMSDP=3.06D-04 MaxDP=5.23D-02 DE=-4.30D-01 OVMax= 4.86D-02

 Cycle   6  Pass 1  IDiag  1:
 RMSU=  2.43D-04    CP:  1.01D+00  1.16D+00  1.28D+00  1.15D+00
 E= -1876.42098924438     Delta-E=       -0.029657510779 Rises=F Damp=F
 DIIS: error= 2.79D-03 at cycle   5 NSaved=   5.
 NSaved= 5 IEnMin= 5 EnMin= -1876.42098924438     IErMin= 5 ErrMin= 2.79D-03
 ErrMax= 2.79D-03  0.00D+00 EMaxC= 1.00D-01 BMatC= 1.03D-02 BMatP= 3.38D-02
 IDIUse=3 WtCom= 9.72D-01 WtEn= 2.79D-02
 Coeff-Com: -0.138D+00 0.248D+00-0.989D-01 0.323D+00 0.666D+00
 Coeff-En:   0.000D+00 0.000D+00 0.000D+00 0.000D+00 0.100D+01
 Coeff:     -0.135D+00 0.241D+00-0.961D-01 0.314D+00 0.676D+00
 Gap=     0.082 Goal=   None    Shift=    0.000
 RMSDP=1.74D-04 MaxDP=6.67D-02 DE=-2.97D-02 OVMax= 4.66D-02

 Cycle   7  Pass 1  IDiag  1:
 RMSU=  1.13D-04    CP:  1.01D+00  1.16D+00  1.17D+00  1.33D+00  1.09D+00
 E= -1876.43210800810     Delta-E=       -0.011118763729 Rises=F Damp=F
 DIIS: error= 7.01D-04 at cycle   6 NSaved=   6.
 NSaved= 6 IEnMin= 6 EnMin= -1876.43210800810     IErMin= 6 ErrMin= 7.01D-04
 ErrMax= 7.01D-04  0.00D+00 EMaxC= 1.00D-01 BMatC= 1.41D-03 BMatP= 1.03D-02
 IDIUse=3 WtCom= 9.93D-01 WtEn= 7.01D-03
 Coeff-Com: -0.277D-01 0.749D-01-0.736D-01-0.382D-01 0.279D+00 0.786D+00
 Coeff-En:   0.000D+00 0.000D+00 0.000D+00 0.000D+00 0.000D+00 0.100D+01
 Coeff:     -0.275D-01 0.743D-01-0.731D-01-0.379D-01 0.277D+00 0.787D+00
 Gap=     0.080 Goal=   None    Shift=    0.000
 RMSDP=7.82D-05 MaxDP=2.13D-02 DE=-1.11D-02 OVMax= 2.40D-02

 Cycle   8  Pass 1  IDiag  1:
 RMSU=  3.74D-05    CP:  1.01D+00  1.18D+00  1.12D+00  1.37D+00  1.29D+00
                    CP:  1.18D+00
 E= -1876.43392451330     Delta-E=       -0.001816505192 Rises=F Damp=F
 DIIS: error= 2.74D-04 at cycle   7 NSaved=   7.
 NSaved= 7 IEnMin= 7 EnMin= -1876.43392451330     IErMin= 7 ErrMin= 2.74D-04
 ErrMax= 2.74D-04  0.00D+00 EMaxC= 1.00D-01 BMatC= 1.23D-04 BMatP= 1.41D-03
 IDIUse=3 WtCom= 9.97D-01 WtEn= 2.74D-03
 Coeff-Com:  0.328D-02 0.145D-02-0.104D-01-0.625D-01 0.941D-02 0.322D+00
 Coeff-Com:  0.737D+00
 Coeff-En:   0.000D+00 0.000D+00 0.000D+00 0.000D+00 0.000D+00 0.000D+00
 Coeff-En:   0.100D+01
 Coeff:      0.327D-02 0.145D-02-0.104D-01-0.623D-01 0.939D-02 0.321D+00
 Coeff:      0.738D+00
 Gap=     0.079 Goal=   None    Shift=    0.000
 RMSDP=3.39D-05 MaxDP=6.77D-03 DE=-1.82D-03 OVMax= 1.42D-02

 Cycle   9  Pass 1  IDiag  1:
 RMSU=  2.48D-05    CP:  1.01D+00  1.18D+00  1.11D+00  1.37D+00  1.34D+00
                    CP:  1.28D+00  1.25D+00
 E= -1876.43414696737     Delta-E=       -0.000222454074 Rises=F Damp=F
 DIIS: error= 1.40D-04 at cycle   8 NSaved=   8.
 NSaved= 8 IEnMin= 8 EnMin= -1876.43414696737     IErMin= 8 ErrMin= 1.40D-04
 ErrMax= 1.40D-04  0.00D+00 EMaxC= 1.00D-01 BMatC= 2.77D-05 BMatP= 1.23D-04
 IDIUse=3 WtCom= 9.99D-01 WtEn= 1.40D-03
 Coeff-Com:  0.227D-02-0.610D-02 0.742D-02-0.104D-01-0.196D-01 0.150D-01
 Coeff-Com:  0.298D+00 0.713D+00
 Coeff-En:   0.000D+00 0.000D+00 0.000D+00 0.000D+00 0.000D+00 0.000D+00
 Coeff-En:   0.000D+00 0.100D+01
 Coeff:      0.226D-02-0.609D-02 0.741D-02-0.104D-01-0.196D-01 0.150D-01
 Coeff:      0.298D+00 0.714D+00
 Gap=     0.081 Goal=   None    Shift=    0.000
 RMSDP=1.40D-05 MaxDP=3.73D-03 DE=-2.22D-04 OVMax= 6.04D-03

 Cycle  10  Pass 1  IDiag  1:
 RMSU=  7.48D-06    CP:  1.01D+00  1.17D+00  1.11D+00  1.36D+00  1.34D+00
                    CP:  1.27D+00  1.46D+00  1.20D+00
 E= -1876.43419136288     Delta-E=       -0.000044395512 Rises=F Damp=F
 DIIS: error= 5.78D-05 at cycle   9 NSaved=   9.
 NSaved= 9 IEnMin= 9 EnMin= -1876.43419136288     IErMin= 9 ErrMin= 5.78D-05
 ErrMax= 5.78D-05  0.00D+00 EMaxC= 1.00D-01 BMatC= 7.84D-06 BMatP= 2.77D-05
 IDIUse=1 WtCom= 1.00D+00 WtEn= 0.00D+00
 Coeff-Com:  0.194D-04-0.350D-02 0.745D-02 0.125D-01-0.558D-02-0.674D-01
 Coeff-Com: -0.337D-01 0.299D+00 0.791D+00
 Coeff:      0.194D-04-0.350D-02 0.745D-02 0.125D-01-0.558D-02-0.674D-01
 Coeff:     -0.337D-01 0.299D+00 0.791D+00
 Gap=     0.081 Goal=   None    Shift=    0.000
 RMSDP=1.18D-05 MaxDP=3.89D-03 DE=-4.44D-05 OVMax= 5.36D-03

 Cycle  11  Pass 1  IDiag  1:
 RMSU=  4.03D-06    CP:  1.01D+00  1.17D+00  1.12D+00  1.36D+00  1.34D+00
                    CP:  1.26D+00  1.58D+00  1.51D+00  1.26D+00
 E= -1876.43420664726     Delta-E=       -0.000015284375 Rises=F Damp=F
 DIIS: error= 2.69D-05 at cycle  10 NSaved=  10.
 NSaved=10 IEnMin=10 EnMin= -1876.43420664726     IErMin=10 ErrMin= 2.69D-05
 ErrMax= 2.69D-05  0.00D+00 EMaxC= 1.00D-01 BMatC= 1.80D-06 BMatP= 7.84D-06
 IDIUse=1 WtCom= 1.00D+00 WtEn= 0.00D+00
 Coeff-Com:  0.644D-04-0.140D-02 0.244D-02 0.824D-02 0.185D-02-0.366D-01
 Coeff-Com: -0.794D-01-0.104D-01 0.421D+00 0.694D+00
 Coeff:      0.644D-04-0.140D-02 0.244D-02 0.824D-02 0.185D-02-0.366D-01
 Coeff:     -0.794D-01-0.104D-01 0.421D+00 0.694D+00
 Gap=     0.081 Goal=   None    Shift=    0.000
 RMSDP=5.35D-06 MaxDP=1.18D-03 DE=-1.53D-05 OVMax= 2.89D-03

 Cycle  12  Pass 1  IDiag  1:
 RMSU=  1.82D-06    CP:  1.01D+00  1.17D+00  1.12D+00  1.35D+00  1.33D+00
                    CP:  1.26D+00  1.65D+00  1.63D+00  1.54D+00  1.17D+00
 E= -1876.43421075307     Delta-E=       -0.000004105812 Rises=F Damp=F
 DIIS: error= 8.42D-06 at cycle  11 NSaved=  11.
 NSaved=11 IEnMin=11 EnMin= -1876.43421075307     IErMin=11 ErrMin= 8.42D-06
 ErrMax= 8.42D-06  0.00D+00 EMaxC= 1.00D-01 BMatC= 2.93D-07 BMatP= 1.80D-06
 IDIUse=1 WtCom= 1.00D+00 WtEn= 0.00D+00
 Coeff-Com:  0.356D-04-0.161D-03 0.129D-03 0.172D-02 0.192D-02-0.297D-02
 Coeff-Com: -0.303D-01-0.653D-01 0.626D-01 0.299D+00 0.733D+00
 Coeff:      0.356D-04-0.161D-03 0.129D-03 0.172D-02 0.192D-02-0.297D-02
 Coeff:     -0.303D-01-0.653D-01 0.626D-01 0.299D+00 0.733D+00
 Gap=     0.082 Goal=   None    Shift=    0.000
 RMSDP=2.67D-06 MaxDP=6.43D-04 DE=-4.11D-06 OVMax= 1.51D-03

 Cycle  13  Pass 1  IDiag  1:
 RMSU=  7.60D-07    CP:  1.01D+00  1.17D+00  1.12D+00  1.35D+00  1.33D+00
                    CP:  1.26D+00  1.68D+00  1.68D+00  1.65D+00  1.42D+00
                    CP:  1.25D+00
 E= -1876.43421160874     Delta-E=       -0.000000855671 Rises=F Damp=F
 DIIS: error= 6.84D-06 at cycle  12 NSaved=  12.
 NSaved=12 IEnMin=12 EnMin= -1876.43421160874     IErMin=12 ErrMin= 6.84D-06
 ErrMax= 6.84D-06  0.00D+00 EMaxC= 1.00D-01 BMatC= 7.42D-08 BMatP= 2.93D-07
 IDIUse=1 WtCom= 1.00D+00 WtEn= 0.00D+00
 Coeff-Com:  0.555D-04 0.807D-04-0.304D-03-0.903D-03-0.119D-03 0.779D-02
 Coeff-Com:  0.496D-02-0.276D-01-0.644D-01-0.542D-01 0.339D+00 0.795D+00
 Coeff:      0.555D-04 0.807D-04-0.304D-03-0.903D-03-0.119D-03 0.779D-02
 Coeff:      0.496D-02-0.276D-01-0.644D-01-0.542D-01 0.339D+00 0.795D+00
 Gap=     0.082 Goal=   None    Shift=    0.000
 RMSDP=1.42D-06 MaxDP=3.21D-04 DE=-8.56D-07 OVMax= 9.28D-04

 Cycle  14  Pass 1  IDiag  1:
 RMSU=  3.83D-07    CP:  1.01D+00  1.17D+00  1.12D+00  1.35D+00  1.33D+00
                    CP:  1.26D+00  1.70D+00  1.70D+00  1.72D+00  1.55D+00
                    CP:  1.57D+00  1.28D+00
 E= -1876.43421186461     Delta-E=       -0.000000255865 Rises=F Damp=F
 DIIS: error= 1.51D-06 at cycle  13 NSaved=  13.
 NSaved=13 IEnMin=13 EnMin= -1876.43421186461     IErMin=13 ErrMin= 1.51D-06
 ErrMax= 1.51D-06  0.00D+00 EMaxC= 1.00D-01 BMatC= 1.24D-08 BMatP= 7.42D-08
 IDIUse=1 WtCom= 1.00D+00 WtEn= 0.00D+00
 Coeff-Com: -0.142D-04 0.999D-04-0.137D-03-0.460D-03-0.501D-03 0.422D-02
 Coeff-Com:  0.633D-02-0.417D-02-0.352D-01-0.764D-01 0.381D-01 0.340D+00
 Coeff-Com:  0.728D+00
 Coeff:     -0.142D-04 0.999D-04-0.137D-03-0.460D-03-0.501D-03 0.422D-02
 Coeff:      0.633D-02-0.417D-02-0.352D-01-0.764D-01 0.381D-01 0.340D+00
 Coeff:      0.728D+00
 Gap=     0.082 Goal=   None    Shift=    0.000
 RMSDP=6.44D-07 MaxDP=1.63D-04 DE=-2.56D-07 OVMax= 3.64D-04

 Cycle  15  Pass 1  IDiag  1:
 RMSU=  1.36D-07    CP:  1.01D+00  1.17D+00  1.12D+00  1.35D+00  1.33D+00
                    CP:  1.26D+00  1.70D+00  1.71D+00  1.75D+00  1.61D+00
                    CP:  1.72D+00  1.54D+00  1.25D+00
 E= -1876.43421190953     Delta-E=       -0.000000044924 Rises=F Damp=F
 DIIS: error= 1.33D-06 at cycle  14 NSaved=  14.
 NSaved=14 IEnMin=14 EnMin= -1876.43421190953     IErMin=14 ErrMin= 1.33D-06
 ErrMax= 1.33D-06  0.00D+00 EMaxC= 1.00D-01 BMatC= 2.57D-09 BMatP= 1.24D-08
 IDIUse=1 WtCom= 1.00D+00 WtEn= 0.00D+00
 Coeff-Com: -0.299D-04 0.336D-04 0.235D-04 0.114D-03-0.333D-03-0.167D-03
 Coeff-Com:  0.181D-02 0.674D-02 0.628D-02-0.234D-01-0.886D-01-0.799D-01
 Coeff-Com:  0.344D+00 0.834D+00
 Coeff:     -0.299D-04 0.336D-04 0.235D-04 0.114D-03-0.333D-03-0.167D-03
 Coeff:      0.181D-02 0.674D-02 0.628D-02-0.234D-01-0.886D-01-0.799D-01
 Coeff:      0.344D+00 0.834D+00
 Gap=     0.082 Goal=   None    Shift=    0.000
 RMSDP=3.54D-07 MaxDP=8.96D-05 DE=-4.49D-08 OVMax= 2.25D-04

 Cycle  16  Pass 1  IDiag  1:
 RMSU=  6.47D-08    CP:  1.01D+00  1.17D+00  1.12D+00  1.35D+00  1.33D+00
                    CP:  1.26D+00  1.71D+00  1.71D+00  1.76D+00  1.64D+00
                    CP:  1.81D+00  1.71D+00  1.55D+00  1.18D+00
 E= -1876.43421192103     Delta-E=       -0.000000011502 Rises=F Damp=F
 DIIS: error= 2.98D-07 at cycle  15 NSaved=  15.
 NSaved=15 IEnMin=15 EnMin= -1876.43421192103     IErMin=15 ErrMin= 2.98D-07
 ErrMax= 2.98D-07  0.00D+00 EMaxC= 1.00D-01 BMatC= 3.95D-10 BMatP= 2.57D-09
 IDIUse=1 WtCom= 1.00D+00 WtEn= 0.00D+00
 Coeff-Com: -0.920D-05 0.218D-05 0.197D-04 0.113D-03-0.970D-04-0.682D-03
 Coeff-Com: -0.237D-03 0.291D-02 0.765D-02 0.351D-03-0.387D-01-0.786D-01
 Coeff-Com:  0.120D-01 0.326D+00 0.769D+00
 Coeff:     -0.920D-05 0.218D-05 0.197D-04 0.113D-03-0.970D-04-0.682D-03
 Coeff:     -0.237D-03 0.291D-02 0.765D-02 0.351D-03-0.387D-01-0.786D-01
 Coeff:      0.120D-01 0.326D+00 0.769D+00
 Gap=     0.082 Goal=   None    Shift=    0.000
 RMSDP=1.26D-07 MaxDP=2.94D-05 DE=-1.15D-08 OVMax= 8.09D-05

 Cycle  17  Pass 1  IDiag  1:
 RMSU=  2.36D-08    CP:  1.01D+00  1.17D+00  1.12D+00  1.35D+00  1.33D+00
                    CP:  1.26D+00  1.71D+00  1.71D+00  1.76D+00  1.65D+00
                    CP:  1.83D+00  1.76D+00  1.66D+00  1.35D+00  1.16D+00
 E= -1876.43421192247     Delta-E=       -0.000000001436 Rises=F Damp=F
 DIIS: error= 1.60D-07 at cycle  16 NSaved=  16.
 NSaved=16 IEnMin=16 EnMin= -1876.43421192247     IErMin=16 ErrMin= 1.60D-07
 ErrMax= 1.60D-07  0.00D+00 EMaxC= 1.00D-01 BMatC= 6.64D-11 BMatP= 3.95D-10
 IDIUse=1 WtCom= 1.00D+00 WtEn= 0.00D+00
 Coeff-Com: -0.311D-05 0.173D-06 0.823D-05 0.425D-04-0.343D-05-0.316D-03
 Coeff-Com: -0.385D-03 0.348D-03 0.271D-02 0.327D-02-0.510D-02-0.261D-01
 Coeff-Com: -0.493D-01 0.285D-01 0.371D+00 0.676D+00
 Coeff:     -0.311D-05 0.173D-06 0.823D-05 0.425D-04-0.343D-05-0.316D-03
 Coeff:     -0.385D-03 0.348D-03 0.271D-02 0.327D-02-0.510D-02-0.261D-01
 Coeff:     -0.493D-01 0.285D-01 0.371D+00 0.676D+00
 Gap=     0.082 Goal=   None    Shift=    0.000
 RMSDP=3.90D-08 MaxDP=1.09D-05 DE=-1.44D-09 OVMax= 2.50D-05

 Cycle  18  Pass 1  IDiag  1:
 RMSU=  9.55D-09    CP:  1.01D+00  1.17D+00  1.12D+00  1.35D+00  1.33D+00
                    CP:  1.26D+00  1.71D+00  1.71D+00  1.76D+00  1.65D+00
                    CP:  1.84D+00  1.78D+00  1.69D+00  1.41D+00  1.28D+00
                    CP:  1.09D+00
 E= -1876.43421192252     Delta-E=       -0.000000000052 Rises=F Damp=F
 DIIS: error= 6.25D-08 at cycle  17 NSaved=  17.
 NSaved=17 IEnMin=17 EnMin= -1876.43421192252     IErMin=17 ErrMin= 6.25D-08
 ErrMax= 6.25D-08  0.00D+00 EMaxC= 1.00D-01 BMatC= 8.06D-12 BMatP= 6.64D-11
 IDIUse=1 WtCom= 1.00D+00 WtEn= 0.00D+00
 Coeff-Com:  0.284D-06-0.921D-06 0.121D-05 0.441D-05 0.900D-05-0.541D-04
 Coeff-Com: -0.140D-03-0.230D-03 0.220D-03 0.137D-02 0.295D-02-0.115D-02
 Coeff-Com: -0.228D-01-0.304D-01 0.574D-01 0.297D+00 0.696D+00
 Coeff:      0.284D-06-0.921D-06 0.121D-05 0.441D-05 0.900D-05-0.541D-04
 Coeff:     -0.140D-03-0.230D-03 0.220D-03 0.137D-02 0.295D-02-0.115D-02
 Coeff:     -0.228D-01-0.304D-01 0.574D-01 0.297D+00 0.696D+00
 Gap=     0.082 Goal=   None    Shift=    0.000
 RMSDP=9.79D-09 MaxDP=1.54D-06 DE=-5.18D-11 OVMax= 6.53D-06

 Cycle  19  Pass 1  IDiag  1:
 RMSU=  3.53D-09    CP:  1.01D+00  1.17D+00  1.12D+00  1.35D+00  1.33D+00
                    CP:  1.26D+00  1.71D+00  1.71D+00  1.76D+00  1.65D+00
                    CP:  1.84D+00  1.78D+00  1.70D+00  1.42D+00  1.34D+00
                    CP:  1.24D+00  1.06D+00
 E= -1876.43421192254     Delta-E=       -0.000000000023 Rises=F Damp=F
 DIIS: error= 1.64D-08 at cycle  18 NSaved=  18.
 NSaved=18 IEnMin=18 EnMin= -1876.43421192254     IErMin=18 ErrMin= 1.64D-08
 ErrMax= 1.64D-08  0.00D+00 EMaxC= 1.00D-01 BMatC= 1.44D-12 BMatP= 8.06D-12
 IDIUse=1 WtCom= 1.00D+00 WtEn= 0.00D+00
 Coeff-Com:  0.397D-06-0.313D-06-0.281D-06-0.407D-05 0.526D-05 0.255D-04
 Coeff-Com: -0.523D-06-0.162D-03-0.341D-03 0.108D-03 0.207D-02 0.348D-02
 Coeff-Com: -0.228D-02-0.188D-01-0.345D-01 0.248D-01 0.314D+00 0.711D+00
 Coeff:      0.397D-06-0.313D-06-0.281D-06-0.407D-05 0.526D-05 0.255D-04
 Coeff:     -0.523D-06-0.162D-03-0.341D-03 0.108D-03 0.207D-02 0.348D-02
 Coeff:     -0.228D-02-0.188D-01-0.345D-01 0.248D-01 0.314D+00 0.711D+00
 Gap=     0.082 Goal=   None    Shift=    0.000
 RMSDP=4.07D-09 MaxDP=7.26D-07 DE=-2.27D-11 OVMax= 2.43D-06

 SCF Done:  E(RM062X) =  -1876.43421192     A.U. after   19 cycles
            NFock= 19  Conv=0.41D-08     -V/T= 2.0047
 KE= 1.867650391465D+03 PE=-1.315719898694D+04 EE= 5.010417252806D+03
 Leave Link  502 at Sat Jun 22 17:52:50 2024, MaxMem=  2684354560 cpu:           23841.7 elap:            1493.5
 (Enter /storage/apps/GAUSSIAN/G16_RevA03/g16/l601.exe)
 Copying SCF densities to generalized density rwf, IOpCl= 0 IROHF=0.

 **********************************************************************

            Population analysis using the SCF density.

 **********************************************************************

 Alpha  occ. eigenvalues --  -19.78773 -19.77337 -19.75796 -19.72516 -19.64256
 Alpha  occ. eigenvalues --  -19.61481 -15.02175 -14.90224 -14.87951 -14.85881
 Alpha  occ. eigenvalues --  -14.84859 -14.84435 -14.82718 -14.81422 -14.81355
 Alpha  occ. eigenvalues --  -10.79391 -10.79221 -10.77944 -10.77909 -10.74973
 Alpha  occ. eigenvalues --  -10.74601 -10.73931 -10.73750 -10.73729 -10.72587
 Alpha  occ. eigenvalues --  -10.72206 -10.71198 -10.69492 -10.68471 -10.66826
 Alpha  occ. eigenvalues --  -10.66095 -10.65923 -10.65475 -10.63524 -10.59667
 Alpha  occ. eigenvalues --  -10.59364 -10.58954 -10.58794 -10.58668  -1.33316
 Alpha  occ. eigenvalues --   -1.29605  -1.28114  -1.27545  -1.26415  -1.21685
 Alpha  occ. eigenvalues --   -1.16514  -1.15600  -1.15518  -1.14085  -1.12891
 Alpha  occ. eigenvalues --   -1.11350  -1.08669  -1.08119  -1.07554  -1.05529
 Alpha  occ. eigenvalues --   -1.03681  -1.01865  -1.01169  -1.00329  -0.97064
 Alpha  occ. eigenvalues --   -0.94231  -0.92352  -0.91848  -0.91194  -0.89111
 Alpha  occ. eigenvalues --   -0.87964  -0.87043  -0.85291  -0.82508  -0.82166
 Alpha  occ. eigenvalues --   -0.81125  -0.80984  -0.78188  -0.77678  -0.77280
 Alpha  occ. eigenvalues --   -0.76856  -0.75611  -0.75426  -0.73806  -0.73672
 Alpha  occ. eigenvalues --   -0.73615  -0.71520  -0.71259  -0.70830  -0.70214
 Alpha  occ. eigenvalues --   -0.69669  -0.69590  -0.68919  -0.67969  -0.66692
 Alpha  occ. eigenvalues --   -0.66477  -0.66056  -0.65966  -0.65358  -0.65043
 Alpha  occ. eigenvalues --   -0.64523  -0.63849  -0.63221  -0.62901  -0.62406
 Alpha  occ. eigenvalues --   -0.61801  -0.61570  -0.61338  -0.60694  -0.60280
 Alpha  occ. eigenvalues --   -0.59752  -0.59445  -0.58903  -0.57996  -0.57229
 Alpha  occ. eigenvalues --   -0.56665  -0.55988  -0.55551  -0.54973  -0.54177
 Alpha  occ. eigenvalues --   -0.53766  -0.53352  -0.52785  -0.52183  -0.51795
 Alpha  occ. eigenvalues --   -0.51337  -0.51241  -0.50800  -0.50597  -0.49833
 Alpha  occ. eigenvalues --   -0.49374  -0.49120  -0.48048  -0.47141  -0.46293
 Alpha  occ. eigenvalues --   -0.45699  -0.43594  -0.42737  -0.42266  -0.40735
 Alpha  occ. eigenvalues --   -0.39473  -0.38513  -0.37444  -0.36167  -0.36113
 Alpha  occ. eigenvalues --   -0.31581  -0.29496
 Alpha virt. eigenvalues --   -0.21328  -0.17799  -0.08051  -0.07546  -0.06962
 Alpha virt. eigenvalues --   -0.06533  -0.06187  -0.05512  -0.04927  -0.04364
 Alpha virt. eigenvalues --   -0.03727  -0.02928  -0.02881  -0.02429  -0.02014
 Alpha virt. eigenvalues --   -0.01537  -0.00956  -0.00740  -0.00471   0.00239
 Alpha virt. eigenvalues --    0.00755   0.00927   0.01369   0.01433   0.01867
 Alpha virt. eigenvalues --    0.01931   0.02037   0.02719   0.03063   0.03559
 Alpha virt. eigenvalues --    0.04096   0.04699   0.04875   0.05236   0.05622
 Alpha virt. eigenvalues --    0.05935   0.06222   0.06355   0.06543   0.06730
 Alpha virt. eigenvalues --    0.07036   0.07448   0.08060   0.08485   0.08768
 Alpha virt. eigenvalues --    0.09441   0.09544   0.09900   0.10336   0.10443
 Alpha virt. eigenvalues --    0.10854   0.11484   0.11616   0.12113   0.12258
 Alpha virt. eigenvalues --    0.12668   0.12822   0.13104   0.13574   0.13799
 Alpha virt. eigenvalues --    0.14235   0.14552   0.14785   0.15075   0.15506
 Alpha virt. eigenvalues --    0.15896   0.15965   0.16531   0.16661   0.17002
 Alpha virt. eigenvalues --    0.17623   0.17856   0.18288   0.18756   0.19086
 Alpha virt. eigenvalues --    0.19205   0.19412   0.19672   0.19895   0.20261
 Alpha virt. eigenvalues --    0.20372   0.20753   0.21201   0.21421   0.21614
 Alpha virt. eigenvalues --    0.21780   0.22188   0.22659   0.22891   0.23184
 Alpha virt. eigenvalues --    0.23523   0.23873   0.24113   0.24487   0.24591
 Alpha virt. eigenvalues --    0.24769   0.25033   0.25230   0.25676   0.25897
 Alpha virt. eigenvalues --    0.26350   0.26451   0.26527   0.27107   0.27534
 Alpha virt. eigenvalues --    0.27925   0.28267   0.28305   0.28479   0.28866
 Alpha virt. eigenvalues --    0.29168   0.29406   0.29599   0.29917   0.30243
 Alpha virt. eigenvalues --    0.30402   0.30599   0.30892   0.31158   0.31277
 Alpha virt. eigenvalues --    0.31576   0.31696   0.32068   0.32242   0.32427
 Alpha virt. eigenvalues --    0.32710   0.32984   0.33394   0.33793   0.34061
 Alpha virt. eigenvalues --    0.34215   0.34485   0.34737   0.35292   0.35360
 Alpha virt. eigenvalues --    0.35561   0.35730   0.36244   0.36333   0.36414
 Alpha virt. eigenvalues --    0.36641   0.36925   0.37130   0.37360   0.37784
 Alpha virt. eigenvalues --    0.38016   0.38102   0.38447   0.38607   0.39161
 Alpha virt. eigenvalues --    0.39416   0.39536   0.39677   0.40033   0.40143
 Alpha virt. eigenvalues --    0.40453   0.40751   0.40879   0.41274   0.41620
 Alpha virt. eigenvalues --    0.41793   0.42007   0.42111   0.42779   0.43105
 Alpha virt. eigenvalues --    0.43195   0.43405   0.43673   0.43869   0.44300
 Alpha virt. eigenvalues --    0.44551   0.44637   0.45115   0.45272   0.45647
 Alpha virt. eigenvalues --    0.45986   0.46050   0.46366   0.46640   0.46817
 Alpha virt. eigenvalues --    0.47277   0.47438   0.48225   0.48519   0.48764
 Alpha virt. eigenvalues --    0.48920   0.49235   0.49408   0.49952   0.50148
 Alpha virt. eigenvalues --    0.50561   0.50758   0.51038   0.51459   0.51658
 Alpha virt. eigenvalues --    0.52134   0.52199   0.52735   0.53009   0.53498
 Alpha virt. eigenvalues --    0.53693   0.53980   0.54112   0.54644   0.55397
 Alpha virt. eigenvalues --    0.55488   0.55927   0.56098   0.56761   0.56959
 Alpha virt. eigenvalues --    0.57024   0.57214   0.57812   0.57842   0.58117
 Alpha virt. eigenvalues --    0.58701   0.59043   0.59356   0.59804   0.60143
 Alpha virt. eigenvalues --    0.60364   0.60698   0.61207   0.61416   0.61701
 Alpha virt. eigenvalues --    0.61885   0.62557   0.62832   0.63173   0.63520
 Alpha virt. eigenvalues --    0.63700   0.63864   0.64219   0.64781   0.64841
 Alpha virt. eigenvalues --    0.65281   0.65686   0.66040   0.66697   0.67083
 Alpha virt. eigenvalues --    0.67711   0.68222   0.68384   0.68427   0.68712
 Alpha virt. eigenvalues --    0.69457   0.69698   0.70588   0.70714   0.71115
 Alpha virt. eigenvalues --    0.71413   0.71642   0.71735   0.72128   0.72771
 Alpha virt. eigenvalues --    0.73148   0.73552   0.74041   0.74517   0.74782
 Alpha virt. eigenvalues --    0.75184   0.75470   0.75647   0.76016   0.76891
 Alpha virt. eigenvalues --    0.77131   0.77466   0.77828   0.78247   0.78591
 Alpha virt. eigenvalues --    0.78898   0.78994   0.79786   0.79870   0.80839
 Alpha virt. eigenvalues --    0.81263   0.81664   0.82495   0.82875   0.83012
 Alpha virt. eigenvalues --    0.83140   0.83735   0.84330   0.84728   0.84838
 Alpha virt. eigenvalues --    0.85446   0.85920   0.86565   0.86997   0.87453
 Alpha virt. eigenvalues --    0.87736   0.88388   0.88764   0.88960   0.89002
 Alpha virt. eigenvalues --    0.89533   0.90616   0.90793   0.91256   0.91463
 Alpha virt. eigenvalues --    0.91983   0.92635   0.93073   0.93203   0.93862
 Alpha virt. eigenvalues --    0.94899   0.95302   0.95581   0.96080   0.96688
 Alpha virt. eigenvalues --    0.97302   0.97768   0.98147   0.98675   0.99488
 Alpha virt. eigenvalues --    0.99742   0.99988   1.00626   1.00842   1.01284
 Alpha virt. eigenvalues --    1.01793   1.02292   1.02649   1.03955   1.04237
 Alpha virt. eigenvalues --    1.04739   1.04992   1.05589   1.05744   1.06513
 Alpha virt. eigenvalues --    1.07319   1.07984   1.08329   1.08422   1.09008
 Alpha virt. eigenvalues --    1.09529   1.10217   1.10810   1.11069   1.11265
 Alpha virt. eigenvalues --    1.11933   1.12397   1.12924   1.13534   1.14819
 Alpha virt. eigenvalues --    1.15074   1.15409   1.15912   1.16166   1.16645
 Alpha virt. eigenvalues --    1.17035   1.17409   1.18074   1.18642   1.19417
 Alpha virt. eigenvalues --    1.19794   1.20729   1.21668   1.22210   1.22843
 Alpha virt. eigenvalues --    1.23413   1.23623   1.23900   1.24364   1.24459
 Alpha virt. eigenvalues --    1.24767   1.25660   1.25915   1.26879   1.27180
 Alpha virt. eigenvalues --    1.27519   1.27737   1.28221   1.28528   1.29073
 Alpha virt. eigenvalues --    1.29541   1.30273   1.30328   1.31597   1.32063
 Alpha virt. eigenvalues --    1.32206   1.32873   1.33589   1.34255   1.34714
 Alpha virt. eigenvalues --    1.35171   1.35490   1.35699   1.36463   1.36733
 Alpha virt. eigenvalues --    1.37303   1.37731   1.38358   1.38780   1.39013
 Alpha virt. eigenvalues --    1.39193   1.39786   1.40390   1.40749   1.41328
 Alpha virt. eigenvalues --    1.42223   1.42529   1.42892   1.43209   1.43386
 Alpha virt. eigenvalues --    1.44356   1.44467   1.44721   1.45100   1.45666
 Alpha virt. eigenvalues --    1.46376   1.46466   1.46880   1.47339   1.47651
 Alpha virt. eigenvalues --    1.47992   1.48234   1.48948   1.49064   1.49552
 Alpha virt. eigenvalues --    1.50269   1.50563   1.50763   1.51297   1.51652
 Alpha virt. eigenvalues --    1.52195   1.52611   1.52834   1.53188   1.53521
 Alpha virt. eigenvalues --    1.53827   1.54362   1.54852   1.55117   1.55522
 Alpha virt. eigenvalues --    1.55852   1.56087   1.56378   1.56592   1.57194
 Alpha virt. eigenvalues --    1.57217   1.57645   1.57839   1.58109   1.58611
 Alpha virt. eigenvalues --    1.59082   1.59883   1.60249   1.60404   1.60727
 Alpha virt. eigenvalues --    1.60792   1.61274   1.61886   1.62071   1.62409
 Alpha virt. eigenvalues --    1.63196   1.63636   1.64078   1.64579   1.64689
 Alpha virt. eigenvalues --    1.65723   1.65984   1.66220   1.66761   1.67248
 Alpha virt. eigenvalues --    1.67738   1.67921   1.68338   1.69012   1.69631
 Alpha virt. eigenvalues --    1.70022   1.70216   1.70784   1.71733   1.71943
 Alpha virt. eigenvalues --    1.72187   1.72756   1.73236   1.73623   1.73970
 Alpha virt. eigenvalues --    1.74217   1.74560   1.75485   1.76431   1.76476
 Alpha virt. eigenvalues --    1.77015   1.77362   1.77697   1.78315   1.78398
 Alpha virt. eigenvalues --    1.78948   1.79509   1.80034   1.80593   1.80972
 Alpha virt. eigenvalues --    1.81616   1.81834   1.82401   1.82745   1.83026
 Alpha virt. eigenvalues --    1.83384   1.84061   1.84255   1.84939   1.85128
 Alpha virt. eigenvalues --    1.85902   1.86379   1.86629   1.87098   1.87200
 Alpha virt. eigenvalues --    1.88091   1.88568   1.88960   1.89590   1.90029
 Alpha virt. eigenvalues --    1.90118   1.90604   1.90731   1.91505   1.92212
 Alpha virt. eigenvalues --    1.92724   1.93544   1.93767   1.94329   1.94927
 Alpha virt. eigenvalues --    1.95448   1.95554   1.95897   1.96856   1.97232
 Alpha virt. eigenvalues --    1.97626   1.97935   1.98415   1.99112   1.99397
 Alpha virt. eigenvalues --    1.99742   2.00687   2.01360   2.02092   2.02346
 Alpha virt. eigenvalues --    2.02886   2.02987   2.03784   2.04160   2.04552
 Alpha virt. eigenvalues --    2.05406   2.06176   2.06549   2.07446   2.07575
 Alpha virt. eigenvalues --    2.08442   2.08609   2.09147   2.09692   2.10458
 Alpha virt. eigenvalues --    2.10654   2.10916   2.11197   2.11408   2.12242
 Alpha virt. eigenvalues --    2.12788   2.13763   2.13912   2.14327   2.14695
 Alpha virt. eigenvalues --    2.15750   2.16283   2.16545   2.16762   2.16860
 Alpha virt. eigenvalues --    2.17761   2.18251   2.19112   2.19478   2.20176
 Alpha virt. eigenvalues --    2.20565   2.21067   2.21231   2.21806   2.21863
 Alpha virt. eigenvalues --    2.22241   2.23395   2.24191   2.24482   2.25022
 Alpha virt. eigenvalues --    2.25292   2.25836   2.26161   2.26533   2.27203
 Alpha virt. eigenvalues --    2.27718   2.27999   2.28516   2.29404   2.30207
 Alpha virt. eigenvalues --    2.31039   2.31212   2.31522   2.32819   2.33147
 Alpha virt. eigenvalues --    2.34066   2.34414   2.34754   2.35312   2.35633
 Alpha virt. eigenvalues --    2.36089   2.36185   2.37385   2.37649   2.37943
 Alpha virt. eigenvalues --    2.39153   2.39220   2.39526   2.39788   2.40489
 Alpha virt. eigenvalues --    2.41101   2.41917   2.42384   2.43228   2.44264
 Alpha virt. eigenvalues --    2.44765   2.45253   2.45592   2.46141   2.46943
 Alpha virt. eigenvalues --    2.47360   2.47531   2.48330   2.49033   2.49463
 Alpha virt. eigenvalues --    2.49728   2.50083   2.50975   2.51571   2.52150
 Alpha virt. eigenvalues --    2.52643   2.52822   2.53245   2.53799   2.54060
 Alpha virt. eigenvalues --    2.55210   2.55470   2.56213   2.56414   2.56515
 Alpha virt. eigenvalues --    2.57478   2.58062   2.58668   2.59089   2.59682
 Alpha virt. eigenvalues --    2.60308   2.60648   2.60830   2.61245   2.61635
 Alpha virt. eigenvalues --    2.61865   2.62583   2.63211   2.63579   2.63936
 Alpha virt. eigenvalues --    2.64118   2.64712   2.65165   2.65568   2.66037
 Alpha virt. eigenvalues --    2.66476   2.67008   2.67102   2.67417   2.67877
 Alpha virt. eigenvalues --    2.68352   2.68585   2.69155   2.69635   2.69707
 Alpha virt. eigenvalues --    2.70194   2.70420   2.70597   2.71298   2.71581
 Alpha virt. eigenvalues --    2.72410   2.72850   2.73451   2.73638   2.74341
 Alpha virt. eigenvalues --    2.74951   2.75362   2.75673   2.76375   2.76795
 Alpha virt. eigenvalues --    2.76948   2.77226   2.77562   2.77987   2.78208
 Alpha virt. eigenvalues --    2.79123   2.79649   2.79879   2.80474   2.80708
 Alpha virt. eigenvalues --    2.81220   2.81963   2.82411   2.82604   2.83228
 Alpha virt. eigenvalues --    2.83611   2.83739   2.84223   2.84390   2.85500
 Alpha virt. eigenvalues --    2.85715   2.85944   2.86563   2.86762   2.86934
 Alpha virt. eigenvalues --    2.87987   2.88276   2.88437   2.88919   2.89022
 Alpha virt. eigenvalues --    2.89658   2.89747   2.90065   2.90353   2.91088
 Alpha virt. eigenvalues --    2.91431   2.91738   2.91996   2.92258   2.92557
 Alpha virt. eigenvalues --    2.92761   2.92919   2.93291   2.94339   2.94865
 Alpha virt. eigenvalues --    2.95343   2.95599   2.95650   2.96043   2.96382
 Alpha virt. eigenvalues --    2.96997   2.97457   2.97808   2.98488   2.98906
 Alpha virt. eigenvalues --    2.99705   3.00057   3.00255   3.00962   3.01663
 Alpha virt. eigenvalues --    3.01796   3.02062   3.02481   3.02641   3.03189
 Alpha virt. eigenvalues --    3.03201   3.03894   3.04042   3.04478   3.05119
 Alpha virt. eigenvalues --    3.05818   3.05967   3.06077   3.06396   3.07200
 Alpha virt. eigenvalues --    3.07822   3.08067   3.08351   3.08639   3.08913
 Alpha virt. eigenvalues --    3.09451   3.09905   3.10133   3.10853   3.11436
 Alpha virt. eigenvalues --    3.11644   3.12038   3.12511   3.12692   3.12916
 Alpha virt. eigenvalues --    3.13276   3.13668   3.13876   3.14273   3.14525
 Alpha virt. eigenvalues --    3.14927   3.15235   3.15581   3.15662   3.16257
 Alpha virt. eigenvalues --    3.16534   3.16882   3.17059   3.17485   3.17703
 Alpha virt. eigenvalues --    3.18099   3.18526   3.19287   3.19942   3.20049
 Alpha virt. eigenvalues --    3.20351   3.21008   3.21077   3.21396   3.21968
 Alpha virt. eigenvalues --    3.22446   3.22539   3.23328   3.23491   3.24004
 Alpha virt. eigenvalues --    3.24795   3.25419   3.25762   3.26308   3.26580
 Alpha virt. eigenvalues --    3.27025   3.27430   3.27522   3.28428   3.28736
 Alpha virt. eigenvalues --    3.28826   3.29270   3.29703   3.29967   3.30553
 Alpha virt. eigenvalues --    3.30926   3.31061   3.31718   3.32120   3.32579
 Alpha virt. eigenvalues --    3.32762   3.33099   3.33502   3.33625   3.33962
 Alpha virt. eigenvalues --    3.34273   3.35140   3.35280   3.35591   3.35852
 Alpha virt. eigenvalues --    3.35997   3.36565   3.37213   3.37695   3.38014
 Alpha virt. eigenvalues --    3.38323   3.39021   3.39962   3.40387   3.40767
 Alpha virt. eigenvalues --    3.41351   3.41720   3.42386   3.42603   3.42908
 Alpha virt. eigenvalues --    3.43725   3.44156   3.44627   3.45097   3.45315
 Alpha virt. eigenvalues --    3.46095   3.46186   3.47401   3.47909   3.48703
 Alpha virt. eigenvalues --    3.49384   3.49676   3.50223   3.50651   3.51106
 Alpha virt. eigenvalues --    3.51264   3.51796   3.52646   3.52918   3.53809
 Alpha virt. eigenvalues --    3.54079   3.55281   3.55550   3.56073   3.57781
 Alpha virt. eigenvalues --    3.58328   3.59612   3.59889   3.60358   3.61046
 Alpha virt. eigenvalues --    3.62084   3.62897   3.63164   3.63893   3.64353
 Alpha virt. eigenvalues --    3.64963   3.67198   3.67328   3.67685   3.67877
 Alpha virt. eigenvalues --    3.68683   3.70214   3.70606   3.70964   3.71510
 Alpha virt. eigenvalues --    3.72124   3.73478   3.73947   3.74212   3.74569
 Alpha virt. eigenvalues --    3.75358   3.76244   3.77183   3.77846   3.78178
 Alpha virt. eigenvalues --    3.78725   3.79510   3.79684   3.80885   3.81812
 Alpha virt. eigenvalues --    3.82189   3.82805   3.83613   3.84222   3.84460
 Alpha virt. eigenvalues --    3.85643   3.86888   3.87779   3.88355   3.89003
 Alpha virt. eigenvalues --    3.89618   3.89961   3.90833   3.91275   3.91932
 Alpha virt. eigenvalues --    3.93232   3.93890   3.94478   3.95171   3.95289
 Alpha virt. eigenvalues --    3.96175   3.97549   3.99368   4.00163   4.00312
 Alpha virt. eigenvalues --    4.00872   4.02233   4.02516   4.03115   4.04085
 Alpha virt. eigenvalues --    4.04379   4.04948   4.05660   4.06398   4.06954
 Alpha virt. eigenvalues --    4.07753   4.07951   4.08966   4.09220   4.10010
 Alpha virt. eigenvalues --    4.11145   4.11506   4.11932   4.12593   4.13377
 Alpha virt. eigenvalues --    4.14047   4.14110   4.14917   4.16152   4.16920
 Alpha virt. eigenvalues --    4.18323   4.18555   4.19390   4.19779   4.21354
 Alpha virt. eigenvalues --    4.21573   4.22128   4.23047   4.23396   4.23842
 Alpha virt. eigenvalues --    4.24598   4.25741   4.26470   4.26887   4.28713
 Alpha virt. eigenvalues --    4.29296   4.30048   4.30601   4.32015   4.32119
 Alpha virt. eigenvalues --    4.32821   4.34439   4.35717   4.37562   4.38293
 Alpha virt. eigenvalues --    4.39101   4.39943   4.40381   4.41280   4.42005
 Alpha virt. eigenvalues --    4.42355   4.45414   4.46951   4.48231   4.49943
 Alpha virt. eigenvalues --    4.50183   4.50626   4.51291   4.51761   4.52206
 Alpha virt. eigenvalues --    4.52988   4.53423   4.53759   4.55269   4.56210
 Alpha virt. eigenvalues --    4.56907   4.57335   4.57892   4.58752   4.59310
 Alpha virt. eigenvalues --    4.59643   4.61254   4.61659   4.61875   4.63070
 Alpha virt. eigenvalues --    4.63745   4.64194   4.64687   4.66184   4.67870
 Alpha virt. eigenvalues --    4.68050   4.68343   4.68625   4.68968   4.70238
 Alpha virt. eigenvalues --    4.71267   4.73620   4.74218   4.74439   4.75057
 Alpha virt. eigenvalues --    4.75537   4.76995   4.78265   4.78415   4.79499
 Alpha virt. eigenvalues --    4.80746   4.81350   4.82782   4.83703   4.85671
 Alpha virt. eigenvalues --    4.86721   4.87178   4.88174   4.88455   4.89572
 Alpha virt. eigenvalues --    4.89975   4.90924   4.91106   4.92264   4.92654
 Alpha virt. eigenvalues --    4.93645   4.93958   4.94973   4.96334   4.97030
 Alpha virt. eigenvalues --    4.97315   4.98213   4.98873   4.99356   5.00044
 Alpha virt. eigenvalues --    5.00445   5.01397   5.01556   5.02319   5.02631
 Alpha virt. eigenvalues --    5.02987   5.03322   5.04701   5.05208   5.05962
 Alpha virt. eigenvalues --    5.06700   5.07450   5.08325   5.08762   5.09073
 Alpha virt. eigenvalues --    5.09817   5.11286   5.11850   5.13015   5.13469
 Alpha virt. eigenvalues --    5.13694   5.14383   5.14812   5.15515   5.15627
 Alpha virt. eigenvalues --    5.16697   5.17041   5.17332   5.18658   5.19445
 Alpha virt. eigenvalues --    5.19942   5.20427   5.20844   5.22166   5.22638
 Alpha virt. eigenvalues --    5.22841   5.24069   5.25229   5.25319   5.25470
 Alpha virt. eigenvalues --    5.26130   5.26274   5.26836   5.28080   5.28689
 Alpha virt. eigenvalues --    5.28716   5.28931   5.30132   5.32455   5.33318
 Alpha virt. eigenvalues --    5.33978   5.35411   5.35832   5.36243   5.36666
 Alpha virt. eigenvalues --    5.38019   5.38258   5.39164   5.41391   5.43354
 Alpha virt. eigenvalues --    5.45562   5.49516   5.49872   5.50147   5.51792
 Alpha virt. eigenvalues --    5.53490   5.54544   5.55144   5.55833   5.55935
 Alpha virt. eigenvalues --    5.58161   5.58550   5.59122   5.60851   5.61734
 Alpha virt. eigenvalues --    5.62395   5.63234   5.63439   5.63963   5.65806
 Alpha virt. eigenvalues --    5.67147   5.68216   5.68781   5.69909   5.71137
 Alpha virt. eigenvalues --    5.73312   5.75349   5.77460   5.79931   5.79960
 Alpha virt. eigenvalues --    5.81318   5.81598   5.82132   5.84740   5.87022
 Alpha virt. eigenvalues --    5.87899   5.91937   5.92875   5.93777   5.95269
 Alpha virt. eigenvalues --    5.95528   5.96409   5.97349   6.01641   6.08696
 Alpha virt. eigenvalues --    6.11483   6.16712   6.19398   6.19704   6.23509
 Alpha virt. eigenvalues --    6.30140   6.32736   6.35004   6.37731   6.38338
 Alpha virt. eigenvalues --    6.48083   6.51275   6.54808   6.55551   6.55980
 Alpha virt. eigenvalues --    6.58322   6.61182   6.62982   6.65408   6.67608
 Alpha virt. eigenvalues --    6.70585   6.70899   6.73082   6.75071   6.76367
 Alpha virt. eigenvalues --    6.78837   6.82973   6.85649   6.94780   6.96772
 Alpha virt. eigenvalues --    6.98895   6.99784   7.00416   7.02891   7.03653
 Alpha virt. eigenvalues --    7.06815   7.07408   7.12996  22.38517  22.43895
 Alpha virt. eigenvalues --   22.54935  22.56448  22.64553  22.71948  22.73230
 Alpha virt. eigenvalues --   22.76489  22.77728  22.80077  22.82168  22.84347
 Alpha virt. eigenvalues --   22.93885  22.97164  22.98384  22.99401  23.00782
 Alpha virt. eigenvalues --   23.14939  23.16631  23.18995  23.25931  23.32064
 Alpha virt. eigenvalues --   23.40406  23.51447  32.00945  32.02227  32.09306
 Alpha virt. eigenvalues --   32.40947  32.57175  32.64060  32.74082  32.88397
 Alpha virt. eigenvalues --   32.94349  44.01305  44.02442  44.04198  44.05173
 Alpha virt. eigenvalues --   44.07192  44.25521
          Condensed to atoms (all electrons):
 Mulliken charges:
               1
     1  C   -0.072896
     2  H    0.142032
     3  O   -0.304574
     4  C    0.004792
     5  H    0.180323
     6  O   -0.511851
     7  H    0.351719
     8  C    0.004633
     9  H    0.169738
    10  O   -0.464893
    11  H    0.365547
    12  C    0.051400
    13  H    0.146689
    14  N    0.042500
    15  C   -0.017286
    16  H    0.170747
    17  C    0.053712
    18  C   -0.141862
    19  H    0.258477
    20  H    0.051091
    21  C   -0.176807
    22  H    0.190639
    23  C    0.041656
    24  H    0.202582
    25  C    0.363838
    26  O   -0.348968
    27  N   -0.492943
    28  H    0.255193
    29  H    0.297796
    30  N   -0.384021
    31  C    0.455055
    32  N   -0.543394
    33  H    0.288383
    34  H    0.273037
    35  N   -0.317680
    36  H    0.265327
    37  C    0.263247
    38  O   -0.464396
    39  C   -0.016805
    40  N   -0.364752
    41  H    0.254617
    42  C    0.007092
    43  C   -0.234936
    44  H    0.168345
    45  H    0.175590
    46  N   -0.383603
    47  H    0.252902
    48  C    0.323113
    49  C   -0.247823
    50  H    0.139486
    51  H    0.212206
    52  N   -0.413920
    53  H    0.237593
    54  C    0.096689
    55  C   -0.185679
    56  H    0.172573
    57  C   -0.195760
    58  H    0.145634
    59  C    0.285389
    60  C   -0.167941
    61  H    0.115227
    62  C   -0.186412
    63  H    0.103989
    64  C    0.322852
    65  O   -0.441926
    66  N   -0.526948
    67  H    0.248121
    68  H    0.161827
    69  H    0.294678
 Sum of Mulliken charges =   1.00000
 Mulliken charges with hydrogens summed into heavy atoms:
               1
     1  C    0.230963
     3  O   -0.304574
     4  C    0.185115
     6  O   -0.160131
     8  C    0.174371
    10  O   -0.099346
    12  C    0.198089
    14  N    0.042500
    15  C    0.153461
    17  C    0.053712
    18  C    0.116615
    21  C    0.013832
    23  C    0.244238
    25  C    0.363838
    26  O   -0.348968
    27  N    0.060046
    30  N   -0.384021
    31  C    0.455055
    32  N    0.018025
    35  N   -0.052353
    37  C    0.263247
    38  O   -0.464396
    39  C   -0.016805
    40  N   -0.110135
    42  C    0.058183
    43  C    0.108999
    46  N   -0.130701
    48  C    0.323113
    49  C    0.103868
    52  N   -0.176327
    54  C    0.096689
    55  C   -0.013106
    57  C   -0.050126
    59  C    0.285389
    60  C   -0.052714
    62  C   -0.082424
    64  C    0.322852
    65  O   -0.441926
    66  N    0.015851
 Electronic spatial extent (au):  <R**2>=          27785.4485
 Charge=              1.0000 electrons
 Dipole moment (field-independent basis, Debye):
    X=             -7.6210    Y=             -8.4330    Z=             23.0425  Tot=             25.6935
 Quadrupole moment (field-independent basis, Debye-Ang):
   XX=           -136.7407   YY=           -224.8518   ZZ=           -111.0942
   XY=             -3.9430   XZ=            -87.0428   YZ=             67.4647
 Traceless Quadrupole moment (field-independent basis, Debye-Ang):
   XX=             20.8215   YY=            -67.2896   ZZ=             46.4680
   XY=             -3.9430   XZ=            -87.0428   YZ=             67.4647
 Octapole moment (field-independent basis, Debye-Ang**2):
  XXX=            676.5595  YYY=           -107.9116  ZZZ=            849.3555  XYY=            235.8027
  XXY=           -115.9508  XXZ=            323.2533  XZZ=            -29.9854  YZZ=           -111.1039
  YYZ=            189.7346  XYZ=           -104.5115
 Hexadecapole moment (field-independent basis, Debye-Ang**3):
 XXXX=          -6586.5486 YYYY=          -5111.7881 ZZZZ=         -15809.4767 XXXY=           1277.7408
 XXXZ=           -598.7126 YYYX=           1845.3990 YYYZ=           1514.9396 ZZZX=          -2047.1565
 ZZZY=           3963.1033 XXYY=          -2059.0304 XXZZ=          -3229.7340 YYZZ=          -5282.0127
 XXYZ=           1083.1544 YYXZ=           -170.0549 ZZXY=            513.0641
 N-N= 4.402697130743D+03 E-N=-1.315719899111D+04  KE= 1.867650391465D+03
 No NMR shielding tensors so no spin-rotation constants.
 Leave Link  601 at Sat Jun 22 17:52:51 2024, MaxMem=  2684354560 cpu:              10.1 elap:               0.8
 (Enter /storage/apps/GAUSSIAN/G16_RevA03/g16/l602.exe)

 **********************************************************************

            Electrostatic Properties Using The SCF Density

 **********************************************************************

       Atomic Center    1 is at  -4.177122  0.404764  6.756303
       Atomic Center    2 is at  -4.002112  0.457781  7.762782
       Atomic Center    3 is at  -2.994401 -0.189874  6.116793
       Atomic Center    4 is at  -4.297968  1.799292  6.140105
       Atomic Center    5 is at  -5.258122  2.161973  6.127372
       Atomic Center    6 is at  -3.444370  2.758157  6.808269
       Atomic Center    7 is at  -3.636205  2.846627  7.765618
       Atomic Center    8 is at  -3.689775  1.619091  4.735242
       Atomic Center    9 is at  -4.354756  1.208090  4.072118
       Atomic Center   10 is at  -3.212036  2.850972  4.209127
       Atomic Center   11 is at  -3.017154  3.422366  4.977261
       Atomic Center   12 is at  -2.517237  0.647495  5.047264
       Atomic Center   13 is at  -1.690282  1.172317  5.357049
       Atomic Center   14 is at  -2.080726 -0.254558  3.950367
       Atomic Center   15 is at  -0.746572 -0.294929  3.643627
       Atomic Center   16 is at  -0.172955  0.410790  4.100750
       Atomic Center   17 is at  -0.238877 -1.229115  2.796147
       Atomic Center   18 is at  -1.143792 -2.118736  2.154885
       Atomic Center   19 is at  -0.772933 -2.850100  1.550058
       Atomic Center   20 is at  -0.969544 -0.925178  0.236807
       Atomic Center   21 is at  -2.487294 -2.029803  2.441754
       Atomic Center   22 is at  -3.149526 -2.661545  1.994414
       Atomic Center   23 is at  -2.950604 -1.123544  3.345820
       Atomic Center   24 is at  -3.932124 -1.062137  3.613411
       Atomic Center   25 is at   1.243782 -1.433610  2.579131
       Atomic Center   26 is at   1.636797 -2.390762  1.887002
       Atomic Center   27 is at   2.142336 -0.594070  3.179481
       Atomic Center   28 is at   1.864114  0.122301  3.846574
       Atomic Center   29 is at   3.120574 -0.888949  3.196549
       Atomic Center   30 is at   2.149437 -3.099856 -1.958343
       Atomic Center   31 is at   3.276793 -2.435501 -2.289984
       Atomic Center   32 is at   4.403221 -3.117454 -2.641196
       Atomic Center   33 is at   4.424317 -4.130079 -2.591233
       Atomic Center   34 is at   5.258122 -2.601409 -2.900910
       Atomic Center   35 is at   3.343595 -1.060287 -2.296346
       Atomic Center   36 is at   4.271441 -0.608471 -2.419684
       Atomic Center   37 is at   2.248581 -0.262007 -1.995876
       Atomic Center   38 is at   2.407038  1.011560 -1.946111
       Atomic Center   39 is at   1.034571 -0.954106 -1.722509
       Atomic Center   40 is at  -0.164859 -0.212129 -1.504867
       Atomic Center   41 is at   0.023601  0.754446 -1.231996
       Atomic Center   42 is at  -1.226939 -0.880517 -0.759292
       Atomic Center   43 is at  -1.386169 -2.320465 -1.293202
       Atomic Center   44 is at  -2.052634 -2.830296 -0.712194
       Atomic Center   45 is at  -1.767878 -2.287374 -2.244284
       Atomic Center   46 is at  -0.099696 -3.010997 -1.272024
       Atomic Center   47 is at  -0.099352 -4.022626 -1.367133
       Atomic Center   48 is at   1.037258 -2.334329 -1.670945
       Atomic Center   49 is at  -2.602552 -0.113310 -0.854592
       Atomic Center   50 is at  -3.009230 -0.056586  0.080135
       Atomic Center   51 is at  -3.247432 -0.656335 -1.434955
       Atomic Center   52 is at  -2.504914  1.249325 -1.375018
       Atomic Center   53 is at  -2.761227  1.994351 -0.731358
       Atomic Center   54 is at  -2.240728  2.146903 -5.462658
       Atomic Center   55 is at  -2.425714  3.164506 -4.496472
       Atomic Center   56 is at  -2.479105  4.130079 -4.816036
       Atomic Center   57 is at  -2.508688  2.878112 -3.172684
       Atomic Center   58 is at  -2.629743  3.627350 -2.492553
       Atomic Center   59 is at  -2.423926  1.535408 -2.720259
       Atomic Center   60 is at  -2.248891  0.510192 -3.684644
       Atomic Center   61 is at  -2.182713 -0.462961 -3.392088
       Atomic Center   62 is at  -2.155733  0.813901 -5.002667
       Atomic Center   63 is at  -2.032104  0.052711 -5.668557
       Atomic Center   64 is at  -2.135132  2.491305 -6.875139
       Atomic Center   65 is at  -2.405522  3.671530 -7.305172
       Atomic Center   66 is at  -1.732929  1.533979 -7.765618
       Atomic Center   67 is at  -1.557857  0.579525 -7.470335
       Atomic Center   68 is at  -5.041562 -0.231306  6.565887
       Atomic Center   69 is at  -1.648693  1.696954 -8.840068
 -----------------------------------------------------------------

              Electrostatic Properties (Atomic Units)

 -----------------------------------------------------------------
    Center     Electric         -------- Electric Field --------
               Potential          X             Y             Z
 -----------------------------------------------------------------
    1 Atom    -14.576327     -0.006402      0.007866     -0.004441
    2 Atom     -0.974595      0.013662      0.001263      0.072272
    3 Atom    -22.189834      0.015798     -0.030523      0.010348
    4 Atom    -14.563295     -0.000081     -0.011603     -0.004869
    5 Atom     -0.973931     -0.067491      0.022886     -0.004132
    6 Atom    -22.201443      0.026394      0.016585     -0.023032
    7 Atom     -0.846042     -0.005356     -0.000443      0.006199
    8 Atom    -14.554679      0.003496     -0.001550      0.011774
    9 Atom     -0.954348     -0.048841     -0.028264     -0.046035
   10 Atom    -22.218246      0.002237      0.006033     -0.039672
   11 Atom     -0.867904      0.004213      0.011437      0.012232
   12 Atom    -14.507445     -0.010754      0.010210      0.002096
   13 Atom     -0.943559      0.056534      0.036537      0.018526
   14 Atom    -18.108486     -0.000384      0.000063      0.000348
   15 Atom    -14.528933     -0.000930     -0.008764     -0.005413
   16 Atom     -0.897930      0.039824      0.049881      0.035601
   17 Atom    -14.566931     -0.001933     -0.003105     -0.002230
   18 Atom    -14.572984      0.000068      0.008017      0.007162
   19 Atom     -0.940497      0.029732     -0.052280     -0.046634
   20 Atom     -1.027722      0.018112     -0.005780      0.068755
   21 Atom    -14.586853      0.006502      0.005390      0.002799
   22 Atom     -0.931051     -0.048225     -0.045726     -0.031471
   23 Atom    -14.529244      0.007955     -0.003376     -0.004835
   24 Atom     -0.901483     -0.069203      0.004923      0.021490
   25 Atom    -14.510362      0.004901     -0.012660     -0.007899
   26 Atom    -22.258025      0.008586     -0.022569     -0.016684
   27 Atom    -18.225085     -0.003719     -0.000322     -0.009799
   28 Atom     -0.874258     -0.000423      0.008846      0.007002
   29 Atom     -0.881171      0.010968     -0.003385     -0.003594
   30 Atom    -18.321156      0.000789     -0.025867     -0.000352
   31 Atom    -14.550634     -0.013126     -0.003972      0.004135
   32 Atom    -18.265888     -0.004613      0.002907     -0.000912
   33 Atom     -0.920800     -0.001789     -0.014290      0.001000
   34 Atom     -0.912665     -0.000106     -0.004033     -0.000260
   35 Atom    -18.249187     -0.005020     -0.002131     -0.000503
   36 Atom     -0.905368     -0.005527      0.006648     -0.000893
   37 Atom    -14.590400     -0.007725      0.016196      0.004081
   38 Atom    -22.338756      0.002428      0.026080      0.000407
   39 Atom    -14.665729      0.004324     -0.005133      0.000054
   40 Atom    -18.299927     -0.007603     -0.001430     -0.020364
   41 Atom     -0.970360      0.002367      0.015649      0.001458
   42 Atom    -14.631097     -0.006099     -0.001605     -0.005243
   43 Atom    -14.642650      0.003491      0.010683      0.000867
   44 Atom     -1.010394     -0.050079     -0.039943      0.046084
   45 Atom     -1.028255     -0.027258      0.004540     -0.069889
   46 Atom    -18.276966      0.003918      0.005611      0.010649
   47 Atom     -0.939698      0.004038     -0.015335     -0.003742
   48 Atom    -14.607222      0.005042      0.009514     -0.001774
   49 Atom    -14.640296      0.009787     -0.002207     -0.004441
   50 Atom     -1.009605     -0.029683      0.004731      0.070420
   51 Atom     -1.023958     -0.048147     -0.040345     -0.044962
   52 Atom    -18.279882      0.007810     -0.003094     -0.002321
   53 Atom     -0.943255     -0.003018      0.011194      0.004337
   54 Atom    -14.710396     -0.000302     -0.002377      0.008280
   55 Atom    -14.721068      0.001482     -0.011761     -0.001295
   56 Atom     -1.071812     -0.004473      0.069849     -0.025138
   57 Atom    -14.719980      0.001651     -0.011256     -0.007475
   58 Atom     -1.051832     -0.008705      0.054304      0.049280
   59 Atom    -14.649152      0.000364      0.003059     -0.014148
   60 Atom    -14.717248     -0.000180      0.012415     -0.000922
   61 Atom     -1.048977      0.005893     -0.067981      0.021291
   62 Atom    -14.711694     -0.001842      0.014508      0.005515
   63 Atom     -1.048299      0.008330     -0.055282     -0.046367
   64 Atom    -14.618386     -0.005049      0.018228     -0.003379
   65 Atom    -22.367012     -0.005254      0.022439     -0.007367
   66 Atom    -18.312881      0.000388      0.006576     -0.000556
   67 Atom     -0.970951      0.003966     -0.012289      0.004239
   68 Atom     -0.968175     -0.014746     -0.010270     -0.005574
   69 Atom     -0.952397     -0.006794      0.004225      0.042115
 -----------------------------------------------------------------
 Leave Link  602 at Sat Jun 22 17:52:52 2024, MaxMem=  2684354560 cpu:               3.6 elap:               0.3
 (Enter /storage/apps/GAUSSIAN/G16_RevA03/g16/l701.exe)
[...]
     Eigenvalues ---    1.43097   1.45097   1.51603   1.54962   1.55966
     Eigenvalues ---    1.59145   1.59752   1.61527   1.62043   1.73819
     Eigenvalues ---    1.76514   1.77613   1.78033   1.86866   1.92178
     Eigenvalues ---    2.07468
 Quadratic step=6.412D+00 exceeds max=3.000D-01 adjusted using Lamda=-3.844D-01.
 Angle between NR and scaled steps=  83.36 degrees.
 Angle between quadratic step and forces=  22.48 degrees.
 Linear search not attempted -- first point.
 Variable       Old X    -DE/DX   Delta X   Delta X   Delta X     New X
                                 (Linear)    (Quad)   (Total)
    X1       -7.89362   0.00833   0.00000   0.01243   0.01243  -7.88119
    Y1        0.76489   0.00075   0.00000  -0.00150  -0.00150   0.76340
    Z1       12.76756  -0.06231   0.00000  -0.03676  -0.03676  12.73080
    X2       -7.56290   0.00994   0.00000   0.01372   0.01372  -7.54918
    Y2        0.86508   0.00057   0.00000  -0.00371  -0.00371   0.86137
    Z2       14.66953   0.05146   0.00000   0.04391   0.04391  14.71344
    X3       -5.65860  -0.00275   0.00000  -0.00987  -0.00987  -5.66846
    Y3       -0.35881   0.01204   0.00000  -0.00066  -0.00066  -0.35947
    Z3       11.55906  -0.01266   0.00000  -0.01521  -0.01521  11.54385
    X4       -8.12198   0.04988   0.00000   0.02671   0.02671  -8.09527
    Y4        3.40017  -0.01406   0.00000  -0.00438  -0.00438   3.39579
    Z4       11.60312   0.01431   0.00000   0.01272   0.01272  11.61583
    X5       -9.93641  -0.04776   0.00000  -0.04576  -0.04576  -9.98217
    Y5        4.08554   0.01531   0.00000   0.01218   0.01218   4.09772
    Z5       11.57905  -0.00382   0.00000  -0.00614  -0.00614  11.57291
    X6       -6.50892  -0.00473   0.00000   0.00455   0.00455  -6.50436
    Y6        5.21216  -0.01158   0.00000  -0.01730  -0.01730   5.19486
    Z6       12.86576   0.00181   0.00000  -0.00091  -0.00091  12.86486
    X7       -6.87143  -0.00132   0.00000  -0.00768  -0.00768  -6.87912
    Y7        5.37934  -0.00355   0.00000  -0.00735  -0.00735   5.37199
    Z7       14.67489  -0.01849   0.00000  -0.02344  -0.02344  14.65145
    X8       -6.97266   0.05277   0.00000   0.03089   0.03089  -6.94178
    Y8        3.05964   0.04355   0.00000   0.02628   0.02628   3.08591
    Z8        8.94831   0.03637   0.00000   0.02703   0.02703   8.97534
    X9       -8.22930  -0.03489   0.00000  -0.02922  -0.02922  -8.25852
    Y9        2.28296  -0.02036   0.00000  -0.01146  -0.01146   2.27150
    Z9        7.69519  -0.03242   0.00000  -0.02175  -0.02175   7.67343
   X10       -6.06987  -0.00597   0.00000  -0.00130  -0.00130  -6.07117
   Y10        5.38756  -0.01417   0.00000  -0.01101  -0.01101   5.37655
   Z10        7.95410   0.00700   0.00000   0.00501   0.00501   7.95911
   X11       -5.70159  -0.00087   0.00000   0.00047   0.00047  -5.70113
   Y11        6.46733  -0.00408   0.00000  -0.00353  -0.00353   6.46380
   Z11        9.40566  -0.00731   0.00000  -0.01111  -0.01111   9.39456
   X12       -4.75689  -0.06220   0.00000  -0.03676  -0.03676  -4.79365
   Y12        1.22359  -0.03679   0.00000  -0.02155  -0.02155   1.20204
   Z12        9.53795   0.00950   0.00000   0.01263   0.01263   9.55057
   X13       -3.19417   0.03997   0.00000   0.03401   0.03401  -3.16016
   Y13        2.21536   0.02573   0.00000   0.01922   0.01922   2.23458
   Z13       10.12336   0.01163   0.00000   0.01032   0.01032  10.13368
   X14       -3.93200   0.00342   0.00000  -0.00448  -0.00448  -3.93648
   Y14       -0.48104  -0.00898   0.00000  -0.00096  -0.00096  -0.48200
   Z14        7.46511  -0.01144   0.00000  -0.00162  -0.00162   7.46350
   X15       -1.41082  -0.04881   0.00000  -0.02800  -0.02800  -1.43882
   Y15       -0.55734  -0.02850   0.00000  -0.01388  -0.01388  -0.57122
   Z15        6.88546  -0.01208   0.00000  -0.00134  -0.00134   6.88412
   X16       -0.32684   0.02795   0.00000   0.02107   0.02107  -0.30577
   Y16        0.77628   0.03553   0.00000   0.03317   0.03317   0.80945
   Z16        7.74929   0.02648   0.00000   0.03125   0.03125   7.78055
   X17       -0.45141  -0.00215   0.00000   0.00392   0.00392  -0.44749
   Y17       -2.32269  -0.01707   0.00000  -0.01052  -0.01052  -2.33321
   Z17        5.28395  -0.01402   0.00000  -0.00496  -0.00496   5.27899
   X18       -2.16145   0.00409   0.00000   0.01616   0.01616  -2.14529
   Y18       -4.00383   0.04663   0.00000   0.02039   0.02039  -3.98344
   Z18        4.07214   0.04295   0.00000   0.02415   0.02415   4.09629
   X19       -1.46063   0.02204   0.00000   0.02806   0.02806  -1.43258
   Y19       -5.38591  -0.03686   0.00000  -0.03174  -0.03174  -5.41765
   Z19        2.92919  -0.03460   0.00000  -0.03526  -0.03526   2.89392
   X20       -1.83217   0.01298   0.00000   0.01430   0.01430  -1.81787
   Y20       -1.74833  -0.00501   0.00000  -0.00510  -0.00510  -1.75343
   Z20        0.44750   0.04850   0.00000   0.04392   0.04392   0.49142
   X21       -4.70030   0.02596   0.00000   0.01497   0.01497  -4.68534
   Y21       -3.83577   0.02262   0.00000   0.01476   0.01476  -3.82101
   Z21        4.61425   0.01401   0.00000   0.00866   0.00866   4.62291
   X22       -5.95174  -0.03457   0.00000  -0.03432  -0.03432  -5.98606
   Y22       -5.02959  -0.03251   0.00000  -0.03108  -0.03108  -5.06067
   Z22        3.76890  -0.02218   0.00000  -0.02134  -0.02134   3.74756
   X23       -5.57583   0.06028   0.00000   0.02868   0.02868  -5.54716
   Y23       -2.12319   0.02076   0.00000   0.02014   0.02014  -2.10305
   Z23        6.32268   0.00585   0.00000   0.01080   0.01080   6.33348
   X24       -7.43064  -0.04877   0.00000  -0.04471  -0.04471  -7.47535
   Y24       -2.00715   0.00427   0.00000   0.00955   0.00955  -1.99760
   Z24        6.82836   0.01634   0.00000   0.02235   0.02235   6.85071
   X25        2.35041   0.03806   0.00000   0.01721   0.01721   2.36762
   Y25       -2.70913  -0.03615   0.00000  -0.01310  -0.01310  -2.72223
   Z25        4.87385  -0.02521   0.00000  -0.00450  -0.00450   4.86935
   X26        3.09310  -0.02666   0.00000  -0.02799  -0.02799   3.06510
   Y26       -4.51789   0.04064   0.00000   0.02104   0.02104  -4.49685
   Z26        3.56592   0.02865   0.00000   0.01388   0.01388   3.57980
   X27        4.04843  -0.01356   0.00000  -0.01543  -0.01543   4.03300
   Y27       -1.12263  -0.00035   0.00000  -0.00690  -0.00690  -1.12953
   Z27        6.00835   0.00640   0.00000   0.00504   0.00504   6.01339
   X28        3.52267   0.00522   0.00000   0.00324   0.00324   3.52590
   Y28        0.23111  -0.00795   0.00000  -0.00970  -0.00970   0.22141
   Z28        7.26897  -0.00786   0.00000  -0.00838  -0.00838   7.26059
   X29        5.89703  -0.01151   0.00000  -0.02043  -0.02043   5.87660
   Y29       -1.67987   0.00315   0.00000   0.00567   0.00567  -1.67420
   Z29        6.04060  -0.00391   0.00000  -0.00854  -0.00854   6.03206
   X30        4.06185   0.02495   0.00000   0.01488   0.01488   4.07673
   Y30       -5.85788   0.02588   0.00000   0.02058   0.02058  -5.83729
   Z30       -3.70073  -0.00976   0.00000  -0.00935  -0.00935  -3.71008
   X31        6.19224  -0.03428   0.00000  -0.02270  -0.02270   6.16954
   Y31       -4.60243  -0.01290   0.00000  -0.00496  -0.00496  -4.60739
   Z31       -4.32744   0.01073   0.00000   0.00765   0.00765  -4.31979
   X32        8.32088   0.00888   0.00000  -0.01050  -0.01050   8.31038
   Y32       -5.89113   0.01387   0.00000   0.01281   0.01281  -5.87832
   Z32       -4.99114  -0.00111   0.00000   0.00481   0.00481  -4.98633
   X33        8.36075  -0.00253   0.00000  -0.00752  -0.00752   8.35323
   Y33       -7.80472   0.00931   0.00000   0.01795   0.01795  -7.78677
   Z33       -4.89672   0.00007   0.00000   0.00082   0.00082  -4.89590
   X34        9.93641  -0.01890   0.00000  -0.02591  -0.02591   9.91050
   Y34       -4.91595  -0.01470   0.00000  -0.01719  -0.01719  -4.93314
   Z34       -5.48192   0.00564   0.00000   0.00783   0.00783  -5.47409
   X35        6.31848   0.01854   0.00000  -0.00344  -0.00344   6.31504
   Y35       -2.00365  -0.02086   0.00000  -0.01674  -0.01674  -2.02039
   Z35       -4.33946  -0.00137   0.00000   0.00608   0.00608  -4.33338
   X36        8.07185  -0.02510   0.00000  -0.03721  -0.03721   8.03465
   Y36       -1.14984  -0.00339   0.00000  -0.00584  -0.00584  -1.15568
   Z36       -4.57254   0.00174   0.00000   0.00127   0.00127  -4.57127
   X37        4.24920   0.00730   0.00000  -0.00081  -0.00081   4.24839
   Y37       -0.49512   0.07781   0.00000   0.02422   0.02422  -0.47090
   Z37       -3.77166   0.00630   0.00000   0.00798   0.00798  -3.76368
   X38        4.54864  -0.01229   0.00000  -0.01553  -0.01553   4.53311
   Y38        1.91157  -0.07158   0.00000  -0.04896  -0.04896   1.86261
   Z38       -3.67762  -0.00218   0.00000   0.00024   0.00024  -3.67738
   X39        1.95506  -0.01466   0.00000  -0.00663  -0.00663   1.94843
   Y39       -1.80300  -0.00032   0.00000   0.00369   0.00369  -1.79931
   Z39       -3.25507   0.00259   0.00000   0.00268   0.00268  -3.25239
   X40       -0.31154   0.00687   0.00000   0.00758   0.00758  -0.30396
   Y40       -0.40087  -0.00389   0.00000  -0.00251  -0.00251  -0.40338
   Z40       -2.84379   0.00120   0.00000  -0.00645  -0.00645  -2.85023
   X41        0.04460  -0.00183   0.00000  -0.00147  -0.00147   0.04313
   Y41        1.42570  -0.00675   0.00000  -0.00902  -0.00902   1.41668
   Z41       -2.32814  -0.00371   0.00000  -0.00743  -0.00743  -2.33556
   X42       -2.31858  -0.00828   0.00000   0.00825   0.00825  -2.31033
   Y42       -1.66394   0.00902   0.00000   0.01323   0.01323  -1.65070
   Z42       -1.43485  -0.05431   0.00000  -0.03249  -0.03249  -1.46734
   X43       -2.61948   0.06286   0.00000   0.03547   0.03547  -2.58401
   Y43       -4.38504   0.02957   0.00000   0.01854   0.01854  -4.36651
   Z43       -2.44380   0.01532   0.00000   0.00378   0.00378  -2.44002
   X44       -3.87892  -0.03613   0.00000  -0.02832  -0.02832  -3.90723
   Y44       -5.34848  -0.02910   0.00000  -0.02540  -0.02540  -5.37388
   Z44       -1.34585   0.03448   0.00000   0.03952   0.03952  -1.30633
   X45       -3.34081  -0.01963   0.00000  -0.01480  -0.01480  -3.35561
   Y45       -4.32251   0.00429   0.00000   0.00902   0.00902  -4.31350
   Z45       -4.24108  -0.05015   0.00000  -0.05548  -0.05548  -4.29656
   X46       -0.18840   0.00075   0.00000   0.01497   0.01497  -0.17342
   Y46       -5.68996   0.00047   0.00000   0.00599   0.00599  -5.68397
   Z46       -2.40378   0.00101   0.00000   0.00214   0.00214  -2.40164
   X47       -0.18775   0.00393   0.00000   0.00926   0.00926  -0.17849
   Y47       -7.60166   0.00822   0.00000   0.01344   0.01344  -7.58822
   Z47       -2.58351  -0.00204   0.00000  -0.00515  -0.00515  -2.58866
   X48        1.96013   0.01617   0.00000   0.01821   0.01821   1.97835
   Y48       -4.41124  -0.00508   0.00000   0.00175   0.00175  -4.40949
   Z48       -3.15763  -0.00108   0.00000   0.00034   0.00034  -3.15729
   X49       -4.91811   0.06484   0.00000   0.03809   0.03809  -4.88002
   Y49       -0.21412   0.03261   0.00000   0.01770   0.01770  -0.19642
   Z49       -1.61494  -0.02785   0.00000  -0.02052  -0.02052  -1.63547
   X50       -5.68662  -0.02106   0.00000  -0.01076  -0.01076  -5.69738
   Y50       -0.10693   0.00348   0.00000   0.00595   0.00595  -0.10098
   Z50        0.15143   0.05142   0.00000   0.04931   0.04931   0.20074
   X51       -6.13676  -0.03440   0.00000  -0.02939  -0.02939  -6.16615
   Y51       -1.24029  -0.02917   0.00000  -0.02714  -0.02714  -1.26743
   Z51       -2.71167  -0.03313   0.00000  -0.04138  -0.04138  -2.75306
   X52       -4.73360   0.00010   0.00000   0.00712   0.00712  -4.72648
   Y52        2.36088  -0.00660   0.00000  -0.00120  -0.00120   2.35969
   Z52       -2.59841   0.01604   0.00000   0.00673   0.00673  -2.59168
   X53       -5.21796   0.00255   0.00000   0.00259   0.00259  -5.21538
   Y53        3.76878  -0.00595   0.00000  -0.00593  -0.00593   3.76285
   Z53       -1.38207  -0.01065   0.00000  -0.01301  -0.01301  -1.39508
   X54       -4.23436   0.00004   0.00000  -0.00065  -0.00065  -4.23501
   Y54        4.05706  -0.01268   0.00000  -0.00143  -0.00143   4.05563
   Z54      -10.32293   0.02721   0.00000  -0.00287  -0.00287 -10.32580
   X55       -4.58394   0.00709   0.00000   0.00378   0.00378  -4.58016
   Y55        5.98005  -0.05436   0.00000  -0.03338  -0.03338   5.94667
   Z55       -8.49710  -0.01665   0.00000  -0.01811  -0.01811  -8.51521
   X56       -4.68483  -0.00333   0.00000  -0.00332  -0.00332  -4.68815
   Y56        7.80472   0.04981   0.00000   0.04476   0.04476   7.84948
   Z56       -9.10099  -0.01856   0.00000  -0.02367  -0.02367  -9.12466
   X57       -4.74073   0.00580   0.00000   0.00020   0.00020  -4.74053
   Y57        5.43884  -0.05863   0.00000  -0.03860  -0.03860   5.40024
   Z57       -5.99550  -0.01065   0.00000  -0.00140  -0.00140  -5.99691
   X58       -4.96949  -0.00634   0.00000  -0.00595  -0.00595  -4.97544
   Y58        6.85470   0.03880   0.00000   0.03243   0.03243   6.88712
   Z58       -4.71024   0.03585   0.00000   0.03580   0.03580  -4.67444
   X59       -4.58056  -0.00073   0.00000  -0.00560  -0.00560  -4.58616
   Y59        2.90150   0.00320   0.00000  -0.00024  -0.00024   2.90126
   Z59       -5.14054  -0.01584   0.00000   0.00089   0.00089  -5.13965
   X60       -4.24979  -0.00864   0.00000  -0.01086  -0.01086  -4.26065
   Y60        0.96412   0.05322   0.00000   0.03286   0.03286   0.99698
   Z60       -6.96297   0.01932   0.00000   0.01872   0.01872  -6.94425
   X61       -4.12473   0.00448   0.00000   0.00473   0.00473  -4.12000
   Y61       -0.87487  -0.04843   0.00000  -0.04298  -0.04298  -0.91785
   Z61       -6.41012   0.01594   0.00000   0.02046   0.02046  -6.38966
   X62       -4.07374  -0.00648   0.00000  -0.00746  -0.00746  -4.08120
   Y62        1.53805   0.06129   0.00000   0.03966   0.03966   1.57771
   Z62       -9.45367   0.00653   0.00000  -0.00064  -0.00064  -9.45431
   X63       -3.84012   0.00570   0.00000   0.00388   0.00388  -3.83624
   Y63        0.09961  -0.03984   0.00000  -0.03426  -0.03426   0.06535
   Z63      -10.71202  -0.03314   0.00000  -0.03148  -0.03148 -10.74350
   X64       -4.03481  -0.01452   0.00000  -0.00606  -0.00606  -4.04087
   Y64        4.70788   0.07875   0.00000   0.02675   0.02675   4.73464
   Z64      -12.99213  -0.06015   0.00000  -0.04333  -0.04333 -13.03546
   X65       -4.54578   0.01762   0.00000   0.00959   0.00959  -4.53619
   Y65        6.93819  -0.07341   0.00000  -0.04211  -0.04211   6.89607
   Z65      -13.80477   0.03163   0.00000   0.02042   0.02042 -13.78436
   X66       -3.27476   0.00522   0.00000  -0.00291  -0.00291  -3.27767
   Y66        2.89880  -0.00744   0.00000   0.00210   0.00210   2.90090
   Z66      -14.67489  -0.04022   0.00000  -0.02336  -0.02336 -14.69825
   X67       -2.94392  -0.00009   0.00000   0.00105   0.00105  -2.94288
   Y67        1.09514   0.00994   0.00000   0.01609   0.01609   1.11123
   Z67      -14.11689  -0.00234   0.00000  -0.00701  -0.00701 -14.12389
   X68       -9.52717  -0.00039   0.00000   0.00090   0.00090  -9.52627
   Y68       -0.43711   0.00055   0.00000   0.00357   0.00357  -0.43354
   Z68       12.40773  -0.00256   0.00000  -0.01298  -0.01298  12.39474
   X69       -3.11558  -0.00843   0.00000  -0.01352  -0.01352  -3.12910
   Y69        3.20678   0.00141   0.00000   0.00830   0.00830   3.21508
   Z69      -16.70531   0.06146   0.00000   0.07362   0.07362 -16.63169
         Item               Value     Threshold  Converged?
 Maximum Force            0.078754     0.000450     NO 
 RMS     Force            0.027559     0.000300     NO 
 Maximum Displacement     0.073616     0.001800     NO 
 RMS     Displacement     0.020866     0.001200     NO 
 Predicted change in Energy=-7.231884D-02
 GradGradGradGradGradGradGradGradGradGradGradGradGradGradGradGradGradGrad

 Leave Link  103 at Sat Jun 22 17:58:24 2024, MaxMem=  2684354560 cpu:               3.8 elap:               0.3
 (Enter /storage/apps/GAUSSIAN/G16_RevA03/g16/l9999.exe)

 Test job not archived.
 1\1\GINC-T103\Force\RM062X\def2TZVP\C24H30N9O6(1+)\LV87696\22-Jun-2024
 \0\\#P M062X/Def2TZVP scf=(direct,conver=8) EmpiricalDispersion=GD3 No
 Symm force Charge Prop=(Field,Read)\\Gaussian run using SANDER externa
 l interface, route from template gau_job.tpl\\1,1\C,-4.1771220752,0.40
 47637362,6.7563033856\H,-4.0021119486,0.4577808504,7.7627824417\O,-2.9
 9440087,-0.1898735829,6.1167928202\C,-4.2979675965,1.7992920654,6.1401
 053789\H,-5.2581216943,2.1619725233,6.1273718196\O,-3.4443700152,2.758
 1573054,6.8082686291\H,-3.6362054312,2.8466266996,7.7656181877\C,-3.68
 97749192,1.6190906603,4.7352420299\H,-4.3547555863,1.208089501,4.07211
 76388\O,-3.2120356054,2.8509719933,4.2091265576\H,-3.0171536954,3.4223
 658738,4.9772613739\C,-2.5172368761,0.6474946107,5.0472639278\H,-1.690
 2817706,1.1723171779,5.3570494411\N,-2.0807263715,-0.2545578933,3.9503
 672088\C,-0.7465719272,-0.2949292367,3.6436268155\H,-0.1729550312,0.41
 07903861,4.1007498229\C,-0.2388768101,-1.2291151166,2.7961467345\C,-1.
 1437918953,-2.1187355733,2.1548848582\H,-0.7729334945,-2.850100105,1.5
 50057993\H,-0.9695435066,-0.9251777049,0.2368066837\C,-2.4872942705,-2
 .0298025228,2.4417536338\H,-3.1495264702,-2.6615448113,1.9944141794\C,
 -2.9506036362,-1.1235440203,3.3458200653\H,-3.9321240433,-1.0621367341
 ,3.6134110746\C,1.243782302,-1.4336102046,2.5791313847\O,1.6367972402,
 -2.3907620798,1.8870016172\N,2.1423361591,-0.5940700954,3.1794806365\H
 ,1.8641142896,0.1223006401,3.8465740596\H,3.1205739097,-0.8889492736,3
 .1965489455\N,2.149437368,-3.0998556334,-1.9583429539\C,3.2767928774,-
 2.4355008934,-2.2899837212\N,4.403220748,-3.1174537857,-2.6411963854\H
 ,4.4243171999,-4.1300788425,-2.5912328966\H,5.2581216943,-2.6014085667
 ,-2.9009095779\N,3.3435945178,-1.0602865238,-2.296345614\H,4.271441172
 5,-0.6084705725,-2.4196836901\C,2.2485806577,-0.2620071263,-1.99587604
 4\O,2.407038147,1.011560308,-1.9461105068\C,1.0345706675,-0.9541061385
 ,-1.7225093002\N,-0.164859376,-0.2121293533,-1.5048670689\H,0.02360110
 98,0.7544458118,-1.2319961881\C,-1.2269390814,-0.880517101,-0.75929174
 36\C,-1.3861689473,-2.3204649938,-1.2932019139\H,-2.0526339459,-2.8302
 957862,-0.7121939743\H,-1.7678780195,-2.287374314,-2.2442842291\N,-0.0
 996959756,-3.0109970554,-1.2720238245\H,-0.0993521562,-4.0226259635,-1
 .3671333388\C,1.0372582084,-2.334329123,-1.6709446264\C,-2.6025517768,
 -0.113309856,-0.8545918826\H,-3.0092301526,-0.056585501,0.0801353035\H
 ,-3.2474324472,-0.6563348915,-1.4349545115\N,-2.5049140698,1.249324809
 8,-1.3750184679\H,-2.7612270491,1.9943513873,-0.7313583369\C,-2.240728
 1905,2.1469026716,-5.4626584959\C,-2.425714254,3.1645062493,-4.4964722
 076\H,-2.4791051745,4.1300788425,-4.8160356621\C,-2.5086877294,2.87811
 22324,-3.1726843482\H,-2.6297433602,3.6273497081,-2.4925534747\C,-2.42
 39257169,1.5354076004,-2.7202585929\C,-2.2488910499,0.5101924233,-3.68
 46444348\H,-2.1827131642,-0.4629610337,-3.3920880229\C,-2.1557329808,0
 .8139008763,-5.00266707\H,-2.0321035622,0.0527113421,-5.6685573257\C,-
 2.1351319451,2.4913051851,-6.8751388686\O,-2.4055222501,3.6715295533,-
 7.3051722315\N,-1.7329288494,1.5339787261,-7.7656181877\H,-1.557857318
 8,0.5795247628,-7.4703350162\H,-5.0415619416,-0.2313064953,6.565887057
 6\H,-1.6486925382,1.6969535357,-8.8400684915\\Version=ES64L-G16RevA.03
 \HF=-1876.4342119\RMSD=4.070e-09\RMSF=2.756e-02\Dipole=-1.161724,-3.33
 75537,9.0978245\Quadrupole=15.4802842,-50.0281341,34.5478499,-2.931504
 3,-64.7141784,50.1583279\PG=C01 [X(C24H30N9O6)]\\@


 One man practicing sportsmanship is far better than 50 preaching it.
 -- Knute K. Rockne
 Job cpu time:       0 days  8 hours  8 minutes 38.9 seconds.
 Elapsed time:       0 days  0 hours 30 minutes 37.2 seconds.
 File lengths (MBytes):  RWF=   1039 Int=      0 D2E=      0 Chk=    113 Scr=      1
 Normal termination of Gaussian 16 at Sat Jun 22 17:58:24 2024.
