 Entering Gaussian System, Link 0=g16
 Initial command:
 /storage/apps/GAUSSIAN/G16_RevA03/g16/l1.exe "/scratch/tmp/2140836/Gau-52022.inp" -scrdir="/scratch/tmp/2140836/"
 Entering Link 1 = /storage/apps/GAUSSIAN/G16_RevA03/g16/l1.exe PID=     52023.
  
 Copyright (c) 1988,1990,1992,1993,1995,1998,2003,2009,2016,
            Gaussian, Inc.  All Rights Reserved.
  
 This is part of the Gaussian(R) 16 program.  It is based on
 the Gaussian(R) 09 system (copyright 2009, Gaussian, Inc.),
 the Gaussian(R) 03 system (copyright 2003, Gaussian, Inc.),
 the Gaussian(R) 98 system (copyright 1998, Gaussian, Inc.),
 the Gaussian(R) 94 system (copyright 1995, Gaussian, Inc.),
 the Gaussian 92(TM) system (copyright 1992, Gaussian, Inc.),
 the Gaussian 90(TM) system (copyright 1990, Gaussian, Inc.),
 the Gaussian 88(TM) system (copyright 1988, Gaussian, Inc.),
 the Gaussian 86(TM) system (copyright 1986, Carnegie Mellon
 University), and the Gaussian 82(TM) system (copyright 1983,
 Carnegie Mellon University). Gaussian is a federally registered
 trademark of Gaussian, Inc.
  
 This software contains proprietary and confidential information,
 including trade secrets, belonging to Gaussian, Inc.
  
 This software is provided under written license and may be
 used, copied, transmitted, or stored only in accord with that
 written license.
  
 The following legend is applicable only to US Government
 contracts under FAR:
  
                    RESTRICTED RIGHTS LEGEND
  
 Use, reproduction and disclosure by the US Government is
 subject to restrictions as set forth in subparagraphs (a)
 and (c) of the Commercial Computer Software - Restricted
 Rights clause in FAR 52.227-19.
  
 Gaussian, Inc.
 340 Quinnipiac St., Bldg. 40, Wallingford CT 06492
  
  
 ---------------------------------------------------------------
 Warning -- This program may not be used in any manner that
 competes with the business of Gaussian, Inc. or will provide
 assistance to any competitor of Gaussian, Inc.  The licensee
 of this program is prohibited from giving any competitor of
 Gaussian, Inc. access to this program.  By using this program,
 the user acknowledges that Gaussian, Inc. is engaged in the
 business of creating and licensing software in the field of
 computational chemistry and represents and warrants to the
 licensee that it is not a competitor of Gaussian, Inc. and that
 it will not use this program in any manner prohibited above.
 ---------------------------------------------------------------
  

 Cite this work as:
 Gaussian 16, Revision A.03,
 M. J. Frisch, G. W. Trucks, H. B. Schlegel, G. E. Scuseria, 
 M. A. Robb, J. R. Cheeseman, G. Scalmani, V. Barone, 
 G. A. Petersson, H. Nakatsuji, X. Li, M. Caricato, A. V. Marenich, 
 J. Bloino, B. G. Janesko, R. Gomperts, B. Mennucci, H. P. Hratchian, 
 J. V. Ortiz, A. F. Izmaylov, J. L. Sonnenberg, D. Williams-Young, 
 F. Ding, F. Lipparini, F. Egidi, J. Goings, B. Peng, A. Petrone, 
 T. Henderson, D. Ranasinghe, V. G. Zakrzewski, J. Gao, N. Rega, 
 G. Zheng, W. Liang, M. Hada, M. Ehara, K. Toyota, R. Fukuda, 
 J. Hasegawa, M. Ishida, T. Nakajima, Y. Honda, O. Kitao, H. Nakai, 
 T. Vreven, K. Throssell, J. A. Montgomery, Jr., J. E. Peralta, 
 F. Ogliaro, M. J. Bearpark, J. J. Heyd, E. N. Brothers, K. N. Kudin, 
 V. N. Staroverov, T. A. Keith, R. Kobayashi, J. Normand, 
 K. Raghavachari, A. P. Rendell, J. C. Burant, S. S. Iyengar, 
 J. Tomasi, M. Cossi, J. M. Millam, M. Klene, C. Adamo, R. Cammi, 
 J. W. Ochterski, R. L. Martin, K. Morokuma, O. Farkas, 
 J. B. Foresman, and D. J. Fox, Gaussian, Inc., Wallingford CT, 2016.
 
 ******************************************
 Gaussian 16:  ES64L-G16RevA.03 25-Dec-2016
                22-Jun-2024 
 ******************************************
 %chk=gau_job.chk
 %NProcShared=16
 Will use up to   16 processors via shared memory.
 %mem=20GB
 ----------------------------------------------------------------------
 #P M062X/Def2TZVP scf=(direct,conver=8) EmpiricalDispersion=GD3 NoSymm
  force Charge Prop=(Field,Read)
 ----------------------------------------------------------------------
 1/10=7,18=10,28=-2,30=1,38=1,125=101/1,3;
 2/12=2,15=1,17=6,18=5,29=2,40=1/2;
 3/5=44,7=101,11=2,25=1,30=1,71=1,74=-55,124=31/1,2,3;
 4//1;
 5/5=2,6=8,38=5/2;
 6/7=2,8=2,9=2,10=2,14=2,15=1,28=1/1,2;
 7/7=1,16=-2,29=1,30=1/1,2,3,16;
 1/10=7,18=10,28=-2,30=1/3;
 99/12=1/99;
 Leave Link    1 at Sat Jun 22 17:29:46 2024, MaxMem=  2684354560 cpu:               0.9 elap:               0.1
 (Enter /storage/apps/GAUSSIAN/G16_RevA03/g16/l101.exe)
 ----------------------------------------------------------------------
 Gaussian run using SANDER external interface, route from template gau_
 job.tpl
 ----------------------------------------------------------------------
 Symbolic Z-matrix:
 Charge =  1 Multiplicity = 1
 C                    -4.18315   0.40981   6.7653 
 H                    -4.01272   0.46374   7.77249 
 O                    -2.99613  -0.1843    6.13391 
 C                    -4.30167   1.80256   6.1452 
 H                    -5.26158   2.1659    6.12959 
 O                    -3.44828   2.76262   6.8118 
 H                    -3.63776   2.85092   7.76982 
 C                    -3.69124   1.61711   4.74172 
 H                    -4.35557   1.20395   4.07928 
 O                    -3.21308   2.84728   4.21236 
 H                    -3.01845   3.42105   4.97884 
 C                    -2.51908   0.6453    5.0592 
 H                    -1.69136   1.17177   5.3642 
 N                    -2.08417  -0.26596   3.96837 
 C                    -0.75167  -0.30581   3.65547 
 H                    -0.17925   0.40695   4.10299 
 C                    -0.24576  -1.24397   2.8109 
 C                    -1.15156  -2.13989   2.18095 
 H                    -0.783    -2.87048   1.5734 
 H                    -0.9589   -0.91313   0.22987 
 C                    -2.49313  -2.05159   2.47234 
 H                    -3.15543  -2.69277   2.03875 
 C                    -2.9541   -1.14111   3.37378 
 H                    -3.93392  -1.08035   3.64726 
 C                     1.23666  -1.45074   2.59454 
 O                     1.62837  -2.41819   1.91639 
 N                     2.1361   -0.60301   3.18222 
 H                     1.85914   0.11691   3.84608 
 H                     3.11448  -0.89753   3.20057 
 N                     2.14964  -3.09954  -1.96513 
 C                     3.27793  -2.43648  -2.2956 
 N                     4.40586  -3.12027  -2.63849 
 H                     4.42583  -4.13291  -2.58712 
 H                     5.26158  -2.60559  -2.89819 
 N                     3.3447   -1.06124  -2.30831 
 H                     4.27312  -0.61023  -2.4291 
 C                     2.2484   -0.26143  -2.01622 
 O                     2.40811   1.01242  -1.97085 
 C                     1.03362  -0.95307  -1.74343 
 N                    -0.16683  -0.21341  -1.52524 
 H                     0.01693   0.75979  -1.27597 
 C                    -1.22267  -0.87474  -0.76501 
 C                    -1.38639  -2.31941  -1.2868 
 H                    -2.04336  -2.82515  -0.69108 
 H                    -1.78145  -2.29477  -2.23254 
 N                    -0.09868  -3.00743  -1.27858 
 H                    -0.09717  -4.01977  -1.36139 
 C                     1.03675  -2.33282  -1.68362 
 C                    -2.60076  -0.11021  -0.8614 
 H                    -3.00668  -0.05436   0.07395 
 H                    -3.24472  -0.65383  -1.44196 
 N                    -2.50759   1.25247  -1.38304 
 H                    -2.76473   1.9971   -0.73965 
 C                    -2.24441   2.14932  -5.47117 
 C                    -2.43044   3.16742  -4.5054 
 H                    -2.48339   4.13291  -4.82545 
 C                    -2.51506   2.88125  -3.18158 
 H                    -2.63704   3.63078  -2.50192 
 C                    -2.42994   1.53856  -2.72854 
 C                    -2.25606   0.51314  -3.69283 
 H                    -2.19172  -0.4599   -3.39958 
 C                    -2.16182   0.81624  -5.01088 
 H                    -2.03932   0.05439  -5.67625 
 C                    -2.13655   2.49252  -6.88359 
 O                    -2.40594   3.67256  -7.31475 
 N                    -1.73354   1.53411  -7.77249 
 H                    -1.55834   0.58015  -7.47579 
 H                    -5.046    -0.22723   6.57095 
 H                    -1.6483    1.69555  -8.84709 
 
 ITRead=  0  0  0  0  0  0  0  0  0  0  0  0  0  0  0  0  0  0  0  0
 ITRead=  0  0  0  0  0  0  0  0  0  0  0  0  0  0  0  0  0  0  0  0
 ITRead=  0  0  0  0  0  0  0  0  0  0  0  0  0  0  0  0  0  0  0  0
 ITRead=  0  0  0  0  0  0  0  0  0
 MicOpt= -1 -1 -1 -1 -1 -1 -1 -1 -1 -1 -1 -1 -1 -1 -1 -1 -1 -1 -1 -1
 MicOpt= -1 -1 -1 -1 -1 -1 -1 -1 -1 -1 -1 -1 -1 -1 -1 -1 -1 -1 -1 -1
 MicOpt= -1 -1 -1 -1 -1 -1 -1 -1 -1 -1 -1 -1 -1 -1 -1 -1 -1 -1 -1 -1
 MicOpt= -1 -1 -1 -1 -1 -1 -1 -1 -1
 NAtoms=     69 NQM=       69 NQMF=       0 NMMI=      0 NMMIF=      0
                NMic=       0 NMicF=      0.
                    Isotopes and Nuclear Properties:
 (Nuclear quadrupole moments (NQMom) in fm**2, nuclear magnetic moments (NMagM)
  in nuclear magnetons)

  Atom         1           2           3           4           5           6           7           8           9          10
 IAtWgt=          12           1          16          12           1          16           1          12           1          16
 AtmWgt=  12.0000000   1.0078250  15.9949146  12.0000000   1.0078250  15.9949146   1.0078250  12.0000000   1.0078250  15.9949146
 NucSpn=           0           1           0           0           1           0           1           0           1           0
 AtZEff=  -0.0000000  -0.0000000  -0.0000000  -0.0000000  -0.0000000  -0.0000000  -0.0000000  -0.0000000  -0.0000000  -0.0000000
 NQMom=    0.0000000   0.0000000   0.0000000   0.0000000   0.0000000   0.0000000   0.0000000   0.0000000   0.0000000   0.0000000
 NMagM=    0.0000000   2.7928460   0.0000000   0.0000000   2.7928460   0.0000000   2.7928460   0.0000000   2.7928460   0.0000000
 AtZNuc=   6.0000000   1.0000000   8.0000000   6.0000000   1.0000000   8.0000000   1.0000000   6.0000000   1.0000000   8.0000000

  Atom        11          12          13          14          15          16          17          18          19          20
 IAtWgt=           1          12           1          14          12           1          12          12           1           1
 AtmWgt=   1.0078250  12.0000000   1.0078250  14.0030740  12.0000000   1.0078250  12.0000000  12.0000000   1.0078250   1.0078250
 NucSpn=           1           0           1           2           0           1           0           0           1           1
 AtZEff=  -0.0000000  -0.0000000  -0.0000000  -0.0000000  -0.0000000  -0.0000000  -0.0000000  -0.0000000  -0.0000000  -0.0000000
 NQMom=    0.0000000   0.0000000   0.0000000   2.0440000   0.0000000   0.0000000   0.0000000   0.0000000   0.0000000   0.0000000
 NMagM=    2.7928460   0.0000000   2.7928460   0.4037610   0.0000000   2.7928460   0.0000000   0.0000000   2.7928460   2.7928460
 AtZNuc=   1.0000000   6.0000000   1.0000000   7.0000000   6.0000000   1.0000000   6.0000000   6.0000000   1.0000000   1.0000000

  Atom        21          22          23          24          25          26          27          28          29          30
 IAtWgt=          12           1          12           1          12          16          14           1           1          14
 AtmWgt=  12.0000000   1.0078250  12.0000000   1.0078250  12.0000000  15.9949146  14.0030740   1.0078250   1.0078250  14.0030740
 NucSpn=           0           1           0           1           0           0           2           1           1           2
 AtZEff=  -0.0000000  -0.0000000  -0.0000000  -0.0000000  -0.0000000  -0.0000000  -0.0000000  -0.0000000  -0.0000000  -0.0000000
 NQMom=    0.0000000   0.0000000   0.0000000   0.0000000   0.0000000   0.0000000   2.0440000   0.0000000   0.0000000   2.0440000
 NMagM=    0.0000000   2.7928460   0.0000000   2.7928460   0.0000000   0.0000000   0.4037610   2.7928460   2.7928460   0.4037610
 AtZNuc=   6.0000000   1.0000000   6.0000000   1.0000000   6.0000000   8.0000000   7.0000000   1.0000000   1.0000000   7.0000000

  Atom        31          32          33          34          35          36          37          38          39          40
 IAtWgt=          12          14           1           1          14           1          12          16          12          14
 AtmWgt=  12.0000000  14.0030740   1.0078250   1.0078250  14.0030740   1.0078250  12.0000000  15.9949146  12.0000000  14.0030740
 NucSpn=           0           2           1           1           2           1           0           0           0           2
 AtZEff=  -0.0000000  -0.0000000  -0.0000000  -0.0000000  -0.0000000  -0.0000000  -0.0000000  -0.0000000  -0.0000000  -0.0000000
 NQMom=    0.0000000   2.0440000   0.0000000   0.0000000   2.0440000   0.0000000   0.0000000   0.0000000   0.0000000   2.0440000
 NMagM=    0.0000000   0.4037610   2.7928460   2.7928460   0.4037610   2.7928460   0.0000000   0.0000000   0.0000000   0.4037610
 AtZNuc=   6.0000000   7.0000000   1.0000000   1.0000000   7.0000000   1.0000000   6.0000000   8.0000000   6.0000000   7.0000000

  Atom        41          42          43          44          45          46          47          48          49          50
 IAtWgt=           1          12          12           1           1          14           1          12          12           1
 AtmWgt=   1.0078250  12.0000000  12.0000000   1.0078250   1.0078250  14.0030740   1.0078250  12.0000000  12.0000000   1.0078250
 NucSpn=           1           0           0           1           1           2           1           0           0           1
 AtZEff=  -0.0000000  -0.0000000  -0.0000000  -0.0000000  -0.0000000  -0.0000000  -0.0000000  -0.0000000  -0.0000000  -0.0000000
 NQMom=    0.0000000   0.0000000   0.0000000   0.0000000   0.0000000   2.0440000   0.0000000   0.0000000   0.0000000   0.0000000
 NMagM=    2.7928460   0.0000000   0.0000000   2.7928460   2.7928460   0.4037610   2.7928460   0.0000000   0.0000000   2.7928460
 AtZNuc=   1.0000000   6.0000000   6.0000000   1.0000000   1.0000000   7.0000000   1.0000000   6.0000000   6.0000000   1.0000000

  Atom        51          52          53          54          55          56          57          58          59          60
 IAtWgt=           1          14           1          12          12           1          12           1          12          12
 AtmWgt=   1.0078250  14.0030740   1.0078250  12.0000000  12.0000000   1.0078250  12.0000000   1.0078250  12.0000000  12.0000000
 NucSpn=           1           2           1           0           0           1           0           1           0           0
 AtZEff=  -0.0000000  -0.0000000  -0.0000000  -0.0000000  -0.0000000  -0.0000000  -0.0000000  -0.0000000  -0.0000000  -0.0000000
 NQMom=    0.0000000   2.0440000   0.0000000   0.0000000   0.0000000   0.0000000   0.0000000   0.0000000   0.0000000   0.0000000
 NMagM=    2.7928460   0.4037610   2.7928460   0.0000000   0.0000000   2.7928460   0.0000000   2.7928460   0.0000000   0.0000000
 AtZNuc=   1.0000000   7.0000000   1.0000000   6.0000000   6.0000000   1.0000000   6.0000000   1.0000000   6.0000000   6.0000000

  Atom        61          62          63          64          65          66          67          68          69
 IAtWgt=           1          12           1          12          16          14           1           1           1
 AtmWgt=   1.0078250  12.0000000   1.0078250  12.0000000  15.9949146  14.0030740   1.0078250   1.0078250   1.0078250
 NucSpn=           1           0           1           0           0           2           1           1           1
 AtZEff=  -0.0000000  -0.0000000  -0.0000000  -0.0000000  -0.0000000  -0.0000000  -0.0000000  -0.0000000  -0.0000000
 NQMom=    0.0000000   0.0000000   0.0000000   0.0000000   0.0000000   2.0440000   0.0000000   0.0000000   0.0000000
 NMagM=    2.7928460   0.0000000   2.7928460   0.0000000   0.0000000   0.4037610   2.7928460   2.7928460   2.7928460
 AtZNuc=   1.0000000   6.0000000   1.0000000   6.0000000   8.0000000   7.0000000   1.0000000   1.0000000   1.0000000
 Background charge distribution read from input stream:
 Leave Link  101 at Sat Jun 22 17:29:47 2024, MaxMem=  2684354560 cpu:               2.0 elap:               0.2
 (Enter /storage/apps/GAUSSIAN/G16_RevA03/g16/l103.exe)

 GradGradGradGradGradGradGradGradGradGradGradGradGradGradGradGradGradGrad
 Berny optimization.
 Initialization pass.
 Trust Radius=3.00D-01 FncErr=1.00D-07 GrdErr=1.00D-07 EigMax=2.50D+02 EigMin=1.00D-04
 Number of steps in this run=      2 maximum allowed number of steps=      2.
 GradGradGradGradGradGradGradGradGradGradGradGradGradGradGradGradGradGrad

 Leave Link  103 at Sat Jun 22 17:29:47 2024, MaxMem=  2684354560 cpu:               0.5 elap:               0.1
 (Enter /storage/apps/GAUSSIAN/G16_RevA03/g16/l202.exe)
 Symmetry turned off by external request.
 Stoichiometry    C24H30N9O6(1+)
 Framework group  C1[X(C24H30N9O6)]
 Deg. of freedom   201
 Full point group                 C1      NOp   1
                          Input orientation:                          
 ---------------------------------------------------------------------
 Center     Atomic      Atomic             Coordinates (Angstroms)
 Number     Number       Type             X           Y           Z
 ---------------------------------------------------------------------
      1          6           0       -4.183152    0.409809    6.765297
      2          1           0       -4.012721    0.463743    7.772485
      3          8           0       -2.996128   -0.184296    6.133912
      4          6           0       -4.301665    1.802565    6.145204
      5          1           0       -5.261579    2.165901    6.129588
      6          8           0       -3.448282    2.762616    6.811797
      7          1           0       -3.637765    2.850918    7.769821
      8          6           0       -3.691239    1.617109    4.741723
      9          1           0       -4.355565    1.203952    4.079281
     10          8           0       -3.213080    2.847276    4.212362
     11          1           0       -3.018445    3.421054    4.978845
     12          6           0       -2.519077    0.645303    5.059197
     13          1           0       -1.691359    1.171774    5.364200
     14          7           0       -2.084169   -0.265964    3.968374
     15          6           0       -0.751667   -0.305806    3.655471
     16          1           0       -0.179246    0.406946    4.102985
     17          6           0       -0.245759   -1.243967    2.810900
     18          6           0       -1.151556   -2.139889    2.180955
     19          1           0       -0.783001   -2.870484    1.573402
     20          1           0       -0.958899   -0.913134    0.229871
     21          6           0       -2.493130   -2.051585    2.472339
     22          1           0       -3.155426   -2.692768    2.038746
     23          6           0       -2.954104   -1.141110    3.373785
     24          1           0       -3.933924   -1.080349    3.647262
     25          6           0        1.236658   -1.450740    2.594537
     26          8           0        1.628367   -2.418194    1.916390
     27          7           0        2.136096   -0.603009    3.182216
     28          1           0        1.859138    0.116905    3.846085
     29          1           0        3.114477   -0.897533    3.200571
     30          7           0        2.149644   -3.099536   -1.965126
     31          6           0        3.277926   -2.436485   -2.295598
     32          7           0        4.405857   -3.120274   -2.638487
     33          1           0        4.425826   -4.132910   -2.587124
     34          1           0        5.261579   -2.605588   -2.898189
     35          7           0        3.344700   -1.061238   -2.308310
     36          1           0        4.273120   -0.610232   -2.429102
     37          6           0        2.248404   -0.261433   -2.016217
     38          8           0        2.408110    1.012418   -1.970850
     39          6           0        1.033624   -0.953073   -1.743434
     40          7           0       -0.166827   -0.213407   -1.525243
     41          1           0        0.016926    0.759789   -1.275966
     42          6           0       -1.222672   -0.874742   -0.765006
     43          6           0       -1.386395   -2.319407   -1.286804
     44          1           0       -2.043356   -2.825155   -0.691083
     45          1           0       -1.781447   -2.294774   -2.232537
     46          7           0       -0.098684   -3.007432   -1.278577
     47          1           0       -0.097171   -4.019773   -1.361393
     48          6           0        1.036746   -2.332818   -1.683617
     49          6           0       -2.600755   -0.110215   -0.861399
     50          1           0       -3.006683   -0.054356    0.073950
     51          1           0       -3.244723   -0.653833   -1.441959
     52          7           0       -2.507591    1.252467   -1.383044
     53          1           0       -2.764730    1.997097   -0.739646
     54          6           0       -2.244409    2.149321   -5.471173
     55          6           0       -2.430436    3.167417   -4.505401
     56          1           0       -2.483395    4.132910   -4.825454
     57          6           0       -2.515059    2.881249   -3.181582
     58          1           0       -2.637035    3.630776   -2.501918
     59          6           0       -2.429938    1.538556   -2.728542
     60          6           0       -2.256064    0.513143   -3.692826
     61          1           0       -2.191718   -0.459896   -3.399576
     62          6           0       -2.161822    0.816242   -5.010875
     63          1           0       -2.039316    0.054394   -5.676254
     64          6           0       -2.136551    2.492518   -6.883585
     65          8           0       -2.405937    3.672563   -7.314748
     66          7           0       -1.733535    1.534106   -7.772485
     67          1           0       -1.558342    0.580147   -7.475791
     68          1           0       -5.046003   -0.227229    6.570950
     69          1           0       -1.648300    1.695547   -8.847088
 ---------------------------------------------------------------------
 Rotational constants (GHZ):           0.1079688           0.0505510           0.0382535
 Leave Link  202 at Sat Jun 22 17:29:47 2024, MaxMem=  2684354560 cpu:               0.6 elap:               0.1
 (Enter /storage/apps/GAUSSIAN/G16_RevA03/g16/l301.exe)
 Standard basis: def2TZVP (5D, 7F)
 Ernie: Thresh=  0.10000D-02 Tol=  0.10000D-05 Strict=F.
  1389 basis functions,  2229 primitive gaussians,  1584 cartesian basis functions
   142 alpha electrons      142 beta electrons
       nuclear repulsion energy      4397.2572616399 Hartrees.
 IExCor= 4336 DFT=T Ex+Corr=M062X ExCW=0 ScaHFX=  0.540000
 ScaDFX=  1.000000  1.000000  1.000000  1.000000 ScalE2=  1.000000  1.000000
 IRadAn=      5 IRanWt=     -1 IRanGd=            0 ICorTp=0 IEmpDi=131
 NAtoms=   69 NActive=   69 NUniq=   69 SFac= 1.00D+00 NAtFMM=   60 NAOKFM=T Big=T
 Integral buffers will be    131072 words long.
 Raffenetti 2 integral format.
 Two-electron integral symmetry is turned off.
 R6Disp:  Grimme-D3 Dispersion energy=       -0.0064796430 Hartrees.
 Nuclear repulsion after empirical dispersion term =     4397.2507819969 Hartrees.
 Leave Link  301 at Sat Jun 22 17:29:47 2024, MaxMem=  2684354560 cpu:               1.3 elap:               0.1
 (Enter /storage/apps/GAUSSIAN/G16_RevA03/g16/l302.exe)
 NPDir=0 NMtPBC=     1 NCelOv=     1 NCel=       1 NClECP=     1 NCelD=      1
         NCelK=      1 NCelE2=     1 NClLst=     1 CellRange=     0.0.
 One-electron integrals computed using PRISM.
   1 Symmetry operations used in ECPInt.
 ECPInt:  NShTT=  150975 NPrTT=  462228 LenC2=  106490 LenP2D=  214962.
 LDataN:  DoStor=T MaxTD1= 6 Len=  172
 NBasis=  1389 RedAO= T EigKep=  6.07D-06  NBF=  1389
 NBsUse=  1389 1.00D-06 EigRej= -1.00D+00 NBFU=  1389
 Precomputing XC quadrature grid using
 IXCGrd= 4 IRadAn=           5 IRanWt=          -1 IRanGd=           0 AccXCQ= 0.00D+00.
 Generated NRdTot=       0 NPtTot=           0 NUsed=           0 NTot=          32
 NSgBfM=  1470  1455  1457  1460  1470 MxSgAt=    69 MxSgA2=    69.
 Leave Link  302 at Sat Jun 22 17:29:50 2024, MaxMem=  2684354560 cpu:              45.5 elap:               2.9
 (Enter /storage/apps/GAUSSIAN/G16_RevA03/g16/l303.exe)
 DipDrv:  MaxL=1.
 Leave Link  303 at Sat Jun 22 17:29:50 2024, MaxMem=  2684354560 cpu:               4.3 elap:               0.3
 (Enter /storage/apps/GAUSSIAN/G16_RevA03/g16/l401.exe)
 ExpMin= 9.52D-02 ExpMax= 2.70D+04 ExpMxC= 9.22D+02 IAcc=3 IRadAn=         5 AccDes= 0.00D+00
 Harris functional with IExCor= 1009 and IRadAn=       5 diagonalized for initial guess.
 HarFok:  IExCor= 1009 AccDes= 0.00D+00 IRadAn=         5 IDoV= 1 UseB2=F ITyADJ=14
 ICtDFT=  3500011 ScaDFX=  1.000000  1.000000  1.000000  1.000000
 FoFCou: FMM=F IPFlag=           0 FMFlag=      100000 FMFlg1=        2001
         NFxFlg=           0 DoJE=T BraDBF=F KetDBF=T FulRan=T
         wScrn=  0.000000 ICntrl=       500 IOpCl=  0 I1Cent=   200000004 NGrid=           0
         NMat0=    1 NMatS0=      1 NMatT0=    0 NMatD0=    1 NMtDS0=    0 NMtDT0=    0
 Symmetry not used in FoFCou.
 Harris En= -1875.51743181499    
 JPrj=0 DoOrth=F DoCkMO=F.
 Leave Link  401 at Sat Jun 22 17:29:57 2024, MaxMem=  2684354560 cpu:             109.7 elap:               6.9
 (Enter /storage/apps/GAUSSIAN/G16_RevA03/g16/l502.exe)
 Two-electron integral symmetry not used.
 Closed shell SCF:
 Using DIIS extrapolation, IDIIS=  1040.
 NGot=  2684354560 LenX=  2679300873 LenY=  2676790233
 Requested convergence on RMS density matrix=1.00D-08 within 128 cycles.
 Requested convergence on MAX density matrix=1.00D-06.
 Requested convergence on             energy=1.00D-06.
 No special actions if energy rises.
 Fock matrices will be formed incrementally for  20 cycles.
 Integral accuracy reduced to 1.0D-05 until final iterations.

 Cycle   1  Pass 0  IDiag  1:
 FoFJK:  IHMeth= 1 ICntrl=       0 DoSepK=F KAlg= 0 I1Cent=           0 FoldK=F
 IRaf= 690000000 NMat=       1 IRICut=       1 DoRegI=T DoRafI=F ISym2E= 0 IDoP0=0 IntGTp=1.
 FoFCou: FMM=T IPFlag=           0 FMFlag=      100000 FMFlg1=        2001
         NFxFlg=           0 DoJE=F BraDBF=F KetDBF=F FulRan=T
         wScrn=  0.000000 ICntrl=         0 IOpCl=  0 I1Cent=           0 NGrid=           0
         NMat0=    1 NMatS0=      1 NMatT0=    0 NMatD0=    1 NMtDS0=    0 NMtDT0=    0
 Symmetry not used in FoFCou.
 FMM levels:  10  Number of levels for PrismC:   9
 E= -1875.45757964499    
 DIIS: error= 1.58D-02 at cycle   1 NSaved=   1.
 NSaved= 1 IEnMin= 1 EnMin= -1875.45757964499     IErMin= 1 ErrMin= 1.58D-02
 ErrMax= 1.58D-02  0.00D+00 EMaxC= 1.00D-01 BMatC= 1.38D+00 BMatP= 1.38D+00
 IDIUse=3 WtCom= 8.42D-01 WtEn= 1.58D-01
 Coeff-Com:  0.100D+01
 Coeff-En:   0.100D+01
 Coeff:      0.100D+01
 Gap=    -0.013 Goal=   None    Shift=    0.000
 GapD=   -0.013 DampG=0.250 DampE=0.500 DampFc=0.2500 IDamp=-1.
 Damping current iteration by 2.50D-01
 RMSDP=4.97D+01 MaxDP=1.05D+04              OVMax= 9.98D-01

 Problem detected with inexpensive integrals.
 Switching to full accuracy and repeating last cycle.
 Cycle   2  Pass 1  IDiag  1:
 E= -1875.45768837047     Delta-E=       -0.000108725476 Rises=F Damp=F
 DIIS: error= 1.58D-02 at cycle   1 NSaved=   1.
 NSaved= 1 IEnMin= 1 EnMin= -1875.45768837047     IErMin= 1 ErrMin= 1.58D-02
 ErrMax= 1.58D-02  0.00D+00 EMaxC= 1.00D-01 BMatC= 1.38D+00 BMatP= 1.38D+00
 IDIUse=3 WtCom= 8.42D-01 WtEn= 1.58D-01
 Coeff-Com:  0.100D+01
 Coeff-En:   0.100D+01
 Coeff:      0.100D+01
 Gap=    -0.013 Goal=   None    Shift=    0.000
 GapD=   -0.013 DampG=0.250 DampE=0.500 DampFc=0.2500 IDamp=-1.
 Damping current iteration by 2.50D-01
 RMSDP=3.97D-03 MaxDP=1.19D+00 DE=-1.09D-04 OVMax= 7.96D-01

 Cycle   3  Pass 1  IDiag  1:
 RMSU=  9.90D-04    CP:  1.01D+00
 E= -1875.69013724413     Delta-E=       -0.232448873660 Rises=F Damp=T
 DIIS: error= 1.00D-02 at cycle   2 NSaved=   2.
 NSaved= 2 IEnMin= 2 EnMin= -1875.69013724413     IErMin= 2 ErrMin= 1.00D-02
 ErrMax= 1.00D-02  0.00D+00 EMaxC= 1.00D-01 BMatC= 4.54D-01 BMatP= 1.38D+00
 IDIUse=3 WtCom= 9.00D-01 WtEn= 1.00D-01
 Coeff-Com: -0.625D+00 0.162D+01
 Coeff-En:   0.676D-01 0.932D+00
 Coeff:     -0.555D+00 0.156D+01
 Gap=     0.263 Goal=   None    Shift=    0.000
 GapD=    0.263 DampG=1.000 DampE=0.500 DampFc=0.5000 IDamp=-1.
 Damping current iteration by 5.00D-01
 RMSDP=1.15D-03 MaxDP=1.42D-01 DE=-2.32D-01 OVMax= 6.83D-01

 Cycle   4  Pass 1  IDiag  1:
 RMSU=  5.73D-04    CP:  1.01D+00  1.04D+00
 E= -1875.96204995742     Delta-E=       -0.271912713294 Rises=F Damp=T
 DIIS: error= 8.76D-03 at cycle   3 NSaved=   3.
 NSaved= 3 IEnMin= 3 EnMin= -1875.96204995742     IErMin= 3 ErrMin= 8.76D-03
 ErrMax= 8.76D-03  0.00D+00 EMaxC= 1.00D-01 BMatC= 1.84D-01 BMatP= 4.54D-01
 IDIUse=3 WtCom= 9.12D-01 WtEn= 8.76D-02
 Coeff-Com: -0.574D+00 0.681D+00 0.894D+00
 Coeff-En:   0.000D+00 0.000D+00 0.100D+01
 Coeff:     -0.524D+00 0.621D+00 0.903D+00
 Gap=     0.198 Goal=   None    Shift=    0.000
 RMSDP=6.65D-04 MaxDP=1.09D-01 DE=-2.72D-01 OVMax= 2.11D-01

 Cycle   5  Pass 1  IDiag  1:
 RMSU=  6.19D-04    CP:  1.00D+00  1.01D+00  1.42D+00
 E= -1876.39076859586     Delta-E=       -0.428718638441 Rises=F Damp=F
 DIIS: error= 2.92D-03 at cycle   4 NSaved=   4.
 NSaved= 4 IEnMin= 4 EnMin= -1876.39076859586     IErMin= 4 ErrMin= 2.92D-03
 ErrMax= 2.92D-03  0.00D+00 EMaxC= 1.00D-01 BMatC= 3.48D-02 BMatP= 1.84D-01
 IDIUse=3 WtCom= 9.71D-01 WtEn= 2.92D-02
 Coeff-Com: -0.315D+00 0.426D+00 0.149D+00 0.740D+00
 Coeff-En:   0.000D+00 0.000D+00 0.000D+00 0.100D+01
 Coeff:     -0.306D+00 0.414D+00 0.145D+00 0.747D+00
 Gap=     0.078 Goal=   None    Shift=    0.000
 RMSDP=3.04D-04 MaxDP=5.29D-02 DE=-4.29D-01 OVMax= 4.67D-02

 Cycle   6  Pass 1  IDiag  1:
 RMSU=  2.40D-04    CP:  1.01D+00  1.16D+00  1.28D+00  1.15D+00
 E= -1876.42095338389     Delta-E=       -0.030184788027 Rises=F Damp=F
 DIIS: error= 2.76D-03 at cycle   5 NSaved=   5.
 NSaved= 5 IEnMin= 5 EnMin= -1876.42095338389     IErMin= 5 ErrMin= 2.76D-03
 ErrMax= 2.76D-03  0.00D+00 EMaxC= 1.00D-01 BMatC= 1.05D-02 BMatP= 3.48D-02
 IDIUse=3 WtCom= 9.72D-01 WtEn= 2.76D-02
 Coeff-Com: -0.141D+00 0.252D+00-0.102D+00 0.323D+00 0.667D+00
 Coeff-En:   0.000D+00 0.000D+00 0.000D+00 0.000D+00 0.100D+01
 Coeff:     -0.137D+00 0.246D+00-0.988D-01 0.314D+00 0.676D+00
 Gap=     0.081 Goal=   None    Shift=    0.000
 RMSDP=1.75D-04 MaxDP=6.73D-02 DE=-3.02D-02 OVMax= 4.69D-02

 Cycle   7  Pass 1  IDiag  1:
 RMSU=  1.13D-04    CP:  1.01D+00  1.16D+00  1.17D+00  1.33D+00  1.10D+00
 E= -1876.43230797025     Delta-E=       -0.011354586355 Rises=F Damp=F
 DIIS: error= 6.00D-04 at cycle   6 NSaved=   6.
 NSaved= 6 IEnMin= 6 EnMin= -1876.43230797025     IErMin= 6 ErrMin= 6.00D-04
 ErrMax= 6.00D-04  0.00D+00 EMaxC= 1.00D-01 BMatC= 1.45D-03 BMatP= 1.05D-02
 IDIUse=3 WtCom= 9.94D-01 WtEn= 6.00D-03
 Coeff-Com: -0.280D-01 0.762D-01-0.753D-01-0.392D-01 0.278D+00 0.788D+00
 Coeff-En:   0.000D+00 0.000D+00 0.000D+00 0.000D+00 0.000D+00 0.100D+01
 Coeff:     -0.278D-01 0.758D-01-0.749D-01-0.389D-01 0.276D+00 0.789D+00
 Gap=     0.078 Goal=   None    Shift=    0.000
 RMSDP=7.91D-05 MaxDP=2.21D-02 DE=-1.14D-02 OVMax= 2.35D-02

 Cycle   8  Pass 1  IDiag  1:
 RMSU=  3.73D-05    CP:  1.01D+00  1.19D+00  1.13D+00  1.37D+00  1.30D+00
                    CP:  1.18D+00
 E= -1876.43416037825     Delta-E=       -0.001852407999 Rises=F Damp=F
 DIIS: error= 2.76D-04 at cycle   7 NSaved=   7.
 NSaved= 7 IEnMin= 7 EnMin= -1876.43416037825     IErMin= 7 ErrMin= 2.76D-04
 ErrMax= 2.76D-04  0.00D+00 EMaxC= 1.00D-01 BMatC= 1.24D-04 BMatP= 1.45D-03
 IDIUse=3 WtCom= 9.97D-01 WtEn= 2.76D-03
 Coeff-Com:  0.345D-02 0.142D-02-0.107D-01-0.633D-01 0.866D-02 0.322D+00
 Coeff-Com:  0.739D+00
 Coeff-En:   0.000D+00 0.000D+00 0.000D+00 0.000D+00 0.000D+00 0.000D+00
 Coeff-En:   0.100D+01
 Coeff:      0.344D-02 0.142D-02-0.107D-01-0.631D-01 0.864D-02 0.321D+00
 Coeff:      0.739D+00
 Gap=     0.078 Goal=   None    Shift=    0.000
 RMSDP=3.38D-05 MaxDP=6.63D-03 DE=-1.85D-03 OVMax= 1.43D-02

 Cycle   9  Pass 1  IDiag  1:
 RMSU=  2.47D-05    CP:  1.01D+00  1.18D+00  1.11D+00  1.38D+00  1.36D+00
                    CP:  1.28D+00  1.25D+00
 E= -1876.43438373726     Delta-E=       -0.000223359016 Rises=F Damp=F
 DIIS: error= 1.43D-04 at cycle   8 NSaved=   8.
 NSaved= 8 IEnMin= 8 EnMin= -1876.43438373726     IErMin= 8 ErrMin= 1.43D-04
 ErrMax= 1.43D-04  0.00D+00 EMaxC= 1.00D-01 BMatC= 2.81D-05 BMatP= 1.24D-04
 IDIUse=3 WtCom= 9.99D-01 WtEn= 1.43D-03
 Coeff-Com:  0.227D-02-0.605D-02 0.732D-02-0.108D-01-0.191D-01 0.158D-01
 Coeff-Com:  0.301D+00 0.709D+00
 Coeff-En:   0.000D+00 0.000D+00 0.000D+00 0.000D+00 0.000D+00 0.000D+00
 Coeff-En:   0.000D+00 0.100D+01
 Coeff:      0.226D-02-0.604D-02 0.730D-02-0.107D-01-0.190D-01 0.158D-01
 Coeff:      0.301D+00 0.710D+00
 Gap=     0.079 Goal=   None    Shift=    0.000
 RMSDP=1.39D-05 MaxDP=3.74D-03 DE=-2.23D-04 OVMax= 6.07D-03

 Cycle  10  Pass 1  IDiag  1:
 RMSU=  7.49D-06    CP:  1.01D+00  1.18D+00  1.11D+00  1.37D+00  1.36D+00
                    CP:  1.27D+00  1.45D+00  1.20D+00
 E= -1876.43442821803     Delta-E=       -0.000044480766 Rises=F Damp=F
 DIIS: error= 5.61D-05 at cycle   9 NSaved=   9.
 NSaved= 9 IEnMin= 9 EnMin= -1876.43442821803     IErMin= 9 ErrMin= 5.61D-05
 ErrMax= 5.61D-05  0.00D+00 EMaxC= 1.00D-01 BMatC= 7.71D-06 BMatP= 2.81D-05
 IDIUse=1 WtCom= 1.00D+00 WtEn= 0.00D+00
 Coeff-Com: -0.370D-04-0.341D-02 0.739D-02 0.124D-01-0.498D-02-0.669D-01
 Coeff-Com: -0.318D-01 0.295D+00 0.793D+00
 Coeff:     -0.370D-04-0.341D-02 0.739D-02 0.124D-01-0.498D-02-0.669D-01
 Coeff:     -0.318D-01 0.295D+00 0.793D+00
 Gap=     0.080 Goal=   None    Shift=    0.000
 RMSDP=1.18D-05 MaxDP=3.88D-03 DE=-4.45D-05 OVMax= 5.47D-03

 Cycle  11  Pass 1  IDiag  1:
 RMSU=  4.01D-06    CP:  1.01D+00  1.17D+00  1.12D+00  1.36D+00  1.35D+00
                    CP:  1.26D+00  1.58D+00  1.51D+00  1.27D+00
 E= -1876.43444360832     Delta-E=       -0.000015390290 Rises=F Damp=F
 DIIS: error= 2.68D-05 at cycle  10 NSaved=  10.
 NSaved=10 IEnMin=10 EnMin= -1876.43444360832     IErMin=10 ErrMin= 2.68D-05
 ErrMax= 2.68D-05  0.00D+00 EMaxC= 1.00D-01 BMatC= 1.77D-06 BMatP= 7.71D-06
 IDIUse=1 WtCom= 1.00D+00 WtEn= 0.00D+00
 Coeff-Com:  0.282D-04-0.134D-02 0.241D-02 0.821D-02 0.202D-02-0.364D-01
 Coeff-Com: -0.782D-01-0.122D-01 0.421D+00 0.694D+00
 Coeff:      0.282D-04-0.134D-02 0.241D-02 0.821D-02 0.202D-02-0.364D-01
 Coeff:     -0.782D-01-0.122D-01 0.421D+00 0.694D+00
 Gap=     0.080 Goal=   None    Shift=    0.000
 RMSDP=5.38D-06 MaxDP=1.19D-03 DE=-1.54D-05 OVMax= 3.00D-03

 Cycle  12  Pass 1  IDiag  1:
 RMSU=  1.85D-06    CP:  1.01D+00  1.17D+00  1.12D+00  1.36D+00  1.35D+00
                    CP:  1.26D+00  1.65D+00  1.62D+00  1.55D+00  1.19D+00
 E= -1876.43444784366     Delta-E=       -0.000004235343 Rises=F Damp=F
 DIIS: error= 7.99D-06 at cycle  11 NSaved=  11.
 NSaved=11 IEnMin=11 EnMin= -1876.43444784366     IErMin=11 ErrMin= 7.99D-06
 ErrMax= 7.99D-06  0.00D+00 EMaxC= 1.00D-01 BMatC= 2.89D-07 BMatP= 1.77D-06
 IDIUse=1 WtCom= 1.00D+00 WtEn= 0.00D+00
 Coeff-Com:  0.291D-04-0.144D-03 0.113D-03 0.171D-02 0.185D-02-0.298D-02
 Coeff-Com: -0.299D-01-0.658D-01 0.613D-01 0.297D+00 0.737D+00
 Coeff:      0.291D-04-0.144D-03 0.113D-03 0.171D-02 0.185D-02-0.298D-02
 Coeff:     -0.299D-01-0.658D-01 0.613D-01 0.297D+00 0.737D+00
 Gap=     0.080 Goal=   None    Shift=    0.000
 RMSDP=2.76D-06 MaxDP=6.46D-04 DE=-4.24D-06 OVMax= 1.62D-03

 Cycle  13  Pass 1  IDiag  1:
 RMSU=  7.75D-07    CP:  1.01D+00  1.17D+00  1.12D+00  1.36D+00  1.35D+00
                    CP:  1.26D+00  1.68D+00  1.68D+00  1.68D+00  1.46D+00
                    CP:  1.27D+00
 E= -1876.43444877432     Delta-E=       -0.000000930660 Rises=F Damp=F
 DIIS: error= 7.46D-06 at cycle  12 NSaved=  12.
 NSaved=12 IEnMin=12 EnMin= -1876.43444877432     IErMin=12 ErrMin= 7.46D-06
 ErrMax= 7.46D-06  0.00D+00 EMaxC= 1.00D-01 BMatC= 7.73D-08 BMatP= 2.89D-07
 IDIUse=1 WtCom= 1.00D+00 WtEn= 0.00D+00
 Coeff-Com:  0.611D-04 0.803D-04-0.316D-03-0.938D-03-0.215D-03 0.797D-02
 Coeff-Com:  0.546D-02-0.276D-01-0.671D-01-0.610D-01 0.343D+00 0.801D+00
 Coeff:      0.611D-04 0.803D-04-0.316D-03-0.938D-03-0.215D-03 0.797D-02
 Coeff:      0.546D-02-0.276D-01-0.671D-01-0.610D-01 0.343D+00 0.801D+00
 Gap=     0.080 Goal=   None    Shift=    0.000
 RMSDP=1.53D-06 MaxDP=3.38D-04 DE=-9.31D-07 OVMax= 1.03D-03

 Cycle  14  Pass 1  IDiag  1:
 RMSU=  3.97D-07    CP:  1.01D+00  1.17D+00  1.12D+00  1.36D+00  1.35D+00
                    CP:  1.26D+00  1.70D+00  1.70D+00  1.75D+00  1.59D+00
                    CP:  1.62D+00  1.30D+00
 E= -1876.43444906822     Delta-E=       -0.000000293897 Rises=F Damp=F
 DIIS: error= 1.73D-06 at cycle  13 NSaved=  13.
 NSaved=13 IEnMin=13 EnMin= -1876.43444906822     IErMin=13 ErrMin= 1.73D-06
 ErrMax= 1.73D-06  0.00D+00 EMaxC= 1.00D-01 BMatC= 1.34D-08 BMatP= 7.73D-08
 IDIUse=1 WtCom= 1.00D+00 WtEn= 0.00D+00
 Coeff-Com: -0.153D-04 0.102D-03-0.136D-03-0.463D-03-0.551D-03 0.429D-02
 Coeff-Com:  0.669D-02-0.365D-02-0.360D-01-0.813D-01 0.323D-01 0.339D+00
 Coeff-Com:  0.740D+00
 Coeff:     -0.153D-04 0.102D-03-0.136D-03-0.463D-03-0.551D-03 0.429D-02
 Coeff:      0.669D-02-0.365D-02-0.360D-01-0.813D-01 0.323D-01 0.339D+00
 Coeff:      0.740D+00
 Gap=     0.080 Goal=   None    Shift=    0.000
 RMSDP=7.13D-07 MaxDP=1.77D-04 DE=-2.94D-07 OVMax= 4.18D-04

 Cycle  15  Pass 1  IDiag  1:
 RMSU=  1.42D-07    CP:  1.01D+00  1.17D+00  1.12D+00  1.36D+00  1.35D+00
                    CP:  1.26D+00  1.70D+00  1.71D+00  1.78D+00  1.66D+00
                    CP:  1.78D+00  1.58D+00  1.26D+00
 E= -1876.43444912231     Delta-E=       -0.000000054098 Rises=F Damp=F
 DIIS: error= 1.35D-06 at cycle  14 NSaved=  14.
 NSaved=14 IEnMin=14 EnMin= -1876.43444912231     IErMin=14 ErrMin= 1.35D-06
 ErrMax= 1.35D-06  0.00D+00 EMaxC= 1.00D-01 BMatC= 2.83D-09 BMatP= 1.34D-08
 IDIUse=1 WtCom= 1.00D+00 WtEn= 0.00D+00
 Coeff-Com: -0.322D-04 0.339D-04 0.292D-04 0.129D-03-0.334D-03-0.218D-03
 Coeff-Com:  0.186D-02 0.715D-02 0.721D-02-0.239D-01-0.950D-01-0.856D-01
 Coeff-Com:  0.355D+00 0.834D+00
 Coeff:     -0.322D-04 0.339D-04 0.292D-04 0.129D-03-0.334D-03-0.218D-03
 Coeff:      0.186D-02 0.715D-02 0.721D-02-0.239D-01-0.950D-01-0.856D-01
 Coeff:      0.355D+00 0.834D+00
 Gap=     0.080 Goal=   None    Shift=    0.000
 RMSDP=3.93D-07 MaxDP=9.69D-05 DE=-5.41D-08 OVMax= 2.59D-04

 Cycle  16  Pass 1  IDiag  1:
 RMSU=  6.85D-08    CP:  1.01D+00  1.17D+00  1.12D+00  1.36D+00  1.35D+00
                    CP:  1.26D+00  1.71D+00  1.71D+00  1.80D+00  1.70D+00
                    CP:  1.88D+00  1.76D+00  1.58D+00  1.19D+00
 E= -1876.43444913632     Delta-E=       -0.000000014002 Rises=F Damp=F
 DIIS: error= 3.27D-07 at cycle  15 NSaved=  15.
 NSaved=15 IEnMin=15 EnMin= -1876.43444913632     IErMin=15 ErrMin= 3.27D-07
 ErrMax= 3.27D-07  0.00D+00 EMaxC= 1.00D-01 BMatC= 4.36D-10 BMatP= 2.83D-09
 IDIUse=1 WtCom= 1.00D+00 WtEn= 0.00D+00
 Coeff-Com: -0.100D-04 0.216D-05 0.219D-04 0.120D-03-0.923D-04-0.721D-03
 Coeff-Com: -0.263D-03 0.301D-02 0.818D-02 0.792D-03-0.404D-01-0.810D-01
 Coeff-Com:  0.144D-01 0.328D+00 0.768D+00
 Coeff:     -0.100D-04 0.216D-05 0.219D-04 0.120D-03-0.923D-04-0.721D-03
 Coeff:     -0.263D-03 0.301D-02 0.818D-02 0.792D-03-0.404D-01-0.810D-01
 Coeff:      0.144D-01 0.328D+00 0.768D+00
 Gap=     0.080 Goal=   None    Shift=    0.000
 RMSDP=1.37D-07 MaxDP=3.12D-05 DE=-1.40D-08 OVMax= 9.11D-05

 Cycle  17  Pass 1  IDiag  1:
 RMSU=  2.47D-08    CP:  1.01D+00  1.17D+00  1.12D+00  1.36D+00  1.35D+00
                    CP:  1.26D+00  1.71D+00  1.71D+00  1.80D+00  1.71D+00
                    CP:  1.91D+00  1.82D+00  1.68D+00  1.35D+00  1.17D+00
 E= -1876.43444913788     Delta-E=       -0.000000001563 Rises=F Damp=F
 DIIS: error= 1.73D-07 at cycle  16 NSaved=  16.
 NSaved=16 IEnMin=16 EnMin= -1876.43444913788     IErMin=16 ErrMin= 1.73D-07
 ErrMax= 1.73D-07  0.00D+00 EMaxC= 1.00D-01 BMatC= 7.34D-11 BMatP= 4.36D-10
 IDIUse=1 WtCom= 1.00D+00 WtEn= 0.00D+00
 Coeff-Com: -0.327D-05 0.243D-06 0.844D-05 0.440D-04-0.149D-05-0.332D-03
 Coeff-Com: -0.407D-03 0.344D-03 0.285D-02 0.355D-02-0.514D-02-0.266D-01
 Coeff-Com: -0.496D-01 0.298D-01 0.371D+00 0.675D+00
 Coeff:     -0.327D-05 0.243D-06 0.844D-05 0.440D-04-0.149D-05-0.332D-03
 Coeff:     -0.407D-03 0.344D-03 0.285D-02 0.355D-02-0.514D-02-0.266D-01
 Coeff:     -0.496D-01 0.298D-01 0.371D+00 0.675D+00
 Gap=     0.080 Goal=   None    Shift=    0.000
 RMSDP=4.27D-08 MaxDP=1.16D-05 DE=-1.56D-09 OVMax= 2.83D-05

 Cycle  18  Pass 1  IDiag  1:
 RMSU=  1.01D-08    CP:  1.01D+00  1.17D+00  1.12D+00  1.36D+00  1.35D+00
                    CP:  1.26D+00  1.71D+00  1.71D+00  1.80D+00  1.71D+00
                    CP:  1.92D+00  1.83D+00  1.72D+00  1.42D+00  1.30D+00
                    CP:  1.11D+00
 E= -1876.43444913809     Delta-E=       -0.000000000214 Rises=F Damp=F
 DIIS: error= 6.70D-08 at cycle  17 NSaved=  17.
 NSaved=17 IEnMin=17 EnMin= -1876.43444913809     IErMin=17 ErrMin= 6.70D-08
 ErrMax= 6.70D-08  0.00D+00 EMaxC= 1.00D-01 BMatC= 8.83D-12 BMatP= 7.34D-11
 IDIUse=1 WtCom= 1.00D+00 WtEn= 0.00D+00
 Coeff-Com:  0.302D-06-0.854D-06 0.104D-05 0.413D-05 0.945D-05-0.556D-04
 Coeff-Com: -0.144D-03-0.246D-03 0.202D-03 0.143D-02 0.320D-02-0.988D-03
 Coeff-Com: -0.231D-01-0.304D-01 0.560D-01 0.295D+00 0.699D+00
 Coeff:      0.302D-06-0.854D-06 0.104D-05 0.413D-05 0.945D-05-0.556D-04
 Coeff:     -0.144D-03-0.246D-03 0.202D-03 0.143D-02 0.320D-02-0.988D-03
 Coeff:     -0.231D-01-0.304D-01 0.560D-01 0.295D+00 0.699D+00
 Gap=     0.080 Goal=   None    Shift=    0.000
 RMSDP=1.06D-08 MaxDP=1.58D-06 DE=-2.14D-10 OVMax= 7.28D-06

 Cycle  19  Pass 1  IDiag  1:
 RMSU=  3.77D-09    CP:  1.01D+00  1.17D+00  1.12D+00  1.36D+00  1.35D+00
                    CP:  1.26D+00  1.71D+00  1.71D+00  1.80D+00  1.71D+00
                    CP:  1.92D+00  1.84D+00  1.72D+00  1.43D+00  1.36D+00
                    CP:  1.26D+00  1.08D+00
 E= -1876.43444913807     Delta-E=        0.000000000018 Rises=F Damp=F
 DIIS: error= 1.75D-08 at cycle  18 NSaved=  18.
 NSaved=18 IEnMin=17 EnMin= -1876.43444913809     IErMin=18 ErrMin= 1.75D-08
 ErrMax= 1.75D-08  0.00D+00 EMaxC= 1.00D-01 BMatC= 1.56D-12 BMatP= 8.83D-12
 IDIUse=1 WtCom= 1.00D+00 WtEn= 0.00D+00
 Coeff-Com:  0.443D-06-0.312D-06-0.398D-06-0.450D-05 0.522D-05 0.277D-04
 Coeff-Com:  0.158D-05-0.167D-03-0.374D-03 0.876D-04 0.217D-02 0.367D-02
 Coeff-Com: -0.221D-02-0.189D-01-0.357D-01 0.220D-01 0.312D+00 0.717D+00
 Coeff:      0.443D-06-0.312D-06-0.398D-06-0.450D-05 0.522D-05 0.277D-04
 Coeff:      0.158D-05-0.167D-03-0.374D-03 0.876D-04 0.217D-02 0.367D-02
 Coeff:     -0.221D-02-0.189D-01-0.357D-01 0.220D-01 0.312D+00 0.717D+00
 Gap=     0.080 Goal=   None    Shift=    0.000
 RMSDP=4.45D-09 MaxDP=7.32D-07 DE= 1.82D-11 OVMax= 2.77D-06

 SCF Done:  E(RM062X) =  -1876.43444914     A.U. after   19 cycles
            NFock= 19  Conv=0.45D-08     -V/T= 2.0047
 KE= 1.867646154425D+03 PE=-1.314632096246D+04 EE= 5.004989576896D+03
 Leave Link  502 at Sat Jun 22 17:55:27 2024, MaxMem=  2684354560 cpu:           24404.5 elap:            1529.5
 (Enter /storage/apps/GAUSSIAN/G16_RevA03/g16/l601.exe)
 Copying SCF densities to generalized density rwf, IOpCl= 0 IROHF=0.

 **********************************************************************

            Population analysis using the SCF density.

 **********************************************************************

 Alpha  occ. eigenvalues --  -19.78831 -19.77369 -19.75839 -19.72562 -19.64186
 Alpha  occ. eigenvalues --  -19.61455 -15.02269 -14.90266 -14.87889 -14.85825
 Alpha  occ. eigenvalues --  -14.84803 -14.84402 -14.82580 -14.81362 -14.81330
 Alpha  occ. eigenvalues --  -10.79462 -10.79271 -10.78002 -10.77989 -10.74908
 Alpha  occ. eigenvalues --  -10.74658 -10.74013 -10.73805 -10.73770 -10.72639
 Alpha  occ. eigenvalues --  -10.72273 -10.71140 -10.69425 -10.68442 -10.66779
 Alpha  occ. eigenvalues --  -10.66050 -10.65873 -10.65445 -10.63454 -10.59632
 Alpha  occ. eigenvalues --  -10.59334 -10.58913 -10.58771 -10.58646  -1.33392
 Alpha  occ. eigenvalues --   -1.29654  -1.28173  -1.27613  -1.26455  -1.21617
 Alpha  occ. eigenvalues --   -1.16442  -1.15531  -1.15488  -1.14128  -1.12848
 Alpha  occ. eigenvalues --   -1.11425  -1.08584  -1.08052  -1.07620  -1.05470
 Alpha  occ. eigenvalues --   -1.03659  -1.01903  -1.01132  -1.00396  -0.97002
 Alpha  occ. eigenvalues --   -0.94306  -0.92404  -0.91809  -0.91153  -0.89041
 Alpha  occ. eigenvalues --   -0.88017  -0.86996  -0.85341  -0.82452  -0.82218
 Alpha  occ. eigenvalues --   -0.81176  -0.80926  -0.78157  -0.77647  -0.77296
 Alpha  occ. eigenvalues --   -0.76913  -0.75574  -0.75464  -0.73854  -0.73722
 Alpha  occ. eigenvalues --   -0.73573  -0.71583  -0.71224  -0.70821  -0.70232
 Alpha  occ. eigenvalues --   -0.69707  -0.69538  -0.68968  -0.67921  -0.66731
 Alpha  occ. eigenvalues --   -0.66438  -0.66088  -0.65935  -0.65307  -0.64989
 Alpha  occ. eigenvalues --   -0.64568  -0.63913  -0.63161  -0.62939  -0.62377
 Alpha  occ. eigenvalues --   -0.61843  -0.61547  -0.61377  -0.60673  -0.60335
 Alpha  occ. eigenvalues --   -0.59709  -0.59387  -0.58949  -0.57924  -0.57264
 Alpha  occ. eigenvalues --   -0.56615  -0.55952  -0.55514  -0.54912  -0.54215
 Alpha  occ. eigenvalues --   -0.53805  -0.53354  -0.52752  -0.52154  -0.51745
 Alpha  occ. eigenvalues --   -0.51354  -0.51196  -0.50839  -0.50579  -0.49876
 Alpha  occ. eigenvalues --   -0.49346  -0.49090  -0.48096  -0.47194  -0.46336
 Alpha  occ. eigenvalues --   -0.45666  -0.43525  -0.42693  -0.42219  -0.40668
 Alpha  occ. eigenvalues --   -0.39405  -0.38446  -0.37412  -0.36142  -0.36087
 Alpha  occ. eigenvalues --   -0.31545  -0.29411
 Alpha virt. eigenvalues --   -0.21387  -0.17856  -0.08093  -0.07580  -0.06981
 Alpha virt. eigenvalues --   -0.06569  -0.06230  -0.05488  -0.04885  -0.04367
 Alpha virt. eigenvalues --   -0.03756  -0.02893  -0.02850  -0.02449  -0.01956
 Alpha virt. eigenvalues --   -0.01561  -0.00977  -0.00808  -0.00503   0.00178
 Alpha virt. eigenvalues --    0.00740   0.00932   0.01322   0.01403   0.01828
 Alpha virt. eigenvalues --    0.01960   0.02052   0.02688   0.03048   0.03578
 Alpha virt. eigenvalues --    0.04092   0.04641   0.04830   0.05201   0.05629
 Alpha virt. eigenvalues --    0.05926   0.06208   0.06333   0.06504   0.06688
 Alpha virt. eigenvalues --    0.07032   0.07430   0.08027   0.08444   0.08733
 Alpha virt. eigenvalues --    0.09421   0.09567   0.09909   0.10306   0.10484
 Alpha virt. eigenvalues --    0.10826   0.11461   0.11629   0.12107   0.12261
 Alpha virt. eigenvalues --    0.12626   0.12809   0.13073   0.13568   0.13765
 Alpha virt. eigenvalues --    0.14236   0.14544   0.14774   0.15089   0.15554
 Alpha virt. eigenvalues --    0.15874   0.15951   0.16536   0.16659   0.17001
 Alpha virt. eigenvalues --    0.17628   0.17841   0.18269   0.18755   0.19055
 Alpha virt. eigenvalues --    0.19144   0.19371   0.19657   0.19851   0.20256
 Alpha virt. eigenvalues --    0.20372   0.20724   0.21184   0.21410   0.21591
 Alpha virt. eigenvalues --    0.21770   0.22153   0.22675   0.22917   0.23213
 Alpha virt. eigenvalues --    0.23525   0.23878   0.24108   0.24446   0.24601
 Alpha virt. eigenvalues --    0.24752   0.25034   0.25199   0.25633   0.25910
 Alpha virt. eigenvalues --    0.26303   0.26458   0.26514   0.27116   0.27496
 Alpha virt. eigenvalues --    0.27914   0.28224   0.28261   0.28453   0.28848
 Alpha virt. eigenvalues --    0.29153   0.29422   0.29601   0.29857   0.30208
 Alpha virt. eigenvalues --    0.30327   0.30571   0.30887   0.31141   0.31252
 Alpha virt. eigenvalues --    0.31551   0.31696   0.32030   0.32239   0.32416
 Alpha virt. eigenvalues --    0.32730   0.32974   0.33389   0.33790   0.34020
 Alpha virt. eigenvalues --    0.34179   0.34477   0.34743   0.35282   0.35383
 Alpha virt. eigenvalues --    0.35544   0.35721   0.36181   0.36283   0.36404
 Alpha virt. eigenvalues --    0.36623   0.36867   0.37065   0.37305   0.37764
 Alpha virt. eigenvalues --    0.38013   0.38092   0.38417   0.38578   0.39157
 Alpha virt. eigenvalues --    0.39365   0.39533   0.39671   0.39980   0.40130
 Alpha virt. eigenvalues --    0.40451   0.40739   0.40844   0.41279   0.41538
 Alpha virt. eigenvalues --    0.41789   0.42053   0.42096   0.42819   0.43041
 Alpha virt. eigenvalues --    0.43187   0.43404   0.43654   0.43843   0.44227
 Alpha virt. eigenvalues --    0.44582   0.44600   0.45058   0.45263   0.45558
 Alpha virt. eigenvalues --    0.45991   0.46030   0.46368   0.46611   0.46807
 Alpha virt. eigenvalues --    0.47267   0.47440   0.48217   0.48467   0.48756
 Alpha virt. eigenvalues --    0.48888   0.49232   0.49368   0.49941   0.50125
 Alpha virt. eigenvalues --    0.50496   0.50656   0.51018   0.51433   0.51596
 Alpha virt. eigenvalues --    0.52063   0.52142   0.52644   0.52986   0.53455
 Alpha virt. eigenvalues --    0.53670   0.53924   0.54118   0.54536   0.55379
 Alpha virt. eigenvalues --    0.55487   0.55904   0.56009   0.56733   0.56908
 Alpha virt. eigenvalues --    0.57020   0.57179   0.57732   0.57783   0.57937
 Alpha virt. eigenvalues --    0.58675   0.58988   0.59310   0.59635   0.60108
 Alpha virt. eigenvalues --    0.60287   0.60646   0.61177   0.61436   0.61726
 Alpha virt. eigenvalues --    0.61819   0.62507   0.62866   0.63183   0.63504
 Alpha virt. eigenvalues --    0.63647   0.63862   0.64154   0.64744   0.64835
 Alpha virt. eigenvalues --    0.65306   0.65651   0.65959   0.66633   0.67032
 Alpha virt. eigenvalues --    0.67596   0.68172   0.68345   0.68372   0.68734
 Alpha virt. eigenvalues --    0.69354   0.69757   0.70509   0.70677   0.70981
 Alpha virt. eigenvalues --    0.71472   0.71522   0.71732   0.72028   0.72708
 Alpha virt. eigenvalues --    0.73120   0.73548   0.73979   0.74508   0.74734
 Alpha virt. eigenvalues --    0.75134   0.75468   0.75597   0.75955   0.76834
 Alpha virt. eigenvalues --    0.77111   0.77341   0.77872   0.78115   0.78400
 Alpha virt. eigenvalues --    0.78817   0.78928   0.79770   0.79835   0.80782
 Alpha virt. eigenvalues --    0.81133   0.81571   0.82487   0.82827   0.82958
 Alpha virt. eigenvalues --    0.83103   0.83743   0.84248   0.84717   0.84931
 Alpha virt. eigenvalues --    0.85277   0.85757   0.86338   0.87041   0.87442
 Alpha virt. eigenvalues --    0.87750   0.88176   0.88791   0.88840   0.88971
 Alpha virt. eigenvalues --    0.89494   0.90619   0.90716   0.91223   0.91453
 Alpha virt. eigenvalues --    0.91979   0.92548   0.93020   0.93200   0.93891
 Alpha virt. eigenvalues --    0.94827   0.95213   0.95539   0.95941   0.96625
 Alpha virt. eigenvalues --    0.97242   0.97791   0.98057   0.98655   0.99441
 Alpha virt. eigenvalues --    0.99622   0.99897   1.00567   1.00748   1.01268
 Alpha virt. eigenvalues --    1.01776   1.02248   1.02553   1.03916   1.04151
 Alpha virt. eigenvalues --    1.04725   1.05006   1.05652   1.05890   1.06471
 Alpha virt. eigenvalues --    1.07330   1.07954   1.08379   1.08422   1.08906
 Alpha virt. eigenvalues --    1.09415   1.10109   1.10794   1.11046   1.11323
 Alpha virt. eigenvalues --    1.11868   1.12365   1.12922   1.13483   1.14819
 Alpha virt. eigenvalues --    1.15079   1.15371   1.15863   1.16141   1.16530
 Alpha virt. eigenvalues --    1.16992   1.17358   1.17988   1.18558   1.19348
 Alpha virt. eigenvalues --    1.19696   1.20629   1.21642   1.22187   1.22838
 Alpha virt. eigenvalues --    1.23445   1.23553   1.23842   1.24279   1.24456
 Alpha virt. eigenvalues --    1.24780   1.25661   1.25926   1.26661   1.27107
 Alpha virt. eigenvalues --    1.27525   1.27722   1.28137   1.28481   1.29093
 Alpha virt. eigenvalues --    1.29482   1.30230   1.30265   1.31498   1.31973
 Alpha virt. eigenvalues --    1.32115   1.32802   1.33424   1.34213   1.34710
 Alpha virt. eigenvalues --    1.35090   1.35496   1.35736   1.36485   1.36633
 Alpha virt. eigenvalues --    1.37278   1.37734   1.38347   1.38730   1.38950
 Alpha virt. eigenvalues --    1.39214   1.39709   1.40480   1.40765   1.41282
 Alpha virt. eigenvalues --    1.42125   1.42529   1.42894   1.43168   1.43416
 Alpha virt. eigenvalues --    1.44334   1.44470   1.44697   1.45073   1.45565
 Alpha virt. eigenvalues --    1.46282   1.46422   1.46849   1.47176   1.47642
 Alpha virt. eigenvalues --    1.47968   1.48128   1.48914   1.49053   1.49521
 Alpha virt. eigenvalues --    1.50261   1.50466   1.50709   1.51279   1.51685
 Alpha virt. eigenvalues --    1.52191   1.52534   1.52757   1.53057   1.53550
 Alpha virt. eigenvalues --    1.53815   1.54369   1.54813   1.55038   1.55373
 Alpha virt. eigenvalues --    1.55841   1.56046   1.56339   1.56579   1.57122
 Alpha virt. eigenvalues --    1.57214   1.57660   1.57814   1.58101   1.58569
 Alpha virt. eigenvalues --    1.59125   1.59865   1.60232   1.60403   1.60635
 Alpha virt. eigenvalues --    1.60770   1.61285   1.61828   1.62068   1.62353
 Alpha virt. eigenvalues --    1.63237   1.63574   1.64032   1.64458   1.64660
 Alpha virt. eigenvalues --    1.65659   1.65930   1.66154   1.66686   1.67282
 Alpha virt. eigenvalues --    1.67608   1.67708   1.68354   1.68916   1.69575
 Alpha virt. eigenvalues --    1.69896   1.70074   1.70781   1.71731   1.72024
 Alpha virt. eigenvalues --    1.72169   1.72750   1.73168   1.73552   1.73895
 Alpha virt. eigenvalues --    1.74175   1.74592   1.75335   1.76412   1.76501
 Alpha virt. eigenvalues --    1.77001   1.77354   1.77563   1.78076   1.78396
 Alpha virt. eigenvalues --    1.78695   1.79420   1.79955   1.80636   1.80895
 Alpha virt. eigenvalues --    1.81468   1.81794   1.82305   1.82758   1.83001
 Alpha virt. eigenvalues --    1.83294   1.83984   1.84252   1.84889   1.85065
 Alpha virt. eigenvalues --    1.85877   1.86302   1.86578   1.87096   1.87185
 Alpha virt. eigenvalues --    1.88076   1.88605   1.88939   1.89544   1.90022
 Alpha virt. eigenvalues --    1.90129   1.90579   1.90644   1.91432   1.92274
 Alpha virt. eigenvalues --    1.92744   1.93418   1.93627   1.94297   1.94903
 Alpha virt. eigenvalues --    1.95389   1.95496   1.95873   1.96785   1.97086
 Alpha virt. eigenvalues --    1.97601   1.97922   1.98433   1.99141   1.99294
 Alpha virt. eigenvalues --    1.99756   2.00705   2.01136   2.02103   2.02272
 Alpha virt. eigenvalues --    2.02779   2.02951   2.03877   2.04182   2.04468
 Alpha virt. eigenvalues --    2.05286   2.06107   2.06505   2.07349   2.07558
 Alpha virt. eigenvalues --    2.08360   2.08516   2.09078   2.09663   2.10286
 Alpha virt. eigenvalues --    2.10653   2.10870   2.11161   2.11253   2.12171
 Alpha virt. eigenvalues --    2.12755   2.13757   2.13855   2.14245   2.14448
 Alpha virt. eigenvalues --    2.15660   2.16097   2.16476   2.16720   2.16855
 Alpha virt. eigenvalues --    2.17723   2.18196   2.19151   2.19414   2.20019
 Alpha virt. eigenvalues --    2.20520   2.20983   2.21170   2.21727   2.21901
 Alpha virt. eigenvalues --    2.22199   2.23400   2.24050   2.24462   2.24961
 Alpha virt. eigenvalues --    2.25312   2.25803   2.26118   2.26515   2.27154
 Alpha virt. eigenvalues --    2.27628   2.27938   2.28494   2.29283   2.30162
 Alpha virt. eigenvalues --    2.30878   2.31181   2.31394   2.32769   2.33116
 Alpha virt. eigenvalues --    2.34086   2.34333   2.34742   2.35223   2.35640
 Alpha virt. eigenvalues --    2.35998   2.36164   2.37376   2.37518   2.37817
 Alpha virt. eigenvalues --    2.38948   2.39186   2.39504   2.39716   2.40493
 Alpha virt. eigenvalues --    2.41037   2.41841   2.42371   2.43223   2.44182
 Alpha virt. eigenvalues --    2.44609   2.45163   2.45515   2.46061   2.46883
 Alpha virt. eigenvalues --    2.47220   2.47492   2.48313   2.49035   2.49404
 Alpha virt. eigenvalues --    2.49686   2.50096   2.50888   2.51562   2.52123
 Alpha virt. eigenvalues --    2.52606   2.52808   2.53134   2.53781   2.54075
 Alpha virt. eigenvalues --    2.55226   2.55402   2.56114   2.56394   2.56576
 Alpha virt. eigenvalues --    2.57440   2.58012   2.58706   2.59112   2.59731
 Alpha virt. eigenvalues --    2.60271   2.60623   2.60806   2.61224   2.61598
 Alpha virt. eigenvalues --    2.61843   2.62535   2.63192   2.63540   2.63921
 Alpha virt. eigenvalues --    2.64113   2.64691   2.65195   2.65608   2.66036
 Alpha virt. eigenvalues --    2.66355   2.67013   2.67100   2.67470   2.67817
 Alpha virt. eigenvalues --    2.68375   2.68590   2.69157   2.69593   2.69655
 Alpha virt. eigenvalues --    2.70141   2.70342   2.70557   2.71201   2.71549
 Alpha virt. eigenvalues --    2.72371   2.72825   2.73374   2.73605   2.74342
 Alpha virt. eigenvalues --    2.74927   2.75202   2.75567   2.76312   2.76787
 Alpha virt. eigenvalues --    2.76889   2.77168   2.77538   2.78009   2.78139
 Alpha virt. eigenvalues --    2.79039   2.79547   2.79877   2.80501   2.80688
 Alpha virt. eigenvalues --    2.81082   2.81969   2.82316   2.82570   2.83087
 Alpha virt. eigenvalues --    2.83509   2.83554   2.84115   2.84325   2.85430
 Alpha virt. eigenvalues --    2.85691   2.85916   2.86415   2.86792   2.86871
 Alpha virt. eigenvalues --    2.87947   2.88212   2.88353   2.88928   2.88982
 Alpha virt. eigenvalues --    2.89576   2.89701   2.90034   2.90338   2.91067
 Alpha virt. eigenvalues --    2.91364   2.91732   2.91877   2.92227   2.92438
 Alpha virt. eigenvalues --    2.92757   2.92846   2.93161   2.94242   2.94813
 Alpha virt. eigenvalues --    2.95337   2.95518   2.95553   2.95966   2.96364
 Alpha virt. eigenvalues --    2.96873   2.97470   2.97852   2.98546   2.98847
 Alpha virt. eigenvalues --    2.99604   3.00003   3.00289   3.00960   3.01642
 Alpha virt. eigenvalues --    3.01732   3.01952   3.02380   3.02574   3.03153
 Alpha virt. eigenvalues --    3.03204   3.03799   3.04023   3.04410   3.05019
 Alpha virt. eigenvalues --    3.05789   3.05983   3.06084   3.06296   3.07177
 Alpha virt. eigenvalues --    3.07695   3.08088   3.08414   3.08579   3.08941
 Alpha virt. eigenvalues --    3.09299   3.09896   3.10097   3.10690   3.11407
 Alpha virt. eigenvalues --    3.11721   3.11967   3.12328   3.12596   3.12802
 Alpha virt. eigenvalues --    3.13160   3.13558   3.13796   3.14096   3.14458
 Alpha virt. eigenvalues --    3.14850   3.15256   3.15535   3.15651   3.16059
 Alpha virt. eigenvalues --    3.16524   3.16857   3.17068   3.17482   3.17661
 Alpha virt. eigenvalues --    3.17920   3.18553   3.19326   3.19897   3.19981
 Alpha virt. eigenvalues --    3.20431   3.20996   3.21084   3.21298   3.21984
 Alpha virt. eigenvalues --    3.22386   3.22466   3.23253   3.23340   3.23905
 Alpha virt. eigenvalues --    3.24862   3.25445   3.25739   3.26282   3.26548
 Alpha virt. eigenvalues --    3.26995   3.27406   3.27539   3.28357   3.28661
 Alpha virt. eigenvalues --    3.28881   3.29293   3.29618   3.29848   3.30514
 Alpha virt. eigenvalues --    3.30887   3.31121   3.31720   3.32090   3.32446
 Alpha virt. eigenvalues --    3.32712   3.33035   3.33466   3.33533   3.34029
 Alpha virt. eigenvalues --    3.34201   3.35037   3.35188   3.35546   3.35858
 Alpha virt. eigenvalues --    3.35940   3.36574   3.37181   3.37656   3.37851
 Alpha virt. eigenvalues --    3.38296   3.39055   3.39899   3.40387   3.40701
 Alpha virt. eigenvalues --    3.41274   3.41742   3.42284   3.42599   3.42885
 Alpha virt. eigenvalues --    3.43695   3.44183   3.44636   3.44991   3.45312
 Alpha virt. eigenvalues --    3.46060   3.46166   3.47243   3.47878   3.48626
 Alpha virt. eigenvalues --    3.49410   3.49581   3.50202   3.50562   3.50951
 Alpha virt. eigenvalues --    3.51177   3.51722   3.52517   3.52948   3.53706
 Alpha virt. eigenvalues --    3.54002   3.55232   3.55479   3.56023   3.57768
 Alpha virt. eigenvalues --    3.58287   3.59604   3.59813   3.60360   3.60971
 Alpha virt. eigenvalues --    3.62036   3.62864   3.63152   3.63874   3.64326
 Alpha virt. eigenvalues --    3.64985   3.67035   3.67078   3.67800   3.67957
 Alpha virt. eigenvalues --    3.68570   3.70126   3.70517   3.70922   3.71530
 Alpha virt. eigenvalues --    3.71973   3.73454   3.73880   3.74226   3.74591
 Alpha virt. eigenvalues --    3.75262   3.76124   3.77220   3.77860   3.78216
 Alpha virt. eigenvalues --    3.78849   3.79482   3.79529   3.80870   3.81615
 Alpha virt. eigenvalues --    3.82187   3.82746   3.83539   3.84189   3.84268
 Alpha virt. eigenvalues --    3.85526   3.86847   3.87708   3.88352   3.89028
 Alpha virt. eigenvalues --    3.89538   3.89831   3.90884   3.91122   3.91883
 Alpha virt. eigenvalues --    3.93127   3.93824   3.94396   3.95121   3.95130
 Alpha virt. eigenvalues --    3.96038   3.97715   3.99319   4.00152   4.00311
 Alpha virt. eigenvalues --    4.00777   4.02137   4.02446   4.03075   4.03978
 Alpha virt. eigenvalues --    4.04253   4.04903   4.05500   4.06441   4.06945
 Alpha virt. eigenvalues --    4.07732   4.07841   4.08812   4.09167   4.09962
 Alpha virt. eigenvalues --    4.11096   4.11434   4.11833   4.12628   4.13332
 Alpha virt. eigenvalues --    4.13961   4.14095   4.14926   4.16034   4.17098
 Alpha virt. eigenvalues --    4.18268   4.18592   4.19312   4.19759   4.21301
 Alpha virt. eigenvalues --    4.21648   4.22294   4.22978   4.23365   4.23834
 Alpha virt. eigenvalues --    4.24444   4.25643   4.26445   4.26716   4.28670
 Alpha virt. eigenvalues --    4.29190   4.30109   4.30646   4.31953   4.31994
 Alpha virt. eigenvalues --    4.32783   4.34326   4.35658   4.37526   4.38344
 Alpha virt. eigenvalues --    4.39071   4.39822   4.40313   4.41156   4.41995
 Alpha virt. eigenvalues --    4.42325   4.45403   4.46973   4.48249   4.49926
 Alpha virt. eigenvalues --    4.50197   4.50531   4.51232   4.51673   4.52193
 Alpha virt. eigenvalues --    4.52829   4.53438   4.53734   4.55170   4.56154
 Alpha virt. eigenvalues --    4.57012   4.57268   4.57864   4.58614   4.59281
 Alpha virt. eigenvalues --    4.59591   4.61277   4.61708   4.61895   4.62830
 Alpha virt. eigenvalues --    4.63792   4.64233   4.64798   4.66186   4.67830
 Alpha virt. eigenvalues --    4.67992   4.68379   4.68601   4.68956   4.70121
 Alpha virt. eigenvalues --    4.71260   4.73611   4.74148   4.74428   4.74989
 Alpha virt. eigenvalues --    4.75475   4.77096   4.78175   4.78483   4.79438
 Alpha virt. eigenvalues --    4.80729   4.81377   4.82814   4.83746   4.85607
 Alpha virt. eigenvalues --    4.86635   4.87165   4.88192   4.88395   4.89469
 Alpha virt. eigenvalues --    4.89915   4.90752   4.90872   4.92111   4.92691
 Alpha virt. eigenvalues --    4.93549   4.94014   4.95050   4.96373   4.97022
 Alpha virt. eigenvalues --    4.97324   4.98270   4.98841   4.99428   4.99975
 Alpha virt. eigenvalues --    5.00464   5.01308   5.01581   5.02363   5.02641
 Alpha virt. eigenvalues --    5.02957   5.03291   5.04677   5.05077   5.05978
 Alpha virt. eigenvalues --    5.06769   5.07393   5.08245   5.08635   5.09092
 Alpha virt. eigenvalues --    5.09832   5.11287   5.11755   5.13138   5.13495
 Alpha virt. eigenvalues --    5.13630   5.14295   5.14830   5.15539   5.15579
 Alpha virt. eigenvalues --    5.16742   5.17012   5.17272   5.18620   5.19334
 Alpha virt. eigenvalues --    5.20031   5.20362   5.20895   5.22112   5.22647
 Alpha virt. eigenvalues --    5.22911   5.24040   5.25219   5.25340   5.25467
 Alpha virt. eigenvalues --    5.26187   5.26263   5.26926   5.28114   5.28603
 Alpha virt. eigenvalues --    5.28628   5.28886   5.30107   5.32551   5.33254
 Alpha virt. eigenvalues --    5.34000   5.35374   5.35774   5.36269   5.36596
 Alpha virt. eigenvalues --    5.38000   5.38182   5.39162   5.41483   5.43368
 Alpha virt. eigenvalues --    5.45591   5.49507   5.49828   5.50169   5.51787
 Alpha virt. eigenvalues --    5.53448   5.54579   5.55206   5.55832   5.55959
 Alpha virt. eigenvalues --    5.58086   5.58566   5.59134   5.60808   5.61720
 Alpha virt. eigenvalues --    5.62309   5.63235   5.63407   5.64033   5.65739
 Alpha virt. eigenvalues --    5.67168   5.68271   5.68750   5.69891   5.71181
 Alpha virt. eigenvalues --    5.73259   5.75300   5.77516   5.79792   5.79895
 Alpha virt. eigenvalues --    5.81302   5.81558   5.82218   5.84671   5.87106
 Alpha virt. eigenvalues --    5.87884   5.91964   5.92820   5.93733   5.95303
 Alpha virt. eigenvalues --    5.95572   5.96460   5.97302   6.01801   6.08640
 Alpha virt. eigenvalues --    6.11418   6.16635   6.19475   6.19743   6.23553
 Alpha virt. eigenvalues --    6.29867   6.32615   6.35045   6.37757   6.38280
 Alpha virt. eigenvalues --    6.47919   6.51244   6.54832   6.55547   6.55912
 Alpha virt. eigenvalues --    6.58248   6.61205   6.62912   6.65386   6.67514
 Alpha virt. eigenvalues --    6.70581   6.70855   6.72982   6.75082   6.76412
 Alpha virt. eigenvalues --    6.78866   6.82932   6.85595   6.94553   6.96815
 Alpha virt. eigenvalues --    6.98917   6.99670   7.00365   7.02862   7.03582
 Alpha virt. eigenvalues --    7.06862   7.07430   7.12967  22.38477  22.43900
 Alpha virt. eigenvalues --   22.54349  22.56407  22.64387  22.71954  22.73068
 Alpha virt. eigenvalues --   22.76288  22.77663  22.79937  22.82071  22.84312
 Alpha virt. eigenvalues --   22.93880  22.97084  22.98352  22.99371  23.00735
 Alpha virt. eigenvalues --   23.14706  23.16679  23.19052  23.25959  23.31830
 Alpha virt. eigenvalues --   23.40345  23.51444  32.00980  32.02135  32.09327
 Alpha virt. eigenvalues --   32.40915  32.57232  32.64052  32.73995  32.88492
 Alpha virt. eigenvalues --   32.94207  44.01338  44.02065  44.04218  44.05058
 Alpha virt. eigenvalues --   44.07203  44.25499
          Condensed to atoms (all electrons):
 Mulliken charges:
               1
     1  C   -0.074332
     2  H    0.142634
     3  O   -0.304554
     4  C    0.006062
     5  H    0.180533
     6  O   -0.512057
     7  H    0.351864
     8  C    0.004945
     9  H    0.170177
    10  O   -0.464663
    11  H    0.365655
    12  C    0.050671
    13  H    0.146787
    14  N    0.043265
    15  C   -0.017375
    16  H    0.171710
    17  C    0.048785
    18  C   -0.139203
    19  H    0.256963
    20  H    0.055529
    21  C   -0.173349
    22  H    0.190864
    23  C    0.041658
    24  H    0.202586
    25  C    0.364682
    26  O   -0.348371
    27  N   -0.492330
    28  H    0.255222
    29  H    0.297943
    30  N   -0.384135
    31  C    0.454949
    32  N   -0.543912
    33  H    0.288281
    34  H    0.272918
    35  N   -0.317840
    36  H    0.265124
    37  C    0.263364
    38  O   -0.465176
    39  C   -0.015623
    40  N   -0.370710
    41  H    0.255411
    42  C    0.007458
    43  C   -0.232588
    44  H    0.166062
    45  H    0.174193
    46  N   -0.382946
    47  H    0.252684
    48  C    0.322504
    49  C   -0.246831
    50  H    0.138479
    51  H    0.211300
    52  N   -0.414144
    53  H    0.237281
    54  C    0.096592
    55  C   -0.185687
    56  H    0.172516
    57  C   -0.195377
    58  H    0.145625
    59  C    0.281392
    60  C   -0.167007
    61  H    0.116811
    62  C   -0.186090
    63  H    0.104197
    64  C    0.322841
    65  O   -0.442038
    66  N   -0.526873
    67  H    0.248139
    68  H    0.161955
    69  H    0.294602
 Sum of Mulliken charges =   1.00000
 Mulliken charges with hydrogens summed into heavy atoms:
               1
     1  C    0.230257
     3  O   -0.304554
     4  C    0.186595
     6  O   -0.160193
     8  C    0.175123
    10  O   -0.099007
    12  C    0.197457
    14  N    0.043265
    15  C    0.154335
    17  C    0.048785
    18  C    0.117759
    21  C    0.017515
    23  C    0.244244
    25  C    0.364682
    26  O   -0.348371
    27  N    0.060835
    30  N   -0.384135
    31  C    0.454949
    32  N    0.017288
    35  N   -0.052716
    37  C    0.263364
    38  O   -0.465176
    39  C   -0.015623
    40  N   -0.115299
    42  C    0.062987
    43  C    0.107668
    46  N   -0.130262
    48  C    0.322504
    49  C    0.102947
    52  N   -0.176863
    54  C    0.096592
    55  C   -0.013171
    57  C   -0.049752
    59  C    0.281392
    60  C   -0.050197
    62  C   -0.081894
    64  C    0.322841
    65  O   -0.442038
    66  N    0.015868
 Electronic spatial extent (au):  <R**2>=          27882.2597
 Charge=              1.0000 electrons
 Dipole moment (field-independent basis, Debye):
    X=             -7.7189    Y=             -8.4539    Z=             23.2736  Tot=             25.9367
 Quadrupole moment (field-independent basis, Debye-Ang):
   XX=           -136.6255   YY=           -224.7679   ZZ=           -110.8169
   XY=             -3.7497   XZ=            -87.5124   YZ=             67.2782
 Traceless Quadrupole moment (field-independent basis, Debye-Ang):
   XX=             20.7779   YY=            -67.3645   ZZ=             46.5865
   XY=             -3.7497   XZ=            -87.5124   YZ=             67.2782
 Octapole moment (field-independent basis, Debye-Ang**2):
  XXX=            676.8990  YYY=           -106.1529  ZZZ=            855.3139  XYY=            235.1878
  XXY=           -115.7300  XXZ=            325.8316  XZZ=            -32.3576  YZZ=           -111.5485
  YYZ=            191.4833  XYZ=           -103.9526
 Hexadecapole moment (field-independent basis, Debye-Ang**3):
 XXXX=          -6595.8794 YYYY=          -5129.4866 ZZZZ=         -15898.7496 XXXY=           1279.9467
 XXXZ=           -600.0520 YYYX=           1849.4184 YYYZ=           1527.2426 ZZZX=          -2061.0295
 ZZZY=           3990.3070 XXYY=          -2061.6170 XXZZ=          -3239.0944 YYZZ=          -5303.9836
 XXYZ=           1086.8786 YYXZ=           -172.3553 ZZXY=            516.7381
 N-N= 4.397250781997D+03 E-N=-1.314632096643D+04  KE= 1.867646154425D+03
 No NMR shielding tensors so no spin-rotation constants.
 Leave Link  601 at Sat Jun 22 17:55:27 2024, MaxMem=  2684354560 cpu:              10.3 elap:               0.8
 (Enter /storage/apps/GAUSSIAN/G16_RevA03/g16/l602.exe)

 **********************************************************************

            Electrostatic Properties Using The SCF Density

 **********************************************************************

       Atomic Center    1 is at  -4.183152  0.409809  6.765297
       Atomic Center    2 is at  -4.012721  0.463743  7.772485
       Atomic Center    3 is at  -2.996128 -0.184296  6.133912
       Atomic Center    4 is at  -4.301665  1.802565  6.145204
       Atomic Center    5 is at  -5.261579  2.165901  6.129588
       Atomic Center    6 is at  -3.448282  2.762616  6.811797
       Atomic Center    7 is at  -3.637765  2.850918  7.769821
       Atomic Center    8 is at  -3.691239  1.617109  4.741723
       Atomic Center    9 is at  -4.355565  1.203952  4.079281
       Atomic Center   10 is at  -3.213080  2.847276  4.212362
       Atomic Center   11 is at  -3.018445  3.421054  4.978845
       Atomic Center   12 is at  -2.519077  0.645303  5.059197
       Atomic Center   13 is at  -1.691359  1.171774  5.364200
       Atomic Center   14 is at  -2.084169 -0.265964  3.968374
       Atomic Center   15 is at  -0.751667 -0.305806  3.655471
       Atomic Center   16 is at  -0.179246  0.406946  4.102985
       Atomic Center   17 is at  -0.245759 -1.243967  2.810900
       Atomic Center   18 is at  -1.151556 -2.139889  2.180955
       Atomic Center   19 is at  -0.783001 -2.870484  1.573402
       Atomic Center   20 is at  -0.958899 -0.913134  0.229871
       Atomic Center   21 is at  -2.493130 -2.051585  2.472339
       Atomic Center   22 is at  -3.155426 -2.692768  2.038746
       Atomic Center   23 is at  -2.954104 -1.141110  3.373785
       Atomic Center   24 is at  -3.933924 -1.080349  3.647262
       Atomic Center   25 is at   1.236658 -1.450740  2.594537
       Atomic Center   26 is at   1.628367 -2.418194  1.916390
       Atomic Center   27 is at   2.136096 -0.603009  3.182216
       Atomic Center   28 is at   1.859138  0.116905  3.846085
       Atomic Center   29 is at   3.114477 -0.897533  3.200571
       Atomic Center   30 is at   2.149644 -3.099536 -1.965126
       Atomic Center   31 is at   3.277926 -2.436485 -2.295598
       Atomic Center   32 is at   4.405857 -3.120274 -2.638487
       Atomic Center   33 is at   4.425826 -4.132910 -2.587124
       Atomic Center   34 is at   5.261579 -2.605588 -2.898189
       Atomic Center   35 is at   3.344700 -1.061238 -2.308310
       Atomic Center   36 is at   4.273120 -0.610232 -2.429102
       Atomic Center   37 is at   2.248404 -0.261433 -2.016217
       Atomic Center   38 is at   2.408110  1.012418 -1.970850
       Atomic Center   39 is at   1.033624 -0.953073 -1.743434
       Atomic Center   40 is at  -0.166827 -0.213407 -1.525243
       Atomic Center   41 is at   0.016926  0.759789 -1.275966
       Atomic Center   42 is at  -1.222672 -0.874742 -0.765006
       Atomic Center   43 is at  -1.386395 -2.319407 -1.286804
       Atomic Center   44 is at  -2.043356 -2.825155 -0.691083
       Atomic Center   45 is at  -1.781447 -2.294774 -2.232537
       Atomic Center   46 is at  -0.098684 -3.007432 -1.278577
       Atomic Center   47 is at  -0.097171 -4.019773 -1.361393
       Atomic Center   48 is at   1.036746 -2.332818 -1.683617
       Atomic Center   49 is at  -2.600755 -0.110215 -0.861399
       Atomic Center   50 is at  -3.006683 -0.054356  0.073950
       Atomic Center   51 is at  -3.244723 -0.653833 -1.441959
       Atomic Center   52 is at  -2.507591  1.252467 -1.383044
       Atomic Center   53 is at  -2.764730  1.997097 -0.739646
       Atomic Center   54 is at  -2.244409  2.149321 -5.471173
       Atomic Center   55 is at  -2.430436  3.167417 -4.505401
       Atomic Center   56 is at  -2.483395  4.132910 -4.825454
       Atomic Center   57 is at  -2.515059  2.881249 -3.181582
       Atomic Center   58 is at  -2.637035  3.630776 -2.501918
       Atomic Center   59 is at  -2.429938  1.538556 -2.728542
       Atomic Center   60 is at  -2.256064  0.513143 -3.692826
       Atomic Center   61 is at  -2.191718 -0.459896 -3.399576
       Atomic Center   62 is at  -2.161822  0.816242 -5.010875
       Atomic Center   63 is at  -2.039316  0.054394 -5.676254
       Atomic Center   64 is at  -2.136551  2.492518 -6.883585
       Atomic Center   65 is at  -2.405937  3.672563 -7.314748
       Atomic Center   66 is at  -1.733535  1.534106 -7.772485
       Atomic Center   67 is at  -1.558342  0.580147 -7.475791
       Atomic Center   68 is at  -5.046003 -0.227229  6.570950
       Atomic Center   69 is at  -1.648300  1.695547 -8.847088
 -----------------------------------------------------------------

              Electrostatic Properties (Atomic Units)

 -----------------------------------------------------------------
    Center     Electric         -------- Electric Field --------
               Potential          X             Y             Z
 -----------------------------------------------------------------
    1 Atom    -14.575833     -0.006378      0.007876     -0.004487
    2 Atom     -0.974046      0.013190      0.001421      0.072360
    3 Atom    -22.189237      0.015919     -0.030373      0.010708
    4 Atom    -14.562882     -0.000075     -0.011631     -0.004822
    5 Atom     -0.973551     -0.067421      0.022935     -0.004338
    6 Atom    -22.201113      0.026309      0.016652     -0.023070
    7 Atom     -0.845663     -0.005336     -0.000481      0.006028
    8 Atom    -14.554097      0.003440     -0.001514      0.011794
    9 Atom     -0.953928     -0.048784     -0.028426     -0.046049
   10 Atom    -22.217816      0.002262      0.005926     -0.039697
   11 Atom     -0.867487      0.004203      0.011439      0.012174
   12 Atom    -14.506730     -0.010771      0.010266      0.002038
   13 Atom     -0.942944      0.056624      0.036498      0.018234
   14 Atom    -18.107606     -0.000401      0.000045      0.000301
   15 Atom    -14.528359     -0.000917     -0.008695     -0.005353
   16 Atom     -0.897430      0.040037      0.050247      0.035011
   17 Atom    -14.566139     -0.001952     -0.003160     -0.002144
   18 Atom    -14.572442      0.000114      0.008131      0.006942
   19 Atom     -0.939729      0.029545     -0.052221     -0.046324
   20 Atom     -1.029006      0.018487     -0.005137      0.068933
   21 Atom    -14.586213      0.006476      0.005315      0.002814
   22 Atom     -0.930467     -0.048246     -0.046055     -0.030947
   23 Atom    -14.528477      0.007930     -0.003354     -0.004749
   24 Atom     -0.900881     -0.069263      0.004781      0.021845
   25 Atom    -14.509866      0.004970     -0.012835     -0.007683
   26 Atom    -22.257566      0.008586     -0.022812     -0.016358
   27 Atom    -18.224686     -0.003736     -0.000305     -0.009895
   28 Atom     -0.873913     -0.000468      0.008980      0.006854
   29 Atom     -0.880875      0.010946     -0.003500     -0.003561
   30 Atom    -18.321749      0.000832     -0.025856     -0.000194
   31 Atom    -14.551285     -0.013168     -0.003958      0.004095
   32 Atom    -18.266445     -0.004550      0.002913     -0.000807
   33 Atom     -0.921291     -0.001837     -0.014202      0.001040
   34 Atom     -0.913214     -0.000131     -0.004036     -0.000279
   35 Atom    -18.249806     -0.005041     -0.002157     -0.000544
   36 Atom     -0.905992     -0.005447      0.006706     -0.000979
   37 Atom    -14.590955     -0.007717      0.016177      0.004099
   38 Atom    -22.339453      0.002444      0.026053      0.000316
   39 Atom    -14.666405      0.004351     -0.005068      0.000155
   40 Atom    -18.301112     -0.007638     -0.001835     -0.020110
   41 Atom     -0.971367      0.002369      0.015905      0.001611
   42 Atom    -14.631501     -0.006224     -0.001679     -0.005229
   43 Atom    -14.643146      0.003523      0.010773      0.000781
   44 Atom     -1.010910     -0.049208     -0.039599      0.046862
   45 Atom     -1.028915     -0.028323      0.004012     -0.069619
   46 Atom    -18.277448      0.003916      0.005670      0.010234
   47 Atom     -0.940179      0.004107     -0.015593     -0.003591
   48 Atom    -14.607887      0.005085      0.009556     -0.001770
   49 Atom    -14.640739      0.009818     -0.002242     -0.004360
   50 Atom     -1.010185     -0.029632      0.004679      0.070205
   51 Atom     -1.024517     -0.048039     -0.040656     -0.044906
   52 Atom    -18.280220      0.007839     -0.003086     -0.002331
   53 Atom     -0.943690     -0.003029      0.011349      0.004528
   54 Atom    -14.710692     -0.000333     -0.002379      0.008297
   55 Atom    -14.721277      0.001473     -0.011788     -0.001303
   56 Atom     -1.072032     -0.004425      0.069786     -0.025133
   57 Atom    -14.720188      0.001681     -0.011256     -0.007458
   58 Atom     -1.052089     -0.008735      0.054309      0.049261
   59 Atom    -14.649439      0.000379      0.003051     -0.014186
   60 Atom    -14.717671     -0.000154      0.012383     -0.000925
   61 Atom     -1.049520      0.005856     -0.068069      0.021301
   62 Atom    -14.712046     -0.001831      0.014513      0.005522
   63 Atom     -1.048632      0.008255     -0.055274     -0.046335
   64 Atom    -14.618675     -0.005048      0.018236     -0.003384
   65 Atom    -22.367275     -0.005234      0.022438     -0.007391
   66 Atom    -18.313132      0.000381      0.006572     -0.000571
   67 Atom     -0.971209      0.003973     -0.012298      0.004278
   68 Atom     -0.967629     -0.014755     -0.010304     -0.005590
   69 Atom     -0.952645     -0.006820      0.004301      0.042109
 -----------------------------------------------------------------
 Leave Link  602 at Sat Jun 22 17:55:28 2024, MaxMem=  2684354560 cpu:               3.7 elap:               0.3
 (Enter /storage/apps/GAUSSIAN/G16_RevA03/g16/l701.exe)
[...]
     Eigenvalues ---    1.43154   1.45078   1.51601   1.55068   1.55946
     Eigenvalues ---    1.59219   1.59873   1.61560   1.62016   1.73901
     Eigenvalues ---    1.76570   1.77650   1.78016   1.86881   1.92075
     Eigenvalues ---    2.07528
 Quadratic step=6.172D+00 exceeds max=3.000D-01 adjusted using Lamda=-3.845D-01.
 Angle between NR and scaled steps=  83.13 degrees.
 Angle between quadratic step and forces=  22.47 degrees.
 Linear search not attempted -- first point.
 Variable       Old X    -DE/DX   Delta X   Delta X   Delta X     New X
                                 (Linear)    (Quad)   (Total)
    X1       -7.90501   0.00868   0.00000   0.01270   0.01270  -7.89231
    Y1        0.77443   0.00072   0.00000  -0.00160  -0.00160   0.77283
    Z1       12.78456  -0.06223   0.00000  -0.03656  -0.03656  12.74800
    X2       -7.58294   0.00956   0.00000   0.01322   0.01322  -7.56972
    Y2        0.87635   0.00071   0.00000  -0.00342  -0.00342   0.87292
    Z2       14.68787   0.05153   0.00000   0.04411   0.04411  14.73198
    X3       -5.66186  -0.00267   0.00000  -0.00969  -0.00969  -5.67155
    Y3       -0.34827   0.01173   0.00000  -0.00106  -0.00106  -0.34933
    Z3       11.59141  -0.01272   0.00000  -0.01514  -0.01514  11.57628
    X4       -8.12897   0.04992   0.00000   0.02678   0.02678  -8.10219
    Y4        3.40635  -0.01416   0.00000  -0.00451  -0.00451   3.40184
    Z4       11.61275   0.01447   0.00000   0.01284   0.01284  11.62559
    X5       -9.94294  -0.04770   0.00000  -0.04562  -0.04562  -9.98856
    Y5        4.09296   0.01534   0.00000   0.01219   0.01219   4.10515
    Z5       11.58324  -0.00396   0.00000  -0.00627  -0.00627  11.57697
    X6       -6.51631  -0.00472   0.00000   0.00455   0.00455  -6.51175
    Y6        5.22059  -0.01160   0.00000  -0.01733  -0.01733   5.20326
    Z6       12.87243   0.00193   0.00000  -0.00087  -0.00087  12.87156
    X7       -6.87438  -0.00136   0.00000  -0.00778  -0.00778  -6.88216
    Y7        5.38745  -0.00358   0.00000  -0.00738  -0.00738   5.38007
    Z7       14.68283  -0.01866   0.00000  -0.02360  -0.02360  14.65923
    X8       -6.97543   0.05271   0.00000   0.03081   0.03081  -6.94463
    Y8        3.05589   0.04354   0.00000   0.02618   0.02618   3.08208
    Z8        8.96056   0.03634   0.00000   0.02707   0.02707   8.98763
    X9       -8.23083  -0.03485   0.00000  -0.02917  -0.02917  -8.25999
    Y9        2.27514  -0.02048   0.00000  -0.01160  -0.01160   2.26354
    Z9        7.70872  -0.03244   0.00000  -0.02182  -0.02182   7.68690
   X10       -6.07184  -0.00587   0.00000  -0.00114  -0.00114  -6.07298
   Y10        5.38057  -0.01422   0.00000  -0.01123  -0.01123   5.36934
   Z10        7.96021   0.00705   0.00000   0.00508   0.00508   7.96530
   X11       -5.70403  -0.00088   0.00000   0.00045   0.00045  -5.70358
   Y11        6.46486  -0.00414   0.00000  -0.00365  -0.00365   6.46120
   Z11        9.40865  -0.00732   0.00000  -0.01114  -0.01114   9.39751
   X12       -4.76037  -0.06238   0.00000  -0.03694  -0.03694  -4.79731
   Y12        1.21945  -0.03651   0.00000  -0.02137  -0.02137   1.19808
   Z12        9.56050   0.00973   0.00000   0.01265   0.01265   9.57315
   X13       -3.19620   0.04005   0.00000   0.03407   0.03407  -3.16214
   Y13        2.21433   0.02565   0.00000   0.01898   0.01898   2.23331
   Z13       10.13687   0.01144   0.00000   0.01018   0.01018  10.14705
   X14       -3.93851   0.00326   0.00000  -0.00471  -0.00471  -3.94322
   Y14       -0.50260  -0.00916   0.00000  -0.00066  -0.00066  -0.50326
   Z14        7.49914  -0.01195   0.00000  -0.00232  -0.00232   7.49682
   X15       -1.42044  -0.04869   0.00000  -0.02797  -0.02797  -1.44841
   Y15       -0.57789  -0.02828   0.00000  -0.01331  -0.01331  -0.59120
   Z15        6.90784  -0.01170   0.00000  -0.00134  -0.00134   6.90650
   X16       -0.33873   0.02819   0.00000   0.02168   0.02168  -0.31705
   Y16        0.76902   0.03574   0.00000   0.03333   0.03333   0.80234
   Z16        7.75352   0.02608   0.00000   0.03105   0.03105   7.78457
   X17       -0.46442  -0.00228   0.00000   0.00392   0.00392  -0.46050
   Y17       -2.35076  -0.01719   0.00000  -0.01060  -0.01060  -2.36136
   Z17        5.31183  -0.01337   0.00000  -0.00432  -0.00432   5.30751
   X18       -2.17613   0.00471   0.00000   0.01639   0.01639  -2.15974
   Y18       -4.04380   0.04703   0.00000   0.02124   0.02124  -4.02257
   Z18        4.12141   0.04160   0.00000   0.02266   0.02266   4.14407
   X19       -1.47966   0.02191   0.00000   0.02813   0.02813  -1.45152
   Y19       -5.42443  -0.03683   0.00000  -0.03195  -0.03195  -5.45638
   Z19        2.97330  -0.03424   0.00000  -0.03472  -0.03472   2.93858
   X20       -1.81206   0.01320   0.00000   0.01433   0.01433  -1.79772
   Y20       -1.72557  -0.00452   0.00000  -0.00441  -0.00441  -1.72998
   Z20        0.43439   0.04877   0.00000   0.04409   0.04409   0.47848
   X21       -4.71133   0.02548   0.00000   0.01468   0.01468  -4.69665
   Y21       -3.87693   0.02252   0.00000   0.01438   0.01438  -3.86256
   Z21        4.67204   0.01414   0.00000   0.00913   0.00913   4.68117
   X22       -5.96289  -0.03460   0.00000  -0.03449  -0.03449  -5.99738
   Y22       -5.08859  -0.03264   0.00000  -0.03098  -0.03098  -5.11957
   Z22        3.85267  -0.02194   0.00000  -0.02147  -0.02147   3.83120
   X23       -5.58245   0.06015   0.00000   0.02837   0.02837  -5.55408
   Y23       -2.15639   0.02123   0.00000   0.02034   0.02034  -2.13604
   Z23        6.37553   0.00562   0.00000   0.01078   0.01078   6.38631
   X24       -7.43404  -0.04885   0.00000  -0.04500  -0.04500  -7.47904
   Y24       -2.04156   0.00414   0.00000   0.00936   0.00936  -2.03221
   Z24        6.89233   0.01656   0.00000   0.02256   0.02256   6.91488
   X25        2.33694   0.03823   0.00000   0.01740   0.01740   2.35434
   Y25       -2.74150  -0.03664   0.00000  -0.01344  -0.01344  -2.75494
   Z25        4.90296  -0.02465   0.00000  -0.00403  -0.00403   4.89893
   X26        3.07717  -0.02656   0.00000  -0.02784  -0.02784   3.04932
   Y26       -4.56972   0.04118   0.00000   0.02140   0.02140  -4.54832
   Z26        3.62145   0.02791   0.00000   0.01324   0.01324   3.63469
   X27        4.03664  -0.01360   0.00000  -0.01544  -0.01544   4.02120
   Y27       -1.13952  -0.00035   0.00000  -0.00695  -0.00695  -1.14647
   Z27        6.01352   0.00644   0.00000   0.00521   0.00521   6.01872
   X28        3.51326   0.00515   0.00000   0.00310   0.00310   3.51636
   Y28        0.22092  -0.00790   0.00000  -0.00954  -0.00954   0.21138
   Z28        7.26805  -0.00793   0.00000  -0.00855  -0.00855   7.25949
   X29        5.88551  -0.01154   0.00000  -0.02048  -0.02048   5.86503
   Y29       -1.69609   0.00302   0.00000   0.00542   0.00542  -1.69068
   Z29        6.04820  -0.00390   0.00000  -0.00847  -0.00847   6.03973
   X30        4.06224   0.02506   0.00000   0.01501   0.01501   4.07725
   Y30       -5.85727   0.02578   0.00000   0.02048   0.02048  -5.83680
   Z30       -3.71355  -0.00972   0.00000  -0.00915  -0.00915  -3.72270
   X31        6.19438  -0.03439   0.00000  -0.02273  -0.02273   6.17166
   Y31       -4.60429  -0.01289   0.00000  -0.00505  -0.00505  -4.60934
   Z31       -4.33805   0.01060   0.00000   0.00746   0.00746  -4.33059
   X32        8.32586   0.00906   0.00000  -0.01034  -0.01034   8.31553
   Y32       -5.89646   0.01384   0.00000   0.01284   0.01284  -5.88362
   Z32       -4.98602  -0.00123   0.00000   0.00459   0.00459  -4.98142
   X33        8.36360  -0.00256   0.00000  -0.00751  -0.00751   8.35609
   Y33       -7.81007   0.00940   0.00000   0.01806   0.01806  -7.79201
   Z33       -4.88896   0.00007   0.00000   0.00080   0.00080  -4.88815
   X34        9.94294  -0.01895   0.00000  -0.02590  -0.02590   9.91704
   Y34       -4.92385  -0.01468   0.00000  -0.01712  -0.01712  -4.94097
   Z34       -5.47678   0.00561   0.00000   0.00767   0.00767  -5.46911
   X35        6.32057   0.01846   0.00000  -0.00359  -0.00359   6.31698
   Y35       -2.00545  -0.02107   0.00000  -0.01693  -0.01693  -2.02238
   Z35       -4.36207  -0.00128   0.00000   0.00607   0.00607  -4.35600
   X36        8.07503  -0.02504   0.00000  -0.03722  -0.03722   8.03781
   Y36       -1.15317  -0.00332   0.00000  -0.00579  -0.00579  -1.15896
   Z36       -4.59034   0.00161   0.00000   0.00101   0.00101  -4.58933
   X37        4.24887   0.00721   0.00000  -0.00093  -0.00093   4.24794
   Y37       -0.49404   0.07766   0.00000   0.02404   0.02404  -0.47000
   Z37       -3.81010   0.00628   0.00000   0.00848   0.00848  -3.80162
   X38        4.55067  -0.01257   0.00000  -0.01603  -0.01603   4.53464
   Y38        1.91319  -0.07169   0.00000  -0.04920  -0.04920   1.86399
   Z38       -3.72437  -0.00204   0.00000   0.00020   0.00020  -3.72416
   X39        1.95327  -0.01457   0.00000  -0.00660  -0.00660   1.94666
   Y39       -1.80105  -0.00003   0.00000   0.00399   0.00399  -1.79706
   Z39       -3.29461   0.00305   0.00000   0.00353   0.00353  -3.29109
   X40       -0.31526   0.00670   0.00000   0.00713   0.00713  -0.30813
   Y40       -0.40328  -0.00380   0.00000  -0.00227  -0.00227  -0.40555
   Z40       -2.88229   0.00050   0.00000  -0.00739  -0.00739  -2.88968
   X41        0.03198  -0.00172   0.00000  -0.00134  -0.00134   0.03065
   Y41        1.43579  -0.00664   0.00000  -0.00903  -0.00903   1.42677
   Z41       -2.41123  -0.00303   0.00000  -0.00620  -0.00620  -2.41742
   X42       -2.31051  -0.00903   0.00000   0.00772   0.00772  -2.30279
   Y42       -1.65302   0.00839   0.00000   0.01287   0.01287  -1.64015
   Z42       -1.44565  -0.05470   0.00000  -0.03295  -0.03295  -1.47860
   X43       -2.61991   0.06316   0.00000   0.03568   0.03568  -2.58423
   Y43       -4.38304   0.02993   0.00000   0.01880   0.01880  -4.36424
   Z43       -2.43171   0.01449   0.00000   0.00326   0.00326  -2.42844
   X44       -3.86138  -0.03547   0.00000  -0.02762  -0.02762  -3.88900
   Y44       -5.33877  -0.02885   0.00000  -0.02516  -0.02516  -5.36393
   Z44       -1.30596   0.03498   0.00000   0.03965   0.03965  -1.26631
   X45       -3.36645  -0.02043   0.00000  -0.01563  -0.01563  -3.38207
   Y45       -4.33649   0.00395   0.00000   0.00880   0.00880  -4.32769
   Z45       -4.21888  -0.04999   0.00000  -0.05534  -0.05534  -4.27422
   X46       -0.18649   0.00064   0.00000   0.01494   0.01494  -0.17154
   Y46       -5.68322   0.00042   0.00000   0.00590   0.00590  -5.67732
   Z46       -2.41616   0.00111   0.00000   0.00213   0.00213  -2.41403
   X47       -0.18363   0.00398   0.00000   0.00933   0.00933  -0.17430
   Y47       -7.59627   0.00800   0.00000   0.01308   0.01308  -7.58319
   Z47       -2.57266  -0.00215   0.00000  -0.00534  -0.00534  -2.57800
   X48        1.95917   0.01628   0.00000   0.01839   0.01839   1.97755
   Y48       -4.40839  -0.00502   0.00000   0.00187   0.00187  -4.40652
   Z48       -3.18157  -0.00082   0.00000   0.00094   0.00094  -3.18064
   X49       -4.91471   0.06496   0.00000   0.03828   0.03828  -4.87644
   Y49       -0.20828   0.03269   0.00000   0.01771   0.01771  -0.19057
   Z49       -1.62781  -0.02739   0.00000  -0.02023  -0.02023  -1.64803
   X50       -5.68181  -0.02105   0.00000  -0.01086  -0.01086  -5.69266
   Y50       -0.10272   0.00349   0.00000   0.00605   0.00605  -0.09666
   Z50        0.13975   0.05115   0.00000   0.04906   0.04906   0.18881
   X51       -6.13164  -0.03430   0.00000  -0.02911  -0.02911  -6.16075
   Y51       -1.23557  -0.02947   0.00000  -0.02761  -0.02761  -1.26317
   Z51       -2.72491  -0.03306   0.00000  -0.04108  -0.04108  -2.76599
   X52       -4.73866   0.00031   0.00000   0.00747   0.00747  -4.73119
   Y52        2.36682  -0.00657   0.00000  -0.00111  -0.00111   2.36571
   Z52       -2.61358   0.01601   0.00000   0.00678   0.00678  -2.60679
   X53       -5.22458   0.00256   0.00000   0.00272   0.00272  -5.22186
   Y53        3.77397  -0.00580   0.00000  -0.00572  -0.00572   3.76824
   Z53       -1.39773  -0.01046   0.00000  -0.01276  -0.01276  -1.41049
   X54       -4.24132  -0.00009   0.00000  -0.00073  -0.00073  -4.24205
   Y54        4.06163  -0.01269   0.00000  -0.00148  -0.00148   4.06015
   Z54      -10.33902   0.02736   0.00000  -0.00273  -0.00273 -10.34175
   X55       -4.59286   0.00709   0.00000   0.00377   0.00377  -4.58909
   Y55        5.98555  -0.05452   0.00000  -0.03356  -0.03356   5.95199
   Z55       -8.51397  -0.01672   0.00000  -0.01812  -0.01812  -8.53209
   X56       -4.69294  -0.00329   0.00000  -0.00326  -0.00326  -4.69619
   Y56        7.81007   0.04975   0.00000   0.04462   0.04462   7.85468
   Z56       -9.11879  -0.01855   0.00000  -0.02364  -0.02364  -9.14243
   X57       -4.75277   0.00584   0.00000   0.00029   0.00029  -4.75248
   Y57        5.44477  -0.05867   0.00000  -0.03867  -0.03867   5.40610
   Z57       -6.01232  -0.01058   0.00000  -0.00137  -0.00137  -6.01369
   X58       -4.98327  -0.00634   0.00000  -0.00588  -0.00588  -4.98916
   Y58        6.86117   0.03880   0.00000   0.03240   0.03240   6.89357
   Z58       -4.72794   0.03584   0.00000   0.03579   0.03579  -4.69215
   X59       -4.59192  -0.00067   0.00000  -0.00543  -0.00543  -4.59735
   Y59        2.90745   0.00322   0.00000  -0.00025  -0.00025   2.90720
   Z59       -5.15620  -0.01598   0.00000   0.00082   0.00082  -5.15538
   X60       -4.26334  -0.00862   0.00000  -0.01087  -0.01087  -4.27421
   Y60        0.96970   0.05317   0.00000   0.03274   0.03274   1.00244
   Z60       -6.97843   0.01929   0.00000   0.01872   0.01872  -6.95971
   X61       -4.14175   0.00449   0.00000   0.00487   0.00487  -4.13688
   Y61       -0.86908  -0.04852   0.00000  -0.04316  -0.04316  -0.91224
   Z61       -6.42427   0.01593   0.00000   0.02039   0.02039  -6.40388
   X62       -4.08525  -0.00640   0.00000  -0.00744  -0.00744  -4.09269
   Y62        1.54247   0.06131   0.00000   0.03965   0.03965   1.58213
   Z62       -9.46918   0.00659   0.00000  -0.00054  -0.00054  -9.46972
   X63       -3.85375   0.00565   0.00000   0.00385   0.00385  -3.84990
   Y63        0.10279  -0.03982   0.00000  -0.03416  -0.03416   0.06863
   Z63      -10.72657  -0.03312   0.00000  -0.03148  -0.03148 -10.75804
   X64       -4.03750  -0.01444   0.00000  -0.00601  -0.00601  -4.04351
   Y64        4.71018   0.07878   0.00000   0.02679   0.02679   4.73697
   Z64      -13.00809  -0.06019   0.00000  -0.04330  -0.04330 -13.05139
   X65       -4.54656   0.01756   0.00000   0.00960   0.00960  -4.53696
   Y65        6.94014  -0.07340   0.00000  -0.04207  -0.04207   6.89807
   Z65      -13.82287   0.03162   0.00000   0.02032   0.02032 -13.80255
   X66       -3.27591   0.00525   0.00000  -0.00287  -0.00287  -3.27877
   Y66        2.89904  -0.00746   0.00000   0.00217   0.00217   2.90121
   Z66      -14.68787  -0.04029   0.00000  -0.02342  -0.02342 -14.71129
   X67       -2.94484  -0.00008   0.00000   0.00105   0.00105  -2.94379
   Y67        1.09632   0.00992   0.00000   0.01611   0.01611   1.11243
   Z67      -14.12720  -0.00233   0.00000  -0.00703  -0.00703 -14.13423
   X68       -9.53556  -0.00042   0.00000   0.00091   0.00091  -9.53466
   Y68       -0.42940   0.00053   0.00000   0.00355   0.00355  -0.42585
   Z68       12.41730  -0.00252   0.00000  -0.01282  -0.01282  12.40448
   X69       -3.11484  -0.00847   0.00000  -0.01355  -0.01355  -3.12838
   Y69        3.20412   0.00151   0.00000   0.00847   0.00847   3.21259
   Z69      -16.71857   0.06146   0.00000   0.07355   0.07355 -16.64502
         Item               Value     Threshold  Converged?
 Maximum Force            0.078780     0.000450     NO 
 RMS     Force            0.027557     0.000300     NO 
 Maximum Displacement     0.073552     0.001800     NO 
 RMS     Displacement     0.020862     0.001200     NO 
 Predicted change in Energy=-7.229978D-02
 GradGradGradGradGradGradGradGradGradGradGradGradGradGradGradGradGradGrad

 Leave Link  103 at Sat Jun 22 18:01:12 2024, MaxMem=  2684354560 cpu:               4.8 elap:               0.3
 (Enter /storage/apps/GAUSSIAN/G16_RevA03/g16/l9999.exe)

 Test job not archived.
 1\1\GINC-T011\Force\RM062X\def2TZVP\C24H30N9O6(1+)\LV87696\22-Jun-2024
 \0\\#P M062X/Def2TZVP scf=(direct,conver=8) EmpiricalDispersion=GD3 No
 Symm force Charge Prop=(Field,Read)\\Gaussian run using SANDER externa
 l interface, route from template gau_job.tpl\\1,1\C,-4.1831521192,0.40
 9809449,6.7652968025\H,-4.0127208657,0.4637429269,7.7724851822\O,-2.99
 61279403,-0.1842955963,6.1339116116\C,-4.3016650625,1.8025649187,6.145
 2042166\H,-5.2615792718,2.1659013443,6.1295883178\O,-3.4482819705,2.76
 2616186,6.8117973335\H,-3.637764577,2.8509182984,7.7698208661\C,-3.691
 2389138,1.6171091108,4.7417233814\H,-4.355565181,1.2039520561,4.079281
 1899\O,-3.2130797607,2.8472763233,4.212362283\H,-3.0184453036,3.421054
 3387,4.9788447601\C,-2.5190772236,0.6453028345,5.0591965308\H,-1.69135
 87467,1.1717736017,5.3642004435\N,-2.0841686363,-0.2659642776,3.968374
 3178\C,-0.7516668927,-0.3058056532,3.6554712909\H,-0.179246213,0.40694
 55954,4.1029854694\C,-0.2457590872,-1.2439665037,2.8109003292\C,-1.151
 555894,-2.1398892144,2.1809548472\H,-0.7830010933,-2.8704836329,1.5734
 022328\H,-0.9588989711,-0.9131335909,0.229871402\C,-2.493129512,-2.051
 5854614,2.4723387703\H,-3.1554255355,-2.6927678867,2.0387458976\C,-2.9
 541044732,-1.1411101127,3.3737849513\H,-3.9339235144,-1.0803492384,3.6
 472621991\C,1.236657949,-1.4507396771,2.5945366866\O,1.6283671126,-2.4
 181937533,1.9163899058\N,2.1360958702,-0.6030086285,3.1822161323\H,1.8
 591383343,0.1169051911,3.8460848986\H,3.1144768587,-0.8975326904,3.200
 5705696\N,2.149644244,-3.0995362529,-1.9651256898\C,3.2779260604,-2.43
 64849429,-2.2955982952\N,4.405856911,-3.1202744915,-2.6384874798\H,4.4
 2582638,-4.132910248,-2.587123805\H,5.2615792718,-2.6055877577,-2.8981
 892411\N,3.3446998845,-1.0612383102,-2.3083099218\H,4.2731196123,-0.61
 02322122,-2.4291019099\C,2.2484040377,-0.2614334673,-2.0162169842\O,2.
 4081098276,1.0124180416,-1.9708495686\C,1.0336239347,-0.9530733875,-1.
 7434338295\N,-0.1668266499,-0.2134070813,-1.5252433727\H,0.016925687,0
 .7597886066,-1.2759661894\C,-1.2226716628,-0.8747422676,-0.7650056041\
 C,-1.3863945076,-2.3194067579,-1.2868039042\H,-2.0433562589,-2.8251547
 242,-0.6910830358\H,-1.7814472514,-2.2947737113,-2.2325373776\N,-0.098
 6844375,-3.0074315854,-1.2785766378\H,-0.0971714508,-4.0197731231,-1.3
 613933757\C,1.0367455943,-2.3328184626,-1.6836169086\C,-2.6007550831,-
 0.1102149654,-0.8613988399\H,-3.006683067,-0.054356361,0.0739504743\H,
 -3.2447228923,-0.6538334962,-1.4419587482\N,-2.5075910003,1.252466838,
 -1.3830444738\H,-2.7647301586,1.9970971335,-0.7396457651\C,-2.24440856
 73,2.1493211238,-5.4711731458\C,-2.4304362363,3.1674169937,-4.50540106
 79\H,-2.4833945196,4.132910248,-4.8254543498\C,-2.5150589527,2.8812487
 32,-3.1815816589\H,-2.6370352815,3.6307757742,-2.5019177814\C,-2.42993
 78379,1.5385559338,-2.7285418631\C,-2.2560642507,0.513143367,-3.692825
 8971\H,-2.1917179103,-0.4598957194,-3.3995762239\C,-2.1618217544,0.816
 2419685,-5.0108750422\H,-2.0393162629,0.0543939322,-5.6762538489\C,-2.
 1365508681,2.4925179672,-6.8835850533\O,-2.4059371271,3.6725633344,-7.
 3147481925\N,-1.73353517,1.5341059265,-7.7724851822\H,-1.5583417367,0.
 5801471804,-7.4757907332\H,-5.0460028153,-0.2272288846,6.5709495934\H,
 -1.6483003746,1.6955473667,-8.847088221\\Version=ES64L-G16RevA.03\HF=-
 1876.4344491\RMSD=4.455e-09\RMSF=2.756e-02\Dipole=-1.1953245,-3.340818
 8,9.1877078\Quadrupole=15.4478912,-50.0838401,34.6359488,-2.787809,-65
 .0633358,50.0196704\PG=C01 [X(C24H30N9O6)]\\@


 ABSOLUTISM, OBSOLETISM -- IF IT WORKS, IT'S OUT OF DATE

                          -- STAFFORD BEER
 Job cpu time:       0 days  8 hours 21 minutes 11.8 seconds.
 Elapsed time:       0 days  0 hours 31 minutes 25.1 seconds.
 File lengths (MBytes):  RWF=   1039 Int=      0 D2E=      0 Chk=    113 Scr=      1
 Normal termination of Gaussian 16 at Sat Jun 22 18:01:12 2024.
