 Entering Gaussian System, Link 0=g16
 Initial command:
 /storage/apps/GAUSSIAN/G16_RevA03/g16/l1.exe "/scratch/tmp/2140838/Gau-126850.inp" -scrdir="/scratch/tmp/2140838/"
 Entering Link 1 = /storage/apps/GAUSSIAN/G16_RevA03/g16/l1.exe PID=    126852.
  
 Copyright (c) 1988,1990,1992,1993,1995,1998,2003,2009,2016,
            Gaussian, Inc.  All Rights Reserved.
  
 This is part of the Gaussian(R) 16 program.  It is based on
 the Gaussian(R) 09 system (copyright 2009, Gaussian, Inc.),
 the Gaussian(R) 03 system (copyright 2003, Gaussian, Inc.),
 the Gaussian(R) 98 system (copyright 1998, Gaussian, Inc.),
 the Gaussian(R) 94 system (copyright 1995, Gaussian, Inc.),
 the Gaussian 92(TM) system (copyright 1992, Gaussian, Inc.),
 the Gaussian 90(TM) system (copyright 1990, Gaussian, Inc.),
 the Gaussian 88(TM) system (copyright 1988, Gaussian, Inc.),
 the Gaussian 86(TM) system (copyright 1986, Carnegie Mellon
 University), and the Gaussian 82(TM) system (copyright 1983,
 Carnegie Mellon University). Gaussian is a federally registered
 trademark of Gaussian, Inc.
  
 This software contains proprietary and confidential information,
 including trade secrets, belonging to Gaussian, Inc.
  
 This software is provided under written license and may be
 used, copied, transmitted, or stored only in accord with that
 written license.
  
 The following legend is applicable only to US Government
 contracts under FAR:
  
                    RESTRICTED RIGHTS LEGEND
  
 Use, reproduction and disclosure by the US Government is
 subject to restrictions as set forth in subparagraphs (a)
 and (c) of the Commercial Computer Software - Restricted
 Rights clause in FAR 52.227-19.
  
 Gaussian, Inc.
 340 Quinnipiac St., Bldg. 40, Wallingford CT 06492
  
  
 ---------------------------------------------------------------
 Warning -- This program may not be used in any manner that
 competes with the business of Gaussian, Inc. or will provide
 assistance to any competitor of Gaussian, Inc.  The licensee
 of this program is prohibited from giving any competitor of
 Gaussian, Inc. access to this program.  By using this program,
 the user acknowledges that Gaussian, Inc. is engaged in the
 business of creating and licensing software in the field of
 computational chemistry and represents and warrants to the
 licensee that it is not a competitor of Gaussian, Inc. and that
 it will not use this program in any manner prohibited above.
 ---------------------------------------------------------------
  

 Cite this work as:
 Gaussian 16, Revision A.03,
 M. J. Frisch, G. W. Trucks, H. B. Schlegel, G. E. Scuseria, 
 M. A. Robb, J. R. Cheeseman, G. Scalmani, V. Barone, 
 G. A. Petersson, H. Nakatsuji, X. Li, M. Caricato, A. V. Marenich, 
 J. Bloino, B. G. Janesko, R. Gomperts, B. Mennucci, H. P. Hratchian, 
 J. V. Ortiz, A. F. Izmaylov, J. L. Sonnenberg, D. Williams-Young, 
 F. Ding, F. Lipparini, F. Egidi, J. Goings, B. Peng, A. Petrone, 
 T. Henderson, D. Ranasinghe, V. G. Zakrzewski, J. Gao, N. Rega, 
 G. Zheng, W. Liang, M. Hada, M. Ehara, K. Toyota, R. Fukuda, 
 J. Hasegawa, M. Ishida, T. Nakajima, Y. Honda, O. Kitao, H. Nakai, 
 T. Vreven, K. Throssell, J. A. Montgomery, Jr., J. E. Peralta, 
 F. Ogliaro, M. J. Bearpark, J. J. Heyd, E. N. Brothers, K. N. Kudin, 
 V. N. Staroverov, T. A. Keith, R. Kobayashi, J. Normand, 
 K. Raghavachari, A. P. Rendell, J. C. Burant, S. S. Iyengar, 
 J. Tomasi, M. Cossi, J. M. Millam, M. Klene, C. Adamo, R. Cammi, 
 J. W. Ochterski, R. L. Martin, K. Morokuma, O. Farkas, 
 J. B. Foresman, and D. J. Fox, Gaussian, Inc., Wallingford CT, 2016.
 
 ******************************************
 Gaussian 16:  ES64L-G16RevA.03 25-Dec-2016
                22-Jun-2024 
 ******************************************
 %chk=gau_job.chk
 %NProcShared=16
 Will use up to   16 processors via shared memory.
 %mem=20GB
 ----------------------------------------------------------------------
 #P M062X/Def2TZVP scf=(direct,conver=8) EmpiricalDispersion=GD3 NoSymm
  force Charge Prop=(Field,Read)
 ----------------------------------------------------------------------
 1/10=7,18=10,28=-2,30=1,38=1,125=101/1,3;
 2/12=2,15=1,17=6,18=5,29=2,40=1/2;
 3/5=44,7=101,11=2,25=1,30=1,71=1,74=-55,124=31/1,2,3;
 4//1;
 5/5=2,6=8,38=5/2;
 6/7=2,8=2,9=2,10=2,14=2,15=1,28=1/1,2;
 7/7=1,16=-2,29=1,30=1/1,2,3,16;
 1/10=7,18=10,28=-2,30=1/3;
 99/12=1/99;
 Leave Link    1 at Sat Jun 22 17:30:02 2024, MaxMem=  2684354560 cpu:               0.9 elap:               0.1
 (Enter /storage/apps/GAUSSIAN/G16_RevA03/g16/l101.exe)
 ----------------------------------------------------------------------
 Gaussian run using SANDER external interface, route from template gau_
 job.tpl
 ----------------------------------------------------------------------
 Symbolic Z-matrix:
 Charge =  1 Multiplicity = 1
 C                    -4.1926    0.41804   6.77797 
 H                    -4.03206   0.47514   7.78666 
 O                    -2.99864  -0.17651   6.15927 
 C                    -4.30634   1.80767   6.1506 
 H                    -5.26554   2.17261   6.12958 
 O                    -3.45343   2.76988   6.81432 
 H                    -3.63946   2.8577    7.77329 
 C                    -3.69158   1.61324   4.75009 
 H                    -4.35357   1.19612   4.08776 
 O                    -3.21091   2.83937   4.21447 
 H                    -3.01881   3.41806   4.97782 
 C                    -2.5207    0.64281   5.07727 
 H                    -1.6917    1.17002   5.37731 
 N                    -2.08792  -0.27923   3.994 
 C                    -0.75772  -0.31639   3.67134 
 H                    -0.18447   0.40541   4.10306 
 C                    -0.25351  -1.26708   2.83948 
 C                    -1.15977  -2.17785   2.23351 
 H                    -0.79345  -2.9092    1.62622 
 H                    -0.94731  -0.89707   0.2094 
 C                    -2.49835  -2.09077   2.53052 
 H                    -3.16114  -2.738     2.10673 
 C                    -2.95776  -1.16825   3.42123 
 H                    -3.9361   -1.10826   3.70021 
 C                     1.22873  -1.4745    2.61708 
 O                     1.61891  -2.45221   1.95329 
 N                     2.12964  -0.61526   3.18549 
 H                     1.85432   0.1108    3.84329 
 H                     3.10817  -0.90958   3.20441 
 N                     2.14961  -3.09907  -1.97675 
 C                     3.27883  -2.43813  -2.30817 
 N                     4.40929  -3.12383  -2.63915 
 H                     4.42835  -4.13617  -2.58298 
 H                     5.26554  -2.61023  -2.89909 
 N                     3.34471  -1.06296  -2.33066 
 H                     4.27431  -0.61304  -2.44569 
 C                     2.24724  -0.26144  -2.04613 
 O                     2.40786   1.01266  -2.00646 
 C                     1.03194  -0.95074  -1.77167 
 N                    -0.17071  -0.21068  -1.5641 
 H                     0.01225   0.7656   -1.32608 
 C                    -1.21887  -0.86567  -0.78287 
 C                    -1.38723  -2.31577  -1.29173 
 H                    -2.03531  -2.81799  -0.68365 
 H                    -1.79459  -2.29921  -2.2324 
 N                    -0.09925  -3.00293  -1.2936 
 H                    -0.09569  -4.01655  -1.35911 
 C                     1.03565  -2.3307   -1.70204 
 C                    -2.59866  -0.10484  -0.87767 
 H                    -3.0044   -0.04968   0.05754 
 H                    -3.24127  -0.65113  -1.45744 
 N                    -2.50939   1.25823  -1.39929 
 H                    -2.764     2.00301  -0.75487 
 C                    -2.25015   2.15213  -5.48795 
 C                    -2.4363    3.17088  -4.52322 
 H                    -2.4878    4.13617  -4.84401 
 C                    -2.52154   2.8859   -3.19921 
 H                    -2.64312   3.63634  -2.52049 
 C                    -2.43591   1.54356  -2.74504 
 C                    -2.26564   0.51689  -3.70895 
 H                    -2.20331  -0.45625  -3.4156 
 C                    -2.17103   0.81914  -5.02702 
 H                    -2.05032   0.05705  -5.69242 
 C                    -2.13838   2.49383  -6.90016 
 O                    -2.40642   3.67356  -7.33317 
 N                    -1.73292   1.53426  -7.78666 
 H                    -1.55821   0.58092  -7.48779 
 H                    -5.05305  -0.22027   6.57727 
 H                    -1.64639   1.69339  -8.8615 
 
 ITRead=  0  0  0  0  0  0  0  0  0  0  0  0  0  0  0  0  0  0  0  0
 ITRead=  0  0  0  0  0  0  0  0  0  0  0  0  0  0  0  0  0  0  0  0
 ITRead=  0  0  0  0  0  0  0  0  0  0  0  0  0  0  0  0  0  0  0  0
 ITRead=  0  0  0  0  0  0  0  0  0
 MicOpt= -1 -1 -1 -1 -1 -1 -1 -1 -1 -1 -1 -1 -1 -1 -1 -1 -1 -1 -1 -1
 MicOpt= -1 -1 -1 -1 -1 -1 -1 -1 -1 -1 -1 -1 -1 -1 -1 -1 -1 -1 -1 -1
 MicOpt= -1 -1 -1 -1 -1 -1 -1 -1 -1 -1 -1 -1 -1 -1 -1 -1 -1 -1 -1 -1
 MicOpt= -1 -1 -1 -1 -1 -1 -1 -1 -1
 NAtoms=     69 NQM=       69 NQMF=       0 NMMI=      0 NMMIF=      0
                NMic=       0 NMicF=      0.
                    Isotopes and Nuclear Properties:
 (Nuclear quadrupole moments (NQMom) in fm**2, nuclear magnetic moments (NMagM)
  in nuclear magnetons)

  Atom         1           2           3           4           5           6           7           8           9          10
 IAtWgt=          12           1          16          12           1          16           1          12           1          16
 AtmWgt=  12.0000000   1.0078250  15.9949146  12.0000000   1.0078250  15.9949146   1.0078250  12.0000000   1.0078250  15.9949146
 NucSpn=           0           1           0           0           1           0           1           0           1           0
 AtZEff=  -0.0000000  -0.0000000  -0.0000000  -0.0000000  -0.0000000  -0.0000000  -0.0000000  -0.0000000  -0.0000000  -0.0000000
 NQMom=    0.0000000   0.0000000   0.0000000   0.0000000   0.0000000   0.0000000   0.0000000   0.0000000   0.0000000   0.0000000
 NMagM=    0.0000000   2.7928460   0.0000000   0.0000000   2.7928460   0.0000000   2.7928460   0.0000000   2.7928460   0.0000000
 AtZNuc=   6.0000000   1.0000000   8.0000000   6.0000000   1.0000000   8.0000000   1.0000000   6.0000000   1.0000000   8.0000000

  Atom        11          12          13          14          15          16          17          18          19          20
 IAtWgt=           1          12           1          14          12           1          12          12           1           1
 AtmWgt=   1.0078250  12.0000000   1.0078250  14.0030740  12.0000000   1.0078250  12.0000000  12.0000000   1.0078250   1.0078250
 NucSpn=           1           0           1           2           0           1           0           0           1           1
 AtZEff=  -0.0000000  -0.0000000  -0.0000000  -0.0000000  -0.0000000  -0.0000000  -0.0000000  -0.0000000  -0.0000000  -0.0000000
 NQMom=    0.0000000   0.0000000   0.0000000   2.0440000   0.0000000   0.0000000   0.0000000   0.0000000   0.0000000   0.0000000
 NMagM=    2.7928460   0.0000000   2.7928460   0.4037610   0.0000000   2.7928460   0.0000000   0.0000000   2.7928460   2.7928460
 AtZNuc=   1.0000000   6.0000000   1.0000000   7.0000000   6.0000000   1.0000000   6.0000000   6.0000000   1.0000000   1.0000000

  Atom        21          22          23          24          25          26          27          28          29          30
 IAtWgt=          12           1          12           1          12          16          14           1           1          14
 AtmWgt=  12.0000000   1.0078250  12.0000000   1.0078250  12.0000000  15.9949146  14.0030740   1.0078250   1.0078250  14.0030740
 NucSpn=           0           1           0           1           0           0           2           1           1           2
 AtZEff=  -0.0000000  -0.0000000  -0.0000000  -0.0000000  -0.0000000  -0.0000000  -0.0000000  -0.0000000  -0.0000000  -0.0000000
 NQMom=    0.0000000   0.0000000   0.0000000   0.0000000   0.0000000   0.0000000   2.0440000   0.0000000   0.0000000   2.0440000
 NMagM=    0.0000000   2.7928460   0.0000000   2.7928460   0.0000000   0.0000000   0.4037610   2.7928460   2.7928460   0.4037610
 AtZNuc=   6.0000000   1.0000000   6.0000000   1.0000000   6.0000000   8.0000000   7.0000000   1.0000000   1.0000000   7.0000000

  Atom        31          32          33          34          35          36          37          38          39          40
 IAtWgt=          12          14           1           1          14           1          12          16          12          14
 AtmWgt=  12.0000000  14.0030740   1.0078250   1.0078250  14.0030740   1.0078250  12.0000000  15.9949146  12.0000000  14.0030740
 NucSpn=           0           2           1           1           2           1           0           0           0           2
 AtZEff=  -0.0000000  -0.0000000  -0.0000000  -0.0000000  -0.0000000  -0.0000000  -0.0000000  -0.0000000  -0.0000000  -0.0000000
 NQMom=    0.0000000   2.0440000   0.0000000   0.0000000   2.0440000   0.0000000   0.0000000   0.0000000   0.0000000   2.0440000
 NMagM=    0.0000000   0.4037610   2.7928460   2.7928460   0.4037610   2.7928460   0.0000000   0.0000000   0.0000000   0.4037610
 AtZNuc=   6.0000000   7.0000000   1.0000000   1.0000000   7.0000000   1.0000000   6.0000000   8.0000000   6.0000000   7.0000000

  Atom        41          42          43          44          45          46          47          48          49          50
 IAtWgt=           1          12          12           1           1          14           1          12          12           1
 AtmWgt=   1.0078250  12.0000000  12.0000000   1.0078250   1.0078250  14.0030740   1.0078250  12.0000000  12.0000000   1.0078250
 NucSpn=           1           0           0           1           1           2           1           0           0           1
 AtZEff=  -0.0000000  -0.0000000  -0.0000000  -0.0000000  -0.0000000  -0.0000000  -0.0000000  -0.0000000  -0.0000000  -0.0000000
 NQMom=    0.0000000   0.0000000   0.0000000   0.0000000   0.0000000   2.0440000   0.0000000   0.0000000   0.0000000   0.0000000
 NMagM=    2.7928460   0.0000000   0.0000000   2.7928460   2.7928460   0.4037610   2.7928460   0.0000000   0.0000000   2.7928460
 AtZNuc=   1.0000000   6.0000000   6.0000000   1.0000000   1.0000000   7.0000000   1.0000000   6.0000000   6.0000000   1.0000000

  Atom        51          52          53          54          55          56          57          58          59          60
 IAtWgt=           1          14           1          12          12           1          12           1          12          12
 AtmWgt=   1.0078250  14.0030740   1.0078250  12.0000000  12.0000000   1.0078250  12.0000000   1.0078250  12.0000000  12.0000000
 NucSpn=           1           2           1           0           0           1           0           1           0           0
 AtZEff=  -0.0000000  -0.0000000  -0.0000000  -0.0000000  -0.0000000  -0.0000000  -0.0000000  -0.0000000  -0.0000000  -0.0000000
 NQMom=    0.0000000   2.0440000   0.0000000   0.0000000   0.0000000   0.0000000   0.0000000   0.0000000   0.0000000   0.0000000
 NMagM=    2.7928460   0.4037610   2.7928460   0.0000000   0.0000000   2.7928460   0.0000000   2.7928460   0.0000000   0.0000000
 AtZNuc=   1.0000000   7.0000000   1.0000000   6.0000000   6.0000000   1.0000000   6.0000000   1.0000000   6.0000000   6.0000000

  Atom        61          62          63          64          65          66          67          68          69
 IAtWgt=           1          12           1          12          16          14           1           1           1
 AtmWgt=   1.0078250  12.0000000   1.0078250  12.0000000  15.9949146  14.0030740   1.0078250   1.0078250   1.0078250
 NucSpn=           1           0           1           0           0           2           1           1           1
 AtZEff=  -0.0000000  -0.0000000  -0.0000000  -0.0000000  -0.0000000  -0.0000000  -0.0000000  -0.0000000  -0.0000000
 NQMom=    0.0000000   0.0000000   0.0000000   0.0000000   0.0000000   2.0440000   0.0000000   0.0000000   0.0000000
 NMagM=    2.7928460   0.0000000   2.7928460   0.0000000   0.0000000   0.4037610   2.7928460   2.7928460   2.7928460
 AtZNuc=   1.0000000   6.0000000   1.0000000   6.0000000   8.0000000   7.0000000   1.0000000   1.0000000   1.0000000
 Background charge distribution read from input stream:
 Leave Link  101 at Sat Jun 22 17:30:03 2024, MaxMem=  2684354560 cpu:               2.1 elap:               0.2
 (Enter /storage/apps/GAUSSIAN/G16_RevA03/g16/l103.exe)

 GradGradGradGradGradGradGradGradGradGradGradGradGradGradGradGradGradGrad
 Berny optimization.
 Initialization pass.
 Trust Radius=3.00D-01 FncErr=1.00D-07 GrdErr=1.00D-07 EigMax=2.50D+02 EigMin=1.00D-04
 Number of steps in this run=      2 maximum allowed number of steps=      2.
 GradGradGradGradGradGradGradGradGradGradGradGradGradGradGradGradGradGrad

 Leave Link  103 at Sat Jun 22 17:30:03 2024, MaxMem=  2684354560 cpu:               0.4 elap:               0.1
 (Enter /storage/apps/GAUSSIAN/G16_RevA03/g16/l202.exe)
 Symmetry turned off by external request.
 Stoichiometry    C24H30N9O6(1+)
 Framework group  C1[X(C24H30N9O6)]
 Deg. of freedom   201
 Full point group                 C1      NOp   1
                          Input orientation:                          
 ---------------------------------------------------------------------
 Center     Atomic      Atomic             Coordinates (Angstroms)
 Number     Number       Type             X           Y           Z
 ---------------------------------------------------------------------
      1          6           0       -4.192599    0.418043    6.777966
      2          1           0       -4.032060    0.475138    7.786656
      3          8           0       -2.998637   -0.176512    6.159268
      4          6           0       -4.306339    1.807671    6.150600
      5          1           0       -5.265545    2.172606    6.129583
      6          8           0       -3.453426    2.769880    6.814319
      7          1           0       -3.639463    2.857698    7.773288
      8          6           0       -3.691575    1.613236    4.750092
      9          1           0       -4.353572    1.196115    4.087763
     10          8           0       -3.210915    2.839375    4.214468
     11          1           0       -3.018807    3.418064    4.977823
     12          6           0       -2.520703    0.642807    5.077271
     13          1           0       -1.691698    1.170024    5.377313
     14          7           0       -2.087921   -0.279227    3.994005
     15          6           0       -0.757718   -0.316387    3.671343
     16          1           0       -0.184472    0.405409    4.103057
     17          6           0       -0.253506   -1.267079    2.839479
     18          6           0       -1.159770   -2.177849    2.233511
     19          1           0       -0.793449   -2.909197    1.626224
     20          1           0       -0.947314   -0.897074    0.209396
     21          6           0       -2.498352   -2.090770    2.530522
     22          1           0       -3.161136   -2.738000    2.106734
     23          6           0       -2.957762   -1.168250    3.421234
     24          1           0       -3.936098   -1.108262    3.700208
     25          6           0        1.228735   -1.474503    2.617084
     26          8           0        1.618909   -2.452208    1.953294
     27          7           0        2.129636   -0.615263    3.185485
     28          1           0        1.854316    0.110795    3.843293
     29          1           0        3.108174   -0.909576    3.204407
     30          7           0        2.149615   -3.099071   -1.976749
     31          6           0        3.278832   -2.438127   -2.308166
     32          7           0        4.409295   -3.123828   -2.639149
     33          1           0        4.428353   -4.136172   -2.582983
     34          1           0        5.265545   -2.610230   -2.899089
     35          7           0        3.344708   -1.062959   -2.330663
     36          1           0        4.274310   -0.613045   -2.445694
     37          6           0        2.247239   -0.261437   -2.046134
     38          8           0        2.407861    1.012663   -2.006457
     39          6           0        1.031939   -0.950740   -1.771674
     40          7           0       -0.170710   -0.210679   -1.564100
     41          1           0        0.012251    0.765601   -1.326078
     42          6           0       -1.218869   -0.865674   -0.782870
     43          6           0       -1.387233   -2.315767   -1.291732
     44          1           0       -2.035309   -2.817995   -0.683655
     45          1           0       -1.794587   -2.299214   -2.232404
     46          7           0       -0.099250   -3.002927   -1.293598
     47          1           0       -0.095690   -4.016548   -1.359110
     48          6           0        1.035647   -2.330700   -1.702042
     49          6           0       -2.598660   -0.104838   -0.877670
     50          1           0       -3.004404   -0.049680    0.057544
     51          1           0       -3.241267   -0.651128   -1.457436
     52          7           0       -2.509389    1.258234   -1.399292
     53          1           0       -2.764000    2.003014   -0.754868
     54          6           0       -2.250151    2.152127   -5.487953
     55          6           0       -2.436304    3.170880   -4.523218
     56          1           0       -2.487804    4.136172   -4.844013
     57          6           0       -2.521541    2.885899   -3.199213
     58          1           0       -2.643117    3.636341   -2.520492
     59          6           0       -2.435915    1.543557   -2.745038
     60          6           0       -2.265635    0.516893   -3.708947
     61          1           0       -2.203310   -0.456253   -3.415597
     62          6           0       -2.171033    0.819137   -5.027023
     63          1           0       -2.050321    0.057047   -5.692423
     64          6           0       -2.138379    2.493829   -6.900159
     65          8           0       -2.406416    3.673561   -7.333168
     66          7           0       -1.732924    1.534260   -7.786656
     67          1           0       -1.558206    0.580924   -7.487788
     68          1           0       -5.053052   -0.220270    6.577274
     69          1           0       -1.646389    1.693388   -8.861500
 ---------------------------------------------------------------------
 Rotational constants (GHZ):           0.1077018           0.0502041           0.0380249
 Leave Link  202 at Sat Jun 22 17:30:03 2024, MaxMem=  2684354560 cpu:               0.3 elap:               0.1
 (Enter /storage/apps/GAUSSIAN/G16_RevA03/g16/l301.exe)
 Standard basis: def2TZVP (5D, 7F)
 Ernie: Thresh=  0.10000D-02 Tol=  0.10000D-05 Strict=F.
  1389 basis functions,  2229 primitive gaussians,  1584 cartesian basis functions
   142 alpha electrons      142 beta electrons
       nuclear repulsion energy      4388.5368790574 Hartrees.
 IExCor= 4336 DFT=T Ex+Corr=M062X ExCW=0 ScaHFX=  0.540000
 ScaDFX=  1.000000  1.000000  1.000000  1.000000 ScalE2=  1.000000  1.000000
 IRadAn=      5 IRanWt=     -1 IRanGd=            0 ICorTp=0 IEmpDi=131
 NAtoms=   69 NActive=   69 NUniq=   69 SFac= 1.00D+00 NAtFMM=   60 NAOKFM=T Big=T
 Integral buffers will be    131072 words long.
 Raffenetti 2 integral format.
 Two-electron integral symmetry is turned off.
 R6Disp:  Grimme-D3 Dispersion energy=       -0.0064580387 Hartrees.
 Nuclear repulsion after empirical dispersion term =     4388.5304210187 Hartrees.
 Leave Link  301 at Sat Jun 22 17:30:03 2024, MaxMem=  2684354560 cpu:               1.3 elap:               0.1
 (Enter /storage/apps/GAUSSIAN/G16_RevA03/g16/l302.exe)
 NPDir=0 NMtPBC=     1 NCelOv=     1 NCel=       1 NClECP=     1 NCelD=      1
         NCelK=      1 NCelE2=     1 NClLst=     1 CellRange=     0.0.
 One-electron integrals computed using PRISM.
   1 Symmetry operations used in ECPInt.
 ECPInt:  NShTT=  150975 NPrTT=  462228 LenC2=  106268 LenP2D=  214453.
 LDataN:  DoStor=T MaxTD1= 6 Len=  172
 NBasis=  1389 RedAO= T EigKep=  6.08D-06  NBF=  1389
 NBsUse=  1389 1.00D-06 EigRej= -1.00D+00 NBFU=  1389
 Precomputing XC quadrature grid using
 IXCGrd= 4 IRadAn=           5 IRanWt=          -1 IRanGd=           0 AccXCQ= 0.00D+00.
 Generated NRdTot=       0 NPtTot=           0 NUsed=           0 NTot=          32
 NSgBfM=  1493  1486  1492  1493  1493 MxSgAt=    69 MxSgA2=    69.
 Leave Link  302 at Sat Jun 22 17:30:06 2024, MaxMem=  2684354560 cpu:              44.4 elap:               2.8
 (Enter /storage/apps/GAUSSIAN/G16_RevA03/g16/l303.exe)
 DipDrv:  MaxL=1.
 Leave Link  303 at Sat Jun 22 17:30:06 2024, MaxMem=  2684354560 cpu:               4.4 elap:               0.4
 (Enter /storage/apps/GAUSSIAN/G16_RevA03/g16/l401.exe)
 ExpMin= 9.52D-02 ExpMax= 2.70D+04 ExpMxC= 9.22D+02 IAcc=3 IRadAn=         5 AccDes= 0.00D+00
 Harris functional with IExCor= 1009 and IRadAn=       5 diagonalized for initial guess.
 HarFok:  IExCor= 1009 AccDes= 0.00D+00 IRadAn=         5 IDoV= 1 UseB2=F ITyADJ=14
 ICtDFT=  3500011 ScaDFX=  1.000000  1.000000  1.000000  1.000000
 FoFCou: FMM=F IPFlag=           0 FMFlag=      100000 FMFlg1=        2001
         NFxFlg=           0 DoJE=T BraDBF=F KetDBF=T FulRan=T
         wScrn=  0.000000 ICntrl=       500 IOpCl=  0 I1Cent=   200000004 NGrid=           0
         NMat0=    1 NMatS0=      1 NMatT0=    0 NMatD0=    1 NMtDS0=    0 NMtDT0=    0
 Symmetry not used in FoFCou.
 Harris En= -1875.51881389797    
 JPrj=0 DoOrth=F DoCkMO=F.
 Leave Link  401 at Sat Jun 22 17:30:13 2024, MaxMem=  2684354560 cpu:             103.6 elap:               6.6
 (Enter /storage/apps/GAUSSIAN/G16_RevA03/g16/l502.exe)
 Two-electron integral symmetry not used.
 Closed shell SCF:
 Using DIIS extrapolation, IDIIS=  1040.
 NGot=  2684354560 LenX=  2679300873 LenY=  2676790233
 Requested convergence on RMS density matrix=1.00D-08 within 128 cycles.
 Requested convergence on MAX density matrix=1.00D-06.
 Requested convergence on             energy=1.00D-06.
 No special actions if energy rises.
 Fock matrices will be formed incrementally for  20 cycles.
 Integral accuracy reduced to 1.0D-05 until final iterations.

 Cycle   1  Pass 0  IDiag  1:
 FoFJK:  IHMeth= 1 ICntrl=       0 DoSepK=F KAlg= 0 I1Cent=           0 FoldK=F
 IRaf= 680000000 NMat=       1 IRICut=       1 DoRegI=T DoRafI=F ISym2E= 0 IDoP0=0 IntGTp=1.
 FoFCou: FMM=T IPFlag=           0 FMFlag=      100000 FMFlg1=        2001
         NFxFlg=           0 DoJE=F BraDBF=F KetDBF=F FulRan=T
         wScrn=  0.000000 ICntrl=         0 IOpCl=  0 I1Cent=           0 NGrid=           0
         NMat0=    1 NMatS0=      1 NMatT0=    0 NMatD0=    1 NMtDS0=    0 NMtDT0=    0
 Symmetry not used in FoFCou.
 FMM levels:  10  Number of levels for PrismC:   9
 E= -1875.45699381720    
 DIIS: error= 1.60D-02 at cycle   1 NSaved=   1.
 NSaved= 1 IEnMin= 1 EnMin= -1875.45699381720     IErMin= 1 ErrMin= 1.60D-02
 ErrMax= 1.60D-02  0.00D+00 EMaxC= 1.00D-01 BMatC= 1.38D+00 BMatP= 1.38D+00
 IDIUse=3 WtCom= 8.40D-01 WtEn= 1.60D-01
 Coeff-Com:  0.100D+01
 Coeff-En:   0.100D+01
 Coeff:      0.100D+01
 Gap=    -0.014 Goal=   None    Shift=    0.000
 GapD=   -0.014 DampG=0.250 DampE=0.500 DampFc=0.2500 IDamp=-1.
 Damping current iteration by 2.50D-01
 RMSDP=4.49D+01 MaxDP=9.68D+03              OVMax= 9.96D-01

 Problem detected with inexpensive integrals.
 Switching to full accuracy and repeating last cycle.
 Cycle   2  Pass 1  IDiag  1:
 E= -1875.45708031039     Delta-E=       -0.000086493197 Rises=F Damp=F
 DIIS: error= 1.60D-02 at cycle   1 NSaved=   1.
 NSaved= 1 IEnMin= 1 EnMin= -1875.45708031039     IErMin= 1 ErrMin= 1.60D-02
 ErrMax= 1.60D-02  0.00D+00 EMaxC= 1.00D-01 BMatC= 1.38D+00 BMatP= 1.38D+00
 IDIUse=3 WtCom= 8.40D-01 WtEn= 1.60D-01
 Coeff-Com:  0.100D+01
 Coeff-En:   0.100D+01
 Coeff:      0.100D+01
 Gap=    -0.014 Goal=   None    Shift=    0.000
 GapD=   -0.014 DampG=0.250 DampE=0.500 DampFc=0.2500 IDamp=-1.
 Damping current iteration by 2.50D-01
 RMSDP=3.93D-03 MaxDP=1.19D+00 DE=-8.65D-05 OVMax= 8.40D-01

 Cycle   3  Pass 1  IDiag  1:
 RMSU=  9.81D-04    CP:  1.01D+00
 E= -1875.68997476299     Delta-E=       -0.232894452592 Rises=F Damp=T
 DIIS: error= 9.63D-03 at cycle   2 NSaved=   2.
 NSaved= 2 IEnMin= 2 EnMin= -1875.68997476299     IErMin= 2 ErrMin= 9.63D-03
 ErrMax= 9.63D-03  0.00D+00 EMaxC= 1.00D-01 BMatC= 4.54D-01 BMatP= 1.38D+00
 IDIUse=3 WtCom= 9.04D-01 WtEn= 9.63D-02
 Coeff-Com: -0.625D+00 0.162D+01
 Coeff-En:   0.676D-01 0.932D+00
 Coeff:     -0.558D+00 0.156D+01
 Gap=     0.265 Goal=   None    Shift=    0.000
 GapD=    0.265 DampG=1.000 DampE=1.000 DampFc=1.0000 IDamp=-1.
 RMSDP=1.14D-03 MaxDP=1.42D-01 DE=-2.33D-01 OVMax= 6.50D-01

 Cycle   4  Pass 1  IDiag  1:
 RMSU=  1.14D-03    CP:  9.99D-01  1.09D+00
 E= -1875.89422060839     Delta-E=       -0.204245845402 Rises=F Damp=F
 DIIS: error= 1.79D-02 at cycle   3 NSaved=   3.
 NSaved= 3 IEnMin= 3 EnMin= -1875.89422060839     IErMin= 2 ErrMin= 9.63D-03
 ErrMax= 1.79D-02  0.00D+00 EMaxC= 1.00D-01 BMatC= 5.59D-01 BMatP= 4.54D-01
 IDIUse=2 WtCom= 0.00D+00 WtEn= 1.00D+00
 Coeff-En:   0.000D+00 0.349D+00 0.651D+00
 Coeff:      0.000D+00 0.349D+00 0.651D+00
 Gap=     0.313 Goal=   None    Shift=    0.000
 RMSDP=1.74D-03 MaxDP=2.44D-01 DE=-2.04D-01 OVMax= 9.91D-01

 Cycle   5  Pass 1  IDiag  1:
 RMSU=  1.45D-03    CP:  9.96D-01  1.74D+00  3.76D-01
 E= -1870.02131067429     Delta-E=        5.872909934094 Rises=F Damp=F
 DIIS: error= 5.60D-02 at cycle   4 NSaved=   4.
 NSaved= 4 IEnMin= 3 EnMin= -1875.89422060839     IErMin= 2 ErrMin= 9.63D-03
 ErrMax= 5.60D-02  0.00D+00 EMaxC= 1.00D-01 BMatC= 2.52D+00 BMatP= 4.54D-01
 IDIUse=2 WtCom= 0.00D+00 WtEn= 1.00D+00
 Coeff-En:   0.000D+00 0.000D+00 0.849D+00 0.151D+00
 Coeff:      0.000D+00 0.000D+00 0.849D+00 0.151D+00
 Gap=    -0.129 Goal=   None    Shift=    0.000
 RMSDP=1.86D-03 MaxDP=5.67D-01 DE= 5.87D+00 OVMax= 9.99D-01

 Cycle   6  Pass 1  IDiag  1:
 RMSU=  1.19D-03    CP:  1.01D+00  1.18D+00  5.01D-01  9.91D-02
 E= -1876.30443800503     Delta-E=       -6.283127330741 Rises=F Damp=F
 DIIS: error= 7.51D-03 at cycle   5 NSaved=   5.
 NSaved= 5 IEnMin= 5 EnMin= -1876.30443800503     IErMin= 5 ErrMin= 7.51D-03
 ErrMax= 7.51D-03  0.00D+00 EMaxC= 1.00D-01 BMatC= 1.66D-01 BMatP= 4.54D-01
 IDIUse=3 WtCom= 9.25D-01 WtEn= 7.51D-02
 Coeff-Com: -0.138D+00 0.285D+00 0.370D+00 0.431D-01 0.441D+00
 Coeff-En:   0.000D+00 0.000D+00 0.154D+00 0.000D+00 0.846D+00
 Coeff:     -0.128D+00 0.264D+00 0.353D+00 0.399D-01 0.471D+00
 Gap=     0.188 Goal=   None    Shift=    0.000
 RMSDP=8.01D-04 MaxDP=3.57D-01 DE=-6.28D+00 OVMax= 1.28D-01

 Cycle   7  Pass 1  IDiag  1:
 RMSU=  4.28D-04    CP:  1.01D+00  1.10D+00  6.53D-01  1.19D-01  4.55D-01
 E= -1876.39871871932     Delta-E=       -0.094280714289 Rises=F Damp=F
 DIIS: error= 4.02D-03 at cycle   6 NSaved=   6.
 NSaved= 6 IEnMin= 6 EnMin= -1876.39871871932     IErMin= 6 ErrMin= 4.02D-03
 ErrMax= 4.02D-03  0.00D+00 EMaxC= 1.00D-01 BMatC= 3.85D-02 BMatP= 1.66D-01
 IDIUse=3 WtCom= 9.60D-01 WtEn= 4.02D-02
 Coeff-Com: -0.127D+00 0.179D+00 0.170D-01-0.206D-02 0.241D+00 0.692D+00
 Coeff-En:   0.000D+00 0.000D+00 0.000D+00 0.000D+00 0.208D+00 0.792D+00
 Coeff:     -0.122D+00 0.172D+00 0.163D-01-0.198D-02 0.240D+00 0.696D+00
 Gap=     0.078 Goal=   None    Shift=    0.000
 RMSDP=2.66D-04 MaxDP=1.16D-01 DE=-9.43D-02 OVMax= 4.94D-02

 Cycle   8  Pass 1  IDiag  1:
 RMSU=  1.22D-04    CP:  1.01D+00  1.18D+00  5.75D-01  1.21D-01  6.28D-01
                    CP:  9.87D-01
 E= -1876.43232096987     Delta-E=       -0.033602250548 Rises=F Damp=F
 DIIS: error= 7.93D-04 at cycle   7 NSaved=   7.
 NSaved= 7 IEnMin= 7 EnMin= -1876.43232096987     IErMin= 7 ErrMin= 7.93D-04
 ErrMax= 7.93D-04  0.00D+00 EMaxC= 1.00D-01 BMatC= 1.35D-03 BMatP= 3.85D-02
 IDIUse=3 WtCom= 9.92D-01 WtEn= 7.93D-03
 Coeff-Com: -0.599D-01 0.836D-01-0.234D-01 0.347D-03 0.454D-01 0.285D+00
 Coeff-Com:  0.669D+00
 Coeff-En:   0.000D+00 0.000D+00 0.000D+00 0.000D+00 0.000D+00 0.000D+00
 Coeff-En:   0.100D+01
 Coeff:     -0.594D-01 0.829D-01-0.233D-01 0.344D-03 0.450D-01 0.283D+00
 Coeff:      0.672D+00
 Gap=     0.077 Goal=   None    Shift=    0.000
 RMSDP=4.98D-05 MaxDP=6.92D-03 DE=-3.36D-02 OVMax= 1.75D-02

 Cycle   9  Pass 1  IDiag  1:
 RMSU=  3.85D-05    CP:  1.01D+00  1.19D+00  5.67D-01  1.24D-01  6.18D-01
                    CP:  1.04D+00  1.02D+00
 E= -1876.43369012104     Delta-E=       -0.001369151165 Rises=F Damp=F
 DIIS: error= 5.05D-04 at cycle   8 NSaved=   8.
 NSaved= 8 IEnMin= 8 EnMin= -1876.43369012104     IErMin= 8 ErrMin= 5.05D-04
 ErrMax= 5.05D-04  0.00D+00 EMaxC= 1.00D-01 BMatC= 4.81D-04 BMatP= 1.35D-03
 IDIUse=3 WtCom= 9.95D-01 WtEn= 5.05D-03
 Coeff-Com: -0.202D-01 0.289D-01-0.281D-01-0.224D-03-0.246D-01 0.460D-01
 Coeff-Com:  0.363D+00 0.635D+00
 Coeff-En:   0.000D+00 0.000D+00 0.000D+00 0.000D+00 0.000D+00 0.000D+00
 Coeff-En:   0.000D+00 0.100D+01
 Coeff:     -0.201D-01 0.288D-01-0.280D-01-0.223D-03-0.245D-01 0.458D-01
 Coeff:      0.361D+00 0.637D+00
 Gap=     0.077 Goal=   None    Shift=    0.000
 RMSDP=4.29D-05 MaxDP=1.33D-02 DE=-1.37D-03 OVMax= 1.18D-02

 Cycle  10  Pass 1  IDiag  1:
 RMSU=  2.39D-05    CP:  1.01D+00  1.18D+00  5.56D-01  1.25D-01  6.31D-01
                    CP:  1.08D+00  1.21D+00  1.02D+00
 E= -1876.43424914943     Delta-E=       -0.000559028394 Rises=F Damp=F
 DIIS: error= 1.52D-04 at cycle   9 NSaved=   9.
 NSaved= 9 IEnMin= 9 EnMin= -1876.43424914943     IErMin= 9 ErrMin= 1.52D-04
 ErrMax= 1.52D-04  0.00D+00 EMaxC= 1.00D-01 BMatC= 3.55D-05 BMatP= 4.81D-04
 IDIUse=3 WtCom= 9.98D-01 WtEn= 1.52D-03
 Coeff-Com: -0.349D-02 0.606D-02-0.539D-02 0.181D-03-0.130D-01-0.190D-01
 Coeff-Com:  0.215D-01 0.211D+00 0.802D+00
 Coeff-En:   0.000D+00 0.000D+00 0.000D+00 0.000D+00 0.000D+00 0.000D+00
 Coeff-En:   0.000D+00 0.000D+00 0.100D+01
 Coeff:     -0.348D-02 0.605D-02-0.538D-02 0.181D-03-0.130D-01-0.190D-01
 Coeff:      0.215D-01 0.211D+00 0.802D+00
 Gap=     0.077 Goal=   None    Shift=    0.000
 RMSDP=1.69D-05 MaxDP=1.88D-03 DE=-5.59D-04 OVMax= 9.46D-03

 Cycle  11  Pass 1  IDiag  1:
 RMSU=  1.06D-05    CP:  1.01D+00  1.18D+00  5.53D-01  1.26D-01  6.28D-01
                    CP:  1.10D+00  1.25D+00  1.23D+00  1.20D+00
 E= -1876.43433335088     Delta-E=       -0.000084201447 Rises=F Damp=F
 DIIS: error= 6.84D-05 at cycle  10 NSaved=  10.
 NSaved=10 IEnMin=10 EnMin= -1876.43433335088     IErMin=10 ErrMin= 6.84D-05
 ErrMax= 6.84D-05  0.00D+00 EMaxC= 1.00D-01 BMatC= 1.17D-05 BMatP= 3.55D-05
 IDIUse=1 WtCom= 1.00D+00 WtEn= 0.00D+00
 Coeff-Com:  0.123D-02-0.116D-02 0.290D-02-0.210D-03-0.866D-04-0.128D-01
 Coeff-Com: -0.659D-01-0.707D-01 0.402D+00 0.745D+00
 Coeff:      0.123D-02-0.116D-02 0.290D-02-0.210D-03-0.866D-04-0.128D-01
 Coeff:     -0.659D-01-0.707D-01 0.402D+00 0.745D+00
 Gap=     0.077 Goal=   None    Shift=    0.000
 RMSDP=1.10D-05 MaxDP=1.54D-03 DE=-8.42D-05 OVMax= 7.13D-03

 Cycle  12  Pass 1  IDiag  1:
 RMSU=  4.75D-06    CP:  1.01D+00  1.18D+00  5.52D-01  1.26D-01  6.27D-01
                    CP:  1.10D+00  1.28D+00  1.35D+00  1.47D+00  1.32D+00
 E= -1876.43435794289     Delta-E=       -0.000024592015 Rises=F Damp=F
 DIIS: error= 3.71D-05 at cycle  11 NSaved=  11.
 NSaved=11 IEnMin=11 EnMin= -1876.43435794289     IErMin=11 ErrMin= 3.71D-05
 ErrMax= 3.71D-05  0.00D+00 EMaxC= 1.00D-01 BMatC= 3.26D-06 BMatP= 1.17D-05
 IDIUse=1 WtCom= 1.00D+00 WtEn= 0.00D+00
 Coeff-Com:  0.113D-02-0.147D-02 0.237D-02-0.146D-03 0.144D-02-0.127D-02
 Coeff-Com: -0.211D-01-0.474D-01 0.602D-01 0.282D+00 0.724D+00
 Coeff:      0.113D-02-0.147D-02 0.237D-02-0.146D-03 0.144D-02-0.127D-02
 Coeff:     -0.211D-01-0.474D-01 0.602D-01 0.282D+00 0.724D+00
 Gap=     0.077 Goal=   None    Shift=    0.000
 RMSDP=5.60D-06 MaxDP=1.40D-03 DE=-2.46D-05 OVMax= 2.97D-03

 Cycle  13  Pass 1  IDiag  1:
 RMSU=  1.96D-06    CP:  1.01D+00  1.18D+00  5.52D-01  1.26D-01  6.25D-01
                    CP:  1.10D+00  1.28D+00  1.38D+00  1.54D+00  1.62D+00
                    CP:  1.43D+00
 E= -1876.43436320359     Delta-E=       -0.000005260699 Rises=F Damp=F
 DIIS: error= 2.35D-05 at cycle  12 NSaved=  12.
 NSaved=12 IEnMin=12 EnMin= -1876.43436320359     IErMin=12 ErrMin= 2.35D-05
 ErrMax= 2.35D-05  0.00D+00 EMaxC= 1.00D-01 BMatC= 1.22D-06 BMatP= 3.26D-06
 IDIUse=1 WtCom= 1.00D+00 WtEn= 0.00D+00
 Coeff-Com:  0.576D-03-0.900D-03 0.475D-03-0.757D-04 0.328D-03 0.335D-02
 Coeff-Com:  0.122D-01 0.575D-02-0.811D-01-0.741D-01 0.230D+00 0.904D+00
 Coeff:      0.576D-03-0.900D-03 0.475D-03-0.757D-04 0.328D-03 0.335D-02
 Coeff:      0.122D-01 0.575D-02-0.811D-01-0.741D-01 0.230D+00 0.904D+00
 Gap=     0.078 Goal=   None    Shift=    0.000
 RMSDP=4.37D-06 MaxDP=1.12D-03 DE=-5.26D-06 OVMax= 2.70D-03

 Cycle  14  Pass 1  IDiag  1:
 RMSU=  1.16D-06    CP:  1.01D+00  1.18D+00  5.53D-01  1.26D-01  6.24D-01
                    CP:  1.10D+00  1.28D+00  1.42D+00  1.60D+00  1.83D+00
                    CP:  1.85D+00  1.35D+00
 E= -1876.43436579104     Delta-E=       -0.000002587451 Rises=F Damp=F
 DIIS: error= 1.23D-05 at cycle  13 NSaved=  13.
 NSaved=13 IEnMin=13 EnMin= -1876.43436579104     IErMin=13 ErrMin= 1.23D-05
 ErrMax= 1.23D-05  0.00D+00 EMaxC= 1.00D-01 BMatC= 3.36D-07 BMatP= 1.22D-06
 IDIUse=1 WtCom= 1.00D+00 WtEn= 0.00D+00
 Coeff-Com:  0.931D-04-0.152D-03-0.173D-03-0.107D-04-0.419D-03 0.115D-02
 Coeff-Com:  0.108D-01 0.191D-01-0.402D-01-0.951D-01-0.183D+00 0.388D+00
 Coeff-Com:  0.900D+00
 Coeff:      0.931D-04-0.152D-03-0.173D-03-0.107D-04-0.419D-03 0.115D-02
 Coeff:      0.108D-01 0.191D-01-0.402D-01-0.951D-01-0.183D+00 0.388D+00
 Coeff:      0.900D+00
 Gap=     0.078 Goal=   None    Shift=    0.000
 RMSDP=2.97D-06 MaxDP=7.81D-04 DE=-2.59D-06 OVMax= 1.63D-03

 Cycle  15  Pass 1  IDiag  1:
 RMSU=  4.29D-07    CP:  1.01D+00  1.18D+00  5.53D-01  1.26D-01  6.23D-01
                    CP:  1.10D+00  1.28D+00  1.44D+00  1.62D+00  1.97D+00
                    CP:  2.14D+00  1.82D+00  1.33D+00
 E= -1876.43436656792     Delta-E=       -0.000000776878 Rises=F Damp=F
 DIIS: error= 2.28D-06 at cycle  14 NSaved=  14.
 NSaved=14 IEnMin=14 EnMin= -1876.43436656792     IErMin=14 ErrMin= 2.28D-06
 ErrMax= 2.28D-06  0.00D+00 EMaxC= 1.00D-01 BMatC= 2.23D-08 BMatP= 3.36D-07
 IDIUse=1 WtCom= 1.00D+00 WtEn= 0.00D+00
 Coeff-Com:  0.464D-04-0.685D-04-0.130D-03 0.329D-05-0.225D-03-0.144D-03
 Coeff-Com:  0.303D-02 0.764D-02-0.388D-02-0.272D-01-0.128D+00 0.515D-01
 Coeff-Com:  0.412D+00 0.685D+00
 Coeff:      0.464D-04-0.685D-04-0.130D-03 0.329D-05-0.225D-03-0.144D-03
 Coeff:      0.303D-02 0.764D-02-0.388D-02-0.272D-01-0.128D+00 0.515D-01
 Coeff:      0.412D+00 0.685D+00
 Gap=     0.078 Goal=   None    Shift=    0.000
 RMSDP=7.55D-07 MaxDP=1.79D-04 DE=-7.77D-07 OVMax= 5.04D-04

 Cycle  16  Pass 1  IDiag  1:
 RMSU=  1.68D-07    CP:  1.01D+00  1.18D+00  5.53D-01  1.26D-01  6.23D-01
                    CP:  1.10D+00  1.28D+00  1.44D+00  1.63D+00  2.00D+00
                    CP:  2.22D+00  1.93D+00  1.54D+00  1.23D+00
 E= -1876.43436664547     Delta-E=       -0.000000077554 Rises=F Damp=F
 DIIS: error= 1.36D-06 at cycle  15 NSaved=  15.
 NSaved=15 IEnMin=15 EnMin= -1876.43436664547     IErMin=15 ErrMin= 1.36D-06
 ErrMax= 1.36D-06  0.00D+00 EMaxC= 1.00D-01 BMatC= 5.16D-09 BMatP= 2.23D-08
 IDIUse=1 WtCom= 1.00D+00 WtEn= 0.00D+00
 Coeff-Com:  0.972D-05-0.114D-04-0.224D-04 0.764D-05 0.540D-05-0.420D-03
 Coeff-Com: -0.701D-03-0.796D-03 0.878D-02 0.893D-02-0.245D-01-0.681D-01
 Coeff-Com: -0.161D-01 0.327D+00 0.766D+00
 Coeff:      0.972D-05-0.114D-04-0.224D-04 0.764D-05 0.540D-05-0.420D-03
 Coeff:     -0.701D-03-0.796D-03 0.878D-02 0.893D-02-0.245D-01-0.681D-01
 Coeff:     -0.161D-01 0.327D+00 0.766D+00
 Gap=     0.078 Goal=   None    Shift=    0.000
 RMSDP=4.53D-07 MaxDP=1.11D-04 DE=-7.76D-08 OVMax= 2.91D-04

 Cycle  17  Pass 1  IDiag  1:
 RMSU=  9.44D-08    CP:  1.01D+00  1.18D+00  5.53D-01  1.26D-01  6.23D-01
                    CP:  1.10D+00  1.28D+00  1.44D+00  1.64D+00  2.02D+00
                    CP:  2.27D+00  2.01D+00  1.66D+00  1.46D+00  1.25D+00
 E= -1876.43436666648     Delta-E=       -0.000000021007 Rises=F Damp=F
 DIIS: error= 6.71D-07 at cycle  16 NSaved=  16.
 NSaved=16 IEnMin=16 EnMin= -1876.43436666648     IErMin=16 ErrMin= 6.71D-07
 ErrMax= 6.71D-07  0.00D+00 EMaxC= 1.00D-01 BMatC= 1.38D-09 BMatP= 5.16D-09
 IDIUse=1 WtCom= 1.00D+00 WtEn= 0.00D+00
 Coeff-Com: -0.328D-05 0.640D-05 0.949D-05 0.290D-05 0.459D-04-0.219D-03
 Coeff-Com: -0.692D-03-0.193D-02 0.495D-02 0.808D-02 0.103D-01-0.400D-01
 Coeff-Com: -0.788D-01 0.127D-01 0.344D+00 0.741D+00
 Coeff:     -0.328D-05 0.640D-05 0.949D-05 0.290D-05 0.459D-04-0.219D-03
 Coeff:     -0.692D-03-0.193D-02 0.495D-02 0.808D-02 0.103D-01-0.400D-01
 Coeff:     -0.788D-01 0.127D-01 0.344D+00 0.741D+00
 Gap=     0.078 Goal=   None    Shift=    0.000
 RMSDP=2.00D-07 MaxDP=4.75D-05 DE=-2.10D-08 OVMax= 1.33D-04

 Cycle  18  Pass 1  IDiag  1:
 RMSU=  4.28D-08    CP:  1.01D+00  1.18D+00  5.53D-01  1.26D-01  6.23D-01
                    CP:  1.10D+00  1.28D+00  1.45D+00  1.64D+00  2.02D+00
                    CP:  2.28D+00  2.04D+00  1.73D+00  1.58D+00  1.52D+00
                    CP:  1.11D+00
 E= -1876.43436667100     Delta-E=       -0.000000004517 Rises=F Damp=F
 DIIS: error= 2.48D-07 at cycle  17 NSaved=  17.
 NSaved=17 IEnMin=17 EnMin= -1876.43436667100     IErMin=17 ErrMin= 2.48D-07
 ErrMax= 2.48D-07  0.00D+00 EMaxC= 1.00D-01 BMatC= 2.63D-10 BMatP= 1.38D-09
 IDIUse=1 WtCom= 1.00D+00 WtEn= 0.00D+00
 Coeff-Com: -0.299D-05 0.458D-05 0.105D-04 0.834D-06 0.241D-04-0.315D-04
 Coeff-Com: -0.115D-03-0.767D-03 0.602D-03 0.158D-02 0.953D-02-0.266D-02
 Coeff-Com: -0.309D-01-0.764D-01-0.291D-01 0.347D+00 0.781D+00
 Coeff:     -0.299D-05 0.458D-05 0.105D-04 0.834D-06 0.241D-04-0.315D-04
 Coeff:     -0.115D-03-0.767D-03 0.602D-03 0.158D-02 0.953D-02-0.266D-02
 Coeff:     -0.309D-01-0.764D-01-0.291D-01 0.347D+00 0.781D+00
 Gap=     0.078 Goal=   None    Shift=    0.000
 RMSDP=9.80D-08 MaxDP=2.29D-05 DE=-4.52D-09 OVMax= 6.57D-05

 Cycle  19  Pass 1  IDiag  1:
 RMSU=  1.59D-08    CP:  1.01D+00  1.18D+00  5.53D-01  1.26D-01  6.23D-01
                    CP:  1.10D+00  1.28D+00  1.45D+00  1.64D+00  2.03D+00
                    CP:  2.29D+00  2.05D+00  1.75D+00  1.63D+00  1.65D+00
                    CP:  1.35D+00  1.10D+00
 E= -1876.43436667188     Delta-E=       -0.000000000882 Rises=F Damp=F
 DIIS: error= 9.49D-08 at cycle  18 NSaved=  18.
 NSaved=18 IEnMin=18 EnMin= -1876.43436667188     IErMin=18 ErrMin= 9.49D-08
 ErrMax= 9.49D-08  0.00D+00 EMaxC= 1.00D-01 BMatC= 3.31D-11 BMatP= 2.63D-10
 IDIUse=1 WtCom= 1.00D+00 WtEn= 0.00D+00
 Coeff-Com: -0.150D-05 0.209D-05 0.370D-05 0.849D-07 0.787D-05 0.103D-04
 Coeff-Com:  0.289D-04-0.154D-03-0.329D-03-0.273D-03 0.296D-02 0.354D-02
 Coeff-Com: -0.511D-02-0.394D-01-0.577D-01 0.758D-01 0.381D+00 0.640D+00
 Coeff:     -0.150D-05 0.209D-05 0.370D-05 0.849D-07 0.787D-05 0.103D-04
 Coeff:      0.289D-04-0.154D-03-0.329D-03-0.273D-03 0.296D-02 0.354D-02
 Coeff:     -0.511D-02-0.394D-01-0.577D-01 0.758D-01 0.381D+00 0.640D+00
 Gap=     0.078 Goal=   None    Shift=    0.000
 RMSDP=2.72D-08 MaxDP=5.57D-06 DE=-8.82D-10 OVMax= 1.87D-05

 Cycle  20  Pass 1  IDiag  1:
 RMSU=  5.73D-09    CP:  1.01D+00  1.18D+00  5.53D-01  1.26D-01  6.23D-01
                    CP:  1.10D+00  1.28D+00  1.45D+00  1.64D+00  2.03D+00
                    CP:  2.30D+00  2.06D+00  1.76D+00  1.65D+00  1.69D+00
                    CP:  1.41D+00  1.26D+00  1.05D+00
 E= -1876.43436667188     Delta-E=        0.000000000002 Rises=F Damp=F
 DIIS: error= 3.53D-08 at cycle  19 NSaved=  19.
 NSaved=19 IEnMin=18 EnMin= -1876.43436667188     IErMin=19 ErrMin= 3.53D-08
 ErrMax= 3.53D-08  0.00D+00 EMaxC= 1.00D-01 BMatC= 4.08D-12 BMatP= 3.31D-11
 IDIUse=1 WtCom= 1.00D+00 WtEn= 0.00D+00
 Coeff-Com: -0.290D-06 0.337D-06 0.143D-06-0.325D-07 0.449D-06 0.105D-04
 Coeff-Com:  0.313D-04 0.634D-04-0.254D-03-0.379D-03-0.520D-03 0.207D-02
 Coeff-Com:  0.304D-02-0.376D-02-0.204D-01-0.269D-01 0.422D-01 0.285D+00
 Coeff-Com:  0.720D+00
 Coeff:     -0.290D-06 0.337D-06 0.143D-06-0.325D-07 0.449D-06 0.105D-04
 Coeff:      0.313D-04 0.634D-04-0.254D-03-0.379D-03-0.520D-03 0.207D-02
 Coeff:      0.304D-02-0.376D-02-0.204D-01-0.269D-01 0.422D-01 0.285D+00
 Coeff:      0.720D+00
 Gap=     0.078 Goal=   None    Shift=    0.000
 RMSDP=9.16D-09 MaxDP=1.76D-06 DE= 1.82D-12 OVMax= 6.44D-06

 Cycle  21  Pass 1  IDiag  1:
 RMSU=  2.32D-09    CP:  1.01D+00  1.18D+00  5.53D-01  1.26D-01  6.23D-01
                    CP:  1.10D+00  1.28D+00  1.45D+00  1.64D+00  2.03D+00
                    CP:  2.30D+00  2.06D+00  1.76D+00  1.65D+00  1.70D+00
                    CP:  1.44D+00  1.29D+00  1.23D+00  1.11D+00
 E= -1876.43436667192     Delta-E=       -0.000000000037 Rises=F Damp=F
 DIIS: error= 1.72D-08 at cycle  20 NSaved=  20.
 NSaved=20 IEnMin=20 EnMin= -1876.43436667192     IErMin=20 ErrMin= 1.72D-08
 ErrMax= 1.72D-08  0.00D+00 EMaxC= 1.00D-01 BMatC= 7.72D-13 BMatP= 4.08D-12
 IDIUse=1 WtCom= 1.00D+00 WtEn= 0.00D+00
 Coeff-Com: -0.156D-06 0.213D-06-0.438D-06-0.586D-07-0.719D-06 0.407D-05
 Coeff-Com:  0.735D-05 0.504D-04-0.659D-04-0.103D-03-0.681D-03 0.394D-03
 Coeff-Com:  0.189D-02 0.386D-02-0.169D-02-0.247D-01-0.362D-01 0.302D-01
 Coeff-Com:  0.328D+00 0.699D+00
 Coeff:     -0.156D-06 0.213D-06-0.438D-06-0.586D-07-0.719D-06 0.407D-05
 Coeff:      0.735D-05 0.504D-04-0.659D-04-0.103D-03-0.681D-03 0.394D-03
 Coeff:      0.189D-02 0.386D-02-0.169D-02-0.247D-01-0.362D-01 0.302D-01
 Coeff:      0.328D+00 0.699D+00
 Gap=     0.078 Goal=   None    Shift=    0.000
 RMSDP=4.12D-09 MaxDP=8.49D-07 DE=-3.73D-11 OVMax= 2.87D-06

 SCF Done:  E(RM062X) =  -1876.43436667     A.U. after   21 cycles
            NFock= 21  Conv=0.41D-08     -V/T= 2.0047
 KE= 1.867641220002D+03 PE=-1.312892946402D+04 EE= 4.996323456323D+03
 Leave Link  502 at Sat Jun 22 17:56:58 2024, MaxMem=  2684354560 cpu:           25615.5 elap:            1604.9
 (Enter /storage/apps/GAUSSIAN/G16_RevA03/g16/l601.exe)
 Copying SCF densities to generalized density rwf, IOpCl= 0 IROHF=0.

 **********************************************************************

            Population analysis using the SCF density.

 **********************************************************************

 Alpha  occ. eigenvalues --  -19.78950 -19.77436 -19.75919 -19.72658 -19.64037
 Alpha  occ. eigenvalues --  -19.61384 -15.02470 -14.90352 -14.87770 -14.85734
 Alpha  occ. eigenvalues --  -14.84690 -14.84312 -14.82361 -14.81264 -14.81256
 Alpha  occ. eigenvalues --  -10.79579 -10.79375 -10.78165 -10.78147 -10.74798
 Alpha  occ. eigenvalues --  -10.74750 -10.74177 -10.73908 -10.73849 -10.72748
 Alpha  occ. eigenvalues --  -10.72408 -10.70998 -10.69315 -10.68369 -10.66639
 Alpha  occ. eigenvalues --  -10.65928 -10.65754 -10.65359 -10.63287 -10.59535
 Alpha  occ. eigenvalues --  -10.59240 -10.58815 -10.58687 -10.58564  -1.33519
 Alpha  occ. eigenvalues --   -1.29755  -1.28281  -1.27736  -1.26539  -1.21488
 Alpha  occ. eigenvalues --   -1.16309  -1.15426  -1.15369  -1.14221  -1.12750
 Alpha  occ. eigenvalues --   -1.11575  -1.08406  -1.07921  -1.07767  -1.05342
 Alpha  occ. eigenvalues --   -1.03595  -1.01992  -1.01043  -1.00515  -0.96866
 Alpha  occ. eigenvalues --   -0.94445  -0.92526  -0.91714  -0.91056  -0.88899
 Alpha  occ. eigenvalues --   -0.88127  -0.86893  -0.85440  -0.82324  -0.82309
 Alpha  occ. eigenvalues --   -0.81292  -0.80794  -0.78072  -0.77660  -0.77265
 Alpha  occ. eigenvalues --   -0.77039  -0.75579  -0.75461  -0.73967  -0.73819
 Alpha  occ. eigenvalues --   -0.73462  -0.71690  -0.71140  -0.70835  -0.70234
 Alpha  occ. eigenvalues --   -0.69815  -0.69434  -0.69058  -0.67809  -0.66812
 Alpha  occ. eigenvalues --   -0.66356  -0.66171  -0.65850  -0.65194  -0.64863
 Alpha  occ. eigenvalues --   -0.64667  -0.64015  -0.63058  -0.63012  -0.62271
 Alpha  occ. eigenvalues --   -0.61929  -0.61590  -0.61362  -0.60620  -0.60413
 Alpha  occ. eigenvalues --   -0.59580  -0.59259  -0.59036  -0.57778  -0.57343
 Alpha  occ. eigenvalues --   -0.56488  -0.55861  -0.55421  -0.54759  -0.54300
 Alpha  occ. eigenvalues --   -0.53929  -0.53277  -0.52665  -0.52078  -0.51630
 Alpha  occ. eigenvalues --   -0.51442  -0.51074  -0.50924  -0.50483  -0.49968
 Alpha  occ. eigenvalues --   -0.49256  -0.49009  -0.48194  -0.47296  -0.46423
 Alpha  occ. eigenvalues --   -0.45580  -0.43421  -0.42593  -0.42124  -0.40556
 Alpha  occ. eigenvalues --   -0.39266  -0.38318  -0.37326  -0.36074  -0.36018
 Alpha  occ. eigenvalues --   -0.31455  -0.29301
 Alpha virt. eigenvalues --   -0.21515  -0.17981  -0.08180  -0.07654  -0.07053
 Alpha virt. eigenvalues --   -0.06639  -0.06319  -0.05412  -0.04842  -0.04371
 Alpha virt. eigenvalues --   -0.03845  -0.02849  -0.02760  -0.02488  -0.01844
 Alpha virt. eigenvalues --   -0.01615  -0.01037  -0.00923  -0.00555   0.00070
 Alpha virt. eigenvalues --    0.00705   0.00942   0.01239   0.01359   0.01739
 Alpha virt. eigenvalues --    0.02014   0.02084   0.02639   0.03007   0.03616
 Alpha virt. eigenvalues --    0.04065   0.04474   0.04787   0.05185   0.05640
 Alpha virt. eigenvalues --    0.05927   0.06197   0.06275   0.06463   0.06652
 Alpha virt. eigenvalues --    0.07036   0.07377   0.07966   0.08386   0.08683
 Alpha virt. eigenvalues --    0.09368   0.09568   0.09920   0.10262   0.10520
 Alpha virt. eigenvalues --    0.10797   0.11422   0.11649   0.12074   0.12273
 Alpha virt. eigenvalues --    0.12562   0.12737   0.13055   0.13558   0.13710
 Alpha virt. eigenvalues --    0.14248   0.14499   0.14788   0.15141   0.15639
 Alpha virt. eigenvalues --    0.15804   0.15996   0.16470   0.16699   0.17029
 Alpha virt. eigenvalues --    0.17646   0.17783   0.18241   0.18747   0.18981
 Alpha virt. eigenvalues --    0.19081   0.19334   0.19668   0.19779   0.20225
 Alpha virt. eigenvalues --    0.20406   0.20652   0.21161   0.21412   0.21560
 Alpha virt. eigenvalues --    0.21769   0.22055   0.22718   0.22947   0.23252
 Alpha virt. eigenvalues --    0.23511   0.23866   0.24093   0.24341   0.24603
 Alpha virt. eigenvalues --    0.24747   0.25028   0.25136   0.25582   0.25920
 Alpha virt. eigenvalues --    0.26259   0.26449   0.26515   0.27155   0.27423
 Alpha virt. eigenvalues --    0.27920   0.28151   0.28200   0.28420   0.28791
 Alpha virt. eigenvalues --    0.29174   0.29430   0.29591   0.29752   0.30153
 Alpha virt. eigenvalues --    0.30246   0.30543   0.30857   0.31155   0.31231
 Alpha virt. eigenvalues --    0.31500   0.31708   0.31993   0.32216   0.32386
 Alpha virt. eigenvalues --    0.32748   0.32945   0.33385   0.33800   0.33945
 Alpha virt. eigenvalues --    0.34086   0.34471   0.34745   0.35282   0.35401
 Alpha virt. eigenvalues --    0.35497   0.35744   0.36066   0.36205   0.36377
 Alpha virt. eigenvalues --    0.36606   0.36767   0.36972   0.37231   0.37693
 Alpha virt. eigenvalues --    0.38010   0.38107   0.38358   0.38562   0.39141
 Alpha virt. eigenvalues --    0.39258   0.39531   0.39674   0.39919   0.40132
 Alpha virt. eigenvalues --    0.40451   0.40723   0.40755   0.41243   0.41415
 Alpha virt. eigenvalues --    0.41790   0.42044   0.42090   0.42864   0.42937
 Alpha virt. eigenvalues --    0.43133   0.43412   0.43611   0.43823   0.44099
 Alpha virt. eigenvalues --    0.44548   0.44637   0.45001   0.45262   0.45440
 Alpha virt. eigenvalues --    0.45970   0.46063   0.46401   0.46584   0.46795
 Alpha virt. eigenvalues --    0.47248   0.47433   0.48184   0.48423   0.48727
 Alpha virt. eigenvalues --    0.48771   0.49268   0.49345   0.49943   0.50080
 Alpha virt. eigenvalues --    0.50374   0.50502   0.50964   0.51427   0.51510
 Alpha virt. eigenvalues --    0.51920   0.52058   0.52581   0.52926   0.53359
 Alpha virt. eigenvalues --    0.53641   0.53866   0.54132   0.54410   0.55285
 Alpha virt. eigenvalues --    0.55515   0.55863   0.55975   0.56630   0.56841
 Alpha virt. eigenvalues --    0.57008   0.57145   0.57501   0.57655   0.57874
 Alpha virt. eigenvalues --    0.58656   0.58908   0.59230   0.59371   0.60113
 Alpha virt. eigenvalues --    0.60178   0.60576   0.61110   0.61329   0.61695
 Alpha virt. eigenvalues --    0.61826   0.62460   0.62907   0.63216   0.63463
 Alpha virt. eigenvalues --    0.63578   0.63743   0.64116   0.64659   0.64846
 Alpha virt. eigenvalues --    0.65314   0.65609   0.65862   0.66556   0.66883
 Alpha virt. eigenvalues --    0.67440   0.68064   0.68264   0.68362   0.68757
 Alpha virt. eigenvalues --    0.69284   0.69774   0.70375   0.70497   0.70830
 Alpha virt. eigenvalues --    0.71327   0.71493   0.71716   0.71828   0.72649
 Alpha virt. eigenvalues --    0.73110   0.73547   0.73900   0.74428   0.74673
 Alpha virt. eigenvalues --    0.75112   0.75378   0.75544   0.75877   0.76791
 Alpha virt. eigenvalues --    0.77057   0.77196   0.77826   0.77913   0.78217
 Alpha virt. eigenvalues --    0.78683   0.78807   0.79660   0.79829   0.80670
 Alpha virt. eigenvalues --    0.81034   0.81483   0.82507   0.82765   0.82813
 Alpha virt. eigenvalues --    0.83111   0.83779   0.84137   0.84713   0.84987
 Alpha virt. eigenvalues --    0.85077   0.85537   0.85867   0.86955   0.87412
 Alpha virt. eigenvalues --    0.87664   0.87943   0.88690   0.88813   0.88953
 Alpha virt. eigenvalues --    0.89496   0.90463   0.90669   0.91200   0.91433
 Alpha virt. eigenvalues --    0.91993   0.92433   0.92920   0.93264   0.93981
 Alpha virt. eigenvalues --    0.94697   0.94956   0.95470   0.95801   0.96529
 Alpha virt. eigenvalues --    0.97178   0.97851   0.97951   0.98627   0.99335
 Alpha virt. eigenvalues --    0.99583   0.99813   1.00365   1.00723   1.01283
 Alpha virt. eigenvalues --    1.01723   1.02106   1.02417   1.03856   1.03994
 Alpha virt. eigenvalues --    1.04714   1.05049   1.05650   1.06177   1.06418
 Alpha virt. eigenvalues --    1.07349   1.07953   1.08301   1.08478   1.08718
 Alpha virt. eigenvalues --    1.09287   1.10026   1.10758   1.10987   1.11366
 Alpha virt. eigenvalues --    1.11790   1.12374   1.12859   1.13366   1.14800
 Alpha virt. eigenvalues --    1.15058   1.15364   1.15777   1.16065   1.16502
 Alpha virt. eigenvalues --    1.16937   1.17359   1.17910   1.18462   1.19225
 Alpha virt. eigenvalues --    1.19593   1.20490   1.21601   1.22181   1.22835
 Alpha virt. eigenvalues --    1.23425   1.23449   1.23715   1.24188   1.24410
 Alpha virt. eigenvalues --    1.24826   1.25691   1.25949   1.26376   1.26980
 Alpha virt. eigenvalues --    1.27502   1.27754   1.28020   1.28360   1.29112
 Alpha virt. eigenvalues --    1.29332   1.30089   1.30254   1.31296   1.31772
 Alpha virt. eigenvalues --    1.31986   1.32688   1.33293   1.34189   1.34696
 Alpha virt. eigenvalues --    1.34979   1.35544   1.35766   1.36475   1.36504
 Alpha virt. eigenvalues --    1.37234   1.37792   1.38207   1.38697   1.38862
 Alpha virt. eigenvalues --    1.39327   1.39644   1.40554   1.40792   1.41190
 Alpha virt. eigenvalues --    1.42009   1.42545   1.42872   1.43078   1.43417
 Alpha virt. eigenvalues --    1.44277   1.44436   1.44639   1.44983   1.45424
 Alpha virt. eigenvalues --    1.46041   1.46391   1.46823   1.46941   1.47589
 Alpha virt. eigenvalues --    1.47882   1.48047   1.48808   1.49101   1.49518
 Alpha virt. eigenvalues --    1.50198   1.50343   1.50672   1.51319   1.51767
 Alpha virt. eigenvalues --    1.52199   1.52449   1.52723   1.52815   1.53542
 Alpha virt. eigenvalues --    1.53821   1.54383   1.54603   1.54971   1.55123
 Alpha virt. eigenvalues --    1.55725   1.56000   1.56197   1.56613   1.57036
 Alpha virt. eigenvalues --    1.57214   1.57630   1.57788   1.58063   1.58457
 Alpha virt. eigenvalues --    1.59206   1.59928   1.60204   1.60432   1.60559
 Alpha virt. eigenvalues --    1.60685   1.61308   1.61749   1.62030   1.62246
 Alpha virt. eigenvalues --    1.63377   1.63534   1.64009   1.64301   1.64684
 Alpha virt. eigenvalues --    1.65597   1.65855   1.66000   1.66665   1.66949
 Alpha virt. eigenvalues --    1.67374   1.67680   1.68365   1.68806   1.69491
 Alpha virt. eigenvalues --    1.69771   1.69907   1.70756   1.71747   1.72025
 Alpha virt. eigenvalues --    1.72193   1.72641   1.73097   1.73389   1.73817
 Alpha virt. eigenvalues --    1.74133   1.74641   1.75135   1.76361   1.76569
 Alpha virt. eigenvalues --    1.76991   1.77290   1.77417   1.77828   1.78269
 Alpha virt. eigenvalues --    1.78401   1.79281   1.79831   1.80707   1.80863
 Alpha virt. eigenvalues --    1.81288   1.81735   1.82135   1.82782   1.83021
 Alpha virt. eigenvalues --    1.83228   1.83856   1.84260   1.84963   1.85020
 Alpha virt. eigenvalues --    1.85786   1.86198   1.86569   1.87135   1.87174
 Alpha virt. eigenvalues --    1.88029   1.88682   1.89028   1.89588   1.89975
 Alpha virt. eigenvalues --    1.90126   1.90472   1.90614   1.91341   1.92323
 Alpha virt. eigenvalues --    1.92668   1.93157   1.93481   1.94194   1.94857
 Alpha virt. eigenvalues --    1.95232   1.95459   1.95904   1.96515   1.97048
 Alpha virt. eigenvalues --    1.97517   1.97924   1.98354   1.99029   1.99188
 Alpha virt. eigenvalues --    1.99800   2.00694   2.00822   2.02009   2.02135
 Alpha virt. eigenvalues --    2.02671   2.02974   2.03948   2.04184   2.04327
 Alpha virt. eigenvalues --    2.05249   2.06039   2.06384   2.07171   2.07638
 Alpha virt. eigenvalues --    2.08163   2.08420   2.08984   2.09610   2.10004
 Alpha virt. eigenvalues --    2.10619   2.10854   2.11120   2.11140   2.12013
 Alpha virt. eigenvalues --    2.12721   2.13587   2.13824   2.14025   2.14349
 Alpha virt. eigenvalues --    2.15494   2.15935   2.16426   2.16724   2.16893
 Alpha virt. eigenvalues --    2.17637   2.18130   2.19144   2.19281   2.19746
 Alpha virt. eigenvalues --    2.20438   2.20863   2.21153   2.21546   2.21939
 Alpha virt. eigenvalues --    2.22052   2.23307   2.23782   2.24463   2.24855
 Alpha virt. eigenvalues --    2.25414   2.25737   2.26074   2.26585   2.27179
 Alpha virt. eigenvalues --    2.27563   2.27844   2.28527   2.29238   2.30081
 Alpha virt. eigenvalues --    2.30610   2.31091   2.31242   2.32637   2.33014
 Alpha virt. eigenvalues --    2.33989   2.34170   2.34623   2.35136   2.35669
 Alpha virt. eigenvalues --    2.35854   2.36210   2.37169   2.37390   2.37635
 Alpha virt. eigenvalues --    2.38626   2.39136   2.39409   2.39583   2.40528
 Alpha virt. eigenvalues --    2.40947   2.41767   2.42406   2.43242   2.44079
 Alpha virt. eigenvalues --    2.44383   2.44998   2.45439   2.46015   2.46830
 Alpha virt. eigenvalues --    2.46975   2.47521   2.48307   2.49000   2.49263
 Alpha virt. eigenvalues --    2.49628   2.50163   2.50768   2.51573   2.51969
 Alpha virt. eigenvalues --    2.52589   2.52730   2.52927   2.53677   2.54056
 Alpha virt. eigenvalues --    2.55181   2.55309   2.55991   2.56393   2.56645
 Alpha virt. eigenvalues --    2.57320   2.57924   2.58747   2.59094   2.59743
 Alpha virt. eigenvalues --    2.60097   2.60541   2.60764   2.61117   2.61488
 Alpha virt. eigenvalues --    2.61832   2.62457   2.63062   2.63468   2.63847
 Alpha virt. eigenvalues --    2.64055   2.64700   2.65230   2.65595   2.66043
 Alpha virt. eigenvalues --    2.66246   2.66985   2.67072   2.67521   2.67687
 Alpha virt. eigenvalues --    2.68412   2.68628   2.69127   2.69550   2.69654
 Alpha virt. eigenvalues --    2.70012   2.70232   2.70499   2.71119   2.71536
 Alpha virt. eigenvalues --    2.72395   2.72737   2.73113   2.73609   2.74312
 Alpha virt. eigenvalues --    2.74845   2.74922   2.75458   2.76211   2.76785
 Alpha virt. eigenvalues --    2.76830   2.77100   2.77481   2.77812   2.78183
 Alpha virt. eigenvalues --    2.78867   2.79298   2.79848   2.80562   2.80682
 Alpha virt. eigenvalues --    2.80880   2.82033   2.82092   2.82634   2.82887
 Alpha virt. eigenvalues --    2.83167   2.83476   2.83997   2.84151   2.85308
 Alpha virt. eigenvalues --    2.85613   2.85983   2.86228   2.86727   2.86881
 Alpha virt. eigenvalues --    2.87854   2.88073   2.88206   2.88819   2.88957
 Alpha virt. eigenvalues --    2.89518   2.89615   2.90080   2.90312   2.91072
 Alpha virt. eigenvalues --    2.91279   2.91754   2.91796   2.92086   2.92355
 Alpha virt. eigenvalues --    2.92738   2.92897   2.93083   2.94060   2.94709
 Alpha virt. eigenvalues --    2.95310   2.95447   2.95470   2.95970   2.96225
 Alpha virt. eigenvalues --    2.96741   2.97408   2.97904   2.98611   2.98762
 Alpha virt. eigenvalues --    2.99421   2.99963   3.00374   3.00825   3.01539
 Alpha virt. eigenvalues --    3.01659   3.01840   3.02257   3.02471   3.03078
 Alpha virt. eigenvalues --    3.03274   3.03696   3.04021   3.04228   3.04916
 Alpha virt. eigenvalues --    3.05628   3.06030   3.06072   3.06121   3.07120
 Alpha virt. eigenvalues --    3.07576   3.08140   3.08375   3.08565   3.09008
 Alpha virt. eigenvalues --    3.09078   3.09850   3.10034   3.10443   3.11309
 Alpha virt. eigenvalues --    3.11755   3.11929   3.12109   3.12394   3.12657
 Alpha virt. eigenvalues --    3.12982   3.13404   3.13738   3.13808   3.14405
 Alpha virt. eigenvalues --    3.14834   3.15217   3.15452   3.15577   3.15834
 Alpha virt. eigenvalues --    3.16466   3.16852   3.17080   3.17458   3.17640
 Alpha virt. eigenvalues --    3.17698   3.18637   3.19395   3.19629   3.20028
 Alpha virt. eigenvalues --    3.20430   3.20936   3.21096   3.21186   3.21952
 Alpha virt. eigenvalues --    3.22237   3.22458   3.23106   3.23231   3.23832
 Alpha virt. eigenvalues --    3.24959   3.25360   3.25679   3.26178   3.26480
 Alpha virt. eigenvalues --    3.26854   3.27374   3.27597   3.28320   3.28634
 Alpha virt. eigenvalues --    3.28957   3.29379   3.29511   3.29722   3.30312
 Alpha virt. eigenvalues --    3.30798   3.31184   3.31724   3.31880   3.32294
 Alpha virt. eigenvalues --    3.32637   3.32938   3.33397   3.33507   3.34158
 Alpha virt. eigenvalues --    3.34188   3.34853   3.35115   3.35443   3.35817
 Alpha virt. eigenvalues --    3.35830   3.36622   3.37085   3.37609   3.37666
 Alpha virt. eigenvalues --    3.38345   3.39100   3.39825   3.40364   3.40655
 Alpha virt. eigenvalues --    3.41263   3.41787   3.42117   3.42641   3.42919
 Alpha virt. eigenvalues --    3.43714   3.44190   3.44665   3.44848   3.45255
 Alpha virt. eigenvalues --    3.45928   3.46187   3.46933   3.47771   3.48587
 Alpha virt. eigenvalues --    3.49080   3.49575   3.50191   3.50467   3.50871
 Alpha virt. eigenvalues --    3.51017   3.51562   3.52432   3.52910   3.53591
 Alpha virt. eigenvalues --    3.53942   3.55178   3.55337   3.55944   3.57736
 Alpha virt. eigenvalues --    3.58191   3.59554   3.59686   3.60424   3.60947
 Alpha virt. eigenvalues --    3.61951   3.62924   3.63104   3.63803   3.64312
 Alpha virt. eigenvalues --    3.65055   3.66601   3.66839   3.67862   3.68073
 Alpha virt. eigenvalues --    3.68381   3.70018   3.70473   3.70920   3.71559
 Alpha virt. eigenvalues --    3.71801   3.73450   3.73794   3.74265   3.74628
 Alpha virt. eigenvalues --    3.75151   3.75965   3.77200   3.77716   3.78209
 Alpha virt. eigenvalues --    3.78834   3.79294   3.79514   3.80748   3.81426
 Alpha virt. eigenvalues --    3.82271   3.82733   3.83437   3.84033   3.84295
 Alpha virt. eigenvalues --    3.85386   3.86766   3.87816   3.88355   3.89060
 Alpha virt. eigenvalues --    3.89413   3.89664   3.90898   3.90958   3.91816
 Alpha virt. eigenvalues --    3.92996   3.93644   3.94200   3.94962   3.95046
 Alpha virt. eigenvalues --    3.95840   3.97882   3.99229   4.00184   4.00295
 Alpha virt. eigenvalues --    4.00744   4.01898   4.02455   4.02891   4.03737
 Alpha virt. eigenvalues --    4.04076   4.04905   4.05216   4.06435   4.06928
 Alpha virt. eigenvalues --    4.07628   4.07697   4.08505   4.09214   4.09980
 Alpha virt. eigenvalues --    4.11039   4.11396   4.11828   4.12741   4.13217
 Alpha virt. eigenvalues --    4.13829   4.14194   4.15008   4.16057   4.17288
 Alpha virt. eigenvalues --    4.18091   4.18563   4.19187   4.19781   4.21333
 Alpha virt. eigenvalues --    4.21650   4.22359   4.22825   4.23407   4.23903
 Alpha virt. eigenvalues --    4.24253   4.25621   4.26445   4.26707   4.28654
 Alpha virt. eigenvalues --    4.29029   4.30210   4.30562   4.31848   4.32004
 Alpha virt. eigenvalues --    4.32820   4.34072   4.35619   4.37440   4.38466
 Alpha virt. eigenvalues --    4.39029   4.39716   4.40226   4.41006   4.42005
 Alpha virt. eigenvalues --    4.42296   4.45376   4.47152   4.48353   4.49948
 Alpha virt. eigenvalues --    4.50186   4.50439   4.51173   4.51410   4.52164
 Alpha virt. eigenvalues --    4.52560   4.53366   4.53605   4.55046   4.55987
 Alpha virt. eigenvalues --    4.57110   4.57278   4.57777   4.58510   4.59181
 Alpha virt. eigenvalues --    4.59618   4.61351   4.61824   4.61948   4.62455
 Alpha virt. eigenvalues --    4.63789   4.64201   4.64907   4.66226   4.67834
 Alpha virt. eigenvalues --    4.67970   4.68457   4.68608   4.68950   4.69996
 Alpha virt. eigenvalues --    4.71249   4.73603   4.74026   4.74525   4.74756
 Alpha virt. eigenvalues --    4.75438   4.77228   4.78003   4.78481   4.79362
 Alpha virt. eigenvalues --    4.80568   4.81464   4.82893   4.83746   4.85543
 Alpha virt. eigenvalues --    4.86503   4.87228   4.88258   4.88315   4.89378
 Alpha virt. eigenvalues --    4.89828   4.90360   4.90611   4.91953   4.92735
 Alpha virt. eigenvalues --    4.93501   4.94072   4.95090   4.96430   4.97121
 Alpha virt. eigenvalues --    4.97365   4.98330   4.98664   4.99530   4.99804
 Alpha virt. eigenvalues --    5.00521   5.01181   5.01588   5.02402   5.02688
 Alpha virt. eigenvalues --    5.02926   5.03231   5.04699   5.04899   5.05975
 Alpha virt. eigenvalues --    5.06760   5.07194   5.08214   5.08434   5.09114
 Alpha virt. eigenvalues --    5.09847   5.11272   5.11678   5.13305   5.13475
 Alpha virt. eigenvalues --    5.13528   5.14168   5.14853   5.15458   5.15621
 Alpha virt. eigenvalues --    5.16729   5.16923   5.17184   5.18588   5.19138
 Alpha virt. eigenvalues --    5.20096   5.20309   5.21012   5.21998   5.22715
 Alpha virt. eigenvalues --    5.22973   5.24062   5.25160   5.25394   5.25430
 Alpha virt. eigenvalues --    5.26084   5.26197   5.26910   5.28215   5.28477
 Alpha virt. eigenvalues --    5.28645   5.28832   5.30159   5.32536   5.33148
 Alpha virt. eigenvalues --    5.34032   5.35242   5.35588   5.36278   5.36456
 Alpha virt. eigenvalues --    5.37880   5.38086   5.39170   5.41496   5.43466
 Alpha virt. eigenvalues --    5.45651   5.49485   5.49701   5.50279   5.51849
 Alpha virt. eigenvalues --    5.53307   5.54714   5.55245   5.55739   5.56010
 Alpha virt. eigenvalues --    5.58144   5.58435   5.59084   5.60655   5.61750
 Alpha virt. eigenvalues --    5.62157   5.63223   5.63431   5.64135   5.65629
 Alpha virt. eigenvalues --    5.67214   5.68177   5.68651   5.69868   5.71122
 Alpha virt. eigenvalues --    5.73065   5.75175   5.77544   5.79594   5.79942
 Alpha virt. eigenvalues --    5.81296   5.81474   5.82281   5.84475   5.87180
 Alpha virt. eigenvalues --    5.87826   5.91964   5.92715   5.93473   5.95383
 Alpha virt. eigenvalues --    5.95607   5.96577   5.97094   6.01772   6.08583
 Alpha virt. eigenvalues --    6.11323   6.16525   6.19547   6.19815   6.23613
 Alpha virt. eigenvalues --    6.29492   6.32437   6.35193   6.37831   6.38176
 Alpha virt. eigenvalues --    6.47677   6.51212   6.54901   6.55579   6.55869
 Alpha virt. eigenvalues --    6.58098   6.61275   6.62829   6.65349   6.67375
 Alpha virt. eigenvalues --    6.70588   6.70795   6.72809   6.74993   6.76554
 Alpha virt. eigenvalues --    6.78940   6.82859   6.85520   6.94269   6.96927
 Alpha virt. eigenvalues --    6.98977   6.99492   7.00298   7.02799   7.03474
 Alpha virt. eigenvalues --    7.06924   7.07483   7.12775  22.38292  22.44010
 Alpha virt. eigenvalues --   22.53318  22.56334  22.64256  22.71923  22.72730
 Alpha virt. eigenvalues --   22.75803  22.77657  22.79653  22.81931  22.84361
 Alpha virt. eigenvalues --   22.93964  22.96869  22.98363  22.99367  23.00688
 Alpha virt. eigenvalues --   23.14409  23.16603  23.19096  23.26038  23.31614
 Alpha virt. eigenvalues --   23.40272  23.51578  32.01037  32.01970  32.09375
 Alpha virt. eigenvalues --   32.40918  32.57259  32.63993  32.73565  32.88253
 Alpha virt. eigenvalues --   32.93829  44.01321  44.01617  44.04280  44.04934
 Alpha virt. eigenvalues --   44.07198  44.25282
          Condensed to atoms (all electrons):
 Mulliken charges:
               1
     1  C   -0.076319
     2  H    0.143683
     3  O   -0.304951
     4  C    0.007413
     5  H    0.180817
     6  O   -0.511974
     7  H    0.352013
     8  C    0.005371
     9  H    0.170631
    10  O   -0.464282
    11  H    0.365788
    12  C    0.049418
    13  H    0.147447
    14  N    0.044940
    15  C   -0.015837
    16  H    0.172961
    17  C    0.041047
    18  C   -0.135930
    19  H    0.253840
    20  H    0.062060
    21  C   -0.161450
    22  H    0.190714
    23  C    0.038982
    24  H    0.202895
    25  C    0.366082
    26  O   -0.347493
    27  N   -0.491290
    28  H    0.255041
    29  H    0.298302
    30  N   -0.384630
    31  C    0.454705
    32  N   -0.544462
    33  H    0.288006
    34  H    0.272752
    35  N   -0.318258
    36  H    0.264688
    37  C    0.263196
    38  O   -0.466372
    39  C   -0.015108
    40  N   -0.375788
    41  H    0.255289
    42  C    0.002731
    43  C   -0.225501
    44  H    0.161834
    45  H    0.172562
    46  N   -0.383046
    47  H    0.252398
    48  C    0.320796
    49  C   -0.244915
    50  H    0.136344
    51  H    0.209557
    52  N   -0.414888
    53  H    0.236917
    54  C    0.096595
    55  C   -0.185714
    56  H    0.172243
    57  C   -0.195429
    58  H    0.145415
    59  C    0.278836
    60  C   -0.165276
    61  H    0.118227
    62  C   -0.186029
    63  H    0.104193
    64  C    0.322622
    65  O   -0.442405
    66  N   -0.526756
    67  H    0.248105
    68  H    0.162244
    69  H    0.294405
 Sum of Mulliken charges =   1.00000
 Mulliken charges with hydrogens summed into heavy atoms:
               1
     1  C    0.229608
     3  O   -0.304951
     4  C    0.188230
     6  O   -0.159961
     8  C    0.176002
    10  O   -0.098494
    12  C    0.196864
    14  N    0.044940
    15  C    0.157124
    17  C    0.041047
    18  C    0.117910
    21  C    0.029264
    23  C    0.241876
    25  C    0.366082
    26  O   -0.347493
    27  N    0.062053
    30  N   -0.384630
    31  C    0.454705
    32  N    0.016296
    35  N   -0.053569
    37  C    0.263196
    38  O   -0.466372
    39  C   -0.015108
    40  N   -0.120499
    42  C    0.064790
    43  C    0.108895
    46  N   -0.130648
    48  C    0.320796
    49  C    0.100986
    52  N   -0.177971
    54  C    0.096595
    55  C   -0.013471
    57  C   -0.050014
    59  C    0.278836
    60  C   -0.047049
    62  C   -0.081837
    64  C    0.322622
    65  O   -0.442405
    66  N    0.015753
 Electronic spatial extent (au):  <R**2>=          28036.9870
 Charge=              1.0000 electrons
 Dipole moment (field-independent basis, Debye):
    X=             -7.8598    Y=             -8.5175    Z=             23.7401  Tot=             26.4182
 Quadrupole moment (field-independent basis, Debye-Ang):
   XX=           -136.4407   YY=           -224.5586   ZZ=           -110.4440
   XY=             -3.4158   XZ=            -88.3509   YZ=             67.0485
 Traceless Quadrupole moment (field-independent basis, Debye-Ang):
   XX=             20.7071   YY=            -67.4109   ZZ=             46.7038
   XY=             -3.4158   XZ=            -88.3509   YZ=             67.0485
 Octapole moment (field-independent basis, Debye-Ang**2):
  XXX=            676.7704  YYY=           -103.9866  ZZZ=            867.6952  XYY=            234.1358
  XXY=           -115.5234  XXZ=            330.8683  XZZ=            -35.8325  YZZ=           -113.3296
  YYZ=            195.3671  XYZ=           -103.5609
 Hexadecapole moment (field-independent basis, Debye-Ang**3):
 XXXX=          -6604.6333 YYYY=          -5154.6773 ZZZZ=         -16062.9268 XXXY=           1282.9034
 XXXZ=           -606.9304 YYYX=           1854.7042 YYYZ=           1546.0259 ZZZX=          -2089.9522
 ZZZY=           4037.1815 XXYY=          -2064.6918 XXZZ=          -3255.0111 YYZZ=          -5341.2759
 XXYZ=           1093.5568 YYXZ=           -177.3213 ZZXY=            523.7457
 N-N= 4.388530421019D+03 E-N=-1.312892946645D+04  KE= 1.867641220002D+03
 No NMR shielding tensors so no spin-rotation constants.
 Leave Link  601 at Sat Jun 22 17:56:58 2024, MaxMem=  2684354560 cpu:               9.6 elap:               0.8
 (Enter /storage/apps/GAUSSIAN/G16_RevA03/g16/l602.exe)

 **********************************************************************

            Electrostatic Properties Using The SCF Density

 **********************************************************************

       Atomic Center    1 is at  -4.192599  0.418043  6.777966
       Atomic Center    2 is at  -4.032060  0.475138  7.786656
       Atomic Center    3 is at  -2.998637 -0.176512  6.159268
       Atomic Center    4 is at  -4.306339  1.807671  6.150600
       Atomic Center    5 is at  -5.265545  2.172606  6.129583
       Atomic Center    6 is at  -3.453426  2.769880  6.814319
       Atomic Center    7 is at  -3.639463  2.857698  7.773288
       Atomic Center    8 is at  -3.691575  1.613236  4.750092
       Atomic Center    9 is at  -4.353572  1.196115  4.087763
       Atomic Center   10 is at  -3.210915  2.839375  4.214468
       Atomic Center   11 is at  -3.018807  3.418064  4.977823
       Atomic Center   12 is at  -2.520703  0.642807  5.077271
       Atomic Center   13 is at  -1.691698  1.170024  5.377313
       Atomic Center   14 is at  -2.087921 -0.279227  3.994005
       Atomic Center   15 is at  -0.757718 -0.316387  3.671343
       Atomic Center   16 is at  -0.184472  0.405409  4.103057
       Atomic Center   17 is at  -0.253506 -1.267079  2.839479
       Atomic Center   18 is at  -1.159770 -2.177849  2.233511
       Atomic Center   19 is at  -0.793449 -2.909197  1.626224
       Atomic Center   20 is at  -0.947314 -0.897074  0.209396
       Atomic Center   21 is at  -2.498352 -2.090770  2.530522
       Atomic Center   22 is at  -3.161136 -2.738000  2.106734
       Atomic Center   23 is at  -2.957762 -1.168250  3.421234
       Atomic Center   24 is at  -3.936098 -1.108262  3.700208
       Atomic Center   25 is at   1.228735 -1.474503  2.617084
       Atomic Center   26 is at   1.618909 -2.452208  1.953294
       Atomic Center   27 is at   2.129636 -0.615263  3.185485
       Atomic Center   28 is at   1.854316  0.110795  3.843293
       Atomic Center   29 is at   3.108174 -0.909576  3.204407
       Atomic Center   30 is at   2.149615 -3.099071 -1.976749
       Atomic Center   31 is at   3.278832 -2.438127 -2.308166
       Atomic Center   32 is at   4.409295 -3.123828 -2.639149
       Atomic Center   33 is at   4.428353 -4.136172 -2.582983
       Atomic Center   34 is at   5.265545 -2.610230 -2.899089
       Atomic Center   35 is at   3.344708 -1.062959 -2.330663
       Atomic Center   36 is at   4.274310 -0.613045 -2.445694
       Atomic Center   37 is at   2.247239 -0.261437 -2.046134
       Atomic Center   38 is at   2.407861  1.012663 -2.006457
       Atomic Center   39 is at   1.031939 -0.950740 -1.771674
       Atomic Center   40 is at  -0.170710 -0.210679 -1.564100
       Atomic Center   41 is at   0.012251  0.765601 -1.326078
       Atomic Center   42 is at  -1.218869 -0.865674 -0.782870
       Atomic Center   43 is at  -1.387233 -2.315767 -1.291732
       Atomic Center   44 is at  -2.035309 -2.817995 -0.683655
       Atomic Center   45 is at  -1.794587 -2.299214 -2.232404
       Atomic Center   46 is at  -0.099250 -3.002927 -1.293598
       Atomic Center   47 is at  -0.095690 -4.016548 -1.359110
       Atomic Center   48 is at   1.035647 -2.330700 -1.702042
       Atomic Center   49 is at  -2.598660 -0.104838 -0.877670
       Atomic Center   50 is at  -3.004404 -0.049680  0.057544
       Atomic Center   51 is at  -3.241267 -0.651128 -1.457436
       Atomic Center   52 is at  -2.509389  1.258234 -1.399292
       Atomic Center   53 is at  -2.764000  2.003014 -0.754868
       Atomic Center   54 is at  -2.250151  2.152127 -5.487953
       Atomic Center   55 is at  -2.436304  3.170880 -4.523218
       Atomic Center   56 is at  -2.487804  4.136172 -4.844013
       Atomic Center   57 is at  -2.521541  2.885899 -3.199213
       Atomic Center   58 is at  -2.643117  3.636341 -2.520492
       Atomic Center   59 is at  -2.435915  1.543557 -2.745038
       Atomic Center   60 is at  -2.265635  0.516893 -3.708947
       Atomic Center   61 is at  -2.203310 -0.456253 -3.415597
       Atomic Center   62 is at  -2.171033  0.819137 -5.027023
       Atomic Center   63 is at  -2.050321  0.057047 -5.692423
       Atomic Center   64 is at  -2.138379  2.493829 -6.900159
       Atomic Center   65 is at  -2.406416  3.673561 -7.333168
       Atomic Center   66 is at  -1.732924  1.534260 -7.786656
       Atomic Center   67 is at  -1.558206  0.580924 -7.487788
       Atomic Center   68 is at  -5.053052 -0.220270  6.577274
       Atomic Center   69 is at  -1.646389  1.693388 -8.861500
 -----------------------------------------------------------------

              Electrostatic Properties (Atomic Units)

 -----------------------------------------------------------------
    Center     Electric         -------- Electric Field --------
               Potential          X             Y             Z
 -----------------------------------------------------------------
    1 Atom    -14.574747     -0.006344      0.007892     -0.004633
    2 Atom     -0.972854      0.012577      0.001633      0.072384
    3 Atom    -22.188040      0.016052     -0.030127      0.011225
    4 Atom    -14.562101     -0.000088     -0.011648     -0.004760
    5 Atom     -0.972845     -0.067386      0.023041     -0.004688
    6 Atom    -22.200439      0.026168      0.016760     -0.023127
    7 Atom     -0.844944     -0.005282     -0.000488      0.005842
    8 Atom    -14.553187      0.003365     -0.001436      0.011828
    9 Atom     -0.953075     -0.048658     -0.028725     -0.046036
   10 Atom    -22.217017      0.002408      0.005685     -0.039740
   11 Atom     -0.866703      0.004216      0.011589      0.012143
   12 Atom    -14.505585     -0.010795      0.010372      0.002021
   13 Atom     -0.941801      0.056689      0.036561      0.017907
   14 Atom    -18.105679     -0.000453     -0.000027      0.000347
   15 Atom    -14.526891     -0.000860     -0.008831     -0.005087
   16 Atom     -0.896099      0.039934      0.051114      0.033875
   17 Atom    -14.564531     -0.001963     -0.003294     -0.002135
   18 Atom    -14.571473      0.000165      0.008471      0.006540
   19 Atom     -0.938415      0.029545     -0.052880     -0.046200
   20 Atom     -1.031196      0.019610     -0.004498      0.070039
   21 Atom    -14.584930      0.006387      0.005386      0.002593
   22 Atom     -0.929285     -0.048236     -0.046644     -0.030004
   23 Atom    -14.526750      0.007988     -0.003299     -0.004727
   24 Atom     -0.899359     -0.069113      0.004889      0.022322
   25 Atom    -14.508831      0.005084     -0.012969     -0.007472
   26 Atom    -22.256625      0.008582     -0.023049     -0.016010
   27 Atom    -18.223865     -0.003772     -0.000333     -0.010007
   28 Atom     -0.873150     -0.000396      0.009162      0.006780
   29 Atom     -0.880106      0.010945     -0.003478     -0.003548
   30 Atom    -18.322781      0.000870     -0.025843      0.000021
   31 Atom    -14.552374     -0.013244     -0.003884      0.004165
   32 Atom    -18.267339     -0.004518      0.002928     -0.000705
   33 Atom     -0.922109     -0.001800     -0.014204      0.001092
   34 Atom     -0.914046     -0.000118     -0.004085     -0.000331
   35 Atom    -18.251004     -0.005068     -0.002161     -0.000664
   36 Atom     -0.907177     -0.005438      0.006790     -0.001164
[...]
     Eigenvalues ---    1.43186   1.45031   1.51640   1.55036   1.55973
     Eigenvalues ---    1.59209   1.60029   1.61488   1.62018   1.74015
     Eigenvalues ---    1.76633   1.77609   1.78045   1.86885   1.91932
     Eigenvalues ---    2.07618
 Quadratic step=5.976D+00 exceeds max=3.000D-01 adjusted using Lamda=-3.861D-01.
 Angle between NR and scaled steps=  82.94 degrees.
 Angle between quadratic step and forces=  22.44 degrees.
 Linear search not attempted -- first point.
 Variable       Old X    -DE/DX   Delta X   Delta X   Delta X     New X
                                 (Linear)    (Quad)   (Total)
    X1       -7.92286   0.00937   0.00000   0.01311   0.01311  -7.90975
    Y1        0.78999   0.00061   0.00000  -0.00163  -0.00163   0.78836
    Z1       12.80850  -0.06238   0.00000  -0.03661  -0.03661  12.77189
    X2       -7.61949   0.00917   0.00000   0.01303   0.01303  -7.60646
    Y2        0.89788   0.00085   0.00000  -0.00322  -0.00322   0.89466
    Z2       14.71465   0.05152   0.00000   0.04396   0.04396  14.75861
    X3       -5.66660  -0.00269   0.00000  -0.00955  -0.00955  -5.67615
    Y3       -0.33356   0.01157   0.00000  -0.00115  -0.00115  -0.33471
    Z3       11.63933  -0.01286   0.00000  -0.01494  -0.01494  11.62439
    X4       -8.13780   0.04983   0.00000   0.02673   0.02673  -8.11107
    Y4        3.41600  -0.01419   0.00000  -0.00445  -0.00445   3.41155
    Z4       11.62295   0.01464   0.00000   0.01288   0.01288  11.63583
    X5       -9.95044  -0.04768   0.00000  -0.04552  -0.04552  -9.99596
    Y5        4.10563   0.01541   0.00000   0.01222   0.01222   4.11785
    Z5       11.58323  -0.00420   0.00000  -0.00643  -0.00643  11.57681
    X6       -6.52603  -0.00469   0.00000   0.00457   0.00457  -6.52146
    Y6        5.23431  -0.01167   0.00000  -0.01735  -0.01735   5.21697
    Z6       12.87720   0.00218   0.00000  -0.00065  -0.00065  12.87654
    X7       -6.87759  -0.00140   0.00000  -0.00784  -0.00784  -6.88543
    Y7        5.40027  -0.00358   0.00000  -0.00729  -0.00729   5.39298
    Z7       14.68938  -0.01884   0.00000  -0.02363  -0.02363  14.66575
    X8       -6.97607   0.05257   0.00000   0.03067   0.03067  -6.94539
    Y8        3.04858   0.04367   0.00000   0.02625   0.02625   3.07483
    Z8        8.97637   0.03630   0.00000   0.02707   0.02707   9.00344
    X9       -8.22706  -0.03477   0.00000  -0.02911  -0.02911  -8.25617
    Y9        2.26033  -0.02070   0.00000  -0.01184  -0.01184   2.24849
    Z9        7.72475  -0.03242   0.00000  -0.02173  -0.02173   7.70302
   X10       -6.06775  -0.00591   0.00000  -0.00119  -0.00119  -6.06894
   Y10        5.36564  -0.01408   0.00000  -0.01108  -0.01108   5.35456
   Z10        7.96419   0.00712   0.00000   0.00521   0.00521   7.96940
   X11       -5.70472  -0.00080   0.00000   0.00058   0.00058  -5.70414
   Y11        6.45920  -0.00412   0.00000  -0.00359  -0.00359   6.45562
   Z11        9.40672  -0.00727   0.00000  -0.01106  -0.01106   9.39566
   X12       -4.76344  -0.06254   0.00000  -0.03700  -0.03700  -4.80044
   Y12        1.21473  -0.03614   0.00000  -0.02114  -0.02114   1.19358
   Z12        9.59465   0.01024   0.00000   0.01306   0.01306   9.60771
   X13       -3.19685   0.04009   0.00000   0.03401   0.03401  -3.16284
   Y13        2.21103   0.02569   0.00000   0.01904   0.01904   2.23007
   Z13       10.16165   0.01120   0.00000   0.01003   0.01003  10.17168
   X14       -3.94560   0.00299   0.00000  -0.00473  -0.00473  -3.95033
   Y14       -0.52766  -0.01006   0.00000  -0.00159  -0.00159  -0.52925
   Z14        7.54758  -0.01174   0.00000  -0.00187  -0.00187   7.54570
   X15       -1.43188  -0.04855   0.00000  -0.02778  -0.02778  -1.45966
   Y15       -0.59788  -0.02888   0.00000  -0.01402  -0.01402  -0.61191
   Z15        6.93783  -0.01059   0.00000  -0.00046  -0.00046   6.93738
   X16       -0.34860   0.02807   0.00000   0.02132   0.02132  -0.32728
   Y16        0.76611   0.03642   0.00000   0.03406   0.03406   0.80017
   Z16        7.75365   0.02527   0.00000   0.03031   0.03031   7.78396
   X17       -0.47906  -0.00231   0.00000   0.00409   0.00409  -0.47496
   Y17       -2.39443  -0.01771   0.00000  -0.01078  -0.01078  -2.40521
   Z17        5.36584  -0.01322   0.00000  -0.00451  -0.00451   5.36133
   X18       -2.19165   0.00564   0.00000   0.01681   0.01681  -2.17484
   Y18       -4.11554   0.04827   0.00000   0.02277   0.02277  -4.09277
   Z18        4.22072   0.03976   0.00000   0.01996   0.01996   4.24068
   X19       -1.49940   0.02198   0.00000   0.02839   0.02839  -1.47101
   Y19       -5.49759  -0.03745   0.00000  -0.03298  -0.03298  -5.53057
   Z19        3.07312  -0.03405   0.00000  -0.03433  -0.03433   3.03879
   X20       -1.79016   0.01411   0.00000   0.01539   0.01539  -1.77478
   Y20       -1.69522  -0.00408   0.00000  -0.00399  -0.00399  -1.69922
   Z20        0.39570   0.04993   0.00000   0.04524   0.04524   0.44094
   X21       -4.72120   0.02451   0.00000   0.01409   0.01409  -4.70711
   Y21       -3.95098   0.02293   0.00000   0.01503   0.01503  -3.93595
   Z21        4.78199   0.01354   0.00000   0.00801   0.00801   4.79000
   X22       -5.97368  -0.03459   0.00000  -0.03460  -0.03460  -6.00828
   Y22       -5.17407  -0.03312   0.00000  -0.03177  -0.03177  -5.20584
   Z22        3.98115  -0.02118   0.00000  -0.02035  -0.02035   3.96081
   X23       -5.58936   0.06043   0.00000   0.02848   0.02848  -5.56088
   Y23       -2.20767   0.02187   0.00000   0.02074   0.02074  -2.18693
   Z23        6.46520   0.00481   0.00000   0.01007   0.01007   6.47527
   X24       -7.43815  -0.04874   0.00000  -0.04463  -0.04463  -7.48278
   Y24       -2.09431   0.00428   0.00000   0.00968   0.00968  -2.08463
   Z24        6.99238   0.01692   0.00000   0.02296   0.02296   7.01534
   X25        2.32197   0.03839   0.00000   0.01757   0.01757   2.33954
   Y25       -2.78641  -0.03690   0.00000  -0.01344  -0.01344  -2.79985
   Z25        4.94557  -0.02423   0.00000  -0.00382  -0.00382   4.94175
   X26        3.05929  -0.02676   0.00000  -0.02812  -0.02812   3.03117
   Y26       -4.63400   0.04159   0.00000   0.02140   0.02140  -4.61260
   Z26        3.69119   0.02742   0.00000   0.01315   0.01315   3.70434
   X27        4.02443  -0.01373   0.00000  -0.01545  -0.01545   4.00897
   Y27       -1.16268  -0.00043   0.00000  -0.00697  -0.00697  -1.16965
   Z27        6.01969   0.00660   0.00000   0.00560   0.00560   6.02530
   X28        3.50415   0.00518   0.00000   0.00318   0.00318   3.50733
   Y28        0.20937  -0.00786   0.00000  -0.00939  -0.00939   0.19998
   Z28        7.26277  -0.00785   0.00000  -0.00837  -0.00837   7.25440
   X29        5.87360  -0.01154   0.00000  -0.02044  -0.02044   5.85316
   Y29       -1.71885   0.00303   0.00000   0.00544   0.00544  -1.71341
   Z29        6.05545  -0.00389   0.00000  -0.00836  -0.00836   6.04709
   X30        4.06218   0.02521   0.00000   0.01507   0.01507   4.07725
   Y30       -5.85639   0.02566   0.00000   0.02043   0.02043  -5.83596
   Z30       -3.73551  -0.00968   0.00000  -0.00885  -0.00885  -3.74436
   X31        6.19610  -0.03474   0.00000  -0.02289  -0.02289   6.17321
   Y31       -4.60739  -0.01268   0.00000  -0.00488  -0.00488  -4.61227
   Z31       -4.36180   0.01088   0.00000   0.00796   0.00796  -4.35385
   X32        8.33236   0.00900   0.00000  -0.01048  -0.01048   8.32188
   Y32       -5.90318   0.01387   0.00000   0.01293   0.01293  -5.89025
   Z32       -4.98727  -0.00139   0.00000   0.00435   0.00435  -4.98292
   X33        8.36837  -0.00250   0.00000  -0.00741  -0.00741   8.36097
   Y33       -7.81623   0.00939   0.00000   0.01807   0.01807  -7.79816
   Z33       -4.88113   0.00001   0.00000   0.00062   0.00062  -4.88051
   X34        9.95044  -0.01895   0.00000  -0.02591  -0.02591   9.92452
   Y34       -4.93262  -0.01470   0.00000  -0.01713  -0.01713  -4.94975
   Z34       -5.47848   0.00555   0.00000   0.00742   0.00742  -5.47107
   X35        6.32058   0.01857   0.00000  -0.00347  -0.00347   6.31712
   Y35       -2.00870  -0.02120   0.00000  -0.01690  -0.01690  -2.02560
   Z35       -4.40432  -0.00088   0.00000   0.00653   0.00653  -4.39778
   X36        8.07728  -0.02506   0.00000  -0.03714  -0.03714   8.04014
   Y36       -1.15849  -0.00322   0.00000  -0.00559  -0.00559  -1.16407
   Z36       -4.62169   0.00131   0.00000   0.00047   0.00047  -4.62122
   X37        4.24667   0.00722   0.00000  -0.00087  -0.00087   4.24580
   Y37       -0.49404   0.07759   0.00000   0.02406   0.02406  -0.46998
   Z37       -3.86663   0.00620   0.00000   0.00883   0.00883  -3.85780
   X38        4.55020  -0.01256   0.00000  -0.01597  -0.01597   4.53423
   Y38        1.91366  -0.07155   0.00000  -0.04900  -0.04900   1.86465
   Z38       -3.79165  -0.00189   0.00000   0.00005   0.00005  -3.79160
   X39        1.95008  -0.01420   0.00000  -0.00651  -0.00651   1.94358
   Y39       -1.79664  -0.00077   0.00000   0.00352   0.00352  -1.79311
   Z39       -3.34798   0.00279   0.00000   0.00337   0.00337  -3.34461
   X40       -0.32259   0.00581   0.00000   0.00642   0.00642  -0.31617
   Y40       -0.39812  -0.00422   0.00000  -0.00308  -0.00308  -0.40120
   Z40       -2.95572   0.00163   0.00000  -0.00594  -0.00594  -2.96166
   X41        0.02315  -0.00162   0.00000  -0.00134  -0.00134   0.02181
   Y41        1.44678  -0.00678   0.00000  -0.00956  -0.00956   1.43722
   Z41       -2.50593  -0.00274   0.00000  -0.00543  -0.00543  -2.51136
   X42       -2.30333  -0.00958   0.00000   0.00731   0.00731  -2.29602
   Y42       -1.63589   0.00750   0.00000   0.01189   0.01189  -1.62400
   Z42       -1.47941  -0.05588   0.00000  -0.03317  -0.03317  -1.51258
   X43       -2.62149   0.06357   0.00000   0.03592   0.03592  -2.58557
   Y43       -4.37617   0.03040   0.00000   0.01895   0.01895  -4.35722
   Z43       -2.44102   0.01368   0.00000   0.00292   0.00292  -2.43810
   X44       -3.84618  -0.03518   0.00000  -0.02737  -0.02737  -3.87355
   Y44       -5.32524  -0.02858   0.00000  -0.02462  -0.02462  -5.34986
   Z44       -1.29192   0.03575   0.00000   0.04019   0.04019  -1.25173
   X45       -3.39128  -0.02095   0.00000  -0.01592  -0.01592  -3.40720
   Y45       -4.34488   0.00357   0.00000   0.00849   0.00849  -4.33640
   Z45       -4.21863  -0.04982   0.00000  -0.05510  -0.05510  -4.27373
   X46       -0.18755   0.00070   0.00000   0.01508   0.01508  -0.17248
   Y46       -5.67471   0.00032   0.00000   0.00603   0.00603  -5.66868
   Z46       -2.44455   0.00111   0.00000   0.00191   0.00191  -2.44264
   X47       -0.18083   0.00396   0.00000   0.00929   0.00929  -0.17154
   Y47       -7.59018   0.00817   0.00000   0.01327   0.01327  -7.57691
   Z47       -2.56835  -0.00234   0.00000  -0.00572  -0.00572  -2.57406
   X48        1.95709   0.01625   0.00000   0.01841   0.01841   1.97550
   Y48       -4.40439  -0.00432   0.00000   0.00225   0.00225  -4.40213
   Z48       -3.21639  -0.00091   0.00000   0.00068   0.00068  -3.21572
   X49       -4.91076   0.06490   0.00000   0.03822   0.03822  -4.87254
   Y49       -0.19811   0.03271   0.00000   0.01760   0.01760  -0.18052
   Z49       -1.65856  -0.02742   0.00000  -0.02008  -0.02008  -1.67864
   X50       -5.67750  -0.02104   0.00000  -0.01078  -0.01078  -5.68828
   Y50       -0.09388   0.00340   0.00000   0.00590   0.00590  -0.08799
   Z50        0.10874   0.05138   0.00000   0.04929   0.04929   0.15803
   X51       -6.12511  -0.03423   0.00000  -0.02916  -0.02916  -6.15427
   Y51       -1.23045  -0.02929   0.00000  -0.02707  -0.02707  -1.25752
   Z51       -2.75415  -0.03301   0.00000  -0.04103  -0.04103  -2.79518
   X52       -4.74206   0.00027   0.00000   0.00732   0.00732  -4.73474
   Y52        2.37772  -0.00662   0.00000  -0.00128  -0.00128   2.37644
   Z52       -2.64428   0.01590   0.00000   0.00656   0.00656  -2.63772
   X53       -5.22320   0.00256   0.00000   0.00275   0.00275  -5.22046
   Y53        3.78515  -0.00590   0.00000  -0.00590  -0.00590   3.77924
   Z53       -1.42649  -0.01054   0.00000  -0.01293  -0.01293  -1.43943
   X54       -4.25217  -0.00018   0.00000  -0.00076  -0.00076  -4.25293
   Y54        4.06693  -0.01268   0.00000  -0.00146  -0.00146   4.06547
   Z54      -10.37073   0.02734   0.00000  -0.00276  -0.00276 -10.37348
   X55       -4.60395   0.00709   0.00000   0.00386   0.00386  -4.60009
   Y55        5.99210  -0.05445   0.00000  -0.03343  -0.03343   5.95867
   Z55       -8.54764  -0.01672   0.00000  -0.01809  -0.01809  -8.56573
   X56       -4.70127  -0.00324   0.00000  -0.00322  -0.00322  -4.70448
   Y56        7.81623   0.04978   0.00000   0.04463   0.04463   7.86087
   Z56       -9.15386  -0.01859   0.00000  -0.02366  -0.02366  -9.17751
   X57       -4.76502   0.00588   0.00000   0.00039   0.00039  -4.76463
   Y57        5.45356  -0.05877   0.00000  -0.03867  -0.03867   5.41489
   Z57       -6.04564  -0.01046   0.00000  -0.00133  -0.00133  -6.04696
   X58       -4.99477  -0.00630   0.00000  -0.00578  -0.00578  -5.00054
   Y58        6.87169   0.03881   0.00000   0.03231   0.03231   6.90400
   Z58       -4.76304   0.03584   0.00000   0.03575   0.03575  -4.72728
   X59       -4.60321  -0.00084   0.00000  -0.00566  -0.00566  -4.60887
   Y59        2.91690   0.00323   0.00000  -0.00028  -0.00028   2.91663
   Z59       -5.18737  -0.01613   0.00000   0.00059   0.00059  -5.18678
   X60       -4.28143  -0.00857   0.00000  -0.01091  -0.01091  -4.29234
   Y60        0.97679   0.05324   0.00000   0.03280   0.03280   1.00959
   Z60       -7.00889   0.01917   0.00000   0.01854   0.01854  -6.99036
   X61       -4.16365   0.00445   0.00000   0.00490   0.00490  -4.15875
   Y61       -0.86219  -0.04848   0.00000  -0.04297  -0.04297  -0.90516
   Z61       -6.45454   0.01598   0.00000   0.02037   0.02037  -6.43418
   X62       -4.10266  -0.00624   0.00000  -0.00733  -0.00733  -4.10998
   Y62        1.54795   0.06127   0.00000   0.03960   0.03960   1.58754
   Z62       -9.49970   0.00663   0.00000  -0.00056  -0.00056  -9.50026
   X63       -3.87454   0.00554   0.00000   0.00374   0.00374  -3.87080
   Y63        0.10780  -0.03989   0.00000  -0.03424  -0.03424   0.07356
   Z63      -10.75712  -0.03307   0.00000  -0.03134  -0.03134 -10.78846
   X64       -4.04095  -0.01435   0.00000  -0.00603  -0.00603  -4.04698
   Y64        4.71265   0.07881   0.00000   0.02682   0.02682   4.73947
   Z64      -13.03941  -0.06027   0.00000  -0.04333  -0.04333 -13.08274
   X65       -4.54747   0.01747   0.00000   0.00951   0.00951  -4.53796
   Y65        6.94202  -0.07337   0.00000  -0.04200  -0.04200   6.90003
   Z65      -13.85768   0.03163   0.00000   0.02015   0.02015 -13.83753
   X66       -3.27475   0.00527   0.00000  -0.00290  -0.00290  -3.27765
   Y66        2.89933  -0.00754   0.00000   0.00215   0.00215   2.90148
   Z66      -14.71465  -0.04038   0.00000  -0.02352  -0.02352 -14.73817
   X67       -2.94458  -0.00006   0.00000   0.00109   0.00109  -2.94349
   Y67        1.09779   0.00990   0.00000   0.01607   0.01607   1.11386
   Z67      -14.14987  -0.00235   0.00000  -0.00710  -0.00710 -14.15697
   X68       -9.54888  -0.00045   0.00000   0.00096   0.00096  -9.54793
   Y68       -0.41625   0.00050   0.00000   0.00351   0.00351  -0.41274
   Z68       12.42925  -0.00249   0.00000  -0.01264  -0.01264  12.41661
   X69       -3.11122  -0.00853   0.00000  -0.01356  -0.01356  -3.12478
   Y69        3.20004   0.00166   0.00000   0.00864   0.00864   3.20868
   Z69      -16.74581   0.06146   0.00000   0.07331   0.07331 -16.67249
         Item               Value     Threshold  Converged?
 Maximum Force            0.078808     0.000450     NO 
 RMS     Force            0.027595     0.000300     NO 
 Maximum Displacement     0.073314     0.001800     NO 
 RMS     Displacement     0.020859     0.001200     NO 
 Predicted change in Energy=-7.245391D-02
 GradGradGradGradGradGradGradGradGradGradGradGradGradGradGradGradGradGrad

 Leave Link  103 at Sat Jun 22 18:02:19 2024, MaxMem=  2684354560 cpu:               3.1 elap:               0.2
 (Enter /storage/apps/GAUSSIAN/G16_RevA03/g16/l9999.exe)

 Test job not archived.
 1\1\GINC-T051\Force\RM062X\def2TZVP\C24H30N9O6(1+)\LV87696\22-Jun-2024
 \0\\#P M062X/Def2TZVP scf=(direct,conver=8) EmpiricalDispersion=GD3 No
 Symm force Charge Prop=(Field,Read)\\Gaussian run using SANDER externa
 l interface, route from template gau_job.tpl\\1,1\C,-4.1925991176,0.41
 80430205,6.7779663632\H,-4.0320600412,0.4751383852,7.7866561697\O,-2.9
 986371051,-0.1765115408,6.1592683395\C,-4.3063388031,1.8076711127,6.15
 06003878\H,-5.2655448945,2.1726056144,6.1295833926\O,-3.4534256458,2.7
 698800657,6.8143189621\H,-3.6394631573,2.8576978095,7.7732875917\C,-3.
 6915751463,1.6132364181,4.7500919157\H,-4.3535721749,1.1961153543,4.08
 77628065\O,-3.2109148841,2.839374994,4.2144682768\H,-3.018806887,3.418
 0639899,4.9778234368\C,-2.520703424,0.6428068919,5.0772709759\H,-1.691
 6976953,1.1700244988,5.3773130619\N,-2.0879206417,-0.2792271005,3.9940
 048506\C,-0.7577179687,-0.316386919,3.6713433703\H,-0.1844724062,0.405
 4089754,4.1030568655\C,-0.2535061239,-1.2670788242,2.8394789595\C,-1.1
 597703276,-2.1778494688,2.2335110959\H,-0.7934487808,-2.9091974009,1.6
 262237817\H,-0.9473137436,-0.8970736677,0.2093956821\C,-2.4983516954,-
 2.0907695182,2.530522028\H,-3.1611360315,-2.7380000499,2.10673444\C,-2
 .9577618958,-1.1682497606,3.4212344775\H,-3.936097955,-1.1082619494,3.
 7002082297\C,1.228734595,-1.4745033608,2.6170836323\O,1.6189087438,-2.
 4522079336,1.9532938494\N,2.129636314,-0.6152631778,3.1854853373\H,1.8
 543164245,0.1107951669,3.8432929144\H,3.1081740429,-0.909576085,3.2044
 072902\N,2.149614948,-3.0990706517,-1.9767485751\C,3.2788324031,-2.438
 1267677,-2.3081660503\N,4.4092949515,-3.123828284,-2.6391490863\H,4.42
 83531759,-4.1361718489,-2.5829826918\H,5.2655448945,-2.6102304263,-2.8
 990889916\N,3.3447083438,-1.0629585915,-2.3306631879\H,4.2743100257,-0
 .6130447603,-2.4456940292\C,2.2472392518,-0.2614367734,-2.0461340792\O
 ,2.4078611622,1.012662828,-2.0064565046\C,1.0319390485,-0.9507403626,-
 1.7716741137\N,-0.1707098148,-0.2106786444,-1.5640996035\H,0.012250563
 7,0.7656006633,-1.3260784573\C,-1.2188694668,-0.8656738321,-0.78286990
 33\C,-1.3872327518,-2.3157668996,-1.2917315023\H,-2.0353088977,-2.8179
 948308,-0.6836547746\H,-1.7945865225,-2.2992136772,-2.2324039937\N,-0.
 0992498092,-3.0029270524,-1.293598217\H,-0.0956901908,-4.0165478421,-1
 .3591103902\C,1.0356471043,-2.3307001904,-1.7020424939\C,-2.5986604358
 ,-0.1048377514,-0.8776702019\H,-3.0044042264,-0.0496803606,0.057544359
 7\H,-3.2412673275,-0.6511283474,-1.457435586\N,-2.50938858,1.258234284
 5,-1.3992922916\H,-2.7640000042,2.0030138598,-0.7548684919\C,-2.250150
 8582,2.1521271957,-5.4879532973\C,-2.4363041601,3.1708804894,-4.523217
 6594\H,-2.4878038398,4.1361718489,-4.8440125684\C,-2.5215405591,2.8858
 992938,-3.1992128941\H,-2.6431169378,3.6363413038,-2.5204915619\C,-2.4
 359147655,1.5435573937,-2.7450375249\C,-2.2656350313,0.5168934986,-3.7
 08947239\H,-2.2033101757,-0.456252541,-3.4155971028\C,-2.1710330293,0.
 819137257,-5.0270225168\H,-2.0503207099,0.0570473192,-5.6924234569\C,-
 2.1383787129,2.4938288182,-6.9001592241\O,-2.4064159396,3.673561377,-7
 .3331679503\N,-1.7329237084,1.5342599877,-7.7866561697\H,-1.5582055472
 ,0.5809237578,-7.4877879317\H,-5.0530515455,-0.2202703902,6.5772735404
 \H,-1.6463886217,1.6933882191,-8.8615002908\\Version=ES64L-G16RevA.03\
 HF=-1876.4343667\RMSD=4.121e-09\RMSF=2.760e-02\Dipole=-1.244962,-3.358
 891,9.3737694\Quadrupole=15.3952001,-50.1183272,34.723127,-2.5395984,-
 65.6867196,49.8489511\PG=C01 [X(C24H30N9O6)]\\@


 FESTINA LENTE!
     - IMPERATOR AUGUSTUS 
 Job cpu time:       0 days  8 hours 35 minutes  3.3 seconds.
 Elapsed time:       0 days  0 hours 32 minutes 16.6 seconds.
 File lengths (MBytes):  RWF=   1039 Int=      0 D2E=      0 Chk=    113 Scr=      1
 Normal termination of Gaussian 16 at Sat Jun 22 18:02:19 2024.
