 Entering Gaussian System, Link 0=g16
 Initial command:
 /storage/apps/GAUSSIAN/G16_RevA03/g16/l1.exe "/scratch/tmp/2140840/Gau-191454.inp" -scrdir="/scratch/tmp/2140840/"
 Entering Link 1 = /storage/apps/GAUSSIAN/G16_RevA03/g16/l1.exe PID=    191456.
  
 Copyright (c) 1988,1990,1992,1993,1995,1998,2003,2009,2016,
            Gaussian, Inc.  All Rights Reserved.
  
 This is part of the Gaussian(R) 16 program.  It is based on
 the Gaussian(R) 09 system (copyright 2009, Gaussian, Inc.),
 the Gaussian(R) 03 system (copyright 2003, Gaussian, Inc.),
 the Gaussian(R) 98 system (copyright 1998, Gaussian, Inc.),
 the Gaussian(R) 94 system (copyright 1995, Gaussian, Inc.),
 the Gaussian 92(TM) system (copyright 1992, Gaussian, Inc.),
 the Gaussian 90(TM) system (copyright 1990, Gaussian, Inc.),
 the Gaussian 88(TM) system (copyright 1988, Gaussian, Inc.),
 the Gaussian 86(TM) system (copyright 1986, Carnegie Mellon
 University), and the Gaussian 82(TM) system (copyright 1983,
 Carnegie Mellon University). Gaussian is a federally registered
 trademark of Gaussian, Inc.
  
 This software contains proprietary and confidential information,
 including trade secrets, belonging to Gaussian, Inc.
  
 This software is provided under written license and may be
 used, copied, transmitted, or stored only in accord with that
 written license.
  
 The following legend is applicable only to US Government
 contracts under FAR:
  
                    RESTRICTED RIGHTS LEGEND
  
 Use, reproduction and disclosure by the US Government is
 subject to restrictions as set forth in subparagraphs (a)
 and (c) of the Commercial Computer Software - Restricted
 Rights clause in FAR 52.227-19.
  
 Gaussian, Inc.
 340 Quinnipiac St., Bldg. 40, Wallingford CT 06492
  
  
 ---------------------------------------------------------------
 Warning -- This program may not be used in any manner that
 competes with the business of Gaussian, Inc. or will provide
 assistance to any competitor of Gaussian, Inc.  The licensee
 of this program is prohibited from giving any competitor of
 Gaussian, Inc. access to this program.  By using this program,
 the user acknowledges that Gaussian, Inc. is engaged in the
 business of creating and licensing software in the field of
 computational chemistry and represents and warrants to the
 licensee that it is not a competitor of Gaussian, Inc. and that
 it will not use this program in any manner prohibited above.
 ---------------------------------------------------------------
  

 Cite this work as:
 Gaussian 16, Revision A.03,
 M. J. Frisch, G. W. Trucks, H. B. Schlegel, G. E. Scuseria, 
 M. A. Robb, J. R. Cheeseman, G. Scalmani, V. Barone, 
 G. A. Petersson, H. Nakatsuji, X. Li, M. Caricato, A. V. Marenich, 
 J. Bloino, B. G. Janesko, R. Gomperts, B. Mennucci, H. P. Hratchian, 
 J. V. Ortiz, A. F. Izmaylov, J. L. Sonnenberg, D. Williams-Young, 
 F. Ding, F. Lipparini, F. Egidi, J. Goings, B. Peng, A. Petrone, 
 T. Henderson, D. Ranasinghe, V. G. Zakrzewski, J. Gao, N. Rega, 
 G. Zheng, W. Liang, M. Hada, M. Ehara, K. Toyota, R. Fukuda, 
 J. Hasegawa, M. Ishida, T. Nakajima, Y. Honda, O. Kitao, H. Nakai, 
 T. Vreven, K. Throssell, J. A. Montgomery, Jr., J. E. Peralta, 
 F. Ogliaro, M. J. Bearpark, J. J. Heyd, E. N. Brothers, K. N. Kudin, 
 V. N. Staroverov, T. A. Keith, R. Kobayashi, J. Normand, 
 K. Raghavachari, A. P. Rendell, J. C. Burant, S. S. Iyengar, 
 J. Tomasi, M. Cossi, J. M. Millam, M. Klene, C. Adamo, R. Cammi, 
 J. W. Ochterski, R. L. Martin, K. Morokuma, O. Farkas, 
 J. B. Foresman, and D. J. Fox, Gaussian, Inc., Wallingford CT, 2016.
 
 ******************************************
 Gaussian 16:  ES64L-G16RevA.03 25-Dec-2016
                22-Jun-2024 
 ******************************************
 %chk=gau_job.chk
 %NProcShared=16
 Will use up to   16 processors via shared memory.
 %mem=20GB
 ----------------------------------------------------------------------
 #P M062X/Def2TZVP scf=(direct,conver=8) EmpiricalDispersion=GD3 NoSymm
  force Charge Prop=(Field,Read)
 ----------------------------------------------------------------------
 1/10=7,18=10,28=-2,30=1,38=1,125=101/1,3;
 2/12=2,15=1,17=6,18=5,29=2,40=1/2;
 3/5=44,7=101,11=2,25=1,30=1,71=1,74=-55,124=31/1,2,3;
 4//1;
 5/5=2,6=8,38=5/2;
 6/7=2,8=2,9=2,10=2,14=2,15=1,28=1/1,2;
 7/7=1,16=-2,29=1,30=1/1,2,3,16;
 1/10=7,18=10,28=-2,30=1/3;
 99/12=1/99;
 Leave Link    1 at Sat Jun 22 17:30:02 2024, MaxMem=  2684354560 cpu:               0.8 elap:               0.1
 (Enter /storage/apps/GAUSSIAN/G16_RevA03/g16/l101.exe)
 ----------------------------------------------------------------------
 Gaussian run using SANDER external interface, route from template gau_
 job.tpl
 ----------------------------------------------------------------------
 Symbolic Z-matrix:
 Charge =  1 Multiplicity = 1
 C                    -4.19623   0.42097   6.78292 
 H                    -4.03959   0.47946   7.79215 
 O                    -2.99953  -0.17371   6.16997 
 C                    -4.30753   1.80925   6.15232 
 H                    -5.26624   2.1753    6.12917 
 O                    -3.45391   2.77148   6.81484 
 H                    -3.63874   2.85952   7.77408 
 C                    -3.69059   1.61113   4.75323 
 H                    -4.35112   1.1925    4.09039 
 O                    -3.20777   2.83521   4.21524 
 H                    -3.01669   3.41588   4.97731 
 C                    -2.52088   0.64145   5.0854 
 H                    -1.69118   1.16868   5.38339 
 N                    -2.08937  -0.2868    4.00715 
 C                    -0.76023  -0.32544   3.68199 
 H                    -0.18759   0.40583   4.09855 
 C                    -0.25647  -1.28986   2.86537 
 C                    -1.1621   -2.21605   2.28349 
 H                    -0.79494  -2.95502   1.68593 
 H                    -0.9183   -0.8547    0.18314 
 C                    -2.50054  -2.11641   2.56738 
 H                    -3.1649   -2.76189   2.14348 
 C                    -2.96077  -1.17873   3.44266 
 H                    -3.94048  -1.10944   3.71459 
 C                     1.22548  -1.48926   2.63008 
 O                     1.61544  -2.46475   1.96328 
 N                     2.12591  -0.62231   3.18746 
 H                     1.85193   0.10524   3.84418 
 H                     3.10626  -0.91075   3.19948 
 N                     2.15081  -3.09747  -1.97616 
 C                     3.2802   -2.43874  -2.31065 
 N                     4.41013  -3.12599  -2.64026 
 H                     4.42881  -4.13814  -2.5816 
 H                     5.26624  -2.61312  -2.90185 
 N                     3.34741  -1.06378  -2.33628 
 H                     4.27768  -0.61481  -2.44856 
 C                     2.24847  -0.26084  -2.06202 
 O                     2.41064   1.01308  -2.01992 
 C                     1.03004  -0.94808  -1.79817 
 N                    -0.17619  -0.20394  -1.61254 
 H                     0.01698   0.76849  -1.3636 
 C                    -1.21268  -0.85184  -0.80252 
 C                    -1.38466  -2.30779  -1.291 
 H                    -2.02948  -2.80449  -0.67455 
 H                    -1.79908  -2.2989   -2.22881 
 N                    -0.09835  -2.99668  -1.29786 
 H                    -0.0953   -4.01084  -1.35369 
 C                     1.0354   -2.32703  -1.71193 
 C                    -2.59727  -0.10133  -0.89044 
 H                    -3.00098  -0.05191   0.04605 
 H                    -3.23825  -0.64979  -1.4699 
 N                    -2.51763   1.26268  -1.40874 
 H                    -2.76471   2.00728  -0.76143 
 C                    -2.25135   2.1532   -5.49538 
 C                    -2.43688   3.17317  -4.532 
 H                    -2.48678   4.13814  -4.85386 
 C                    -2.52318   2.88963  -3.20795 
 H                    -2.64331   3.64031  -2.52926 
 C                    -2.44023   1.5475   -2.75348 
 C                    -2.27046   0.51912  -3.71616 
 H                    -2.20871  -0.45386  -3.42218 
 C                    -2.17369   0.82015  -5.03401 
 H                    -2.05258   0.05759  -5.69881 
 C                    -2.13827   2.49374  -6.90688 
 O                    -2.40628   3.67335  -7.34081 
 N                    -1.73182   1.53362  -7.79215 
 H                    -1.55711   0.5806   -7.49229 
 H                    -5.05572  -0.21789   6.57986 
 H                    -1.64499   1.69207  -8.86707 
 
 ITRead=  0  0  0  0  0  0  0  0  0  0  0  0  0  0  0  0  0  0  0  0
 ITRead=  0  0  0  0  0  0  0  0  0  0  0  0  0  0  0  0  0  0  0  0
 ITRead=  0  0  0  0  0  0  0  0  0  0  0  0  0  0  0  0  0  0  0  0
 ITRead=  0  0  0  0  0  0  0  0  0
 MicOpt= -1 -1 -1 -1 -1 -1 -1 -1 -1 -1 -1 -1 -1 -1 -1 -1 -1 -1 -1 -1
 MicOpt= -1 -1 -1 -1 -1 -1 -1 -1 -1 -1 -1 -1 -1 -1 -1 -1 -1 -1 -1 -1
 MicOpt= -1 -1 -1 -1 -1 -1 -1 -1 -1 -1 -1 -1 -1 -1 -1 -1 -1 -1 -1 -1
 MicOpt= -1 -1 -1 -1 -1 -1 -1 -1 -1
 NAtoms=     69 NQM=       69 NQMF=       0 NMMI=      0 NMMIF=      0
                NMic=       0 NMicF=      0.
                    Isotopes and Nuclear Properties:
 (Nuclear quadrupole moments (NQMom) in fm**2, nuclear magnetic moments (NMagM)
  in nuclear magnetons)

  Atom         1           2           3           4           5           6           7           8           9          10
 IAtWgt=          12           1          16          12           1          16           1          12           1          16
 AtmWgt=  12.0000000   1.0078250  15.9949146  12.0000000   1.0078250  15.9949146   1.0078250  12.0000000   1.0078250  15.9949146
 NucSpn=           0           1           0           0           1           0           1           0           1           0
 AtZEff=  -0.0000000  -0.0000000  -0.0000000  -0.0000000  -0.0000000  -0.0000000  -0.0000000  -0.0000000  -0.0000000  -0.0000000
 NQMom=    0.0000000   0.0000000   0.0000000   0.0000000   0.0000000   0.0000000   0.0000000   0.0000000   0.0000000   0.0000000
 NMagM=    0.0000000   2.7928460   0.0000000   0.0000000   2.7928460   0.0000000   2.7928460   0.0000000   2.7928460   0.0000000
 AtZNuc=   6.0000000   1.0000000   8.0000000   6.0000000   1.0000000   8.0000000   1.0000000   6.0000000   1.0000000   8.0000000

  Atom        11          12          13          14          15          16          17          18          19          20
 IAtWgt=           1          12           1          14          12           1          12          12           1           1
 AtmWgt=   1.0078250  12.0000000   1.0078250  14.0030740  12.0000000   1.0078250  12.0000000  12.0000000   1.0078250   1.0078250
 NucSpn=           1           0           1           2           0           1           0           0           1           1
 AtZEff=  -0.0000000  -0.0000000  -0.0000000  -0.0000000  -0.0000000  -0.0000000  -0.0000000  -0.0000000  -0.0000000  -0.0000000
 NQMom=    0.0000000   0.0000000   0.0000000   2.0440000   0.0000000   0.0000000   0.0000000   0.0000000   0.0000000   0.0000000
 NMagM=    2.7928460   0.0000000   2.7928460   0.4037610   0.0000000   2.7928460   0.0000000   0.0000000   2.7928460   2.7928460
 AtZNuc=   1.0000000   6.0000000   1.0000000   7.0000000   6.0000000   1.0000000   6.0000000   6.0000000   1.0000000   1.0000000

  Atom        21          22          23          24          25          26          27          28          29          30
 IAtWgt=          12           1          12           1          12          16          14           1           1          14
 AtmWgt=  12.0000000   1.0078250  12.0000000   1.0078250  12.0000000  15.9949146  14.0030740   1.0078250   1.0078250  14.0030740
 NucSpn=           0           1           0           1           0           0           2           1           1           2
 AtZEff=  -0.0000000  -0.0000000  -0.0000000  -0.0000000  -0.0000000  -0.0000000  -0.0000000  -0.0000000  -0.0000000  -0.0000000
 NQMom=    0.0000000   0.0000000   0.0000000   0.0000000   0.0000000   0.0000000   2.0440000   0.0000000   0.0000000   2.0440000
 NMagM=    0.0000000   2.7928460   0.0000000   2.7928460   0.0000000   0.0000000   0.4037610   2.7928460   2.7928460   0.4037610
 AtZNuc=   6.0000000   1.0000000   6.0000000   1.0000000   6.0000000   8.0000000   7.0000000   1.0000000   1.0000000   7.0000000

  Atom        31          32          33          34          35          36          37          38          39          40
 IAtWgt=          12          14           1           1          14           1          12          16          12          14
 AtmWgt=  12.0000000  14.0030740   1.0078250   1.0078250  14.0030740   1.0078250  12.0000000  15.9949146  12.0000000  14.0030740
 NucSpn=           0           2           1           1           2           1           0           0           0           2
 AtZEff=  -0.0000000  -0.0000000  -0.0000000  -0.0000000  -0.0000000  -0.0000000  -0.0000000  -0.0000000  -0.0000000  -0.0000000
 NQMom=    0.0000000   2.0440000   0.0000000   0.0000000   2.0440000   0.0000000   0.0000000   0.0000000   0.0000000   2.0440000
 NMagM=    0.0000000   0.4037610   2.7928460   2.7928460   0.4037610   2.7928460   0.0000000   0.0000000   0.0000000   0.4037610
 AtZNuc=   6.0000000   7.0000000   1.0000000   1.0000000   7.0000000   1.0000000   6.0000000   8.0000000   6.0000000   7.0000000

  Atom        41          42          43          44          45          46          47          48          49          50
 IAtWgt=           1          12          12           1           1          14           1          12          12           1
 AtmWgt=   1.0078250  12.0000000  12.0000000   1.0078250   1.0078250  14.0030740   1.0078250  12.0000000  12.0000000   1.0078250
 NucSpn=           1           0           0           1           1           2           1           0           0           1
 AtZEff=  -0.0000000  -0.0000000  -0.0000000  -0.0000000  -0.0000000  -0.0000000  -0.0000000  -0.0000000  -0.0000000  -0.0000000
 NQMom=    0.0000000   0.0000000   0.0000000   0.0000000   0.0000000   2.0440000   0.0000000   0.0000000   0.0000000   0.0000000
 NMagM=    2.7928460   0.0000000   0.0000000   2.7928460   2.7928460   0.4037610   2.7928460   0.0000000   0.0000000   2.7928460
 AtZNuc=   1.0000000   6.0000000   6.0000000   1.0000000   1.0000000   7.0000000   1.0000000   6.0000000   6.0000000   1.0000000

  Atom        51          52          53          54          55          56          57          58          59          60
 IAtWgt=           1          14           1          12          12           1          12           1          12          12
 AtmWgt=   1.0078250  14.0030740   1.0078250  12.0000000  12.0000000   1.0078250  12.0000000   1.0078250  12.0000000  12.0000000
 NucSpn=           1           2           1           0           0           1           0           1           0           0
 AtZEff=  -0.0000000  -0.0000000  -0.0000000  -0.0000000  -0.0000000  -0.0000000  -0.0000000  -0.0000000  -0.0000000  -0.0000000
 NQMom=    0.0000000   2.0440000   0.0000000   0.0000000   0.0000000   0.0000000   0.0000000   0.0000000   0.0000000   0.0000000
 NMagM=    2.7928460   0.4037610   2.7928460   0.0000000   0.0000000   2.7928460   0.0000000   2.7928460   0.0000000   0.0000000
 AtZNuc=   1.0000000   7.0000000   1.0000000   6.0000000   6.0000000   1.0000000   6.0000000   1.0000000   6.0000000   6.0000000

  Atom        61          62          63          64          65          66          67          68          69
 IAtWgt=           1          12           1          12          16          14           1           1           1
 AtmWgt=   1.0078250  12.0000000   1.0078250  12.0000000  15.9949146  14.0030740   1.0078250   1.0078250   1.0078250
 NucSpn=           1           0           1           0           0           2           1           1           1
 AtZEff=  -0.0000000  -0.0000000  -0.0000000  -0.0000000  -0.0000000  -0.0000000  -0.0000000  -0.0000000  -0.0000000
 NQMom=    0.0000000   0.0000000   0.0000000   0.0000000   0.0000000   2.0440000   0.0000000   0.0000000   0.0000000
 NMagM=    2.7928460   0.0000000   2.7928460   0.0000000   0.0000000   0.4037610   2.7928460   2.7928460   2.7928460
 AtZNuc=   1.0000000   6.0000000   1.0000000   6.0000000   8.0000000   7.0000000   1.0000000   1.0000000   1.0000000
 Background charge distribution read from input stream:
 Leave Link  101 at Sat Jun 22 17:30:02 2024, MaxMem=  2684354560 cpu:               2.0 elap:               0.2
 (Enter /storage/apps/GAUSSIAN/G16_RevA03/g16/l103.exe)

 GradGradGradGradGradGradGradGradGradGradGradGradGradGradGradGradGradGrad
 Berny optimization.
 Initialization pass.
 Trust Radius=3.00D-01 FncErr=1.00D-07 GrdErr=1.00D-07 EigMax=2.50D+02 EigMin=1.00D-04
 Number of steps in this run=      2 maximum allowed number of steps=      2.
 GradGradGradGradGradGradGradGradGradGradGradGradGradGradGradGradGradGrad

 Leave Link  103 at Sat Jun 22 17:30:02 2024, MaxMem=  2684354560 cpu:               0.3 elap:               0.1
 (Enter /storage/apps/GAUSSIAN/G16_RevA03/g16/l202.exe)
 Symmetry turned off by external request.
 Stoichiometry    C24H30N9O6(1+)
 Framework group  C1[X(C24H30N9O6)]
 Deg. of freedom   201
 Full point group                 C1      NOp   1
                          Input orientation:                          
 ---------------------------------------------------------------------
 Center     Atomic      Atomic             Coordinates (Angstroms)
 Number     Number       Type             X           Y           Z
 ---------------------------------------------------------------------
      1          6           0       -4.196235    0.420974    6.782923
      2          1           0       -4.039588    0.479460    7.792147
      3          8           0       -2.999525   -0.173709    6.169973
      4          6           0       -4.307527    1.809247    6.152323
      5          1           0       -5.266245    2.175296    6.129171
      6          8           0       -3.453908    2.771481    6.814845
      7          1           0       -3.638744    2.859524    7.774076
      8          6           0       -3.690587    1.611127    4.753234
      9          1           0       -4.351116    1.192495    4.090391
     10          8           0       -3.207770    2.835214    4.215237
     11          1           0       -3.016691    3.415877    4.977312
     12          6           0       -2.520883    0.641449    5.085399
     13          1           0       -1.691184    1.168680    5.383389
     14          7           0       -2.089369   -0.286801    4.007155
     15          6           0       -0.760226   -0.325442    3.681986
     16          1           0       -0.187585    0.405828    4.098551
     17          6           0       -0.256466   -1.289861    2.865370
     18          6           0       -1.162097   -2.216051    2.283495
     19          1           0       -0.794942   -2.955023    1.685927
     20          1           0       -0.918302   -0.854695    0.183138
     21          6           0       -2.500538   -2.116406    2.567377
     22          1           0       -3.164905   -2.761891    2.143479
     23          6           0       -2.960773   -1.178729    3.442665
     24          1           0       -3.940483   -1.109439    3.714588
     25          6           0        1.225478   -1.489256    2.630085
     26          8           0        1.615440   -2.464749    1.963276
     27          7           0        2.125906   -0.622311    3.187461
     28          1           0        1.851926    0.105245    3.844179
     29          1           0        3.106262   -0.910755    3.199478
     30          7           0        2.150814   -3.097472   -1.976157
     31          6           0        3.280204   -2.438743   -2.310646
     32          7           0        4.410130   -3.125990   -2.640263
     33          1           0        4.428807   -4.138140   -2.581604
     34          1           0        5.266245   -2.613120   -2.901848
     35          7           0        3.347414   -1.063778   -2.336279
     36          1           0        4.277682   -0.614805   -2.448562
     37          6           0        2.248475   -0.260844   -2.062022
     38          8           0        2.410643    1.013081   -2.019916
     39          6           0        1.030041   -0.948081   -1.798173
     40          7           0       -0.176194   -0.203941   -1.612539
     41          1           0        0.016981    0.768487   -1.363604
     42          6           0       -1.212676   -0.851836   -0.802522
     43          6           0       -1.384657   -2.307792   -1.291001
     44          1           0       -2.029479   -2.804488   -0.674553
     45          1           0       -1.799077   -2.298896   -2.228814
     46          7           0       -0.098347   -2.996681   -1.297857
     47          1           0       -0.095300   -4.010837   -1.353694
     48          6           0        1.035398   -2.327033   -1.711933
     49          6           0       -2.597268   -0.101332   -0.890439
     50          1           0       -3.000978   -0.051910    0.046045
     51          1           0       -3.238249   -0.649794   -1.469898
     52          7           0       -2.517628    1.262683   -1.408740
     53          1           0       -2.764707    2.007275   -0.761430
     54          6           0       -2.251348    2.153196   -5.495379
     55          6           0       -2.436880    3.173165   -4.531995
     56          1           0       -2.486780    4.138140   -4.853856
     57          6           0       -2.523179    2.889632   -3.207946
     58          1           0       -2.643311    3.640313   -2.529260
     59          6           0       -2.440232    1.547497   -2.753481
     60          6           0       -2.270464    0.519119   -3.716158
     61          1           0       -2.208708   -0.453862   -3.422180
     62          6           0       -2.173694    0.820147   -5.034008
     63          1           0       -2.052579    0.057594   -5.698809
     64          6           0       -2.138274    2.493736   -6.906875
     65          8           0       -2.406279    3.673345   -7.340807
     66          7           0       -1.731817    1.533621   -7.792147
     67          1           0       -1.557109    0.580595   -7.492291
     68          1           0       -5.055721   -0.217892    6.579860
     69          1           0       -1.644986    1.692072   -8.867067
 ---------------------------------------------------------------------
 Rotational constants (GHZ):           0.1075628           0.0500294           0.0379086
 Leave Link  202 at Sat Jun 22 17:30:03 2024, MaxMem=  2684354560 cpu:               0.3 elap:               0.0
 (Enter /storage/apps/GAUSSIAN/G16_RevA03/g16/l301.exe)
 Standard basis: def2TZVP (5D, 7F)
 Ernie: Thresh=  0.10000D-02 Tol=  0.10000D-05 Strict=F.
  1389 basis functions,  2229 primitive gaussians,  1584 cartesian basis functions
   142 alpha electrons      142 beta electrons
       nuclear repulsion energy      4384.0572877596 Hartrees.
 IExCor= 4336 DFT=T Ex+Corr=M062X ExCW=0 ScaHFX=  0.540000
 ScaDFX=  1.000000  1.000000  1.000000  1.000000 ScalE2=  1.000000  1.000000
 IRadAn=      5 IRanWt=     -1 IRanGd=            0 ICorTp=0 IEmpDi=131
 NAtoms=   69 NActive=   69 NUniq=   69 SFac= 1.00D+00 NAtFMM=   60 NAOKFM=T Big=T
 Integral buffers will be    131072 words long.
 Raffenetti 2 integral format.
 Two-electron integral symmetry is turned off.
 R6Disp:  Grimme-D3 Dispersion energy=       -0.0064481091 Hartrees.
 Nuclear repulsion after empirical dispersion term =     4384.0508396506 Hartrees.
 Leave Link  301 at Sat Jun 22 17:30:03 2024, MaxMem=  2684354560 cpu:               1.4 elap:               0.1
 (Enter /storage/apps/GAUSSIAN/G16_RevA03/g16/l302.exe)
 NPDir=0 NMtPBC=     1 NCelOv=     1 NCel=       1 NClECP=     1 NCelD=      1
         NCelK=      1 NCelE2=     1 NClLst=     1 CellRange=     0.0.
 One-electron integrals computed using PRISM.
   1 Symmetry operations used in ECPInt.
 ECPInt:  NShTT=  150975 NPrTT=  462228 LenC2=  106117 LenP2D=  214135.
 LDataN:  DoStor=T MaxTD1= 6 Len=  172
 NBasis=  1389 RedAO= T EigKep=  6.09D-06  NBF=  1389
 NBsUse=  1389 1.00D-06 EigRej= -1.00D+00 NBFU=  1389
 Precomputing XC quadrature grid using
 IXCGrd= 4 IRadAn=           5 IRanWt=          -1 IRanGd=           0 AccXCQ= 0.00D+00.
 Generated NRdTot=       0 NPtTot=           0 NUsed=           0 NTot=          32
 NSgBfM=  1493  1486  1492  1493  1493 MxSgAt=    69 MxSgA2=    69.
 Leave Link  302 at Sat Jun 22 17:30:06 2024, MaxMem=  2684354560 cpu:              44.4 elap:               2.8
 (Enter /storage/apps/GAUSSIAN/G16_RevA03/g16/l303.exe)
 DipDrv:  MaxL=1.
 Leave Link  303 at Sat Jun 22 17:30:06 2024, MaxMem=  2684354560 cpu:               4.1 elap:               0.3
 (Enter /storage/apps/GAUSSIAN/G16_RevA03/g16/l401.exe)
 ExpMin= 9.52D-02 ExpMax= 2.70D+04 ExpMxC= 9.22D+02 IAcc=3 IRadAn=         5 AccDes= 0.00D+00
 Harris functional with IExCor= 1009 and IRadAn=       5 diagonalized for initial guess.
 HarFok:  IExCor= 1009 AccDes= 0.00D+00 IRadAn=         5 IDoV= 1 UseB2=F ITyADJ=14
 ICtDFT=  3500011 ScaDFX=  1.000000  1.000000  1.000000  1.000000
 FoFCou: FMM=F IPFlag=           0 FMFlag=      100000 FMFlg1=        2001
         NFxFlg=           0 DoJE=T BraDBF=F KetDBF=T FulRan=T
         wScrn=  0.000000 ICntrl=       500 IOpCl=  0 I1Cent=   200000004 NGrid=           0
         NMat0=    1 NMatS0=      1 NMatT0=    0 NMatD0=    1 NMtDS0=    0 NMtDT0=    0
 Symmetry not used in FoFCou.
 Harris En= -1875.52012867633    
 JPrj=0 DoOrth=F DoCkMO=F.
 Leave Link  401 at Sat Jun 22 17:30:12 2024, MaxMem=  2684354560 cpu:             103.8 elap:               6.6
 (Enter /storage/apps/GAUSSIAN/G16_RevA03/g16/l502.exe)
 Two-electron integral symmetry not used.
 Closed shell SCF:
 Using DIIS extrapolation, IDIIS=  1040.
 NGot=  2684354560 LenX=  2679300873 LenY=  2676790233
 Requested convergence on RMS density matrix=1.00D-08 within 128 cycles.
 Requested convergence on MAX density matrix=1.00D-06.
 Requested convergence on             energy=1.00D-06.
 No special actions if energy rises.
 Fock matrices will be formed incrementally for  20 cycles.
 Integral accuracy reduced to 1.0D-05 until final iterations.

 Cycle   1  Pass 0  IDiag  1:
 FoFJK:  IHMeth= 1 ICntrl=       0 DoSepK=F KAlg= 0 I1Cent=           0 FoldK=F
 IRaf= 680000000 NMat=       1 IRICut=       1 DoRegI=T DoRafI=F ISym2E= 0 IDoP0=0 IntGTp=1.
 FoFCou: FMM=T IPFlag=           0 FMFlag=      100000 FMFlg1=        2001
         NFxFlg=           0 DoJE=F BraDBF=F KetDBF=F FulRan=T
         wScrn=  0.000000 ICntrl=         0 IOpCl=  0 I1Cent=           0 NGrid=           0
         NMat0=    1 NMatS0=      1 NMatT0=    0 NMatD0=    1 NMtDS0=    0 NMtDT0=    0
 Symmetry not used in FoFCou.
 FMM levels:  10  Number of levels for PrismC:   9
 E= -1875.45611478953    
 DIIS: error= 1.51D-02 at cycle   1 NSaved=   1.
 NSaved= 1 IEnMin= 1 EnMin= -1875.45611478953     IErMin= 1 ErrMin= 1.51D-02
 ErrMax= 1.51D-02  0.00D+00 EMaxC= 1.00D-01 BMatC= 1.38D+00 BMatP= 1.38D+00
 IDIUse=3 WtCom= 8.49D-01 WtEn= 1.51D-01
 Coeff-Com:  0.100D+01
 Coeff-En:   0.100D+01
 Coeff:      0.100D+01
 Gap=    -0.014 Goal=   None    Shift=    0.000
 GapD=   -0.014 DampG=0.250 DampE=0.500 DampFc=0.2500 IDamp=-1.
 Damping current iteration by 2.50D-01
 RMSDP=4.38D+01 MaxDP=9.45D+03              OVMax= 9.94D-01

 Problem detected with inexpensive integrals.
 Switching to full accuracy and repeating last cycle.
 Cycle   2  Pass 1  IDiag  1:
 E= -1875.45619114546     Delta-E=       -0.000076355926 Rises=F Damp=F
 DIIS: error= 1.51D-02 at cycle   1 NSaved=   1.
 NSaved= 1 IEnMin= 1 EnMin= -1875.45619114546     IErMin= 1 ErrMin= 1.51D-02
 ErrMax= 1.51D-02  0.00D+00 EMaxC= 1.00D-01 BMatC= 1.38D+00 BMatP= 1.38D+00
 IDIUse=3 WtCom= 8.49D-01 WtEn= 1.51D-01
 Coeff-Com:  0.100D+01
 Coeff-En:   0.100D+01
 Coeff:      0.100D+01
 Gap=    -0.014 Goal=   None    Shift=    0.000
 GapD=   -0.014 DampG=0.250 DampE=0.500 DampFc=0.2500 IDamp=-1.
 Damping current iteration by 2.50D-01
 RMSDP=3.90D-03 MaxDP=1.16D+00 DE=-7.64D-05 OVMax= 7.92D-01

 Cycle   3  Pass 1  IDiag  1:
 RMSU=  9.74D-04    CP:  1.01D+00
 E= -1875.68668517528     Delta-E=       -0.230494029823 Rises=F Damp=T
 DIIS: error= 8.98D-03 at cycle   2 NSaved=   2.
 NSaved= 2 IEnMin= 2 EnMin= -1875.68668517528     IErMin= 2 ErrMin= 8.98D-03
 ErrMax= 8.98D-03  0.00D+00 EMaxC= 1.00D-01 BMatC= 4.55D-01 BMatP= 1.38D+00
 IDIUse=3 WtCom= 9.10D-01 WtEn= 8.98D-02
 Coeff-Com: -0.621D+00 0.162D+01
 Coeff-En:   0.776D-01 0.922D+00
 Coeff:     -0.559D+00 0.156D+01
 Gap=     0.263 Goal=   None    Shift=    0.000
 GapD=    0.263 DampG=1.000 DampE=1.000 DampFc=1.0000 IDamp=-1.
 RMSDP=1.14D-03 MaxDP=1.41D-01 DE=-2.30D-01 OVMax= 5.60D-01

 Cycle   4  Pass 1  IDiag  1:
 RMSU=  1.14D-03    CP:  9.99D-01  1.08D+00
 E= -1875.88309231551     Delta-E=       -0.196407140234 Rises=F Damp=F
 DIIS: error= 1.82D-02 at cycle   3 NSaved=   3.
 NSaved= 3 IEnMin= 3 EnMin= -1875.88309231551     IErMin= 2 ErrMin= 8.98D-03
 ErrMax= 1.82D-02  0.00D+00 EMaxC= 1.00D-01 BMatC= 5.69D-01 BMatP= 4.55D-01
 IDIUse=2 WtCom= 0.00D+00 WtEn= 1.00D+00
 Coeff-En:   0.000D+00 0.358D+00 0.642D+00
 Coeff:      0.000D+00 0.358D+00 0.642D+00
 Gap=     0.312 Goal=   None    Shift=    0.000
 RMSDP=1.73D-03 MaxDP=2.45D-01 DE=-1.96D-01 OVMax= 9.91D-01

 Cycle   5  Pass 1  IDiag  1:
 RMSU=  1.44D-03    CP:  9.95D-01  1.74D+00  3.70D-01
 E= -1870.04843102706     Delta-E=        5.834661288452 Rises=F Damp=F
 DIIS: error= 5.62D-02 at cycle   4 NSaved=   4.
 NSaved= 4 IEnMin= 3 EnMin= -1875.88309231551     IErMin= 2 ErrMin= 8.98D-03
 ErrMax= 5.62D-02  0.00D+00 EMaxC= 1.00D-01 BMatC= 2.51D+00 BMatP= 4.55D-01
 IDIUse=2 WtCom= 0.00D+00 WtEn= 1.00D+00
 Coeff-En:   0.000D+00 0.000D+00 0.847D+00 0.153D+00
 Coeff:      0.000D+00 0.000D+00 0.847D+00 0.153D+00
 Gap=    -0.130 Goal=   None    Shift=    0.000
 RMSDP=1.85D-03 MaxDP=5.61D-01 DE= 5.83D+00 OVMax= 9.99D-01

 Cycle   6  Pass 1  IDiag  1:
 RMSU=  1.18D-03    CP:  1.01D+00  1.18D+00  4.98D-01  9.75D-02
 E= -1876.30717646583     Delta-E=       -6.258745438771 Rises=F Damp=F
 DIIS: error= 7.25D-03 at cycle   5 NSaved=   5.
 NSaved= 5 IEnMin= 5 EnMin= -1876.30717646583     IErMin= 5 ErrMin= 7.25D-03
 ErrMax= 7.25D-03  0.00D+00 EMaxC= 1.00D-01 BMatC= 1.62D-01 BMatP= 4.55D-01
 IDIUse=3 WtCom= 9.27D-01 WtEn= 7.25D-02
 Coeff-Com: -0.142D+00 0.290D+00 0.365D+00 0.425D-01 0.444D+00
 Coeff-En:   0.000D+00 0.000D+00 0.143D+00 0.000D+00 0.857D+00
 Coeff:     -0.131D+00 0.269D+00 0.349D+00 0.394D-01 0.474D+00
 Gap=     0.188 Goal=   None    Shift=    0.000
 RMSDP=7.92D-04 MaxDP=3.51D-01 DE=-6.26D+00 OVMax= 1.26D-01

 Cycle   7  Pass 1  IDiag  1:
 RMSU=  4.32D-04    CP:  1.01D+00  1.10D+00  6.43D-01  1.19D-01  4.61D-01
 E= -1876.39835305638     Delta-E=       -0.091176590553 Rises=F Damp=F
 DIIS: error= 3.94D-03 at cycle   6 NSaved=   6.
 NSaved= 6 IEnMin= 6 EnMin= -1876.39835305638     IErMin= 6 ErrMin= 3.94D-03
 ErrMax= 3.94D-03  0.00D+00 EMaxC= 1.00D-01 BMatC= 3.87D-02 BMatP= 1.62D-01
 IDIUse=3 WtCom= 9.61D-01 WtEn= 3.94D-02
 Coeff-Com: -0.129D+00 0.183D+00 0.171D-01-0.222D-02 0.242D+00 0.689D+00
 Coeff-En:   0.000D+00 0.000D+00 0.000D+00 0.000D+00 0.213D+00 0.787D+00
 Coeff:     -0.124D+00 0.175D+00 0.164D-01-0.213D-02 0.241D+00 0.693D+00
 Gap=     0.078 Goal=   None    Shift=    0.000
 RMSDP=2.65D-04 MaxDP=1.15D-01 DE=-9.12D-02 OVMax= 4.86D-02

 Cycle   8  Pass 1  IDiag  1:
 RMSU=  1.21D-04    CP:  1.01D+00  1.17D+00  5.65D-01  1.21D-01  6.33D-01
                    CP:  9.85D-01
 E= -1876.43214198877     Delta-E=       -0.033788932389 Rises=F Damp=F
 DIIS: error= 7.60D-04 at cycle   7 NSaved=   7.
 NSaved= 7 IEnMin= 7 EnMin= -1876.43214198877     IErMin= 7 ErrMin= 7.60D-04
 ErrMax= 7.60D-04  0.00D+00 EMaxC= 1.00D-01 BMatC= 1.37D-03 BMatP= 3.87D-02
 IDIUse=3 WtCom= 9.92D-01 WtEn= 7.60D-03
 Coeff-Com: -0.599D-01 0.837D-01-0.244D-01 0.375D-03 0.431D-01 0.281D+00
 Coeff-Com:  0.676D+00
 Coeff-En:   0.000D+00 0.000D+00 0.000D+00 0.000D+00 0.000D+00 0.000D+00
 Coeff-En:   0.100D+01
 Coeff:     -0.595D-01 0.831D-01-0.242D-01 0.372D-03 0.427D-01 0.279D+00
 Coeff:      0.679D+00
 Gap=     0.075 Goal=   None    Shift=    0.000
 RMSDP=5.00D-05 MaxDP=6.44D-03 DE=-3.38D-02 OVMax= 1.72D-02

 Cycle   9  Pass 1  IDiag  1:
 RMSU=  3.76D-05    CP:  1.01D+00  1.19D+00  5.56D-01  1.23D-01  6.23D-01
                    CP:  1.04D+00  1.02D+00
 E= -1876.43352296304     Delta-E=       -0.001380974270 Rises=F Damp=F
 DIIS: error= 5.40D-04 at cycle   8 NSaved=   8.
 NSaved= 8 IEnMin= 8 EnMin= -1876.43352296304     IErMin= 8 ErrMin= 5.40D-04
 ErrMax= 5.40D-04  0.00D+00 EMaxC= 1.00D-01 BMatC= 4.93D-04 BMatP= 1.37D-03
 IDIUse=3 WtCom= 9.95D-01 WtEn= 5.40D-03
 Coeff-Com: -0.206D-01 0.295D-01-0.286D-01-0.214D-03-0.256D-01 0.462D-01
 Coeff-Com:  0.366D+00 0.634D+00
 Coeff-En:   0.000D+00 0.000D+00 0.000D+00 0.000D+00 0.000D+00 0.000D+00
 Coeff-En:   0.000D+00 0.100D+01
 Coeff:     -0.205D-01 0.294D-01-0.285D-01-0.213D-03-0.255D-01 0.460D-01
 Coeff:      0.364D+00 0.636D+00
 Gap=     0.075 Goal=   None    Shift=    0.000
 RMSDP=4.28D-05 MaxDP=1.35D-02 DE=-1.38D-03 OVMax= 1.05D-02

 Cycle  10  Pass 1  IDiag  1:
 RMSU=  2.36D-05    CP:  1.01D+00  1.18D+00  5.46D-01  1.24D-01  6.36D-01
                    CP:  1.08D+00  1.22D+00  1.00D+00
 E= -1876.43408251636     Delta-E=       -0.000559553313 Rises=F Damp=F
 DIIS: error= 1.50D-04 at cycle   9 NSaved=   9.
 NSaved= 9 IEnMin= 9 EnMin= -1876.43408251636     IErMin= 9 ErrMin= 1.50D-04
 ErrMax= 1.50D-04  0.00D+00 EMaxC= 1.00D-01 BMatC= 3.78D-05 BMatP= 4.93D-04
 IDIUse=3 WtCom= 9.98D-01 WtEn= 1.50D-03
 Coeff-Com: -0.369D-02 0.636D-02-0.556D-02 0.204D-03-0.132D-01-0.191D-01
 Coeff-Com:  0.162D-01 0.212D+00 0.807D+00
 Coeff-En:   0.000D+00 0.000D+00 0.000D+00 0.000D+00 0.000D+00 0.000D+00
 Coeff-En:   0.000D+00 0.000D+00 0.100D+01
 Coeff:     -0.368D-02 0.635D-02-0.555D-02 0.203D-03-0.132D-01-0.191D-01
 Coeff:      0.162D-01 0.211D+00 0.807D+00
 Gap=     0.075 Goal=   None    Shift=    0.000
 RMSDP=1.66D-05 MaxDP=1.78D-03 DE=-5.60D-04 OVMax= 8.78D-03

 Cycle  11  Pass 1  IDiag  1:
 RMSU=  1.04D-05    CP:  1.01D+00  1.19D+00  5.42D-01  1.25D-01  6.34D-01
                    CP:  1.10D+00  1.25D+00  1.21D+00  1.18D+00
 E= -1876.43416551635     Delta-E=       -0.000082999993 Rises=F Damp=F
 DIIS: error= 6.45D-05 at cycle  10 NSaved=  10.
 NSaved=10 IEnMin=10 EnMin= -1876.43416551635     IErMin=10 ErrMin= 6.45D-05
 ErrMax= 6.45D-05  0.00D+00 EMaxC= 1.00D-01 BMatC= 1.22D-05 BMatP= 3.78D-05
 IDIUse=1 WtCom= 1.00D+00 WtEn= 0.00D+00
 Coeff-Com:  0.979D-03-0.802D-03 0.263D-02-0.192D-03-0.254D-03-0.128D-01
 Coeff-Com: -0.689D-01-0.658D-01 0.411D+00 0.734D+00
 Coeff:      0.979D-03-0.802D-03 0.263D-02-0.192D-03-0.254D-03-0.128D-01
 Coeff:     -0.689D-01-0.658D-01 0.411D+00 0.734D+00
 Gap=     0.075 Goal=   None    Shift=    0.000
 RMSDP=1.04D-05 MaxDP=1.35D-03 DE=-8.30D-05 OVMax= 6.49D-03

 Cycle  12  Pass 1  IDiag  1:
 RMSU=  4.73D-06    CP:  1.01D+00  1.18D+00  5.41D-01  1.25D-01  6.33D-01
                    CP:  1.11D+00  1.28D+00  1.31D+00  1.43D+00  1.30D+00
 E= -1876.43418895450     Delta-E=       -0.000023438151 Rises=F Damp=F
 DIIS: error= 3.41D-05 at cycle  11 NSaved=  11.
 NSaved=11 IEnMin=11 EnMin= -1876.43418895450     IErMin=11 ErrMin= 3.41D-05
 ErrMax= 3.41D-05  0.00D+00 EMaxC= 1.00D-01 BMatC= 2.71D-06 BMatP= 1.22D-05
 IDIUse=1 WtCom= 1.00D+00 WtEn= 0.00D+00
 Coeff-Com:  0.943D-03-0.120D-02 0.217D-02-0.133D-03 0.131D-02-0.133D-02
 Coeff-Com: -0.229D-01-0.460D-01 0.693D-01 0.282D+00 0.716D+00
 Coeff:      0.943D-03-0.120D-02 0.217D-02-0.133D-03 0.131D-02-0.133D-02
 Coeff:     -0.229D-01-0.460D-01 0.693D-01 0.282D+00 0.716D+00
 Gap=     0.075 Goal=   None    Shift=    0.000
 RMSDP=5.18D-06 MaxDP=1.33D-03 DE=-2.34D-05 OVMax= 2.89D-03

 Cycle  13  Pass 1  IDiag  1:
 RMSU=  1.92D-06    CP:  1.01D+00  1.18D+00  5.41D-01  1.25D-01  6.32D-01
                    CP:  1.11D+00  1.28D+00  1.34D+00  1.49D+00  1.58D+00
                    CP:  1.43D+00
 E= -1876.43419362784     Delta-E=       -0.000004673344 Rises=F Damp=F
 DIIS: error= 2.16D-05 at cycle  12 NSaved=  12.
 NSaved=12 IEnMin=12 EnMin= -1876.43419362784     IErMin=12 ErrMin= 2.16D-05
 ErrMax= 2.16D-05  0.00D+00 EMaxC= 1.00D-01 BMatC= 9.99D-07 BMatP= 2.71D-06
 IDIUse=1 WtCom= 1.00D+00 WtEn= 0.00D+00
 Coeff-Com:  0.516D-03-0.805D-03 0.471D-03-0.734D-04 0.341D-03 0.311D-02
 Coeff-Com:  0.987D-02 0.215D-02-0.705D-01-0.557D-01 0.235D+00 0.876D+00
 Coeff:      0.516D-03-0.805D-03 0.471D-03-0.734D-04 0.341D-03 0.311D-02
 Coeff:      0.987D-02 0.215D-02-0.705D-01-0.557D-01 0.235D+00 0.876D+00
 Gap=     0.075 Goal=   None    Shift=    0.000
 RMSDP=4.02D-06 MaxDP=1.00D-03 DE=-4.67D-06 OVMax= 2.62D-03

 Cycle  14  Pass 1  IDiag  1:
 RMSU=  1.14D-06    CP:  1.01D+00  1.18D+00  5.41D-01  1.25D-01  6.30D-01
                    CP:  1.11D+00  1.28D+00  1.37D+00  1.54D+00  1.78D+00
                    CP:  1.84D+00  1.39D+00
 E= -1876.43419597973     Delta-E=       -0.000002351881 Rises=F Damp=F
 DIIS: error= 1.16D-05 at cycle  13 NSaved=  13.
 NSaved=13 IEnMin=13 EnMin= -1876.43419597973     IErMin=13 ErrMin= 1.16D-05
 ErrMax= 1.16D-05  0.00D+00 EMaxC= 1.00D-01 BMatC= 3.02D-07 BMatP= 9.99D-07
 IDIUse=1 WtCom= 1.00D+00 WtEn= 0.00D+00
 Coeff-Com:  0.918D-04-0.146D-03-0.147D-03-0.125D-04-0.390D-03 0.112D-02
 Coeff-Com:  0.103D-01 0.173D-01-0.383D-01-0.888D-01-0.180D+00 0.363D+00
 Coeff-Com:  0.916D+00
 Coeff:      0.918D-04-0.146D-03-0.147D-03-0.125D-04-0.390D-03 0.112D-02
 Coeff:      0.103D-01 0.173D-01-0.383D-01-0.888D-01-0.180D+00 0.363D+00
 Coeff:      0.916D+00
 Gap=     0.076 Goal=   None    Shift=    0.000
 RMSDP=3.00D-06 MaxDP=7.66D-04 DE=-2.35D-06 OVMax= 1.80D-03

 Cycle  15  Pass 1  IDiag  1:
 RMSU=  4.32D-07    CP:  1.01D+00  1.18D+00  5.42D-01  1.25D-01  6.29D-01
                    CP:  1.11D+00  1.28D+00  1.38D+00  1.56D+00  1.92D+00
                    CP:  2.16D+00  1.91D+00  1.41D+00
 E= -1876.43419682135     Delta-E=       -0.000000841627 Rises=F Damp=F
 DIIS: error= 2.56D-06 at cycle  14 NSaved=  14.
 NSaved=14 IEnMin=14 EnMin= -1876.43419682135     IErMin=14 ErrMin= 2.56D-06
 ErrMax= 2.56D-06  0.00D+00 EMaxC= 1.00D-01 BMatC= 2.31D-08 BMatP= 3.02D-07
 IDIUse=1 WtCom= 1.00D+00 WtEn= 0.00D+00
 Coeff-Com:  0.496D-04-0.719D-04-0.122D-03 0.294D-05-0.216D-03-0.164D-03
 Coeff-Com:  0.296D-02 0.727D-02-0.322D-02-0.260D-01-0.132D+00 0.295D-01
 Coeff-Com:  0.415D+00 0.706D+00
 Coeff:      0.496D-04-0.719D-04-0.122D-03 0.294D-05-0.216D-03-0.164D-03
 Coeff:      0.296D-02 0.727D-02-0.322D-02-0.260D-01-0.132D+00 0.295D-01
 Coeff:      0.415D+00 0.706D+00
 Gap=     0.076 Goal=   None    Shift=    0.000
 RMSDP=9.32D-07 MaxDP=2.02D-04 DE=-8.42D-07 OVMax= 6.59D-04

 Cycle  16  Pass 1  IDiag  1:
 RMSU=  1.75D-07    CP:  1.01D+00  1.18D+00  5.42D-01  1.25D-01  6.29D-01
                    CP:  1.11D+00  1.28D+00  1.39D+00  1.57D+00  1.97D+00
                    CP:  2.26D+00  2.06D+00  1.69D+00  1.32D+00
 E= -1876.43419693645     Delta-E=       -0.000000115102 Rises=F Damp=F
 DIIS: error= 1.90D-06 at cycle  15 NSaved=  15.
 NSaved=15 IEnMin=15 EnMin= -1876.43419693645     IErMin=15 ErrMin= 1.90D-06
 ErrMax= 1.90D-06  0.00D+00 EMaxC= 1.00D-01 BMatC= 5.67D-09 BMatP= 2.31D-08
 IDIUse=1 WtCom= 1.00D+00 WtEn= 0.00D+00
 Coeff-Com:  0.931D-05-0.100D-04-0.167D-04 0.801D-05 0.157D-04-0.464D-03
 Coeff-Com: -0.902D-03-0.107D-02 0.101D-01 0.108D-01-0.223D-01-0.849D-01
 Coeff-Com: -0.466D-01 0.334D+00 0.801D+00
 Coeff:      0.931D-05-0.100D-04-0.167D-04 0.801D-05 0.157D-04-0.464D-03
 Coeff:     -0.902D-03-0.107D-02 0.101D-01 0.108D-01-0.223D-01-0.849D-01
 Coeff:     -0.466D-01 0.334D+00 0.801D+00
 Gap=     0.076 Goal=   None    Shift=    0.000
 RMSDP=6.14D-07 MaxDP=1.38D-04 DE=-1.15D-07 OVMax= 4.27D-04

 Cycle  17  Pass 1  IDiag  1:
 RMSU=  1.04D-07    CP:  1.01D+00  1.18D+00  5.42D-01  1.25D-01  6.29D-01
                    CP:  1.11D+00  1.28D+00  1.39D+00  1.58D+00  1.99D+00
                    CP:  2.34D+00  2.18D+00  1.87D+00  1.62D+00  1.33D+00
 E= -1876.43419697276     Delta-E=       -0.000000036302 Rises=F Damp=F
 DIIS: error= 7.13D-07 at cycle  16 NSaved=  16.
 NSaved=16 IEnMin=16 EnMin= -1876.43419697276     IErMin=16 ErrMin= 7.13D-07
 ErrMax= 7.13D-07  0.00D+00 EMaxC= 1.00D-01 BMatC= 1.58D-09 BMatP= 5.67D-09
 IDIUse=1 WtCom= 1.00D+00 WtEn= 0.00D+00
 Coeff-Com: -0.529D-05 0.964D-05 0.136D-04 0.292D-05 0.536D-04-0.235D-03
 Coeff-Com: -0.815D-03-0.216D-02 0.552D-02 0.915D-02 0.143D-01-0.445D-01
 Coeff-Com: -0.101D+00-0.719D-02 0.362D+00 0.764D+00
 Coeff:     -0.529D-05 0.964D-05 0.136D-04 0.292D-05 0.536D-04-0.235D-03
 Coeff:     -0.815D-03-0.216D-02 0.552D-02 0.915D-02 0.143D-01-0.445D-01
 Coeff:     -0.101D+00-0.719D-02 0.362D+00 0.764D+00
 Gap=     0.076 Goal=   None    Shift=    0.000
 RMSDP=2.81D-07 MaxDP=6.12D-05 DE=-3.63D-08 OVMax= 2.01D-04

 Cycle  18  Pass 1  IDiag  1:
 RMSU=  4.73D-08    CP:  1.01D+00  1.18D+00  5.42D-01  1.25D-01  6.29D-01
                    CP:  1.11D+00  1.28D+00  1.40D+00  1.58D+00  2.00D+00
                    CP:  2.36D+00  2.23D+00  1.96D+00  1.78D+00  1.66D+00
                    CP:  1.15D+00
 E= -1876.43419698042     Delta-E=       -0.000000007662 Rises=F Damp=F
 DIIS: error= 2.78D-07 at cycle  17 NSaved=  17.
 NSaved=17 IEnMin=17 EnMin= -1876.43419698042     IErMin=17 ErrMin= 2.78D-07
 ErrMax= 2.78D-07  0.00D+00 EMaxC= 1.00D-01 BMatC= 3.14D-10 BMatP= 1.58D-09
 IDIUse=1 WtCom= 1.00D+00 WtEn= 0.00D+00
 Coeff-Com: -0.371D-05 0.557D-05 0.118D-04 0.836D-06 0.265D-04-0.273D-04
 Coeff-Com: -0.133D-03-0.838D-03 0.573D-03 0.168D-02 0.113D-01-0.813D-03
 Coeff-Com: -0.345D-01-0.922D-01-0.307D-01 0.368D+00 0.778D+00
 Coeff:     -0.371D-05 0.557D-05 0.118D-04 0.836D-06 0.265D-04-0.273D-04
 Coeff:     -0.133D-03-0.838D-03 0.573D-03 0.168D-02 0.113D-01-0.813D-03
 Coeff:     -0.345D-01-0.922D-01-0.307D-01 0.368D+00 0.778D+00
 Gap=     0.076 Goal=   None    Shift=    0.000
 RMSDP=1.33D-07 MaxDP=2.91D-05 DE=-7.66D-09 OVMax= 9.60D-05

 Cycle  19  Pass 1  IDiag  1:
 RMSU=  1.80D-08    CP:  1.01D+00  1.18D+00  5.42D-01  1.25D-01  6.29D-01
                    CP:  1.11D+00  1.28D+00  1.40D+00  1.58D+00  2.01D+00
                    CP:  2.38D+00  2.25D+00  2.00D+00  1.86D+00  1.82D+00
                    CP:  1.41D+00  1.11D+00
 E= -1876.43419698171     Delta-E=       -0.000000001294 Rises=F Damp=F
 DIIS: error= 1.08D-07 at cycle  18 NSaved=  18.
 NSaved=18 IEnMin=18 EnMin= -1876.43419698171     IErMin=18 ErrMin= 1.08D-07
 ErrMax= 1.08D-07  0.00D+00 EMaxC= 1.00D-01 BMatC= 3.83D-11 BMatP= 3.14D-10
 IDIUse=1 WtCom= 1.00D+00 WtEn= 0.00D+00
 Coeff-Com: -0.177D-05 0.247D-05 0.384D-05 0.411D-07 0.810D-05 0.147D-04
 Coeff-Com:  0.341D-04-0.157D-03-0.415D-03-0.355D-03 0.322D-02 0.493D-02
 Coeff-Com: -0.392D-02-0.442D-01-0.597D-01 0.820D-01 0.373D+00 0.646D+00
 Coeff:     -0.177D-05 0.247D-05 0.384D-05 0.411D-07 0.810D-05 0.147D-04
 Coeff:      0.341D-04-0.157D-03-0.415D-03-0.355D-03 0.322D-02 0.493D-02
 Coeff:     -0.392D-02-0.442D-01-0.597D-01 0.820D-01 0.373D+00 0.646D+00
 Gap=     0.076 Goal=   None    Shift=    0.000
 RMSDP=3.37D-08 MaxDP=6.15D-06 DE=-1.29D-09 OVMax= 2.48D-05

 Cycle  20  Pass 1  IDiag  1:
 RMSU=  6.41D-09    CP:  1.01D+00  1.18D+00  5.42D-01  1.25D-01  6.29D-01
                    CP:  1.11D+00  1.28D+00  1.40D+00  1.58D+00  2.01D+00
                    CP:  2.38D+00  2.25D+00  2.01D+00  1.87D+00  1.86D+00
                    CP:  1.47D+00  1.28D+00  1.07D+00
 E= -1876.43419698189     Delta-E=       -0.000000000177 Rises=F Damp=F
 DIIS: error= 3.93D-08 at cycle  19 NSaved=  19.
 NSaved=19 IEnMin=19 EnMin= -1876.43419698189     IErMin=19 ErrMin= 3.93D-08
 ErrMax= 3.93D-08  0.00D+00 EMaxC= 1.00D-01 BMatC= 5.06D-12 BMatP= 3.83D-11
 IDIUse=1 WtCom= 1.00D+00 WtEn= 0.00D+00
 Coeff-Com: -0.311D-06 0.364D-06 0.224D-07-0.534D-07 0.248D-06 0.123D-04
 Coeff-Com:  0.345D-04 0.738D-04-0.288D-03-0.420D-03-0.693D-03 0.232D-02
 Coeff-Com:  0.407D-02-0.315D-02-0.211D-01-0.283D-01 0.361D-01 0.287D+00
 Coeff-Com:  0.724D+00
 Coeff:     -0.311D-06 0.364D-06 0.224D-07-0.534D-07 0.248D-06 0.123D-04
 Coeff:      0.345D-04 0.738D-04-0.288D-03-0.420D-03-0.693D-03 0.232D-02
 Coeff:      0.407D-02-0.315D-02-0.211D-01-0.283D-01 0.361D-01 0.287D+00
 Coeff:      0.724D+00
 Gap=     0.076 Goal=   None    Shift=    0.000
 RMSDP=1.16D-08 MaxDP=2.07D-06 DE=-1.77D-10 OVMax= 8.53D-06

 Cycle  21  Pass 1  IDiag  1:
 RMSU=  2.63D-09    CP:  1.01D+00  1.18D+00  5.42D-01  1.25D-01  6.29D-01
                    CP:  1.11D+00  1.28D+00  1.40D+00  1.58D+00  2.01D+00
                    CP:  2.38D+00  2.26D+00  2.02D+00  1.88D+00  1.88D+00
                    CP:  1.50D+00  1.32D+00  1.26D+00  1.12D+00
 E= -1876.43419698186     Delta-E=        0.000000000029 Rises=F Damp=F
 DIIS: error= 2.01D-08 at cycle  20 NSaved=  20.
 NSaved=20 IEnMin=19 EnMin= -1876.43419698189     IErMin=20 ErrMin= 2.01D-08
 ErrMax= 2.01D-08  0.00D+00 EMaxC= 1.00D-01 BMatC= 9.51D-13 BMatP= 5.06D-12
 IDIUse=1 WtCom= 1.00D+00 WtEn= 0.00D+00
 Coeff-Com: -0.162D-06 0.231D-06-0.496D-06-0.689D-07-0.850D-06 0.432D-05
 Coeff-Com:  0.772D-05 0.553D-04-0.679D-04-0.105D-03-0.782D-03 0.316D-03
 Coeff-Com:  0.212D-02 0.477D-02-0.177D-02-0.256D-01-0.371D-01 0.321D-01
 Coeff-Com:  0.329D+00 0.697D+00
 Coeff:     -0.162D-06 0.231D-06-0.496D-06-0.689D-07-0.850D-06 0.432D-05
 Coeff:      0.772D-05 0.553D-04-0.679D-04-0.105D-03-0.782D-03 0.316D-03
 Coeff:      0.212D-02 0.477D-02-0.177D-02-0.256D-01-0.371D-01 0.321D-01
 Coeff:      0.329D+00 0.697D+00
 Gap=     0.076 Goal=   None    Shift=    0.000
 RMSDP=4.90D-09 MaxDP=9.14D-07 DE= 2.91D-11 OVMax= 3.58D-06

 SCF Done:  E(RM062X) =  -1876.43419698     A.U. after   21 cycles
            NFock= 21  Conv=0.49D-08     -V/T= 2.0047
 KE= 1.867656790207D+03 PE=-1.312003363711D+04 EE= 4.991891810268D+03
 Leave Link  502 at Sat Jun 22 17:56:51 2024, MaxMem=  2684354560 cpu:           25503.2 elap:            1598.0
 (Enter /storage/apps/GAUSSIAN/G16_RevA03/g16/l601.exe)
 Copying SCF densities to generalized density rwf, IOpCl= 0 IROHF=0.

 **********************************************************************

            Population analysis using the SCF density.

 **********************************************************************

 Alpha  occ. eigenvalues --  -19.79068 -19.77513 -19.76006 -19.72754 -19.63909
 Alpha  occ. eigenvalues --  -19.61282 -15.02686 -14.90451 -14.87662 -14.85655
 Alpha  occ. eigenvalues --  -14.84570 -14.84200 -14.82115 -14.81176 -14.81155
 Alpha  occ. eigenvalues --  -10.79700 -10.79483 -10.78371 -10.78307 -10.74851
 Alpha  occ. eigenvalues --  -10.74703 -10.74355 -10.74039 -10.73936 -10.72846
 Alpha  occ. eigenvalues --  -10.72566 -10.70865 -10.69205 -10.68262 -10.66459
 Alpha  occ. eigenvalues --  -10.65799 -10.65657 -10.65240 -10.63089 -10.59409
 Alpha  occ. eigenvalues --  -10.59107 -10.58684 -10.58571 -10.58445  -1.33675
 Alpha  occ. eigenvalues --   -1.29877  -1.28395  -1.27871  -1.26632  -1.21385
 Alpha  occ. eigenvalues --   -1.16200  -1.15323  -1.15239  -1.14323  -1.12677
 Alpha  occ. eigenvalues --   -1.11751  -1.08246  -1.07938  -1.07799  -1.05236
 Alpha  occ. eigenvalues --   -1.03507  -1.02093  -1.00933  -1.00649  -0.96725
 Alpha  occ. eigenvalues --   -0.94616  -0.92663  -0.91608  -0.90944  -0.88762
 Alpha  occ. eigenvalues --   -0.88253  -0.86780  -0.85545  -0.82440  -0.82171
 Alpha  occ. eigenvalues --   -0.81428  -0.80674  -0.77986  -0.77769  -0.77200
 Alpha  occ. eigenvalues --   -0.77169  -0.75689  -0.75355  -0.74093  -0.73922
 Alpha  occ. eigenvalues --   -0.73353  -0.71818  -0.71040  -0.70914  -0.70176
 Alpha  occ. eigenvalues --   -0.69937  -0.69329  -0.69164  -0.67683  -0.66913
 Alpha  occ. eigenvalues --   -0.66350  -0.66177  -0.65758  -0.65085  -0.64832
 Alpha  occ. eigenvalues --   -0.64711  -0.64103  -0.63135  -0.62923  -0.62150
 Alpha  occ. eigenvalues --   -0.62014  -0.61724  -0.61284  -0.60626  -0.60413
 Alpha  occ. eigenvalues --   -0.59438  -0.59140  -0.59121  -0.57641  -0.57428
 Alpha  occ. eigenvalues --   -0.56397  -0.55760  -0.55303  -0.54578  -0.54398
 Alpha  occ. eigenvalues --   -0.54092  -0.53159  -0.52567  -0.51983  -0.51566
 Alpha  occ. eigenvalues --   -0.51489  -0.51059  -0.50892  -0.50366  -0.50064
 Alpha  occ. eigenvalues --   -0.49135  -0.48910  -0.48301  -0.47395  -0.46514
 Alpha  occ. eigenvalues --   -0.45473  -0.43360  -0.42491  -0.42001  -0.40473
 Alpha  occ. eigenvalues --   -0.39145  -0.38200  -0.37214  -0.35980  -0.35921
 Alpha  occ. eigenvalues --   -0.31339  -0.29232
 Alpha virt. eigenvalues --   -0.21655  -0.18127  -0.08279  -0.07726  -0.07164
 Alpha virt. eigenvalues --   -0.06720  -0.06410  -0.05305  -0.04819  -0.04379
 Alpha virt. eigenvalues --   -0.03951  -0.02844  -0.02643  -0.02528  -0.01753
 Alpha virt. eigenvalues --   -0.01674  -0.01104  -0.01001  -0.00614   0.00008
 Alpha virt. eigenvalues --    0.00663   0.00937   0.01177   0.01326   0.01633
 Alpha virt. eigenvalues --    0.02048   0.02118   0.02597   0.02973   0.03647
 Alpha virt. eigenvalues --    0.04010   0.04356   0.04774   0.05209   0.05625
 Alpha virt. eigenvalues --    0.05939   0.06177   0.06233   0.06469   0.06619
 Alpha virt. eigenvalues --    0.07051   0.07323   0.07871   0.08357   0.08670
 Alpha virt. eigenvalues --    0.09300   0.09542   0.09922   0.10262   0.10545
 Alpha virt. eigenvalues --    0.10764   0.11380   0.11674   0.12002   0.12266
 Alpha virt. eigenvalues --    0.12490   0.12636   0.13047   0.13512   0.13685
 Alpha virt. eigenvalues --    0.14261   0.14405   0.14831   0.15215   0.15690
 Alpha virt. eigenvalues --    0.15788   0.16064   0.16357   0.16764   0.17114
 Alpha virt. eigenvalues --    0.17597   0.17783   0.18178   0.18770   0.18888
 Alpha virt. eigenvalues --    0.19057   0.19336   0.19652   0.19794   0.20184
 Alpha virt. eigenvalues --    0.20441   0.20623   0.21160   0.21386   0.21567
 Alpha virt. eigenvalues --    0.21789   0.21945   0.22777   0.22975   0.23270
 Alpha virt. eigenvalues --    0.23527   0.23826   0.24095   0.24266   0.24598
 Alpha virt. eigenvalues --    0.24753   0.25011   0.25161   0.25556   0.25933
 Alpha virt. eigenvalues --    0.26260   0.26418   0.26536   0.27219   0.27404
 Alpha virt. eigenvalues --    0.27893   0.28121   0.28152   0.28407   0.28750
 Alpha virt. eigenvalues --    0.29212   0.29434   0.29561   0.29728   0.30114
 Alpha virt. eigenvalues --    0.30242   0.30519   0.30847   0.31159   0.31276
 Alpha virt. eigenvalues --    0.31517   0.31741   0.32001   0.32195   0.32395
 Alpha virt. eigenvalues --    0.32720   0.32948   0.33379   0.33798   0.33880
 Alpha virt. eigenvalues --    0.34054   0.34454   0.34754   0.35287   0.35381
 Alpha virt. eigenvalues --    0.35521   0.35757   0.36000   0.36163   0.36351
 Alpha virt. eigenvalues --    0.36592   0.36679   0.36896   0.37213   0.37630
 Alpha virt. eigenvalues --    0.38018   0.38155   0.38355   0.38614   0.39114
 Alpha virt. eigenvalues --    0.39168   0.39485   0.39690   0.39918   0.40180
 Alpha virt. eigenvalues --    0.40473   0.40670   0.40760   0.41215   0.41344
 Alpha virt. eigenvalues --    0.41781   0.41990   0.42081   0.42744   0.42986
 Alpha virt. eigenvalues --    0.43113   0.43411   0.43582   0.43819   0.44032
 Alpha virt. eigenvalues --    0.44521   0.44705   0.44994   0.45266   0.45378
 Alpha virt. eigenvalues --    0.45978   0.46136   0.46435   0.46641   0.46796
 Alpha virt. eigenvalues --    0.47242   0.47491   0.48125   0.48442   0.48503
 Alpha virt. eigenvalues --    0.48817   0.49299   0.49384   0.49925   0.50113
 Alpha virt. eigenvalues --    0.50333   0.50439   0.50895   0.51419   0.51479
 Alpha virt. eigenvalues --    0.51797   0.52030   0.52578   0.52905   0.53262
 Alpha virt. eigenvalues --    0.53570   0.53856   0.54176   0.54394   0.55204
 Alpha virt. eigenvalues --    0.55481   0.55826   0.55969   0.56513   0.56804
 Alpha virt. eigenvalues --    0.57061   0.57107   0.57401   0.57578   0.57870
 Alpha virt. eigenvalues --    0.58733   0.58885   0.59050   0.59221   0.60126
 Alpha virt. eigenvalues --    0.60159   0.60574   0.61044   0.61219   0.61675
 Alpha virt. eigenvalues --    0.61815   0.62497   0.62968   0.63269   0.63399
 Alpha virt. eigenvalues --    0.63534   0.63712   0.64155   0.64574   0.64974
 Alpha virt. eigenvalues --    0.65226   0.65557   0.65742   0.66534   0.66766
 Alpha virt. eigenvalues --    0.67357   0.67989   0.68131   0.68437   0.68787
 Alpha virt. eigenvalues --    0.69336   0.69760   0.70221   0.70443   0.70816
 Alpha virt. eigenvalues --    0.71230   0.71405   0.71682   0.71774   0.72678
 Alpha virt. eigenvalues --    0.73128   0.73550   0.73895   0.74372   0.74628
 Alpha virt. eigenvalues --    0.75057   0.75210   0.75547   0.75796   0.76717
 Alpha virt. eigenvalues --    0.76991   0.77114   0.77713   0.77933   0.78114
 Alpha virt. eigenvalues --    0.78574   0.78748   0.79526   0.79785   0.80607
 Alpha virt. eigenvalues --    0.80996   0.81467   0.82490   0.82592   0.82844
 Alpha virt. eigenvalues --    0.83171   0.83814   0.84086   0.84701   0.84812
 Alpha virt. eigenvalues --    0.85176   0.85378   0.85528   0.86836   0.87418
 Alpha virt. eigenvalues --    0.87524   0.87990   0.88642   0.88849   0.89011
 Alpha virt. eigenvalues --    0.89550   0.90381   0.90620   0.91200   0.91361
 Alpha virt. eigenvalues --    0.91944   0.92391   0.92786   0.93380   0.94088
 Alpha virt. eigenvalues --    0.94601   0.94730   0.95394   0.95653   0.96533
 Alpha virt. eigenvalues --    0.97140   0.97818   0.97975   0.98655   0.99175
 Alpha virt. eigenvalues --    0.99600   0.99850   1.00216   1.00813   1.01340
 Alpha virt. eigenvalues --    1.01656   1.01933   1.02354   1.03730   1.03878
 Alpha virt. eigenvalues --    1.04668   1.05181   1.05574   1.06276   1.06612
 Alpha virt. eigenvalues --    1.07403   1.07961   1.08245   1.08494   1.08577
 Alpha virt. eigenvalues --    1.09255   1.10104   1.10595   1.11035   1.11316
 Alpha virt. eigenvalues --    1.11785   1.12422   1.12755   1.13289   1.14741
 Alpha virt. eigenvalues --    1.15128   1.15445   1.15680   1.15999   1.16657
 Alpha virt. eigenvalues --    1.16849   1.17424   1.17956   1.18437   1.19207
 Alpha virt. eigenvalues --    1.19411   1.20443   1.21526   1.22133   1.22791
 Alpha virt. eigenvalues --    1.23319   1.23455   1.23637   1.24147   1.24409
 Alpha virt. eigenvalues --    1.24936   1.25637   1.25986   1.26238   1.26873
 Alpha virt. eigenvalues --    1.27529   1.27945   1.28022   1.28355   1.29128
 Alpha virt. eigenvalues --    1.29237   1.30031   1.30346   1.31150   1.31596
 Alpha virt. eigenvalues --    1.31859   1.32612   1.33276   1.34191   1.34673
 Alpha virt. eigenvalues --    1.34936   1.35665   1.35836   1.36382   1.36508
 Alpha virt. eigenvalues --    1.37194   1.37875   1.38174   1.38589   1.38941
 Alpha virt. eigenvalues --    1.39470   1.39664   1.40641   1.40862   1.41121
 Alpha virt. eigenvalues --    1.41955   1.42621   1.42786   1.43051   1.43357
 Alpha virt. eigenvalues --    1.44342   1.44400   1.44589   1.44886   1.45439
 Alpha virt. eigenvalues --    1.45837   1.46335   1.46781   1.47012   1.47529
 Alpha virt. eigenvalues --    1.47773   1.48103   1.48844   1.49225   1.49561
 Alpha virt. eigenvalues --    1.50243   1.50339   1.50612   1.51406   1.51866
 Alpha virt. eigenvalues --    1.52225   1.52463   1.52582   1.52798   1.53375
 Alpha virt. eigenvalues --    1.53773   1.54310   1.54474   1.54967   1.54986
 Alpha virt. eigenvalues --    1.55545   1.56007   1.56238   1.56642   1.57011
 Alpha virt. eigenvalues --    1.57272   1.57565   1.57812   1.58069   1.58341
 Alpha virt. eigenvalues --    1.59276   1.59968   1.60202   1.60430   1.60569
 Alpha virt. eigenvalues --    1.60688   1.61305   1.61780   1.61906   1.62249
 Alpha virt. eigenvalues --    1.63497   1.63589   1.63985   1.64225   1.64751
 Alpha virt. eigenvalues --    1.65592   1.65667   1.65971   1.66323   1.66745
 Alpha virt. eigenvalues --    1.67480   1.67695   1.68375   1.68729   1.69449
 Alpha virt. eigenvalues --    1.69754   1.69897   1.70754   1.71659   1.72118
 Alpha virt. eigenvalues --    1.72218   1.72525   1.73220   1.73397   1.73808
 Alpha virt. eigenvalues --    1.74190   1.74638   1.74993   1.76415   1.76619
 Alpha virt. eigenvalues --    1.77053   1.77162   1.77318   1.77799   1.77954
 Alpha virt. eigenvalues --    1.78467   1.79187   1.79765   1.80773   1.80789
 Alpha virt. eigenvalues --    1.81254   1.81687   1.81934   1.82784   1.83057
 Alpha virt. eigenvalues --    1.83415   1.83780   1.84248   1.84969   1.85166
 Alpha virt. eigenvalues --    1.85764   1.86116   1.86575   1.87082   1.87281
 Alpha virt. eigenvalues --    1.87940   1.88689   1.89106   1.89652   1.89921
 Alpha virt. eigenvalues --    1.90149   1.90435   1.90645   1.91177   1.92299
 Alpha virt. eigenvalues --    1.92588   1.92876   1.93509   1.94037   1.94839
 Alpha virt. eigenvalues --    1.95237   1.95352   1.95988   1.96251   1.97075
 Alpha virt. eigenvalues --    1.97417   1.97996   1.98158   1.98842   1.99094
 Alpha virt. eigenvalues --    1.99988   2.00376   2.01008   2.01618   2.02086
 Alpha virt. eigenvalues --    2.02583   2.02987   2.04059   2.04064   2.04388
 Alpha virt. eigenvalues --    2.05475   2.06064   2.06244   2.07075   2.07861
 Alpha virt. eigenvalues --    2.07948   2.08387   2.08919   2.09543   2.09836
 Alpha virt. eigenvalues --    2.10521   2.10842   2.11057   2.11162   2.11812
 Alpha virt. eigenvalues --    2.12724   2.13487   2.13585   2.14220   2.14391
 Alpha virt. eigenvalues --    2.15420   2.15952   2.16357   2.16805   2.17007
 Alpha virt. eigenvalues --    2.17719   2.18158   2.19000   2.19282   2.19489
 Alpha virt. eigenvalues --    2.20328   2.20814   2.21223   2.21401   2.21878
 Alpha virt. eigenvalues --    2.22160   2.23313   2.23755   2.24463   2.24791
 Alpha virt. eigenvalues --    2.25545   2.25755   2.26075   2.26728   2.27245
 Alpha virt. eigenvalues --    2.27635   2.27778   2.28708   2.29292   2.29978
 Alpha virt. eigenvalues --    2.30526   2.30867   2.31293   2.32476   2.32920
 Alpha virt. eigenvalues --    2.33773   2.34047   2.34499   2.35092   2.35606
 Alpha virt. eigenvalues --    2.35899   2.36282   2.37022   2.37295   2.37592
 Alpha virt. eigenvalues --    2.38401   2.39039   2.39333   2.39602   2.40725
 Alpha virt. eigenvalues --    2.40881   2.41710   2.42520   2.43334   2.43909
 Alpha virt. eigenvalues --    2.44194   2.44906   2.45430   2.45993   2.46716
 Alpha virt. eigenvalues --    2.46880   2.47593   2.48235   2.48878   2.49356
 Alpha virt. eigenvalues --    2.49709   2.50318   2.50630   2.51575   2.51733
 Alpha virt. eigenvalues --    2.52554   2.52759   2.52834   2.53600   2.54114
 Alpha virt. eigenvalues --    2.55121   2.55344   2.55974   2.56312   2.56744
 Alpha virt. eigenvalues --    2.57194   2.57799   2.58762   2.59045   2.59528
 Alpha virt. eigenvalues --    2.59869   2.60487   2.60744   2.61059   2.61431
 Alpha virt. eigenvalues --    2.61839   2.62426   2.62890   2.63322   2.63781
 Alpha virt. eigenvalues --    2.63856   2.64720   2.65249   2.65593   2.66000
 Alpha virt. eigenvalues --    2.66302   2.66900   2.67089   2.67491   2.67633
 Alpha virt. eigenvalues --    2.68474   2.68670   2.69100   2.69482   2.69754
 Alpha virt. eigenvalues --    2.69961   2.70210   2.70459   2.71366   2.71580
 Alpha virt. eigenvalues --    2.72503   2.72610   2.72916   2.73716   2.74298
 Alpha virt. eigenvalues --    2.74579   2.74857   2.75330   2.76100   2.76688
 Alpha virt. eigenvalues --    2.76860   2.77091   2.77512   2.77663   2.78288
 Alpha virt. eigenvalues --    2.78724   2.79090   2.79790   2.80555   2.80646
 Alpha virt. eigenvalues --    2.80878   2.81833   2.82095   2.82527   2.82762
 Alpha virt. eigenvalues --    2.83123   2.83561   2.83905   2.83973   2.85155
 Alpha virt. eigenvalues --    2.85525   2.86135   2.86185   2.86555   2.86977
 Alpha virt. eigenvalues --    2.87712   2.87844   2.88027   2.88613   2.88952
 Alpha virt. eigenvalues --    2.89484   2.89633   2.90093   2.90428   2.91013
 Alpha virt. eigenvalues --    2.91242   2.91718   2.91856   2.92074   2.92338
 Alpha virt. eigenvalues --    2.92739   2.92811   2.93212   2.93857   2.94687
 Alpha virt. eigenvalues --    2.95135   2.95510   2.95603   2.96031   2.96190
 Alpha virt. eigenvalues --    2.96760   2.97242   2.98015   2.98679   2.98750
 Alpha virt. eigenvalues --    2.99303   2.99968   3.00468   3.00720   3.01481
 Alpha virt. eigenvalues --    3.01630   3.01809   3.01997   3.02485   3.03029
 Alpha virt. eigenvalues --    3.03457   3.03759   3.03951   3.04074   3.04889
 Alpha virt. eigenvalues --    3.05485   3.05802   3.06191   3.06224   3.07036
 Alpha virt. eigenvalues --    3.07466   3.08193   3.08217   3.08609   3.08938
 Alpha virt. eigenvalues --    3.09164   3.09810   3.10027   3.10340   3.11239
 Alpha virt. eigenvalues --    3.11658   3.11893   3.12025   3.12194   3.12522
 Alpha virt. eigenvalues --    3.12999   3.13286   3.13529   3.13857   3.14411
 Alpha virt. eigenvalues --    3.14885   3.15017   3.15439   3.15472   3.15864
 Alpha virt. eigenvalues --    3.16350   3.16850   3.17095   3.17459   3.17576
 Alpha virt. eigenvalues --    3.17675   3.18705   3.19332   3.19530   3.20010
 Alpha virt. eigenvalues --    3.20387   3.20804   3.20997   3.21256   3.21861
 Alpha virt. eigenvalues --    3.22314   3.22445   3.23028   3.23274   3.23810
 Alpha virt. eigenvalues --    3.24923   3.25372   3.25572   3.25984   3.26321
 Alpha virt. eigenvalues --    3.26730   3.27346   3.27795   3.28500   3.28763
 Alpha virt. eigenvalues --    3.29012   3.29473   3.29582   3.29821   3.30167
 Alpha virt. eigenvalues --    3.30734   3.31321   3.31707   3.31818   3.32289
 Alpha virt. eigenvalues --    3.32525   3.32862   3.33406   3.33676   3.34231
 Alpha virt. eigenvalues --    3.34296   3.34706   3.35129   3.35307   3.35707
 Alpha virt. eigenvalues --    3.35831   3.36721   3.37030   3.37369   3.37669
 Alpha virt. eigenvalues --    3.38411   3.39203   3.39856   3.40508   3.40725
 Alpha virt. eigenvalues --    3.41372   3.41826   3.42048   3.42741   3.43013
 Alpha virt. eigenvalues --    3.43810   3.44157   3.44673   3.44863   3.45348
 Alpha virt. eigenvalues --    3.45883   3.46401   3.46881   3.47818   3.48418
 Alpha virt. eigenvalues --    3.48810   3.49546   3.50168   3.50463   3.50610
 Alpha virt. eigenvalues --    3.50928   3.51628   3.52507   3.52913   3.53543
 Alpha virt. eigenvalues --    3.54049   3.55000   3.55390   3.55978   3.57705
 Alpha virt. eigenvalues --    3.58116   3.59469   3.59523   3.60581   3.60998
 Alpha virt. eigenvalues --    3.61789   3.62933   3.63001   3.63371   3.64230
 Alpha virt. eigenvalues --    3.65155   3.66317   3.66728   3.67785   3.68208
 Alpha virt. eigenvalues --    3.68421   3.69824   3.70375   3.71024   3.71631
 Alpha virt. eigenvalues --    3.71768   3.73460   3.73548   3.74311   3.74713
 Alpha virt. eigenvalues --    3.75147   3.75798   3.77098   3.77622   3.78039
 Alpha virt. eigenvalues --    3.78849   3.79247   3.79624   3.80668   3.81351
 Alpha virt. eigenvalues --    3.82371   3.82865   3.83394   3.83981   3.84387
 Alpha virt. eigenvalues --    3.85462   3.86718   3.87841   3.88342   3.88972
 Alpha virt. eigenvalues --    3.89364   3.89731   3.90864   3.91021   3.91937
 Alpha virt. eigenvalues --    3.92891   3.93609   3.94075   3.94821   3.95074
 Alpha virt. eigenvalues --    3.95679   3.98083   3.99194   4.00072   4.00283
 Alpha virt. eigenvalues --    4.00743   4.01582   4.02547   4.02778   4.03543
 Alpha virt. eigenvalues --    4.04065   4.05101   4.05164   4.06461   4.06928
 Alpha virt. eigenvalues --    4.07489   4.07637   4.08255   4.09353   4.10168
 Alpha virt. eigenvalues --    4.11015   4.11565   4.12042   4.12844   4.13158
 Alpha virt. eigenvalues --    4.13856   4.14325   4.15160   4.16418   4.17589
 Alpha virt. eigenvalues --    4.17951   4.18661   4.18986   4.19785   4.21481
 Alpha virt. eigenvalues --    4.21816   4.22278   4.22681   4.23439   4.24036
 Alpha virt. eigenvalues --    4.24109   4.25856   4.26528   4.26987   4.28682
 Alpha virt. eigenvalues --    4.29187   4.30189   4.30643   4.31892   4.32292
 Alpha virt. eigenvalues --    4.33046   4.33907   4.35647   4.37316   4.38519
 Alpha virt. eigenvalues --    4.38845   4.39652   4.40258   4.41009   4.41964
 Alpha virt. eigenvalues --    4.42442   4.45483   4.47440   4.48561   4.49955
 Alpha virt. eigenvalues --    4.50203   4.50484   4.51031   4.51188   4.51997
 Alpha virt. eigenvalues --    4.52514   4.53210   4.53505   4.54939   4.55754
 Alpha virt. eigenvalues --    4.57185   4.57411   4.57686   4.58308   4.59067
 Alpha virt. eigenvalues --    4.59831   4.61527   4.61902   4.62023   4.62287
 Alpha virt. eigenvalues --    4.63765   4.64165   4.64930   4.66360   4.67635
 Alpha virt. eigenvalues --    4.68274   4.68514   4.68622   4.68929   4.70158
 Alpha virt. eigenvalues --    4.71143   4.73643   4.73942   4.74497   4.74676
 Alpha virt. eigenvalues --    4.75487   4.77429   4.77885   4.78509   4.79202
 Alpha virt. eigenvalues --    4.80415   4.81473   4.82866   4.83610   4.85366
 Alpha virt. eigenvalues --    4.86354   4.87317   4.88139   4.88331   4.89204
 Alpha virt. eigenvalues --    4.89880   4.89926   4.90499   4.91862   4.92806
 Alpha virt. eigenvalues --    4.93546   4.94168   4.95076   4.96553   4.97272
 Alpha virt. eigenvalues --    4.97494   4.98450   4.98548   4.99566   4.99736
 Alpha virt. eigenvalues --    5.00649   5.01075   5.01576   5.02441   5.02738
 Alpha virt. eigenvalues --    5.03081   5.03317   5.04721   5.04959   5.06056
 Alpha virt. eigenvalues --    5.06754   5.07000   5.08206   5.08510   5.09061
 Alpha virt. eigenvalues --    5.09919   5.11363   5.11754   5.13342   5.13413
 Alpha virt. eigenvalues --    5.13457   5.14120   5.15005   5.15375   5.15692
 Alpha virt. eigenvalues --    5.16678   5.16890   5.17292   5.18542   5.19091
 Alpha virt. eigenvalues --    5.20054   5.20404   5.21169   5.21917   5.22826
 Alpha virt. eigenvalues --    5.23109   5.24177   5.25084   5.25298   5.25511
 Alpha virt. eigenvalues --    5.25903   5.26082   5.26808   5.28300   5.28404
 Alpha virt. eigenvalues --    5.28734   5.28830   5.30228   5.32390   5.33128
 Alpha virt. eigenvalues --    5.34111   5.35153   5.35423   5.36336   5.36429
 Alpha virt. eigenvalues --    5.37828   5.37881   5.39246   5.41321   5.43615
 Alpha virt. eigenvalues --    5.45753   5.49431   5.49567   5.50490   5.52160
 Alpha virt. eigenvalues --    5.53172   5.54873   5.55306   5.55627   5.56102
 Alpha virt. eigenvalues --    5.58292   5.58525   5.59004   5.60513   5.61852
 Alpha virt. eigenvalues --    5.62071   5.63186   5.63721   5.64225   5.65566
 Alpha virt. eigenvalues --    5.67239   5.68133   5.68583   5.69879   5.71035
 Alpha virt. eigenvalues --    5.72949   5.75045   5.77676   5.79556   5.80067
 Alpha virt. eigenvalues --    5.81260   5.81573   5.82368   5.84399   5.87235
 Alpha virt. eigenvalues --    5.87766   5.92000   5.92579   5.93333   5.95472
 Alpha virt. eigenvalues --    5.95687   5.96675   5.96963   6.01596   6.08517
 Alpha virt. eigenvalues --    6.11251   6.16520   6.19572   6.19912   6.23634
 Alpha virt. eigenvalues --    6.29245   6.32327   6.35353   6.37936   6.38087
 Alpha virt. eigenvalues --    6.47554   6.51164   6.55015   6.55578   6.55857
 Alpha virt. eigenvalues --    6.57988   6.61379   6.62749   6.65277   6.67283
 Alpha virt. eigenvalues --    6.70511   6.70727   6.72668   6.74928   6.76703
 Alpha virt. eigenvalues --    6.79038   6.82782   6.85449   6.94160   6.97014
 Alpha virt. eigenvalues --    6.99059   6.99450   7.00224   7.02714   7.03394
 Alpha virt. eigenvalues --    7.06947   7.07585   7.12682  22.38169  22.44410
 Alpha virt. eigenvalues --   22.52381  22.56251  22.64127  22.71840  22.72569
 Alpha virt. eigenvalues --   22.75439  22.77990  22.79813  22.82094  22.84471
 Alpha virt. eigenvalues --   22.94218  22.96665  22.98378  22.99342  23.00698
 Alpha virt. eigenvalues --   23.14244  23.16573  23.19223  23.26256  23.31613
 Alpha virt. eigenvalues --   23.40181  23.51847  32.01088  32.01861  32.09473
 Alpha virt. eigenvalues --   32.40956  32.57153  32.63966  32.73034  32.87927
 Alpha virt. eigenvalues --   32.93466  44.01295  44.01513  44.04386  44.04886
 Alpha virt. eigenvalues --   44.07180  44.25227
          Condensed to atoms (all electrons):
 Mulliken charges:
               1
     1  C   -0.077285
     2  H    0.144262
     3  O   -0.304894
     4  C    0.008070
     5  H    0.181095
     6  O   -0.511833
     7  H    0.352157
     8  C    0.005631
     9  H    0.170486
    10  O   -0.463853
    11  H    0.365933
    12  C    0.048557
    13  H    0.147953
    14  N    0.046893
    15  C   -0.012864
    16  H    0.174521
    17  C    0.029706
    18  C   -0.123667
    19  H    0.249084
    20  H    0.077491
    21  C   -0.157687
    22  H    0.191271
    23  C    0.039051
    24  H    0.203235
    25  C    0.367220
    26  O   -0.346478
    27  N   -0.490898
    28  H    0.254959
    29  H    0.298743
    30  N   -0.385325
    31  C    0.454380
    32  N   -0.544715
    33  H    0.287699
    34  H    0.272548
    35  N   -0.318747
    36  H    0.264330
    37  C    0.263439
    38  O   -0.467745
    39  C   -0.013243
    40  N   -0.381224
    41  H    0.253983
    42  C   -0.014372
    43  C   -0.218324
    44  H    0.158597
    45  H    0.172533
    46  N   -0.382517
    47  H    0.251972
    48  C    0.317591
    49  C   -0.243603
    50  H    0.135211
    51  H    0.207989
    52  N   -0.414863
    53  H    0.236498
    54  C    0.096849
    55  C   -0.186106
    56  H    0.171925
    57  C   -0.195491
    58  H    0.144898
    59  C    0.276687
    60  C   -0.161221
    61  H    0.119040
    62  C   -0.186499
    63  H    0.103876
    64  C    0.322329
    65  O   -0.443199
    66  N   -0.526724
    67  H    0.248088
    68  H    0.162514
    69  H    0.294085
 Sum of Mulliken charges =   1.00000
 Mulliken charges with hydrogens summed into heavy atoms:
               1
     1  C    0.229491
     3  O   -0.304894
     4  C    0.189165
     6  O   -0.159676
     8  C    0.176117
    10  O   -0.097920
    12  C    0.196510
    14  N    0.046893
    15  C    0.161657
    17  C    0.029706
    18  C    0.125417
    21  C    0.033583
    23  C    0.242286
    25  C    0.367220
    26  O   -0.346478
    27  N    0.062804
    30  N   -0.385325
    31  C    0.454380
    32  N    0.015532
    35  N   -0.054417
    37  C    0.263439
    38  O   -0.467745
    39  C   -0.013243
    40  N   -0.127241
    42  C    0.063119
    43  C    0.112806
    46  N   -0.130545
    48  C    0.317591
    49  C    0.099597
    52  N   -0.178365
    54  C    0.096849
    55  C   -0.014181
    57  C   -0.050593
    59  C    0.276687
    60  C   -0.042181
    62  C   -0.082622
    64  C    0.322329
    65  O   -0.443199
    66  N    0.015449
 Electronic spatial extent (au):  <R**2>=          28114.0327
 Charge=              1.0000 electrons
 Dipole moment (field-independent basis, Debye):
    X=             -7.9411    Y=             -8.6107    Z=             24.2195  Tot=             26.9034
 Quadrupole moment (field-independent basis, Debye-Ang):
   XX=           -136.4037   YY=           -224.3523   ZZ=           -110.3109
   XY=             -3.1412   XZ=            -89.1445   YZ=             66.9192
 Traceless Quadrupole moment (field-independent basis, Debye-Ang):
   XX=             20.6186   YY=            -67.3300   ZZ=             46.7114
   XY=             -3.1412   XZ=            -89.1445   YZ=             66.9192
 Octapole moment (field-independent basis, Debye-Ang**2):
  XXX=            675.6829  YYY=           -103.7767  ZZZ=            878.8597  XYY=            233.4291
  XXY=           -115.4748  XXZ=            334.8097  XZZ=            -37.4030  YZZ=           -115.4766
  YYZ=            198.7794  XYZ=           -103.8911
 Hexadecapole moment (field-independent basis, Debye-Ang**3):
 XXXX=          -6607.4932 YYYY=          -5166.0967 ZZZZ=         -16162.4818 XXXY=           1285.3115
 XXXZ=           -613.9593 YYYX=           1857.8681 YYYZ=           1558.6708 ZZZX=          -2115.7426
 ZZZY=           4070.9918 XXYY=          -2067.2411 XXZZ=          -3263.9814 YYZZ=          -5359.7979
 XXYZ=           1100.1444 YYXZ=           -181.9738 ZZXY=            528.4450
 N-N= 4.384050839651D+03 E-N=-1.312003363929D+04  KE= 1.867656790207D+03
 No NMR shielding tensors so no spin-rotation constants.
 Leave Link  601 at Sat Jun 22 17:56:51 2024, MaxMem=  2684354560 cpu:               9.6 elap:               0.8
 (Enter /storage/apps/GAUSSIAN/G16_RevA03/g16/l602.exe)

 **********************************************************************

            Electrostatic Properties Using The SCF Density

 **********************************************************************

       Atomic Center    1 is at  -4.196235  0.420974  6.782923
       Atomic Center    2 is at  -4.039588  0.479460  7.792147
       Atomic Center    3 is at  -2.999525 -0.173709  6.169973
       Atomic Center    4 is at  -4.307527  1.809247  6.152323
       Atomic Center    5 is at  -5.266245  2.175296  6.129171
       Atomic Center    6 is at  -3.453908  2.771481  6.814845
       Atomic Center    7 is at  -3.638744  2.859524  7.774076
       Atomic Center    8 is at  -3.690587  1.611127  4.753234
       Atomic Center    9 is at  -4.351116  1.192495  4.090391
       Atomic Center   10 is at  -3.207770  2.835214  4.215237
       Atomic Center   11 is at  -3.016691  3.415877  4.977312
       Atomic Center   12 is at  -2.520883  0.641449  5.085399
       Atomic Center   13 is at  -1.691184  1.168680  5.383389
       Atomic Center   14 is at  -2.089369 -0.286801  4.007155
       Atomic Center   15 is at  -0.760226 -0.325442  3.681986
       Atomic Center   16 is at  -0.187585  0.405828  4.098551
       Atomic Center   17 is at  -0.256466 -1.289861  2.865370
       Atomic Center   18 is at  -1.162097 -2.216051  2.283495
       Atomic Center   19 is at  -0.794942 -2.955023  1.685927
       Atomic Center   20 is at  -0.918302 -0.854695  0.183138
       Atomic Center   21 is at  -2.500538 -2.116406  2.567377
       Atomic Center   22 is at  -3.164905 -2.761891  2.143479
       Atomic Center   23 is at  -2.960773 -1.178729  3.442665
       Atomic Center   24 is at  -3.940483 -1.109439  3.714588
       Atomic Center   25 is at   1.225478 -1.489256  2.630085
       Atomic Center   26 is at   1.615440 -2.464749  1.963276
       Atomic Center   27 is at   2.125906 -0.622311  3.187461
       Atomic Center   28 is at   1.851926  0.105245  3.844179
       Atomic Center   29 is at   3.106262 -0.910755  3.199478
       Atomic Center   30 is at   2.150814 -3.097472 -1.976157
       Atomic Center   31 is at   3.280204 -2.438743 -2.310646
       Atomic Center   32 is at   4.410130 -3.125990 -2.640263
       Atomic Center   33 is at   4.428807 -4.138140 -2.581604
       Atomic Center   34 is at   5.266245 -2.613120 -2.901848
       Atomic Center   35 is at   3.347414 -1.063778 -2.336279
       Atomic Center   36 is at   4.277682 -0.614805 -2.448562
       Atomic Center   37 is at   2.248475 -0.260844 -2.062022
       Atomic Center   38 is at   2.410643  1.013081 -2.019916
       Atomic Center   39 is at   1.030041 -0.948081 -1.798173
       Atomic Center   40 is at  -0.176194 -0.203941 -1.612539
       Atomic Center   41 is at   0.016981  0.768487 -1.363604
       Atomic Center   42 is at  -1.212676 -0.851836 -0.802522
       Atomic Center   43 is at  -1.384657 -2.307792 -1.291001
       Atomic Center   44 is at  -2.029479 -2.804488 -0.674553
       Atomic Center   45 is at  -1.799077 -2.298896 -2.228814
       Atomic Center   46 is at  -0.098347 -2.996681 -1.297857
       Atomic Center   47 is at  -0.095300 -4.010837 -1.353694
       Atomic Center   48 is at   1.035398 -2.327033 -1.711933
       Atomic Center   49 is at  -2.597268 -0.101332 -0.890439
       Atomic Center   50 is at  -3.000978 -0.051910  0.046045
       Atomic Center   51 is at  -3.238249 -0.649794 -1.469898
       Atomic Center   52 is at  -2.517628  1.262683 -1.408740
       Atomic Center   53 is at  -2.764707  2.007275 -0.761430
       Atomic Center   54 is at  -2.251348  2.153196 -5.495379
       Atomic Center   55 is at  -2.436880  3.173165 -4.531995
       Atomic Center   56 is at  -2.486780  4.138140 -4.853856
       Atomic Center   57 is at  -2.523179  2.889632 -3.207946
       Atomic Center   58 is at  -2.643311  3.640313 -2.529260
       Atomic Center   59 is at  -2.440232  1.547497 -2.753481
       Atomic Center   60 is at  -2.270464  0.519119 -3.716158
       Atomic Center   61 is at  -2.208708 -0.453862 -3.422180
       Atomic Center   62 is at  -2.173694  0.820147 -5.034008
       Atomic Center   63 is at  -2.052579  0.057594 -5.698809
       Atomic Center   64 is at  -2.138274  2.493736 -6.906875
       Atomic Center   65 is at  -2.406279  3.673345 -7.340807
       Atomic Center   66 is at  -1.731817  1.533621 -7.792147
       Atomic Center   67 is at  -1.557109  0.580595 -7.492291
       Atomic Center   68 is at  -5.055721 -0.217892  6.579860
       Atomic Center   69 is at  -1.644986  1.692072 -8.867067
 -----------------------------------------------------------------

              Electrostatic Properties (Atomic Units)

 -----------------------------------------------------------------
    Center     Electric         -------- Electric Field --------
               Potential          X             Y             Z
 -----------------------------------------------------------------
    1 Atom    -14.573781     -0.006351      0.007909     -0.004672
    2 Atom     -0.971869      0.012287      0.001761      0.072419
    3 Atom    -22.186866      0.016102     -0.030036      0.011432
    4 Atom    -14.561231     -0.000099     -0.011643     -0.004716
    5 Atom     -0.972014     -0.067361      0.023143     -0.004832
    6 Atom    -22.199675      0.026137      0.016775     -0.023143
    7 Atom     -0.844181     -0.005270     -0.000462      0.005816
    8 Atom    -14.552172      0.003319     -0.001376      0.011848
    9 Atom     -0.952019     -0.048611     -0.028787     -0.046049
   10 Atom    -22.216158      0.002488      0.005588     -0.039763
   11 Atom     -0.865855      0.004216      0.011668      0.012148
   12 Atom    -14.504410     -0.010834      0.010460      0.002056
   13 Atom     -0.940537      0.056728      0.036580      0.017776
   14 Atom    -18.103602     -0.000493     -0.000076      0.000341
   15 Atom    -14.525296     -0.000827     -0.008883     -0.004956
   16 Atom     -0.894547      0.039801      0.051770      0.032829
   17 Atom    -14.562802     -0.001966     -0.003329     -0.002206
   18 Atom    -14.570225      0.000283      0.008933      0.005849
   19 Atom     -0.936924      0.029466     -0.053525     -0.045403
   20 Atom     -1.032980      0.020564     -0.004065      0.070765
   21 Atom    -14.583421      0.006277      0.005344      0.002503
   22 Atom     -0.927874     -0.048326     -0.046844     -0.029651
   23 Atom    -14.524733      0.008066     -0.003318     -0.004644
   24 Atom     -0.897502     -0.069190      0.005508      0.021923
   25 Atom    -14.507735      0.005170     -0.012974     -0.007559
   26 Atom    -22.255684      0.008610     -0.022993     -0.016079
   27 Atom    -18.222879     -0.003857     -0.000416     -0.009958
   28 Atom     -0.872210     -0.000374      0.009100      0.006860
   29 Atom     -0.879175      0.011025     -0.003375     -0.003736
   30 Atom    -18.323786      0.000894     -0.025820      0.000205
   31 Atom    -14.553341     -0.013304     -0.003837      0.004174
   32 Atom    -18.268125     -0.004523      0.002938     -0.000731
   33 Atom     -0.922821     -0.001794     -0.014224      0.001138
   34 Atom     -0.914799     -0.000077     -0.004101     -0.000342
   35 Atom    -18.252085     -0.005062     -0.002152     -0.000650
   36 Atom     -0.908182     -0.005352      0.006799     -0.001178
[...]
 Angle between NR and scaled steps=  83.32 degrees.
 Angle between quadratic step and forces=  22.45 degrees.
 Linear search not attempted -- first point.
 Variable       Old X    -DE/DX   Delta X   Delta X   Delta X     New X
                                 (Linear)    (Quad)   (Total)
    X1       -7.92973   0.00954   0.00000   0.01316   0.01316  -7.91657
    Y1        0.79553   0.00060   0.00000  -0.00160  -0.00160   0.79393
    Z1       12.81787  -0.06236   0.00000  -0.03649  -0.03649  12.78138
    X2       -7.63372   0.00897   0.00000   0.01282   0.01282  -7.62090
    Y2        0.90605   0.00095   0.00000  -0.00304  -0.00304   0.90301
    Z2       14.72502   0.05154   0.00000   0.04403   0.04403  14.76905
    X3       -5.66828  -0.00260   0.00000  -0.00940  -0.00940  -5.67769
    Y3       -0.32826   0.01149   0.00000  -0.00118  -0.00118  -0.32944
    Z3       11.65956  -0.01291   0.00000  -0.01476  -0.01476  11.64480
    X4       -8.14005   0.04979   0.00000   0.02665   0.02665  -8.11339
    Y4        3.41898  -0.01421   0.00000  -0.00439  -0.00439   3.41459
    Z4       11.62620   0.01476   0.00000   0.01301   0.01301  11.63921
    X5       -9.95176  -0.04766   0.00000  -0.04551  -0.04551  -9.99727
    Y5        4.11071   0.01549   0.00000   0.01233   0.01233   4.12304
    Z5       11.58245  -0.00430   0.00000  -0.00648  -0.00648  11.57597
    X6       -6.52694  -0.00472   0.00000   0.00448   0.00448  -6.52246
    Y6        5.23734  -0.01166   0.00000  -0.01728  -0.01728   5.22007
    Z6       12.87819   0.00227   0.00000  -0.00052  -0.00052  12.87767
    X7       -6.87623  -0.00142   0.00000  -0.00788  -0.00788  -6.88411
    Y7        5.40372  -0.00356   0.00000  -0.00718  -0.00718   5.39654
    Z7       14.69087  -0.01887   0.00000  -0.02357  -0.02357  14.66731
    X8       -6.97420   0.05248   0.00000   0.03051   0.03051  -6.94369
    Y8        3.04459   0.04377   0.00000   0.02633   0.02633   3.07091
    Z8        8.98231   0.03630   0.00000   0.02714   0.02714   9.00945
    X9       -8.22242  -0.03476   0.00000  -0.02920  -0.02920  -8.25162
    Y9        2.25349  -0.02073   0.00000  -0.01184  -0.01184   2.24165
    Z9        7.72972  -0.03242   0.00000  -0.02166  -0.02166   7.70806
   X10       -6.06181  -0.00598   0.00000  -0.00134  -0.00134  -6.06315
   Y10        5.35778  -0.01404   0.00000  -0.01104  -0.01104   5.34674
   Z10        7.96564   0.00713   0.00000   0.00528   0.00528   7.97092
   X11       -5.70072  -0.00078   0.00000   0.00060   0.00060  -5.70012
   Y11        6.45507  -0.00409   0.00000  -0.00354  -0.00354   6.45153
   Z11        9.40576  -0.00723   0.00000  -0.01103  -0.01103   9.39473
   X12       -4.76378  -0.06267   0.00000  -0.03710  -0.03710  -4.80088
   Y12        1.21216  -0.03585   0.00000  -0.02097  -0.02097   1.19120
   Z12        9.61001   0.01056   0.00000   0.01330   0.01330   9.62331
   X13       -3.19587   0.04012   0.00000   0.03399   0.03399  -3.16189
   Y13        2.20849   0.02570   0.00000   0.01910   0.01910   2.22758
   Z13       10.17313   0.01111   0.00000   0.00997   0.00997  10.18310
   X14       -3.94834   0.00268   0.00000  -0.00484  -0.00484  -3.95318
   Y14       -0.54197  -0.01058   0.00000  -0.00203  -0.00203  -0.54401
   Z14        7.57242  -0.01204   0.00000  -0.00205  -0.00205   7.57038
   X15       -1.43662  -0.04837   0.00000  -0.02764  -0.02764  -1.46426
   Y15       -0.61500  -0.02933   0.00000  -0.01444  -0.01444  -0.62944
   Z15        6.95794  -0.00983   0.00000  -0.00002  -0.00002   6.95792
   X16       -0.35448   0.02796   0.00000   0.02114   0.02114  -0.33335
   Y16        0.76690   0.03689   0.00000   0.03444   0.03444   0.80134
   Z16        7.74514   0.02453   0.00000   0.02978   0.02978   7.77492
   X17       -0.48465  -0.00228   0.00000   0.00437   0.00437  -0.48028
   Y17       -2.43748  -0.01796   0.00000  -0.01056  -0.01056  -2.44805
   Z17        5.41476  -0.01291   0.00000  -0.00488  -0.00488   5.40989
   X18       -2.19604   0.00704   0.00000   0.01751   0.01751  -2.17854
   Y18       -4.18773   0.04983   0.00000   0.02483   0.02483  -4.16290
   Z18        4.31518   0.03700   0.00000   0.01658   0.01658   4.33176
   X19       -1.50222   0.02189   0.00000   0.02847   0.02847  -1.47375
   Y19       -5.58418  -0.03796   0.00000  -0.03366  -0.03366  -5.61784
   Z19        3.18594  -0.03336   0.00000  -0.03400  -0.03400   3.15194
   X20       -1.73534   0.01451   0.00000   0.01474   0.01474  -1.72060
   Y20       -1.61514  -0.00433   0.00000  -0.00632  -0.00632  -1.62146
   Z20        0.34608   0.05086   0.00000   0.04732   0.04732   0.39340
   X21       -4.72533   0.02330   0.00000   0.01353   0.01353  -4.71180
   Y21       -3.99943   0.02286   0.00000   0.01507   0.01507  -3.98436
   Z21        4.85164   0.01374   0.00000   0.00767   0.00767   4.85931
   X22       -5.98080  -0.03465   0.00000  -0.03480  -0.03480  -6.01560
   Y22       -5.21922  -0.03336   0.00000  -0.03265  -0.03265  -5.25187
   Z22        4.05059  -0.02080   0.00000  -0.01933  -0.01933   4.03126
   X23       -5.59505   0.06098   0.00000   0.02873   0.02873  -5.56632
   Y23       -2.22747   0.02171   0.00000   0.02055   0.02055  -2.20692
   Z23        6.50569   0.00492   0.00000   0.01003   0.01003   6.51572
   X24       -7.44643  -0.04879   0.00000  -0.04450  -0.04450  -7.49093
   Y24       -2.09654   0.00471   0.00000   0.00996   0.00996  -2.08658
   Z24        7.01955   0.01666   0.00000   0.02294   0.02294   7.04249
   X25        2.31582   0.03850   0.00000   0.01772   0.01772   2.33354
   Y25       -2.81429  -0.03679   0.00000  -0.01347  -0.01347  -2.82776
   Z25        4.97014  -0.02466   0.00000  -0.00392  -0.00392   4.96622
   X26        3.05274  -0.02683   0.00000  -0.02816  -0.02816   3.02458
   Y26       -4.65770   0.04131   0.00000   0.02065   0.02065  -4.63705
   Z26        3.71005   0.02800   0.00000   0.01419   0.01419   3.72424
   X27        4.01738  -0.01387   0.00000  -0.01552  -0.01552   4.00186
   Y27       -1.17600  -0.00055   0.00000  -0.00718  -0.00718  -1.18318
   Z27        6.02343   0.00678   0.00000   0.00594   0.00594   6.02937
   X28        3.49963   0.00517   0.00000   0.00313   0.00313   3.50276
   Y28        0.19888  -0.00797   0.00000  -0.00966  -0.00966   0.18922
   Z28        7.26444  -0.00773   0.00000  -0.00801  -0.00801   7.25644
   X29        5.86998  -0.01151   0.00000  -0.02046  -0.02046   5.84953
   Y29       -1.72108   0.00300   0.00000   0.00542   0.00542  -1.71566
   Z29        6.04614  -0.00391   0.00000  -0.00841  -0.00841   6.03773
   X30        4.06445   0.02538   0.00000   0.01516   0.01516   4.07961
   Y30       -5.85337   0.02555   0.00000   0.02034   0.02034  -5.83304
   Z30       -3.73440  -0.01001   0.00000  -0.00924  -0.00924  -3.74364
   X31        6.19869  -0.03486   0.00000  -0.02284  -0.02284   6.17585
   Y31       -4.60856  -0.01254   0.00000  -0.00477  -0.00477  -4.61333
   Z31       -4.36649   0.01111   0.00000   0.00813   0.00813  -4.35835
   X32        8.33394   0.00910   0.00000  -0.01035  -0.01035   8.32359
   Y32       -5.90726   0.01382   0.00000   0.01290   0.01290  -5.89436
   Z32       -4.98937  -0.00138   0.00000   0.00447   0.00447  -4.98490
   X33        8.36923  -0.00248   0.00000  -0.00735  -0.00735   8.36188
   Y33       -7.81995   0.00937   0.00000   0.01801   0.01801  -7.80194
   Z33       -4.87852  -0.00000   0.00000   0.00061   0.00061  -4.87791
   X34        9.95176  -0.01891   0.00000  -0.02579  -0.02579   9.92597
   Y34       -4.93808  -0.01471   0.00000  -0.01715  -0.01715  -4.95523
   Z34       -5.48370   0.00558   0.00000   0.00743   0.00743  -5.47627
   X35        6.32570   0.01868   0.00000  -0.00338  -0.00338   6.32232
   Y35       -2.01025  -0.02118   0.00000  -0.01682  -0.01682  -2.02706
   Z35       -4.41493  -0.00095   0.00000   0.00631   0.00631  -4.40862
   X36        8.08365  -0.02500   0.00000  -0.03694  -0.03694   8.04671
   Y36       -1.16181  -0.00319   0.00000  -0.00553  -0.00553  -1.16734
   Z36       -4.62711   0.00124   0.00000   0.00033   0.00033  -4.62678
   X37        4.24900   0.00711   0.00000  -0.00088  -0.00088   4.24812
   Y37       -0.49292   0.07737   0.00000   0.02401   0.02401  -0.46891
   Z37       -3.89666   0.00644   0.00000   0.00896   0.00896  -3.88769
   X38        4.55545  -0.01252   0.00000  -0.01582  -0.01582   4.53963
   Y38        1.91444  -0.07132   0.00000  -0.04883  -0.04883   1.86562
   Z38       -3.81709  -0.00231   0.00000  -0.00064  -0.00064  -3.81773
   X39        1.94650  -0.01383   0.00000  -0.00623  -0.00623   1.94027
   Y39       -1.79161  -0.00081   0.00000   0.00350   0.00350  -1.78811
   Z39       -3.39805   0.00256   0.00000   0.00353   0.00353  -3.39453
   X40       -0.33296   0.00556   0.00000   0.00651   0.00651  -0.32645
   Y40       -0.38539  -0.00451   0.00000  -0.00360  -0.00360  -0.38899
   Z40       -3.04726   0.00287   0.00000  -0.00417  -0.00417  -3.05142
   X41        0.03209  -0.00174   0.00000  -0.00166  -0.00166   0.03043
   Y41        1.45223  -0.00680   0.00000  -0.00952  -0.00952   1.44271
   Z41       -2.57684  -0.00310   0.00000  -0.00602  -0.00602  -2.58286
   X42       -2.29163  -0.01007   0.00000   0.00739   0.00739  -2.28424
   Y42       -1.60974   0.00686   0.00000   0.01165   0.01165  -1.59809
   Z42       -1.51655  -0.05583   0.00000  -0.03237  -0.03237  -1.54892
   X43       -2.61662   0.06357   0.00000   0.03590   0.03590  -2.58072
   Y43       -4.36110   0.03031   0.00000   0.01895   0.01895  -4.34215
   Z43       -2.43964   0.01342   0.00000   0.00304   0.00304  -2.43660
   X44       -3.83516  -0.03478   0.00000  -0.02694  -0.02694  -3.86210
   Y44       -5.29971  -0.02801   0.00000  -0.02391  -0.02391  -5.32363
   Z44       -1.27472   0.03627   0.00000   0.04094   0.04094  -1.23378
   X45       -3.39976  -0.02134   0.00000  -0.01636  -0.01636  -3.41612
   Y45       -4.34428   0.00315   0.00000   0.00803   0.00803  -4.33626
   Z45       -4.21185  -0.04963   0.00000  -0.05469  -0.05469  -4.26654
   X46       -0.18585   0.00077   0.00000   0.01516   0.01516  -0.17069
   Y46       -5.66291   0.00019   0.00000   0.00597   0.00597  -5.65694
   Z46       -2.45259   0.00111   0.00000   0.00180   0.00180  -2.45079
   X47       -0.18009   0.00398   0.00000   0.00934   0.00934  -0.17075
   Y47       -7.57938   0.00823   0.00000   0.01326   0.01326  -7.56612
   Z47       -2.55811  -0.00247   0.00000  -0.00599  -0.00599  -2.56410
   X48        1.95662   0.01621   0.00000   0.01845   0.01845   1.97507
   Y48       -4.39745  -0.00403   0.00000   0.00242   0.00242  -4.39503
   Z48       -3.23509  -0.00089   0.00000   0.00055   0.00055  -3.23453
   X49       -4.90812   0.06473   0.00000   0.03824   0.03824  -4.86989
   Y49       -0.19149   0.03311   0.00000   0.01770   0.01770  -0.17379
   Z49       -1.68269  -0.02722   0.00000  -0.01974  -0.01974  -1.70242
   X50       -5.67103  -0.02082   0.00000  -0.01052  -0.01052  -5.68155
   Y50       -0.09810   0.00306   0.00000   0.00558   0.00558  -0.09252
   Z50        0.08701   0.05148   0.00000   0.04953   0.04953   0.13654
   X51       -6.11940  -0.03416   0.00000  -0.02903  -0.02903  -6.14843
   Y51       -1.22793  -0.02934   0.00000  -0.02696  -0.02696  -1.25489
   Z51       -2.77771  -0.03304   0.00000  -0.04099  -0.04099  -2.81870
   X52       -4.75763   0.00046   0.00000   0.00744   0.00744  -4.75019
   Y52        2.38613  -0.00674   0.00000  -0.00139  -0.00139   2.38473
   Z52       -2.66213   0.01593   0.00000   0.00651   0.00651  -2.65562
   X53       -5.22454   0.00248   0.00000   0.00273   0.00273  -5.22181
   Y53        3.79320  -0.00585   0.00000  -0.00579  -0.00579   3.78741
   Z53       -1.43889  -0.01061   0.00000  -0.01307  -0.01307  -1.45197
   X54       -4.25443  -0.00018   0.00000  -0.00074  -0.00074  -4.25517
   Y54        4.06895  -0.01261   0.00000  -0.00131  -0.00131   4.06764
   Z54      -10.38476   0.02746   0.00000  -0.00279  -0.00279 -10.38755
   X55       -4.60504   0.00705   0.00000   0.00384   0.00384  -4.60119
   Y55        5.99641  -0.05443   0.00000  -0.03334  -0.03334   5.96307
   Z55       -8.56423  -0.01679   0.00000  -0.01819  -0.01819  -8.58242
   X56       -4.69933  -0.00314   0.00000  -0.00310  -0.00310  -4.70243
   Y56        7.81995   0.04978   0.00000   0.04467   0.04467   7.86463
   Z56       -9.17246  -0.01868   0.00000  -0.02382  -0.02382  -9.19628
   X57       -4.76812   0.00577   0.00000   0.00023   0.00023  -4.76789
   Y57        5.46061  -0.05887   0.00000  -0.03867  -0.03867   5.42194
   Z57       -6.06214  -0.01041   0.00000  -0.00141  -0.00141  -6.06355
   X58       -4.99513  -0.00627   0.00000  -0.00581  -0.00581  -5.00094
   Y58        6.87920   0.03886   0.00000   0.03238   0.03238   6.91157
   Z58       -4.77961   0.03580   0.00000   0.03561   0.03561  -4.74400
   X59       -4.61137  -0.00101   0.00000  -0.00609  -0.00609  -4.61746
   Y59        2.92435   0.00335   0.00000  -0.00019  -0.00019   2.92415
   Z59       -5.20333  -0.01636   0.00000   0.00033   0.00033  -5.20300
   X60       -4.29056  -0.00878   0.00000  -0.01141  -0.01141  -4.30196
   Y60        0.98099   0.05335   0.00000   0.03302   0.03302   1.01401
   Z60       -7.02252   0.01891   0.00000   0.01823   0.01823  -7.00429
   X61       -4.17385   0.00438   0.00000   0.00472   0.00472  -4.16914
   Y61       -0.85768  -0.04830   0.00000  -0.04258  -0.04258  -0.90026
   Z61       -6.46698   0.01597   0.00000   0.02023   0.02023  -6.44675
   X62       -4.10769  -0.00631   0.00000  -0.00754  -0.00754  -4.11522
   Y62        1.54985   0.06137   0.00000   0.03978   0.03978   1.58963
   Z62       -9.51290   0.00670   0.00000  -0.00060  -0.00060  -9.51350
   X63       -3.87881   0.00552   0.00000   0.00367   0.00367  -3.87514
   Y63        0.10884  -0.03990   0.00000  -0.03413  -0.03413   0.07471
   Z63      -10.76919  -0.03304   0.00000  -0.03129  -0.03129 -10.80048
   X64       -4.04075  -0.01434   0.00000  -0.00601  -0.00601  -4.04676
   Y64        4.71248   0.07896   0.00000   0.02696   0.02696   4.73944
   Z64      -13.05210  -0.06048   0.00000  -0.04357  -0.04357 -13.09567
   X65       -4.54721   0.01750   0.00000   0.00956   0.00956  -4.53765
   Y65        6.94162  -0.07338   0.00000  -0.04198  -0.04198   6.89964
   Z65      -13.87211   0.03151   0.00000   0.01975   0.01975 -13.85237
   X66       -3.27266   0.00530   0.00000  -0.00290  -0.00290  -3.27556
   Y66        2.89812  -0.00755   0.00000   0.00218   0.00218   2.90030
   Z66      -14.72502  -0.04059   0.00000  -0.02380  -0.02380 -14.74882
   X67       -2.94251  -0.00005   0.00000   0.00110   0.00110  -2.94141
   Y67        1.09717   0.00991   0.00000   0.01614   0.01614   1.11330
   Z67      -14.15838  -0.00237   0.00000  -0.00720  -0.00720 -14.16558
   X68       -9.55393  -0.00046   0.00000   0.00096   0.00096  -9.55296
   Y68       -0.41176   0.00049   0.00000   0.00349   0.00349  -0.40827
   Z68       12.43413  -0.00249   0.00000  -0.01257  -0.01257  12.42157
   X69       -3.10857  -0.00854   0.00000  -0.01352  -0.01352  -3.12209
   Y69        3.19755   0.00167   0.00000   0.00860   0.00860   3.20615
   Z69      -16.75633   0.06146   0.00000   0.07311   0.07311 -16.68321
         Item               Value     Threshold  Converged?
 Maximum Force            0.078957     0.000450     NO 
 RMS     Force            0.027603     0.000300     NO 
 Maximum Displacement     0.073114     0.001800     NO 
 RMS     Displacement     0.020865     0.001200     NO 
 Predicted change in Energy=-7.251406D-02
 GradGradGradGradGradGradGradGradGradGradGradGradGradGradGradGradGradGrad

 Leave Link  103 at Sat Jun 22 18:02:11 2024, MaxMem=  2684354560 cpu:               3.0 elap:               0.2
 (Enter /storage/apps/GAUSSIAN/G16_RevA03/g16/l9999.exe)

 Test job not archived.
 1\1\GINC-T065\Force\RM062X\def2TZVP\C24H30N9O6(1+)\LV87696\22-Jun-2024
 \0\\#P M062X/Def2TZVP scf=(direct,conver=8) EmpiricalDispersion=GD3 No
 Symm force Charge Prop=(Field,Read)\\Gaussian run using SANDER externa
 l interface, route from template gau_job.tpl\\1,1\C,-4.1962346465,0.42
 09737514,6.7829225713\H,-4.0395883687,0.4794596286,7.7921465766\O,-2.9
 995252079,-0.1737093434,6.1699729626\C,-4.3075267815,1.8092473317,6.15
 23227127\H,-5.2662445915,2.1752956529,6.1291708006\O,-3.4539080975,2.7
 714814996,6.8148445673\H,-3.638743519,2.8595240096,7.7740760288\C,-3.6
 905866439,1.6111271379,4.7532339789\H,-4.3511156354,1.1924952555,4.090
 3908802\O,-3.2077703755,2.8352140738,4.2152366541\H,-3.0166911902,3.41
 58773079,4.9773115288\C,-2.5208831431,0.6414486564,5.0853987789\H,-1.6
 911837002,1.1686804037,5.3833887655\N,-2.0893693454,-0.2868005867,4.00
 71546254\C,-0.7602259282,-0.3254420345,3.6819855147\H,-0.1875852988,0.
 4058284835,4.0985508662\C,-0.2564655022,-1.2898610641,2.8653699557\C,-
 1.1620967728,-2.216050641,2.2834947358\H,-0.7949420299,-2.9550233768,1
 .6859271222\H,-0.918302488,-0.8546953949,0.1831378976\C,-2.5005376763,
 -2.1164064603,2.5673766596\H,-3.1649047493,-2.7618911764,2.1434793252\
 C,-2.9607730701,-1.1787286293,3.4426646898\H,-3.9404833439,-1.10943883
 85,3.7145876154\C,1.2254782434,-1.4892563597,2.6300845593\O,1.61543976
 8,-2.4647485387,1.9632758436\N,2.1259058872,-0.6223108381,3.1874606826
 \H,1.8519260095,0.1052449927,3.8441785407\H,3.1062621457,-0.9107547794
 ,3.1994778302\N,2.150813639,-3.0974722908,-1.9761569201\C,3.2802044867
 ,-2.4387425601,-2.3106456257\N,4.4101297897,-3.1259899124,-2.640262527
 4\H,4.4288069446,-4.1381402118,-2.5816035052\H,5.2662445915,-2.6131195
 576,-2.9018482752\N,3.3474141039,-1.0637779227,-2.3362789557\H,4.27768
 19855,-0.6148053882,-2.4485615092\C,2.2484748142,-0.2608444577,-2.0620
 224638\O,2.4106425319,1.013080651,-2.0199163721\C,1.0300413779,-0.9480
 807507,-1.7981726662\N,-0.1761940648,-0.2039414908,-1.6125391419\H,0.0
 169811246,0.7684868309,-1.3636039706\C,-1.2126761406,-0.8518363034,-0.
 8025224364\C,-1.3846565352,-2.3077924706,-1.2910005156\H,-2.0294793827
 ,-2.8044882454,-0.6745525926\H,-1.7990774643,-2.2988960465,-2.22881359
 39\N,-0.0983472769,-2.9966814073,-1.2978573424\H,-0.095299833,-4.01083
 65689,-1.3536937585\C,1.0353978031,-2.3270325358,-1.7119333963\C,-2.59
 72678077,-0.1013318129,-0.8904389003\H,-3.0009778223,-0.0519096713,0.0
 460451075\H,-3.2382489944,-0.649794214,-1.4698983972\N,-2.5176275635,1
 .2626831089,-1.4087404929\H,-2.7647068307,2.0072751692,-0.7614299194\C
 ,-2.2513481683,2.153196019,-5.4953788773\C,-2.4368797151,3.173165139,-
 4.5319954942\H,-2.4867797208,4.1381402118,-4.8538564414\C,-2.523178848
 4,2.8896316866,-3.2079464317\H,-2.6433109851,3.6403133028,-2.529259805
 6\C,-2.4402319306,1.5474974169,-2.7534813028\C,-2.2704643215,0.5191188
 68,-3.7161576162\H,-2.2087084664,-0.4538624216,-3.4221795105\C,-2.1736
 94115,0.8201467681,-5.03400762\H,-2.0525791553,0.0575942301,-5.6988094
 778\C,-2.1382735614,2.4937363707,-6.906875342\O,-2.4062793589,3.673345
 4051,-7.3408067318\N,-1.7318174829,1.5336206901,-7.7921465766\H,-1.557
 108858,0.580595348,-7.492291346\H,-5.0557205941,-0.2178920245,6.579859
 955\H,-1.6449855011,1.6920717014,-8.8670667987\\Version=ES64L-G16RevA.
 03\HF=-1876.434197\RMSD=4.904e-09\RMSF=2.760e-02\Dipole=-1.2756052,-3.
 3919577,9.5636896\Quadrupole=15.3294225,-50.0582031,34.7287806,-2.3354
 295,-66.276729,49.7527527\PG=C01 [X(C24H30N9O6)]\\@


 THE SCIENTIFIC THEORIST IS NOT TO BE ENVIED. FOR NATURE, OR MORE
 PRECISELY EXPERIMENT, IS AN INEXORABLE AND NOT VERY FRIENDLY JUDGE OF HIS
 WORK.  IT NEVER SAYS "YES" TO A THEORY. IN THE MOST FAVORABLE CASES
 IT SAYS "MAYBE", AND IN THE GREAT MAJORITY OF CASES SIMPLY "NO"...
 PROBABLY EVERY THEORY WILL SOME DAY EXPERIENCE ITS "NO" - MOST
 THEORIES, SOON AFTER CONCEPTION.  -- A.EINSTEIN, NOV 11, 1922.
 Job cpu time:       0 days  8 hours 32 minutes 50.0 seconds.
 Elapsed time:       0 days  0 hours 32 minutes  8.5 seconds.
 File lengths (MBytes):  RWF=   1039 Int=      0 D2E=      0 Chk=    113 Scr=      1
 Normal termination of Gaussian 16 at Sat Jun 22 18:02:11 2024.
