 Entering Gaussian System, Link 0=g16
 Initial command:
 /storage/apps/GAUSSIAN/G16_RevA03/g16/l1.exe "/scratch/tmp/2140842/Gau-19890.inp" -scrdir="/scratch/tmp/2140842/"
 Entering Link 1 = /storage/apps/GAUSSIAN/G16_RevA03/g16/l1.exe PID=     19891.
  
 Copyright (c) 1988,1990,1992,1993,1995,1998,2003,2009,2016,
            Gaussian, Inc.  All Rights Reserved.
  
 This is part of the Gaussian(R) 16 program.  It is based on
 the Gaussian(R) 09 system (copyright 2009, Gaussian, Inc.),
 the Gaussian(R) 03 system (copyright 2003, Gaussian, Inc.),
 the Gaussian(R) 98 system (copyright 1998, Gaussian, Inc.),
 the Gaussian(R) 94 system (copyright 1995, Gaussian, Inc.),
 the Gaussian 92(TM) system (copyright 1992, Gaussian, Inc.),
 the Gaussian 90(TM) system (copyright 1990, Gaussian, Inc.),
 the Gaussian 88(TM) system (copyright 1988, Gaussian, Inc.),
 the Gaussian 86(TM) system (copyright 1986, Carnegie Mellon
 University), and the Gaussian 82(TM) system (copyright 1983,
 Carnegie Mellon University). Gaussian is a federally registered
 trademark of Gaussian, Inc.
  
 This software contains proprietary and confidential information,
 including trade secrets, belonging to Gaussian, Inc.
  
 This software is provided under written license and may be
 used, copied, transmitted, or stored only in accord with that
 written license.
  
 The following legend is applicable only to US Government
 contracts under FAR:
  
                    RESTRICTED RIGHTS LEGEND
  
 Use, reproduction and disclosure by the US Government is
 subject to restrictions as set forth in subparagraphs (a)
 and (c) of the Commercial Computer Software - Restricted
 Rights clause in FAR 52.227-19.
  
 Gaussian, Inc.
 340 Quinnipiac St., Bldg. 40, Wallingford CT 06492
  
  
 ---------------------------------------------------------------
 Warning -- This program may not be used in any manner that
 competes with the business of Gaussian, Inc. or will provide
 assistance to any competitor of Gaussian, Inc.  The licensee
 of this program is prohibited from giving any competitor of
 Gaussian, Inc. access to this program.  By using this program,
 the user acknowledges that Gaussian, Inc. is engaged in the
 business of creating and licensing software in the field of
 computational chemistry and represents and warrants to the
 licensee that it is not a competitor of Gaussian, Inc. and that
 it will not use this program in any manner prohibited above.
 ---------------------------------------------------------------
  

 Cite this work as:
 Gaussian 16, Revision A.03,
 M. J. Frisch, G. W. Trucks, H. B. Schlegel, G. E. Scuseria, 
 M. A. Robb, J. R. Cheeseman, G. Scalmani, V. Barone, 
 G. A. Petersson, H. Nakatsuji, X. Li, M. Caricato, A. V. Marenich, 
 J. Bloino, B. G. Janesko, R. Gomperts, B. Mennucci, H. P. Hratchian, 
 J. V. Ortiz, A. F. Izmaylov, J. L. Sonnenberg, D. Williams-Young, 
 F. Ding, F. Lipparini, F. Egidi, J. Goings, B. Peng, A. Petrone, 
 T. Henderson, D. Ranasinghe, V. G. Zakrzewski, J. Gao, N. Rega, 
 G. Zheng, W. Liang, M. Hada, M. Ehara, K. Toyota, R. Fukuda, 
 J. Hasegawa, M. Ishida, T. Nakajima, Y. Honda, O. Kitao, H. Nakai, 
 T. Vreven, K. Throssell, J. A. Montgomery, Jr., J. E. Peralta, 
 F. Ogliaro, M. J. Bearpark, J. J. Heyd, E. N. Brothers, K. N. Kudin, 
 V. N. Staroverov, T. A. Keith, R. Kobayashi, J. Normand, 
 K. Raghavachari, A. P. Rendell, J. C. Burant, S. S. Iyengar, 
 J. Tomasi, M. Cossi, J. M. Millam, M. Klene, C. Adamo, R. Cammi, 
 J. W. Ochterski, R. L. Martin, K. Morokuma, O. Farkas, 
 J. B. Foresman, and D. J. Fox, Gaussian, Inc., Wallingford CT, 2016.
 
 ******************************************
 Gaussian 16:  ES64L-G16RevA.03 25-Dec-2016
                22-Jun-2024 
 ******************************************
 %chk=gau_job.chk
 %NProcShared=16
 Will use up to   16 processors via shared memory.
 %mem=20GB
 ----------------------------------------------------------------------
 #P M062X/Def2TZVP scf=(direct,conver=8) EmpiricalDispersion=GD3 NoSymm
  force Charge Prop=(Field,Read)
 ----------------------------------------------------------------------
 1/10=7,18=10,28=-2,30=1,38=1,125=101/1,3;
 2/12=2,15=1,17=6,18=5,29=2,40=1/2;
 3/5=44,7=101,11=2,25=1,30=1,71=1,74=-55,124=31/1,2,3;
 4//1;
 5/5=2,6=8,38=5/2;
 6/7=2,8=2,9=2,10=2,14=2,15=1,28=1/1,2;
 7/7=1,16=-2,29=1,30=1/1,2,3,16;
 1/10=7,18=10,28=-2,30=1/3;
 99/12=1/99;
 Leave Link    1 at Sat Jun 22 17:30:03 2024, MaxMem=  2684354560 cpu:               1.3 elap:               0.1
 (Enter /storage/apps/GAUSSIAN/G16_RevA03/g16/l101.exe)
 ----------------------------------------------------------------------
 Gaussian run using SANDER external interface, route from template gau_
 job.tpl
 ----------------------------------------------------------------------
 Symbolic Z-matrix:
 Charge =  1 Multiplicity = 1
 C                    -4.20024   0.42355   6.78809 
 H                    -4.04718   0.48294   7.79781 
 O                    -3.00029  -0.1699    6.18087 
 C                    -4.31015   1.81062   6.15481 
 H                    -5.26858   2.17731   6.12996 
 O                    -3.45616   2.77313   6.81632 
 H                    -3.63916   2.86048   7.77604 
 C                    -3.69146   1.6095    4.75673 
 H                    -4.35086   1.18941   4.09369 
 O                    -3.20781   2.83231   4.21672 
 H                    -3.01636   3.4142    4.97777 
 C                    -2.52195   0.64108   5.09312 
 H                    -1.69199   1.16937   5.38852 
 N                    -2.09108  -0.29405   4.02053 
 C                    -0.76269  -0.334     3.69362 
 H                    -0.19152   0.40665   4.09547 
 C                    -0.25826  -1.31208   2.89393 
 C                    -1.16324  -2.25374   2.33668 
 H                    -0.7942   -3.0011    1.75126 
 H                    -0.90381  -0.83702   0.16022 
 C                    -2.50108  -2.14575   2.60998 
 H                    -3.16552  -2.79432   2.19125 
 C                    -2.96305  -1.19109   3.46614 
 H                    -3.94379  -1.1137    3.73171 
 C                     1.22259  -1.50545   2.64649 
 O                     1.61169  -2.48251   1.98159 
 N                     2.12269  -0.62939   3.18992 
 H                     1.85004   0.09741   3.84798 
 H                     3.10447  -0.91244   3.19487 
 N                     2.15133  -3.09636  -1.97956 
 C                     3.28198  -2.43972  -2.31367 
 N                     4.41231  -3.12903  -2.63767 
 H                     4.42896  -4.1413   -2.57976 
 H                     5.26858  -2.61753  -2.90142 
 N                     3.35059  -1.06494  -2.34302 
 H                     4.28184  -0.61728  -2.45121 
 C                     2.25043  -0.26037  -2.079 
 O                     2.41402   1.01351  -2.03691 
 C                     1.02965  -0.94573  -1.8229 
 N                    -0.17852  -0.20004  -1.65075 
 H                     0.01577   0.77451  -1.40952 
 C                    -1.20818  -0.84129  -0.82217 
 C                    -1.38486  -2.30083  -1.29703 
 H                    -2.02381  -2.79212  -0.67017 
 H                    -1.80713  -2.30074  -2.23137 
 N                    -0.09928  -2.99069  -1.30825 
 H                    -0.09454  -4.00563  -1.34789 
 C                     1.03471  -2.32429  -1.72471 
 C                    -2.59593  -0.09625  -0.90367 
 H                    -2.99617  -0.05271   0.03449 
 H                    -3.2362   -0.64652  -1.48223 
 N                    -2.52357   1.26836  -1.41787 
 H                    -2.76825   2.01164  -0.76863 
 C                    -2.25275   2.15531  -5.50305 
 C                    -2.4381    3.1767   -4.5412 
 H                    -2.48597   4.1413   -4.8645 
 C                    -2.52631   2.89471  -3.21704 
 H                    -2.64572   3.646    -2.53891 
 C                    -2.44543   1.55289  -2.76193 
 C                    -2.2768    0.52295  -3.72334 
 H                    -2.21702  -0.44987  -3.42854 
 C                    -2.17766   0.82242  -5.0411 
 H                    -2.0567    0.05908  -5.70504 
 C                    -2.13826   2.49402  -6.91414 
 O                    -2.40578   3.67338  -7.34927 
 N                    -1.73165   1.53273  -7.79781 
 H                    -1.55683   0.58014  -7.49665 
 H                    -5.0583   -0.21642   6.58247 
 H                    -1.64428   1.69007  -8.87285 
 
 ITRead=  0  0  0  0  0  0  0  0  0  0  0  0  0  0  0  0  0  0  0  0
 ITRead=  0  0  0  0  0  0  0  0  0  0  0  0  0  0  0  0  0  0  0  0
 ITRead=  0  0  0  0  0  0  0  0  0  0  0  0  0  0  0  0  0  0  0  0
 ITRead=  0  0  0  0  0  0  0  0  0
 MicOpt= -1 -1 -1 -1 -1 -1 -1 -1 -1 -1 -1 -1 -1 -1 -1 -1 -1 -1 -1 -1
 MicOpt= -1 -1 -1 -1 -1 -1 -1 -1 -1 -1 -1 -1 -1 -1 -1 -1 -1 -1 -1 -1
 MicOpt= -1 -1 -1 -1 -1 -1 -1 -1 -1 -1 -1 -1 -1 -1 -1 -1 -1 -1 -1 -1
 MicOpt= -1 -1 -1 -1 -1 -1 -1 -1 -1
 NAtoms=     69 NQM=       69 NQMF=       0 NMMI=      0 NMMIF=      0
                NMic=       0 NMicF=      0.
                    Isotopes and Nuclear Properties:
 (Nuclear quadrupole moments (NQMom) in fm**2, nuclear magnetic moments (NMagM)
  in nuclear magnetons)

  Atom         1           2           3           4           5           6           7           8           9          10
 IAtWgt=          12           1          16          12           1          16           1          12           1          16
 AtmWgt=  12.0000000   1.0078250  15.9949146  12.0000000   1.0078250  15.9949146   1.0078250  12.0000000   1.0078250  15.9949146
 NucSpn=           0           1           0           0           1           0           1           0           1           0
 AtZEff=  -0.0000000  -0.0000000  -0.0000000  -0.0000000  -0.0000000  -0.0000000  -0.0000000  -0.0000000  -0.0000000  -0.0000000
 NQMom=    0.0000000   0.0000000   0.0000000   0.0000000   0.0000000   0.0000000   0.0000000   0.0000000   0.0000000   0.0000000
 NMagM=    0.0000000   2.7928460   0.0000000   0.0000000   2.7928460   0.0000000   2.7928460   0.0000000   2.7928460   0.0000000
 AtZNuc=   6.0000000   1.0000000   8.0000000   6.0000000   1.0000000   8.0000000   1.0000000   6.0000000   1.0000000   8.0000000

  Atom        11          12          13          14          15          16          17          18          19          20
 IAtWgt=           1          12           1          14          12           1          12          12           1           1
 AtmWgt=   1.0078250  12.0000000   1.0078250  14.0030740  12.0000000   1.0078250  12.0000000  12.0000000   1.0078250   1.0078250
 NucSpn=           1           0           1           2           0           1           0           0           1           1
 AtZEff=  -0.0000000  -0.0000000  -0.0000000  -0.0000000  -0.0000000  -0.0000000  -0.0000000  -0.0000000  -0.0000000  -0.0000000
 NQMom=    0.0000000   0.0000000   0.0000000   2.0440000   0.0000000   0.0000000   0.0000000   0.0000000   0.0000000   0.0000000
 NMagM=    2.7928460   0.0000000   2.7928460   0.4037610   0.0000000   2.7928460   0.0000000   0.0000000   2.7928460   2.7928460
 AtZNuc=   1.0000000   6.0000000   1.0000000   7.0000000   6.0000000   1.0000000   6.0000000   6.0000000   1.0000000   1.0000000

  Atom        21          22          23          24          25          26          27          28          29          30
 IAtWgt=          12           1          12           1          12          16          14           1           1          14
 AtmWgt=  12.0000000   1.0078250  12.0000000   1.0078250  12.0000000  15.9949146  14.0030740   1.0078250   1.0078250  14.0030740
 NucSpn=           0           1           0           1           0           0           2           1           1           2
 AtZEff=  -0.0000000  -0.0000000  -0.0000000  -0.0000000  -0.0000000  -0.0000000  -0.0000000  -0.0000000  -0.0000000  -0.0000000
 NQMom=    0.0000000   0.0000000   0.0000000   0.0000000   0.0000000   0.0000000   2.0440000   0.0000000   0.0000000   2.0440000
 NMagM=    0.0000000   2.7928460   0.0000000   2.7928460   0.0000000   0.0000000   0.4037610   2.7928460   2.7928460   0.4037610
 AtZNuc=   6.0000000   1.0000000   6.0000000   1.0000000   6.0000000   8.0000000   7.0000000   1.0000000   1.0000000   7.0000000

  Atom        31          32          33          34          35          36          37          38          39          40
 IAtWgt=          12          14           1           1          14           1          12          16          12          14
 AtmWgt=  12.0000000  14.0030740   1.0078250   1.0078250  14.0030740   1.0078250  12.0000000  15.9949146  12.0000000  14.0030740
 NucSpn=           0           2           1           1           2           1           0           0           0           2
 AtZEff=  -0.0000000  -0.0000000  -0.0000000  -0.0000000  -0.0000000  -0.0000000  -0.0000000  -0.0000000  -0.0000000  -0.0000000
 NQMom=    0.0000000   2.0440000   0.0000000   0.0000000   2.0440000   0.0000000   0.0000000   0.0000000   0.0000000   2.0440000
 NMagM=    0.0000000   0.4037610   2.7928460   2.7928460   0.4037610   2.7928460   0.0000000   0.0000000   0.0000000   0.4037610
 AtZNuc=   6.0000000   7.0000000   1.0000000   1.0000000   7.0000000   1.0000000   6.0000000   8.0000000   6.0000000   7.0000000

  Atom        41          42          43          44          45          46          47          48          49          50
 IAtWgt=           1          12          12           1           1          14           1          12          12           1
 AtmWgt=   1.0078250  12.0000000  12.0000000   1.0078250   1.0078250  14.0030740   1.0078250  12.0000000  12.0000000   1.0078250
 NucSpn=           1           0           0           1           1           2           1           0           0           1
 AtZEff=  -0.0000000  -0.0000000  -0.0000000  -0.0000000  -0.0000000  -0.0000000  -0.0000000  -0.0000000  -0.0000000  -0.0000000
 NQMom=    0.0000000   0.0000000   0.0000000   0.0000000   0.0000000   2.0440000   0.0000000   0.0000000   0.0000000   0.0000000
 NMagM=    2.7928460   0.0000000   0.0000000   2.7928460   2.7928460   0.4037610   2.7928460   0.0000000   0.0000000   2.7928460
 AtZNuc=   1.0000000   6.0000000   6.0000000   1.0000000   1.0000000   7.0000000   1.0000000   6.0000000   6.0000000   1.0000000

  Atom        51          52          53          54          55          56          57          58          59          60
 IAtWgt=           1          14           1          12          12           1          12           1          12          12
 AtmWgt=   1.0078250  14.0030740   1.0078250  12.0000000  12.0000000   1.0078250  12.0000000   1.0078250  12.0000000  12.0000000
 NucSpn=           1           2           1           0           0           1           0           1           0           0
 AtZEff=  -0.0000000  -0.0000000  -0.0000000  -0.0000000  -0.0000000  -0.0000000  -0.0000000  -0.0000000  -0.0000000  -0.0000000
 NQMom=    0.0000000   2.0440000   0.0000000   0.0000000   0.0000000   0.0000000   0.0000000   0.0000000   0.0000000   0.0000000
 NMagM=    2.7928460   0.4037610   2.7928460   0.0000000   0.0000000   2.7928460   0.0000000   2.7928460   0.0000000   0.0000000
 AtZNuc=   1.0000000   7.0000000   1.0000000   6.0000000   6.0000000   1.0000000   6.0000000   1.0000000   6.0000000   6.0000000

  Atom        61          62          63          64          65          66          67          68          69
 IAtWgt=           1          12           1          12          16          14           1           1           1
 AtmWgt=   1.0078250  12.0000000   1.0078250  12.0000000  15.9949146  14.0030740   1.0078250   1.0078250   1.0078250
 NucSpn=           1           0           1           0           0           2           1           1           1
 AtZEff=  -0.0000000  -0.0000000  -0.0000000  -0.0000000  -0.0000000  -0.0000000  -0.0000000  -0.0000000  -0.0000000
 NQMom=    0.0000000   0.0000000   0.0000000   0.0000000   0.0000000   2.0440000   0.0000000   0.0000000   0.0000000
 NMagM=    2.7928460   0.0000000   2.7928460   0.0000000   0.0000000   0.4037610   2.7928460   2.7928460   2.7928460
 AtZNuc=   1.0000000   6.0000000   1.0000000   6.0000000   8.0000000   7.0000000   1.0000000   1.0000000   1.0000000
 Background charge distribution read from input stream:
 Leave Link  101 at Sat Jun 22 17:30:03 2024, MaxMem=  2684354560 cpu:               2.3 elap:               0.2
 (Enter /storage/apps/GAUSSIAN/G16_RevA03/g16/l103.exe)

 GradGradGradGradGradGradGradGradGradGradGradGradGradGradGradGradGradGrad
 Berny optimization.
 Initialization pass.
 Trust Radius=3.00D-01 FncErr=1.00D-07 GrdErr=1.00D-07 EigMax=2.50D+02 EigMin=1.00D-04
 Number of steps in this run=      2 maximum allowed number of steps=      2.
 GradGradGradGradGradGradGradGradGradGradGradGradGradGradGradGradGradGrad

 Leave Link  103 at Sat Jun 22 17:30:03 2024, MaxMem=  2684354560 cpu:               0.5 elap:               0.1
 (Enter /storage/apps/GAUSSIAN/G16_RevA03/g16/l202.exe)
 Symmetry turned off by external request.
 Stoichiometry    C24H30N9O6(1+)
 Framework group  C1[X(C24H30N9O6)]
 Deg. of freedom   201
 Full point group                 C1      NOp   1
                          Input orientation:                          
 ---------------------------------------------------------------------
 Center     Atomic      Atomic             Coordinates (Angstroms)
 Number     Number       Type             X           Y           Z
 ---------------------------------------------------------------------
      1          6           0       -4.200243    0.423546    6.788092
      2          1           0       -4.047177    0.482938    7.797806
      3          8           0       -3.000290   -0.169896    6.180869
      4          6           0       -4.310149    1.810617    6.154806
      5          1           0       -5.268578    2.177315    6.129960
      6          8           0       -3.456156    2.773133    6.816321
      7          1           0       -3.639156    2.860484    7.776044
      8          6           0       -3.691456    1.609502    4.756732
      9          1           0       -4.350860    1.189410    4.093686
     10          8           0       -3.207809    2.832311    4.216722
     11          1           0       -3.016361    3.414197    4.977766
     12          6           0       -2.521947    0.641078    5.093116
     13          1           0       -1.691987    1.169372    5.388516
     14          7           0       -2.091078   -0.294050    4.020532
     15          6           0       -0.762688   -0.334002    3.693623
     16          1           0       -0.191519    0.406645    4.095470
     17          6           0       -0.258264   -1.312078    2.893931
     18          6           0       -1.163239   -2.253737    2.336677
     19          1           0       -0.794198   -3.001095    1.751258
     20          1           0       -0.903809   -0.837022    0.160220
     21          6           0       -2.501082   -2.145755    2.609984
     22          1           0       -3.165516   -2.794317    2.191246
     23          6           0       -2.963052   -1.191093    3.466136
     24          1           0       -3.943792   -1.113700    3.731713
     25          6           0        1.222586   -1.505453    2.646492
     26          8           0        1.611688   -2.482514    1.981594
     27          7           0        2.122687   -0.629390    3.189918
     28          1           0        1.850041    0.097409    3.847979
     29          1           0        3.104475   -0.912439    3.194870
     30          7           0        2.151327   -3.096361   -1.979563
     31          6           0        3.281976   -2.439722   -2.313665
     32          7           0        4.412311   -3.129031   -2.637666
     33          1           0        4.428963   -4.141300   -2.579758
     34          1           0        5.268578   -2.617526   -2.901422
     35          7           0        3.350588   -1.064944   -2.343021
     36          1           0        4.281838   -0.617283   -2.451214
     37          6           0        2.250434   -0.260372   -2.079002
     38          8           0        2.414023    1.013515   -2.036908
     39          6           0        1.029654   -0.945733   -1.822901
     40          7           0       -0.178523   -0.200041   -1.650752
     41          1           0        0.015771    0.774515   -1.409519
     42          6           0       -1.208176   -0.841287   -0.822167
     43          6           0       -1.384861   -2.300827   -1.297031
     44          1           0       -2.023807   -2.792120   -0.670175
     45          1           0       -1.807127   -2.300744   -2.231367
     46          7           0       -0.099282   -2.990692   -1.308254
     47          1           0       -0.094544   -4.005627   -1.347891
     48          6           0        1.034709   -2.324292   -1.724710
     49          6           0       -2.595926   -0.096255   -0.903668
     50          1           0       -2.996174   -0.052710    0.034493
     51          1           0       -3.236197   -0.646521   -1.482230
     52          7           0       -2.523574    1.268365   -1.417866
     53          1           0       -2.768252    2.011643   -0.768626
     54          6           0       -2.252754    2.155314   -5.503054
     55          6           0       -2.438097    3.176705   -4.541201
     56          1           0       -2.485971    4.141300   -4.864502
     57          6           0       -2.526311    2.894708   -3.217039
     58          1           0       -2.645717    3.645997   -2.538907
     59          6           0       -2.445430    1.552891   -2.761933
     60          6           0       -2.276797    0.522950   -3.723337
     61          1           0       -2.217025   -0.449870   -3.428539
     62          6           0       -2.177661    0.822418   -5.041103
     63          1           0       -2.056696    0.059077   -5.705044
     64          6           0       -2.138264    2.494019   -6.914143
     65          8           0       -2.405781    3.673378   -7.349274
     66          7           0       -1.731650    1.532727   -7.797806
     67          1           0       -1.556830    0.580141   -7.496650
     68          1           0       -5.058304   -0.216415    6.582467
     69          1           0       -1.644285    1.690071   -8.872846
 ---------------------------------------------------------------------
 Rotational constants (GHZ):           0.1073540           0.0498359           0.0377754
 Leave Link  202 at Sat Jun 22 17:30:04 2024, MaxMem=  2684354560 cpu:               0.4 elap:               0.1
 (Enter /storage/apps/GAUSSIAN/G16_RevA03/g16/l301.exe)
 Standard basis: def2TZVP (5D, 7F)
 Ernie: Thresh=  0.10000D-02 Tol=  0.10000D-05 Strict=F.
  1389 basis functions,  2229 primitive gaussians,  1584 cartesian basis functions
   142 alpha electrons      142 beta electrons
       nuclear repulsion energy      4378.6819983981 Hartrees.
 IExCor= 4336 DFT=T Ex+Corr=M062X ExCW=0 ScaHFX=  0.540000
 ScaDFX=  1.000000  1.000000  1.000000  1.000000 ScalE2=  1.000000  1.000000
 IRadAn=      5 IRanWt=     -1 IRanGd=            0 ICorTp=0 IEmpDi=131
 NAtoms=   69 NActive=   69 NUniq=   69 SFac= 1.00D+00 NAtFMM=   60 NAOKFM=T Big=T
 Integral buffers will be    131072 words long.
 Raffenetti 2 integral format.
 Two-electron integral symmetry is turned off.
 R6Disp:  Grimme-D3 Dispersion energy=       -0.0064344732 Hartrees.
 Nuclear repulsion after empirical dispersion term =     4378.6755639249 Hartrees.
 Leave Link  301 at Sat Jun 22 17:30:04 2024, MaxMem=  2684354560 cpu:               1.8 elap:               0.2
 (Enter /storage/apps/GAUSSIAN/G16_RevA03/g16/l302.exe)
 NPDir=0 NMtPBC=     1 NCelOv=     1 NCel=       1 NClECP=     1 NCelD=      1
         NCelK=      1 NCelE2=     1 NClLst=     1 CellRange=     0.0.
 One-electron integrals computed using PRISM.
   1 Symmetry operations used in ECPInt.
 ECPInt:  NShTT=  150975 NPrTT=  462228 LenC2=  105967 LenP2D=  213807.
 LDataN:  DoStor=T MaxTD1= 6 Len=  172
 NBasis=  1389 RedAO= T EigKep=  6.10D-06  NBF=  1389
 NBsUse=  1389 1.00D-06 EigRej= -1.00D+00 NBFU=  1389
 Precomputing XC quadrature grid using
 IXCGrd= 4 IRadAn=           5 IRanWt=          -1 IRanGd=           0 AccXCQ= 0.00D+00.
 Generated NRdTot=       0 NPtTot=           0 NUsed=           0 NTot=          32
 NSgBfM=  1493  1486  1492  1492  1493 MxSgAt=    69 MxSgA2=    69.
 Leave Link  302 at Sat Jun 22 17:30:07 2024, MaxMem=  2684354560 cpu:              47.4 elap:               3.1
 (Enter /storage/apps/GAUSSIAN/G16_RevA03/g16/l303.exe)
 DipDrv:  MaxL=1.
 Leave Link  303 at Sat Jun 22 17:30:07 2024, MaxMem=  2684354560 cpu:               4.4 elap:               0.4
 (Enter /storage/apps/GAUSSIAN/G16_RevA03/g16/l401.exe)
 ExpMin= 9.52D-02 ExpMax= 2.70D+04 ExpMxC= 9.22D+02 IAcc=3 IRadAn=         5 AccDes= 0.00D+00
 Harris functional with IExCor= 1009 and IRadAn=       5 diagonalized for initial guess.
 HarFok:  IExCor= 1009 AccDes= 0.00D+00 IRadAn=         5 IDoV= 1 UseB2=F ITyADJ=14
 ICtDFT=  3500011 ScaDFX=  1.000000  1.000000  1.000000  1.000000
 FoFCou: FMM=F IPFlag=           0 FMFlag=      100000 FMFlg1=        2001
         NFxFlg=           0 DoJE=T BraDBF=F KetDBF=T FulRan=T
         wScrn=  0.000000 ICntrl=       500 IOpCl=  0 I1Cent=   200000004 NGrid=           0
         NMat0=    1 NMatS0=      1 NMatT0=    0 NMatD0=    1 NMtDS0=    0 NMtDT0=    0
 Symmetry not used in FoFCou.
 Harris En= -1875.52110156294    
 JPrj=0 DoOrth=F DoCkMO=F.
 Leave Link  401 at Sat Jun 22 17:30:14 2024, MaxMem=  2684354560 cpu:             106.9 elap:               6.9
 (Enter /storage/apps/GAUSSIAN/G16_RevA03/g16/l502.exe)
 Two-electron integral symmetry not used.
 Closed shell SCF:
 Using DIIS extrapolation, IDIIS=  1040.
 NGot=  2684354560 LenX=  2679300873 LenY=  2676790233
 Requested convergence on RMS density matrix=1.00D-08 within 128 cycles.
 Requested convergence on MAX density matrix=1.00D-06.
 Requested convergence on             energy=1.00D-06.
 No special actions if energy rises.
 Fock matrices will be formed incrementally for  20 cycles.
 Integral accuracy reduced to 1.0D-05 until final iterations.

 Cycle   1  Pass 0  IDiag  1:
 FoFJK:  IHMeth= 1 ICntrl=       0 DoSepK=F KAlg= 0 I1Cent=           0 FoldK=F
 IRaf= 680000000 NMat=       1 IRICut=       1 DoRegI=T DoRafI=F ISym2E= 0 IDoP0=0 IntGTp=1.
 FoFCou: FMM=T IPFlag=           0 FMFlag=      100000 FMFlg1=        2001
         NFxFlg=           0 DoJE=F BraDBF=F KetDBF=F FulRan=T
         wScrn=  0.000000 ICntrl=         0 IOpCl=  0 I1Cent=           0 NGrid=           0
         NMat0=    1 NMatS0=      1 NMatT0=    0 NMatD0=    1 NMtDS0=    0 NMtDT0=    0
 Symmetry not used in FoFCou.
 FMM levels:  10  Number of levels for PrismC:   9
 E= -1875.45515312989    
 DIIS: error= 1.51D-02 at cycle   1 NSaved=   1.
 NSaved= 1 IEnMin= 1 EnMin= -1875.45515312989     IErMin= 1 ErrMin= 1.51D-02
 ErrMax= 1.51D-02  0.00D+00 EMaxC= 1.00D-01 BMatC= 1.38D+00 BMatP= 1.38D+00
 IDIUse=3 WtCom= 8.49D-01 WtEn= 1.51D-01
 Coeff-Com:  0.100D+01
 Coeff-En:   0.100D+01
 Coeff:      0.100D+01
 Gap=    -0.015 Goal=   None    Shift=    0.000
 GapD=   -0.015 DampG=0.250 DampE=0.500 DampFc=0.2500 IDamp=-1.
 Damping current iteration by 2.50D-01
 RMSDP=4.31D+01 MaxDP=9.34D+03              OVMax= 9.92D-01

 Problem detected with inexpensive integrals.
 Switching to full accuracy and repeating last cycle.
 Cycle   2  Pass 1  IDiag  1:
 E= -1875.45522179430     Delta-E=       -0.000068664409 Rises=F Damp=F
 DIIS: error= 1.51D-02 at cycle   1 NSaved=   1.
 NSaved= 1 IEnMin= 1 EnMin= -1875.45522179430     IErMin= 1 ErrMin= 1.51D-02
 ErrMax= 1.51D-02  0.00D+00 EMaxC= 1.00D-01 BMatC= 1.38D+00 BMatP= 1.38D+00
 IDIUse=3 WtCom= 8.49D-01 WtEn= 1.51D-01
 Coeff-Com:  0.100D+01
 Coeff-En:   0.100D+01
 Coeff:      0.100D+01
 Gap=    -0.015 Goal=   None    Shift=    0.000
 GapD=   -0.015 DampG=0.250 DampE=0.500 DampFc=0.2500 IDamp=-1.
 Damping current iteration by 2.50D-01
 RMSDP=3.89D-03 MaxDP=1.14D+00 DE=-6.87D-05 OVMax= 7.46D-01

 Cycle   3  Pass 1  IDiag  1:
 RMSU=  9.71D-04    CP:  1.01D+00
 E= -1875.68162911618     Delta-E=       -0.226407321883 Rises=F Damp=T
 DIIS: error= 8.44D-03 at cycle   2 NSaved=   2.
 NSaved= 2 IEnMin= 2 EnMin= -1875.68162911618     IErMin= 2 ErrMin= 8.44D-03
 ErrMax= 8.44D-03  0.00D+00 EMaxC= 1.00D-01 BMatC= 4.55D-01 BMatP= 1.38D+00
 IDIUse=3 WtCom= 9.16D-01 WtEn= 8.44D-02
 Coeff-Com: -0.616D+00 0.162D+01
 Coeff-En:   0.923D-01 0.908D+00
 Coeff:     -0.557D+00 0.156D+01
 Gap=     0.242 Goal=   None    Shift=    0.000
 GapD=    0.242 DampG=1.000 DampE=1.000 DampFc=1.0000 IDamp=-1.
 RMSDP=1.15D-03 MaxDP=1.39D-01 DE=-2.26D-01 OVMax= 6.77D-01

 Cycle   4  Pass 1  IDiag  1:
 RMSU=  1.15D-03    CP:  9.99D-01  1.06D+00
 E= -1875.87052155577     Delta-E=       -0.188892439590 Rises=F Damp=F
 DIIS: error= 1.63D-02 at cycle   3 NSaved=   3.
 NSaved= 3 IEnMin= 3 EnMin= -1875.87052155577     IErMin= 2 ErrMin= 8.44D-03
 ErrMax= 1.63D-02  0.00D+00 EMaxC= 1.00D-01 BMatC= 5.80D-01 BMatP= 4.55D-01
 IDIUse=2 WtCom= 0.00D+00 WtEn= 1.00D+00
 Coeff-En:   0.000D+00 0.366D+00 0.634D+00
 Coeff:      0.000D+00 0.366D+00 0.634D+00
 Gap=     0.309 Goal=   None    Shift=    0.000
 RMSDP=1.72D-03 MaxDP=2.45D-01 DE=-1.89D-01 OVMax= 9.91D-01

 Cycle   5  Pass 1  IDiag  1:
 RMSU=  1.41D-03    CP:  9.95D-01  1.75D+00  3.61D-01
 E= -1870.07747783514     Delta-E=        5.793043720625 Rises=F Damp=F
 DIIS: error= 5.57D-02 at cycle   4 NSaved=   4.
 NSaved= 4 IEnMin= 3 EnMin= -1875.87052155577     IErMin= 2 ErrMin= 8.44D-03
 ErrMax= 5.57D-02  0.00D+00 EMaxC= 1.00D-01 BMatC= 2.50D+00 BMatP= 4.55D-01
 IDIUse=2 WtCom= 0.00D+00 WtEn= 1.00D+00
 Coeff-En:   0.000D+00 0.000D+00 0.844D+00 0.156D+00
 Coeff:      0.000D+00 0.000D+00 0.844D+00 0.156D+00
 Gap=    -0.130 Goal=   None    Shift=    0.000
 RMSDP=1.83D-03 MaxDP=5.52D-01 DE= 5.79D+00 OVMax= 9.99D-01

 Cycle   6  Pass 1  IDiag  1:
 RMSU=  1.17D-03    CP:  1.01D+00  1.16D+00  4.97D-01  9.75D-02
 E= -1876.31063858280     Delta-E=       -6.233160747656 Rises=F Damp=F
 DIIS: error= 6.92D-03 at cycle   5 NSaved=   5.
 NSaved= 5 IEnMin= 5 EnMin= -1876.31063858280     IErMin= 5 ErrMin= 6.92D-03
 ErrMax= 6.92D-03  0.00D+00 EMaxC= 1.00D-01 BMatC= 1.57D-01 BMatP= 4.55D-01
 IDIUse=3 WtCom= 9.31D-01 WtEn= 6.92D-02
 Coeff-Com: -0.145D+00 0.294D+00 0.361D+00 0.417D-01 0.449D+00
 Coeff-En:   0.000D+00 0.000D+00 0.130D+00 0.000D+00 0.870D+00
 Coeff:     -0.135D+00 0.273D+00 0.345D+00 0.388D-01 0.478D+00
 Gap=     0.187 Goal=   None    Shift=    0.000
 RMSDP=7.79D-04 MaxDP=3.41D-01 DE=-6.23D+00 OVMax= 1.22D-01

 Cycle   7  Pass 1  IDiag  1:
 RMSU=  4.34D-04    CP:  1.00D+00  1.08D+00  6.32D-01  1.21D-01  4.70D-01
 E= -1876.39791453278     Delta-E=       -0.087275949979 Rises=F Damp=F
 DIIS: error= 3.83D-03 at cycle   6 NSaved=   6.
 NSaved= 6 IEnMin= 6 EnMin= -1876.39791453278     IErMin= 6 ErrMin= 3.83D-03
 ErrMax= 3.83D-03  0.00D+00 EMaxC= 1.00D-01 BMatC= 3.87D-02 BMatP= 1.57D-01
 IDIUse=3 WtCom= 9.62D-01 WtEn= 3.83D-02
 Coeff-Com: -0.131D+00 0.186D+00 0.178D-01-0.247D-02 0.244D+00 0.686D+00
 Coeff-En:   0.000D+00 0.000D+00 0.000D+00 0.000D+00 0.218D+00 0.782D+00
 Coeff:     -0.126D+00 0.179D+00 0.171D-01-0.237D-02 0.243D+00 0.690D+00
 Gap=     0.077 Goal=   None    Shift=    0.000
 RMSDP=2.63D-04 MaxDP=1.13D-01 DE=-8.73D-02 OVMax= 4.80D-02

 Cycle   8  Pass 1  IDiag  1:
 RMSU=  1.20D-04    CP:  1.01D+00  1.16D+00  5.55D-01  1.21D-01  6.42D-01
                    CP:  9.81D-01
 E= -1876.43173056954     Delta-E=       -0.033816036765 Rises=F Damp=F
 DIIS: error= 7.84D-04 at cycle   7 NSaved=   7.
 NSaved= 7 IEnMin= 7 EnMin= -1876.43173056954     IErMin= 7 ErrMin= 7.84D-04
 ErrMax= 7.84D-04  0.00D+00 EMaxC= 1.00D-01 BMatC= 1.38D-03 BMatP= 3.87D-02
 IDIUse=3 WtCom= 9.92D-01 WtEn= 7.84D-03
 Coeff-Com: -0.597D-01 0.835D-01-0.250D-01 0.374D-03 0.403D-01 0.276D+00
 Coeff-Com:  0.685D+00
 Coeff-En:   0.000D+00 0.000D+00 0.000D+00 0.000D+00 0.000D+00 0.000D+00
 Coeff-En:   0.100D+01
 Coeff:     -0.593D-01 0.828D-01-0.248D-01 0.371D-03 0.400D-01 0.273D+00
 Coeff:      0.688D+00
 Gap=     0.074 Goal=   None    Shift=    0.000
 RMSDP=5.10D-05 MaxDP=6.14D-03 DE=-3.38D-02 OVMax= 1.73D-02

 Cycle   9  Pass 1  IDiag  1:
 RMSU=  3.73D-05    CP:  1.01D+00  1.18D+00  5.46D-01  1.24D-01  6.33D-01
                    CP:  1.04D+00  1.03D+00
 E= -1876.43312934387     Delta-E=       -0.001398774326 Rises=F Damp=F
 DIIS: error= 5.01D-04 at cycle   8 NSaved=   8.
 NSaved= 8 IEnMin= 8 EnMin= -1876.43312934387     IErMin= 8 ErrMin= 5.01D-04
 ErrMax= 5.01D-04  0.00D+00 EMaxC= 1.00D-01 BMatC= 5.02D-04 BMatP= 1.38D-03
 IDIUse=3 WtCom= 9.95D-01 WtEn= 5.01D-03
 Coeff-Com: -0.209D-01 0.298D-01-0.290D-01-0.222D-03-0.267D-01 0.463D-01
 Coeff-Com:  0.369D+00 0.631D+00
 Coeff-En:   0.000D+00 0.000D+00 0.000D+00 0.000D+00 0.000D+00 0.000D+00
 Coeff-En:   0.000D+00 0.100D+01
 Coeff:     -0.207D-01 0.297D-01-0.289D-01-0.221D-03-0.266D-01 0.461D-01
 Coeff:      0.367D+00 0.633D+00
 Gap=     0.074 Goal=   None    Shift=    0.000
 RMSDP=4.27D-05 MaxDP=1.35D-02 DE=-1.40D-03 OVMax= 9.45D-03

 Cycle  10  Pass 1  IDiag  1:
 RMSU=  2.36D-05    CP:  1.01D+00  1.18D+00  5.35D-01  1.25D-01  6.46D-01
                    CP:  1.09D+00  1.22D+00  9.96D-01
 E= -1876.43368951221     Delta-E=       -0.000560168345 Rises=F Damp=F
 DIIS: error= 1.45D-04 at cycle   9 NSaved=   9.
 NSaved= 9 IEnMin= 9 EnMin= -1876.43368951221     IErMin= 9 ErrMin= 1.45D-04
 ErrMax= 1.45D-04  0.00D+00 EMaxC= 1.00D-01 BMatC= 3.96D-05 BMatP= 5.02D-04
 IDIUse=3 WtCom= 9.99D-01 WtEn= 1.45D-03
 Coeff-Com: -0.373D-02 0.643D-02-0.559D-02 0.213D-03-0.133D-01-0.193D-01
 Coeff-Com:  0.108D-01 0.210D+00 0.814D+00
 Coeff-En:   0.000D+00 0.000D+00 0.000D+00 0.000D+00 0.000D+00 0.000D+00
 Coeff-En:   0.000D+00 0.000D+00 0.100D+01
 Coeff:     -0.373D-02 0.642D-02-0.558D-02 0.212D-03-0.133D-01-0.193D-01
 Coeff:      0.107D-01 0.210D+00 0.815D+00
 Gap=     0.073 Goal=   None    Shift=    0.000
 RMSDP=1.66D-05 MaxDP=1.78D-03 DE=-5.60D-04 OVMax= 8.21D-03

 Cycle  11  Pass 1  IDiag  1:
 RMSU=  1.03D-05    CP:  1.01D+00  1.18D+00  5.31D-01  1.26D-01  6.43D-01
                    CP:  1.10D+00  1.26D+00  1.20D+00  1.17D+00
 E= -1876.43377187058     Delta-E=       -0.000082358363 Rises=F Damp=F
 DIIS: error= 6.11D-05 at cycle  10 NSaved=  10.
 NSaved=10 IEnMin=10 EnMin= -1876.43377187058     IErMin=10 ErrMin= 6.11D-05
 ErrMax= 6.11D-05  0.00D+00 EMaxC= 1.00D-01 BMatC= 1.27D-05 BMatP= 3.96D-05
 IDIUse=1 WtCom= 1.00D+00 WtEn= 0.00D+00
 Coeff-Com:  0.834D-03-0.594D-03 0.246D-02-0.178D-03-0.341D-03-0.128D-01
 Coeff-Com: -0.717D-01-0.612D-01 0.420D+00 0.723D+00
 Coeff:      0.834D-03-0.594D-03 0.246D-02-0.178D-03-0.341D-03-0.128D-01
 Coeff:     -0.717D-01-0.612D-01 0.420D+00 0.723D+00
 Gap=     0.073 Goal=   None    Shift=    0.000
 RMSDP=9.84D-06 MaxDP=1.21D-03 DE=-8.24D-05 OVMax= 5.88D-03

 Cycle  12  Pass 1  IDiag  1:
 RMSU=  4.69D-06    CP:  1.01D+00  1.18D+00  5.30D-01  1.26D-01  6.43D-01
                    CP:  1.11D+00  1.29D+00  1.29D+00  1.40D+00  1.27D+00
 E= -1876.43379420402     Delta-E=       -0.000022333446 Rises=F Damp=F
 DIIS: error= 3.25D-05 at cycle  11 NSaved=  11.
 NSaved=11 IEnMin=11 EnMin= -1876.43379420402     IErMin=11 ErrMin= 3.25D-05
 ErrMax= 3.25D-05  0.00D+00 EMaxC= 1.00D-01 BMatC= 2.39D-06 BMatP= 1.27D-05
 IDIUse=1 WtCom= 1.00D+00 WtEn= 0.00D+00
 Coeff-Com:  0.818D-03-0.102D-02 0.204D-02-0.122D-03 0.124D-02-0.134D-02
 Coeff-Com: -0.242D-01-0.447D-01 0.750D-01 0.280D+00 0.712D+00
 Coeff:      0.818D-03-0.102D-02 0.204D-02-0.122D-03 0.124D-02-0.134D-02
 Coeff:     -0.242D-01-0.447D-01 0.750D-01 0.280D+00 0.712D+00
 Gap=     0.073 Goal=   None    Shift=    0.000
 RMSDP=4.85D-06 MaxDP=1.29D-03 DE=-2.23D-05 OVMax= 2.75D-03

 Cycle  13  Pass 1  IDiag  1:
 RMSU=  1.89D-06    CP:  1.01D+00  1.18D+00  5.30D-01  1.26D-01  6.41D-01
                    CP:  1.11D+00  1.29D+00  1.31D+00  1.45D+00  1.54D+00
                    CP:  1.42D+00
 E= -1876.43379838269     Delta-E=       -0.000004178665 Rises=F Damp=F
 DIIS: error= 2.01D-05 at cycle  12 NSaved=  12.
 NSaved=12 IEnMin=12 EnMin= -1876.43379838269     IErMin=12 ErrMin= 2.01D-05
 ErrMax= 2.01D-05  0.00D+00 EMaxC= 1.00D-01 BMatC= 8.49D-07 BMatP= 2.39D-06
 IDIUse=1 WtCom= 1.00D+00 WtEn= 0.00D+00
 Coeff-Com:  0.462D-03-0.722D-03 0.462D-03-0.703D-04 0.345D-03 0.297D-02
 Coeff-Com:  0.824D-02-0.633D-03-0.634D-01-0.410D-01 0.244D+00 0.849D+00
 Coeff:      0.462D-03-0.722D-03 0.462D-03-0.703D-04 0.345D-03 0.297D-02
 Coeff:      0.824D-02-0.633D-03-0.634D-01-0.410D-01 0.244D+00 0.849D+00
 Gap=     0.074 Goal=   None    Shift=    0.000
 RMSDP=3.68D-06 MaxDP=9.13D-04 DE=-4.18D-06 OVMax= 2.48D-03

 Cycle  14  Pass 1  IDiag  1:
 RMSU=  1.11D-06    CP:  1.01D+00  1.18D+00  5.30D-01  1.26D-01  6.40D-01
                    CP:  1.11D+00  1.29D+00  1.33D+00  1.49D+00  1.73D+00
                    CP:  1.83D+00  1.41D+00
 E= -1876.43380047833     Delta-E=       -0.000002095644 Rises=F Damp=F
 DIIS: error= 1.13D-05 at cycle  13 NSaved=  13.
 NSaved=13 IEnMin=13 EnMin= -1876.43380047833     IErMin=13 ErrMin= 1.13D-05
 ErrMax= 1.13D-05  0.00D+00 EMaxC= 1.00D-01 BMatC= 2.66D-07 BMatP= 8.49D-07
 IDIUse=1 WtCom= 1.00D+00 WtEn= 0.00D+00
 Coeff-Com:  0.865D-04-0.137D-03-0.126D-03-0.138D-04-0.364D-03 0.112D-02
 Coeff-Com:  0.976D-02 0.153D-01-0.369D-01-0.817D-01-0.166D+00 0.340D+00
 Coeff-Com:  0.919D+00
 Coeff:      0.865D-04-0.137D-03-0.126D-03-0.138D-04-0.364D-03 0.112D-02
 Coeff:      0.976D-02 0.153D-01-0.369D-01-0.817D-01-0.166D+00 0.340D+00
 Coeff:      0.919D+00
 Gap=     0.074 Goal=   None    Shift=    0.000
 RMSDP=2.91D-06 MaxDP=7.33D-04 DE=-2.10D-06 OVMax= 1.84D-03

 Cycle  15  Pass 1  IDiag  1:
 RMSU=  4.34D-07    CP:  1.01D+00  1.18D+00  5.31D-01  1.26D-01  6.39D-01
                    CP:  1.11D+00  1.28D+00  1.34D+00  1.51D+00  1.87D+00
                    CP:  2.16D+00  1.96D+00  1.47D+00
 E= -1876.43380131725     Delta-E=       -0.000000838915 Rises=F Damp=F
 DIIS: error= 2.86D-06 at cycle  14 NSaved=  14.
 NSaved=14 IEnMin=14 EnMin= -1876.43380131725     IErMin=14 ErrMin= 2.86D-06
 ErrMax= 2.86D-06  0.00D+00 EMaxC= 1.00D-01 BMatC= 2.24D-08 BMatP= 2.66D-07
 IDIUse=1 WtCom= 1.00D+00 WtEn= 0.00D+00
 Coeff-Com:  0.510D-04-0.734D-04-0.111D-03 0.233D-05-0.204D-03-0.147D-03
 Coeff-Com:  0.285D-02 0.667D-02-0.296D-02-0.243D-01-0.127D+00 0.147D-01
 Coeff-Com:  0.407D+00 0.723D+00
 Coeff:      0.510D-04-0.734D-04-0.111D-03 0.233D-05-0.204D-03-0.147D-03
 Coeff:      0.285D-02 0.667D-02-0.296D-02-0.243D-01-0.127D+00 0.147D-01
 Coeff:      0.407D+00 0.723D+00
 Gap=     0.074 Goal=   None    Shift=    0.000
 RMSDP=1.03D-06 MaxDP=2.04D-04 DE=-8.39D-07 OVMax= 7.58D-04

 Cycle  16  Pass 1  IDiag  1:
 RMSU=  1.76D-07    CP:  1.01D+00  1.18D+00  5.31D-01  1.26D-01  6.39D-01
                    CP:  1.11D+00  1.28D+00  1.35D+00  1.52D+00  1.91D+00
                    CP:  2.28D+00  2.15D+00  1.80D+00  1.39D+00
 E= -1876.43380146114     Delta-E=       -0.000000143892 Rises=F Damp=F
 DIIS: error= 2.17D-06 at cycle  15 NSaved=  15.
 NSaved=15 IEnMin=15 EnMin= -1876.43380146114     IErMin=15 ErrMin= 2.17D-06
 ErrMax= 2.17D-06  0.00D+00 EMaxC= 1.00D-01 BMatC= 5.91D-09 BMatP= 2.24D-08
 IDIUse=1 WtCom= 1.00D+00 WtEn= 0.00D+00
 Coeff-Com:  0.871D-05-0.865D-05-0.114D-04 0.797D-05 0.239D-04-0.480D-03
 Coeff-Com: -0.105D-02-0.125D-02 0.108D-01 0.119D-01-0.192D-01-0.954D-01
 Coeff-Com: -0.777D-01 0.341D+00 0.832D+00
 Coeff:      0.871D-05-0.865D-05-0.114D-04 0.797D-05 0.239D-04-0.480D-03
 Coeff:     -0.105D-02-0.125D-02 0.108D-01 0.119D-01-0.192D-01-0.954D-01
 Coeff:     -0.777D-01 0.341D+00 0.832D+00
 Gap=     0.074 Goal=   None    Shift=    0.000
 RMSDP=7.53D-07 MaxDP=1.56D-04 DE=-1.44D-07 OVMax= 5.50D-04

 Cycle  17  Pass 1  IDiag  1:
 RMSU=  1.09D-07    CP:  1.01D+00  1.17D+00  5.31D-01  1.26D-01  6.39D-01
                    CP:  1.11D+00  1.28D+00  1.35D+00  1.53D+00  1.94D+00
                    CP:  2.37D+00  2.30D+00  2.03D+00  1.77D+00  1.43D+00
 E= -1876.43380151482     Delta-E=       -0.000000053679 Rises=F Damp=F
 DIIS: error= 7.93D-07 at cycle  16 NSaved=  16.
 NSaved=16 IEnMin=16 EnMin= -1876.43380151482     IErMin=16 ErrMin= 7.93D-07
 ErrMax= 7.93D-07  0.00D+00 EMaxC= 1.00D-01 BMatC= 1.67D-09 BMatP= 5.91D-09
 IDIUse=1 WtCom= 1.00D+00 WtEn= 0.00D+00
 Coeff-Com: -0.699D-05 0.123D-04 0.169D-04 0.283D-05 0.596D-04-0.241D-03
 Coeff-Com: -0.904D-03-0.230D-02 0.589D-02 0.973D-02 0.174D-01-0.467D-01
 Coeff-Com: -0.122D+00-0.278D-01 0.374D+00 0.793D+00
 Coeff:     -0.699D-05 0.123D-04 0.169D-04 0.283D-05 0.596D-04-0.241D-03
 Coeff:     -0.904D-03-0.230D-02 0.589D-02 0.973D-02 0.174D-01-0.467D-01
 Coeff:     -0.122D+00-0.278D-01 0.374D+00 0.793D+00
 Gap=     0.074 Goal=   None    Shift=    0.000
 RMSDP=3.71D-07 MaxDP=7.43D-05 DE=-5.37D-08 OVMax= 2.78D-04

 Cycle  18  Pass 1  IDiag  1:
 RMSU=  5.12D-08    CP:  1.01D+00  1.17D+00  5.31D-01  1.26D-01  6.39D-01
                    CP:  1.11D+00  1.28D+00  1.35D+00  1.53D+00  1.96D+00
                    CP:  2.41D+00  2.37D+00  2.17D+00  1.98D+00  1.83D+00
                    CP:  1.21D+00
 E= -1876.43380152696     Delta-E=       -0.000000012137 Rises=F Damp=F
 DIIS: error= 3.55D-07 at cycle  17 NSaved=  17.
 NSaved=17 IEnMin=17 EnMin= -1876.43380152696     IErMin=17 ErrMin= 3.55D-07
 ErrMax= 3.55D-07  0.00D+00 EMaxC= 1.00D-01 BMatC= 3.57D-10 BMatP= 1.67D-09
 IDIUse=1 WtCom= 1.00D+00 WtEn= 0.00D+00
 Coeff-Com: -0.445D-05 0.655D-05 0.128D-04 0.811D-06 0.283D-04-0.219D-04
 Coeff-Com: -0.141D-03-0.881D-03 0.508D-03 0.170D-02 0.125D-01 0.135D-02
 Coeff-Com: -0.373D-01-0.110D+00-0.403D-01 0.393D+00 0.779D+00
 Coeff:     -0.445D-05 0.655D-05 0.128D-04 0.811D-06 0.283D-04-0.219D-04
 Coeff:     -0.141D-03-0.881D-03 0.508D-03 0.170D-02 0.125D-01 0.135D-02
 Coeff:     -0.373D-01-0.110D+00-0.403D-01 0.393D+00 0.779D+00
 Gap=     0.074 Goal=   None    Shift=    0.000
 RMSDP=1.74D-07 MaxDP=3.53D-05 DE=-1.21D-08 OVMax= 1.32D-04

 Cycle  19  Pass 1  IDiag  1:
 RMSU=  2.01D-08    CP:  1.01D+00  1.17D+00  5.31D-01  1.26D-01  6.39D-01
                    CP:  1.11D+00  1.28D+00  1.35D+00  1.53D+00  1.96D+00
                    CP:  2.43D+00  2.41D+00  2.22D+00  2.09D+00  2.02D+00
                    CP:  1.50D+00  1.13D+00
 E= -1876.43380152908     Delta-E=       -0.000000002124 Rises=F Damp=F
 DIIS: error= 1.11D-07 at cycle  18 NSaved=  18.
 NSaved=18 IEnMin=18 EnMin= -1876.43380152908     IErMin=18 ErrMin= 1.11D-07
 ErrMax= 1.11D-07  0.00D+00 EMaxC= 1.00D-01 BMatC= 4.29D-11 BMatP= 3.57D-10
 IDIUse=1 WtCom= 1.00D+00 WtEn= 0.00D+00
 Coeff-Com: -0.199D-05 0.277D-05 0.391D-05-0.635D-08 0.806D-05 0.188D-04
 Coeff-Com:  0.421D-04-0.153D-03-0.505D-03-0.430D-03 0.332D-02 0.627D-02
 Coeff-Com: -0.230D-02-0.491D-01-0.653D-01 0.880D-01 0.367D+00 0.653D+00
 Coeff:     -0.199D-05 0.277D-05 0.391D-05-0.635D-08 0.806D-05 0.188D-04
 Coeff:      0.421D-04-0.153D-03-0.505D-03-0.430D-03 0.332D-02 0.627D-02
 Coeff:     -0.230D-02-0.491D-01-0.653D-01 0.880D-01 0.367D+00 0.653D+00
 Gap=     0.074 Goal=   None    Shift=    0.000
 RMSDP=4.07D-08 MaxDP=6.66D-06 DE=-2.12D-09 OVMax= 3.13D-05

 Cycle  20  Pass 1  IDiag  1:
 RMSU=  7.15D-09    CP:  1.01D+00  1.17D+00  5.31D-01  1.26D-01  6.39D-01
                    CP:  1.11D+00  1.28D+00  1.35D+00  1.53D+00  1.96D+00
                    CP:  2.43D+00  2.41D+00  2.24D+00  2.11D+00  2.08D+00
                    CP:  1.57D+00  1.31D+00  1.09D+00
 E= -1876.43380152920     Delta-E=       -0.000000000124 Rises=F Damp=F
 DIIS: error= 4.46D-08 at cycle  19 NSaved=  19.
 NSaved=19 IEnMin=19 EnMin= -1876.43380152920     IErMin=19 ErrMin= 4.46D-08
 ErrMax= 4.46D-08  0.00D+00 EMaxC= 1.00D-01 BMatC= 6.30D-12 BMatP= 4.29D-11
 IDIUse=1 WtCom= 1.00D+00 WtEn= 0.00D+00
 Coeff-Com: -0.315D-06 0.375D-06-0.115D-06-0.708D-07-0.366D-07 0.138D-04
 Coeff-Com:  0.382D-04 0.850D-04-0.319D-03-0.450D-03-0.893D-03 0.251D-02
 Coeff-Com:  0.527D-02-0.199D-02-0.221D-01-0.316D-01 0.303D-01 0.295D+00
 Coeff-Com:  0.725D+00
 Coeff:     -0.315D-06 0.375D-06-0.115D-06-0.708D-07-0.366D-07 0.138D-04
 Coeff:      0.382D-04 0.850D-04-0.319D-03-0.450D-03-0.893D-03 0.251D-02
 Coeff:      0.527D-02-0.199D-02-0.221D-01-0.316D-01 0.303D-01 0.295D+00
 Coeff:      0.725D+00
 Gap=     0.074 Goal=   None    Shift=    0.000
 RMSDP=1.42D-08 MaxDP=2.36D-06 DE=-1.24D-10 OVMax= 1.08D-05

 Cycle  21  Pass 1  IDiag  1:
 RMSU=  2.96D-09    CP:  1.01D+00  1.17D+00  5.31D-01  1.26D-01  6.39D-01
                    CP:  1.11D+00  1.28D+00  1.35D+00  1.53D+00  1.96D+00
                    CP:  2.43D+00  2.42D+00  2.24D+00  2.12D+00  2.10D+00
                    CP:  1.61D+00  1.35D+00  1.30D+00  1.12D+00
 E= -1876.43380152921     Delta-E=       -0.000000000010 Rises=F Damp=F
 DIIS: error= 2.26D-08 at cycle  20 NSaved=  20.
 NSaved=20 IEnMin=20 EnMin= -1876.43380152921     IErMin=20 ErrMin= 2.26D-08
 ErrMax= 2.26D-08  0.00D+00 EMaxC= 1.00D-01 BMatC= 1.15D-12 BMatP= 6.30D-12
 IDIUse=1 WtCom= 1.00D+00 WtEn= 0.00D+00
 Coeff-Com: -0.165D-06 0.246D-06-0.556D-06-0.796D-07-0.983D-06 0.449D-05
 Coeff-Com:  0.806D-05 0.597D-04-0.693D-04-0.104D-03-0.872D-03 0.233D-03
 Coeff-Com:  0.239D-02 0.592D-02-0.156D-02-0.276D-01-0.383D-01 0.354D-01
 Coeff-Com:  0.328D+00 0.697D+00
 Coeff:     -0.165D-06 0.246D-06-0.556D-06-0.796D-07-0.983D-06 0.449D-05
 Coeff:      0.806D-05 0.597D-04-0.693D-04-0.104D-03-0.872D-03 0.233D-03
 Coeff:      0.239D-02 0.592D-02-0.156D-02-0.276D-01-0.383D-01 0.354D-01
 Coeff:      0.328D+00 0.697D+00
 Gap=     0.074 Goal=   None    Shift=    0.000
 RMSDP=5.82D-09 MaxDP=9.82D-07 DE=-1.00D-11 OVMax= 4.37D-06

 SCF Done:  E(RM062X) =  -1876.43380153     A.U. after   21 cycles
            NFock= 21  Conv=0.58D-08     -V/T= 2.0047
 KE= 1.867670784514D+03 PE=-1.310934085820D+04 EE= 4.986560708235D+03
 Leave Link  502 at Sat Jun 22 17:57:10 2024, MaxMem=  2684354560 cpu:           25718.1 elap:            1615.9
 (Enter /storage/apps/GAUSSIAN/G16_RevA03/g16/l601.exe)
 Copying SCF densities to generalized density rwf, IOpCl= 0 IROHF=0.

 **********************************************************************

            Population analysis using the SCF density.

 **********************************************************************

 Alpha  occ. eigenvalues --  -19.79148 -19.77563 -19.76063 -19.72828 -19.63792
 Alpha  occ. eigenvalues --  -19.61216 -15.02829 -14.90518 -14.87570 -14.85586
 Alpha  occ. eigenvalues --  -14.84471 -14.84126 -14.81941 -14.81121 -14.81070
 Alpha  occ. eigenvalues --  -10.79786 -10.79560 -10.78507 -10.78412 -10.74924
 Alpha  occ. eigenvalues --  -10.74619 -10.74474 -10.74115 -10.73996 -10.72914
 Alpha  occ. eigenvalues --  -10.72665 -10.70750 -10.69114 -10.68190 -10.66325
 Alpha  occ. eigenvalues --  -10.65696 -10.65548 -10.65161 -10.62942 -10.59326
 Alpha  occ. eigenvalues --  -10.59021 -10.58597 -10.58500 -10.58374  -1.33786
 Alpha  occ. eigenvalues --   -1.29959  -1.28476  -1.27963  -1.26691  -1.21292
 Alpha  occ. eigenvalues --   -1.16099  -1.15261  -1.15127  -1.14403  -1.12640
 Alpha  occ. eigenvalues --   -1.11881  -1.08116  -1.08061  -1.07686  -1.05142
 Alpha  occ. eigenvalues --   -1.03456  -1.02158  -1.00866  -1.00742  -0.96621
 Alpha  occ. eigenvalues --   -0.94739  -0.92759  -0.91537  -0.90867  -0.88649
 Alpha  occ. eigenvalues --   -0.88340  -0.86695  -0.85617  -0.82527  -0.82062
 Alpha  occ. eigenvalues --   -0.81523  -0.80574  -0.77938  -0.77866  -0.77299
 Alpha  occ. eigenvalues --   -0.77086  -0.75768  -0.75280  -0.74181  -0.73991
 Alpha  occ. eigenvalues --   -0.73262  -0.71908  -0.71026  -0.70937  -0.70128
 Alpha  occ. eigenvalues --   -0.70016  -0.69256  -0.69232  -0.67595  -0.66979
 Alpha  occ. eigenvalues --   -0.66409  -0.66128  -0.65686  -0.65003  -0.64912
 Alpha  occ. eigenvalues --   -0.64616  -0.64162  -0.63202  -0.62835  -0.62150
 Alpha  occ. eigenvalues --   -0.62015  -0.61809  -0.61209  -0.60676  -0.60372
 Alpha  occ. eigenvalues --   -0.59335  -0.59205  -0.59030  -0.57544  -0.57461
 Alpha  occ. eigenvalues --   -0.56307  -0.55690  -0.55233  -0.54482  -0.54434
 Alpha  occ. eigenvalues --   -0.54222  -0.53062  -0.52502  -0.51925  -0.51637
 Alpha  occ. eigenvalues --   -0.51395  -0.51124  -0.50781  -0.50284  -0.50127
 Alpha  occ. eigenvalues --   -0.49051  -0.48844  -0.48372  -0.47477  -0.46580
 Alpha  occ. eigenvalues --   -0.45407  -0.43284  -0.42413  -0.41910  -0.40386
 Alpha  occ. eigenvalues --   -0.39037  -0.38097  -0.37144  -0.35922  -0.35859
 Alpha  occ. eigenvalues --   -0.31264  -0.29144
 Alpha virt. eigenvalues --   -0.21755  -0.18221  -0.08346  -0.07783  -0.07235
 Alpha virt. eigenvalues --   -0.06771  -0.06476  -0.05238  -0.04818  -0.04357
 Alpha virt. eigenvalues --   -0.04018  -0.02862  -0.02575  -0.02522  -0.01719
 Alpha virt. eigenvalues --   -0.01665  -0.01161  -0.01057  -0.00659  -0.00029
 Alpha virt. eigenvalues --    0.00633   0.00911   0.01134   0.01316   0.01554
 Alpha virt. eigenvalues --    0.02066   0.02158   0.02570   0.02962   0.03671
 Alpha virt. eigenvalues --    0.03943   0.04242   0.04754   0.05233   0.05608
 Alpha virt. eigenvalues --    0.05935   0.06114   0.06225   0.06472   0.06583
 Alpha virt. eigenvalues --    0.07067   0.07285   0.07778   0.08340   0.08668
 Alpha virt. eigenvalues --    0.09246   0.09527   0.09890   0.10301   0.10559
 Alpha virt. eigenvalues --    0.10738   0.11341   0.11680   0.11938   0.12260
 Alpha virt. eigenvalues --    0.12450   0.12534   0.13054   0.13492   0.13675
 Alpha virt. eigenvalues --    0.14272   0.14344   0.14864   0.15268   0.15670
 Alpha virt. eigenvalues --    0.15833   0.16126   0.16269   0.16811   0.17169
 Alpha virt. eigenvalues --    0.17491   0.17823   0.18124   0.18758   0.18843
 Alpha virt. eigenvalues --    0.19038   0.19357   0.19589   0.19833   0.20146
 Alpha virt. eigenvalues --    0.20453   0.20650   0.21166   0.21351   0.21566
 Alpha virt. eigenvalues --    0.21799   0.21871   0.22818   0.22988   0.23274
 Alpha virt. eigenvalues --    0.23558   0.23765   0.24096   0.24195   0.24604
 Alpha virt. eigenvalues --    0.24737   0.24965   0.25224   0.25535   0.25927
 Alpha virt. eigenvalues --    0.26248   0.26412   0.26565   0.27269   0.27377
 Alpha virt. eigenvalues --    0.27866   0.28085   0.28124   0.28404   0.28715
 Alpha virt. eigenvalues --    0.29218   0.29407   0.29523   0.29731   0.30055
 Alpha virt. eigenvalues --    0.30225   0.30509   0.30812   0.31119   0.31336
 Alpha virt. eigenvalues --    0.31517   0.31761   0.31982   0.32165   0.32436
 Alpha virt. eigenvalues --    0.32694   0.32964   0.33363   0.33725   0.33869
 Alpha virt. eigenvalues --    0.34041   0.34427   0.34759   0.35255   0.35316
 Alpha virt. eigenvalues --    0.35550   0.35743   0.35962   0.36120   0.36312
 Alpha virt. eigenvalues --    0.36516   0.36651   0.36813   0.37180   0.37578
 Alpha virt. eigenvalues --    0.37997   0.38164   0.38387   0.38635   0.39065
 Alpha virt. eigenvalues --    0.39102   0.39454   0.39697   0.39926   0.40229
 Alpha virt. eigenvalues --    0.40474   0.40597   0.40784   0.41173   0.41294
 Alpha virt. eigenvalues --    0.41744   0.41965   0.42075   0.42635   0.42984
 Alpha virt. eigenvalues --    0.43165   0.43381   0.43567   0.43803   0.43996
 Alpha virt. eigenvalues --    0.44491   0.44721   0.44996   0.45258   0.45293
 Alpha virt. eigenvalues --    0.45962   0.46168   0.46448   0.46698   0.46797
 Alpha virt. eigenvalues --    0.47197   0.47547   0.48040   0.48345   0.48432
 Alpha virt. eigenvalues --    0.48826   0.49282   0.49397   0.49889   0.50173
 Alpha virt. eigenvalues --    0.50311   0.50360   0.50814   0.51394   0.51415
 Alpha virt. eigenvalues --    0.51625   0.52047   0.52519   0.52883   0.53130
 Alpha virt. eigenvalues --    0.53497   0.53851   0.54185   0.54397   0.55103
 Alpha virt. eigenvalues --    0.55445   0.55785   0.56003   0.56327   0.56758
 Alpha virt. eigenvalues --    0.56994   0.57157   0.57315   0.57535   0.57889
 Alpha virt. eigenvalues --    0.58682   0.58873   0.58928   0.59134   0.60076
 Alpha virt. eigenvalues --    0.60163   0.60556   0.60966   0.61145   0.61656
 Alpha virt. eigenvalues --    0.61830   0.62514   0.62992   0.63218   0.63333
 Alpha virt. eigenvalues --    0.63456   0.63706   0.64104   0.64415   0.65087
 Alpha virt. eigenvalues --    0.65213   0.65450   0.65721   0.66548   0.66687
 Alpha virt. eigenvalues --    0.67276   0.67907   0.68003   0.68507   0.68816
 Alpha virt. eigenvalues --    0.69361   0.69694   0.70075   0.70413   0.70818
 Alpha virt. eigenvalues --    0.71127   0.71326   0.71581   0.71809   0.72712
 Alpha virt. eigenvalues --    0.73126   0.73575   0.73809   0.74325   0.74574
 Alpha virt. eigenvalues --    0.74994   0.75090   0.75553   0.75727   0.76650
 Alpha virt. eigenvalues --    0.76934   0.77080   0.77640   0.77943   0.78028
 Alpha virt. eigenvalues --    0.78477   0.78666   0.79393   0.79749   0.80553
 Alpha virt. eigenvalues --    0.80951   0.81438   0.82338   0.82525   0.82927
 Alpha virt. eigenvalues --    0.83231   0.83852   0.84013   0.84447   0.84820
 Alpha virt. eigenvalues --    0.85171   0.85221   0.85458   0.86731   0.87376
 Alpha virt. eigenvalues --    0.87419   0.88025   0.88561   0.88812   0.89023
 Alpha virt. eigenvalues --    0.89533   0.90285   0.90509   0.91174   0.91282
 Alpha virt. eigenvalues --    0.91896   0.92420   0.92749   0.93450   0.94177
 Alpha virt. eigenvalues --    0.94487   0.94590   0.95324   0.95505   0.96493
 Alpha virt. eigenvalues --    0.97093   0.97717   0.97982   0.98650   0.98987
 Alpha virt. eigenvalues --    0.99457   0.99895   1.00163   1.00870   1.01282
 Alpha virt. eigenvalues --    1.01615   1.01831   1.02326   1.03579   1.03801
 Alpha virt. eigenvalues --    1.04651   1.05226   1.05558   1.06229   1.06759
 Alpha virt. eigenvalues --    1.07432   1.07872   1.08155   1.08409   1.08620
 Alpha virt. eigenvalues --    1.09293   1.10155   1.10419   1.11031   1.11239
 Alpha virt. eigenvalues --    1.11778   1.12414   1.12709   1.13220   1.14649
 Alpha virt. eigenvalues --    1.15141   1.15525   1.15612   1.15971   1.16657
 Alpha virt. eigenvalues --    1.16711   1.17532   1.17958   1.18397   1.19231
 Alpha virt. eigenvalues --    1.19360   1.20335   1.21427   1.22080   1.22756
 Alpha virt. eigenvalues --    1.23158   1.23435   1.23583   1.24090   1.24396
 Alpha virt. eigenvalues --    1.25047   1.25568   1.25907   1.26152   1.26787
 Alpha virt. eigenvalues --    1.27565   1.27875   1.28141   1.28357   1.29034
 Alpha virt. eigenvalues --    1.29236   1.29979   1.30350   1.31014   1.31430
 Alpha virt. eigenvalues --    1.31690   1.32553   1.33132   1.34189   1.34638
 Alpha virt. eigenvalues --    1.34895   1.35716   1.35890   1.36305   1.36466
 Alpha virt. eigenvalues --    1.37184   1.37835   1.38209   1.38447   1.39021
 Alpha virt. eigenvalues --    1.39463   1.39679   1.40755   1.40840   1.41094
 Alpha virt. eigenvalues --    1.41901   1.42606   1.42741   1.43042   1.43312
 Alpha virt. eigenvalues --    1.44268   1.44423   1.44568   1.44767   1.45454
 Alpha virt. eigenvalues --    1.45691   1.46253   1.46718   1.47119   1.47523
 Alpha virt. eigenvalues --    1.47679   1.48148   1.48789   1.49274   1.49581
 Alpha virt. eigenvalues --    1.50171   1.50322   1.50568   1.51437   1.51865
 Alpha virt. eigenvalues --    1.52236   1.52407   1.52527   1.52886   1.53221
 Alpha virt. eigenvalues --    1.53717   1.54202   1.54466   1.54901   1.54929
 Alpha virt. eigenvalues --    1.55373   1.55994   1.56217   1.56673   1.56990
 Alpha virt. eigenvalues --    1.57284   1.57610   1.57815   1.58066   1.58202
 Alpha virt. eigenvalues --    1.59316   1.59967   1.60178   1.60390   1.60583
 Alpha virt. eigenvalues --    1.60704   1.61237   1.61739   1.61918   1.62269
 Alpha virt. eigenvalues --    1.63439   1.63702   1.63888   1.64231   1.64737
 Alpha virt. eigenvalues --    1.65323   1.65447   1.65924   1.66113   1.66803
 Alpha virt. eigenvalues --    1.67553   1.67689   1.68286   1.68737   1.69406
 Alpha virt. eigenvalues --    1.69730   1.69914   1.70695   1.71510   1.72161
 Alpha virt. eigenvalues --    1.72242   1.72523   1.73237   1.73438   1.73730
 Alpha virt. eigenvalues --    1.74259   1.74631   1.74938   1.76312   1.76657
 Alpha virt. eigenvalues --    1.77012   1.77146   1.77346   1.77683   1.77872
 Alpha virt. eigenvalues --    1.78507   1.79148   1.79719   1.80677   1.80771
 Alpha virt. eigenvalues --    1.81333   1.81693   1.81746   1.82751   1.83089
 Alpha virt. eigenvalues --    1.83475   1.83688   1.84253   1.84975   1.85267
 Alpha virt. eigenvalues --    1.85706   1.86067   1.86604   1.87078   1.87371
 Alpha virt. eigenvalues --    1.87823   1.88647   1.89177   1.89647   1.89877
 Alpha virt. eigenvalues --    1.90171   1.90451   1.90614   1.91066   1.92232
 Alpha virt. eigenvalues --    1.92367   1.92771   1.93581   1.93873   1.94790
 Alpha virt. eigenvalues --    1.95181   1.95242   1.95894   1.96263   1.97008
 Alpha virt. eigenvalues --    1.97324   1.97919   1.98104   1.98783   1.99098
 Alpha virt. eigenvalues --    1.99873   2.00277   2.01124   2.01306   2.02118
 Alpha virt. eigenvalues --    2.02603   2.03060   2.03986   2.04163   2.04451
 Alpha virt. eigenvalues --    2.05631   2.06073   2.06123   2.06962   2.07832
 Alpha virt. eigenvalues --    2.07987   2.08349   2.08877   2.09516   2.09732
 Alpha virt. eigenvalues --    2.10434   2.10812   2.11003   2.11150   2.11734
 Alpha virt. eigenvalues --    2.12745   2.13391   2.13543   2.14342   2.14465
 Alpha virt. eigenvalues --    2.15380   2.15978   2.16305   2.16879   2.17106
 Alpha virt. eigenvalues --    2.17736   2.18175   2.18889   2.19214   2.19284
 Alpha virt. eigenvalues --    2.20211   2.20800   2.21248   2.21315   2.21755
 Alpha virt. eigenvalues --    2.22334   2.23295   2.23692   2.24468   2.24729
 Alpha virt. eigenvalues --    2.25632   2.25738   2.26125   2.26806   2.27269
 Alpha virt. eigenvalues --    2.27634   2.27735   2.28751   2.29329   2.29999
 Alpha virt. eigenvalues --    2.30430   2.30716   2.31334   2.32365   2.32918
 Alpha virt. eigenvalues --    2.33540   2.34044   2.34453   2.35111   2.35525
 Alpha virt. eigenvalues --    2.35924   2.36247   2.36907   2.37267   2.37521
 Alpha virt. eigenvalues --    2.38212   2.38874   2.39338   2.39619   2.40734
 Alpha virt. eigenvalues --    2.40970   2.41662   2.42599   2.43347   2.43748
 Alpha virt. eigenvalues --    2.44078   2.44874   2.45430   2.45943   2.46569
 Alpha virt. eigenvalues --    2.46831   2.47649   2.48202   2.48714   2.49439
 Alpha virt. eigenvalues --    2.49749   2.50395   2.50565   2.51470   2.51624
 Alpha virt. eigenvalues --    2.52413   2.52818   2.52928   2.53620   2.54174
 Alpha virt. eigenvalues --    2.55100   2.55391   2.56016   2.56277   2.56789
 Alpha virt. eigenvalues --    2.57105   2.57713   2.58662   2.59033   2.59564
 Alpha virt. eigenvalues --    2.59712   2.60420   2.60717   2.61077   2.61410
 Alpha virt. eigenvalues --    2.61872   2.62488   2.62760   2.63265   2.63649
 Alpha virt. eigenvalues --    2.63791   2.64736   2.65254   2.65605   2.66003
 Alpha virt. eigenvalues --    2.66356   2.66766   2.67091   2.67423   2.67722
 Alpha virt. eigenvalues --    2.68504   2.68717   2.69166   2.69453   2.69726
 Alpha virt. eigenvalues --    2.69972   2.70220   2.70380   2.71469   2.71600
 Alpha virt. eigenvalues --    2.72435   2.72584   2.72812   2.73819   2.74229
 Alpha virt. eigenvalues --    2.74415   2.74845   2.75310   2.75995   2.76597
 Alpha virt. eigenvalues --    2.76834   2.77117   2.77512   2.77547   2.78350
 Alpha virt. eigenvalues --    2.78636   2.78882   2.79793   2.80372   2.80549
 Alpha virt. eigenvalues --    2.80964   2.81655   2.82054   2.82326   2.82559
 Alpha virt. eigenvalues --    2.83146   2.83576   2.83831   2.83879   2.85034
 Alpha virt. eigenvalues --    2.85456   2.86108   2.86215   2.86503   2.87031
 Alpha virt. eigenvalues --    2.87457   2.87815   2.87917   2.88513   2.88874
 Alpha virt. eigenvalues --    2.89468   2.89629   2.90075   2.90450   2.90999
 Alpha virt. eigenvalues --    2.91187   2.91609   2.91819   2.92083   2.92310
 Alpha virt. eigenvalues --    2.92706   2.92801   2.93363   2.93738   2.94623
 Alpha virt. eigenvalues --    2.95079   2.95526   2.95647   2.96025   2.96191
 Alpha virt. eigenvalues --    2.96775   2.97176   2.98063   2.98641   2.98872
 Alpha virt. eigenvalues --    2.99212   2.99947   3.00522   3.00604   3.01420
 Alpha virt. eigenvalues --    3.01489   3.01732   3.02028   3.02483   3.02920
 Alpha virt. eigenvalues --    3.03474   3.03789   3.03858   3.04052   3.04847
 Alpha virt. eigenvalues --    3.05439   3.05593   3.06263   3.06330   3.06922
 Alpha virt. eigenvalues --    3.07340   3.08075   3.08247   3.08620   3.08823
 Alpha virt. eigenvalues --    3.09286   3.09756   3.09971   3.10292   3.11080
 Alpha virt. eigenvalues --    3.11509   3.11798   3.11937   3.12073   3.12485
 Alpha virt. eigenvalues --    3.12915   3.13251   3.13403   3.13919   3.14404
 Alpha virt. eigenvalues --    3.14789   3.14893   3.15368   3.15458   3.15937
 Alpha virt. eigenvalues --    3.16274   3.16825   3.17137   3.17445   3.17549
 Alpha virt. eigenvalues --    3.17619   3.18736   3.19301   3.19470   3.19902
 Alpha virt. eigenvalues --    3.20442   3.20674   3.20937   3.21281   3.21818
 Alpha virt. eigenvalues --    3.22321   3.22447   3.22992   3.23265   3.23805
 Alpha virt. eigenvalues --    3.24855   3.25329   3.25485   3.25941   3.26283
 Alpha virt. eigenvalues --    3.26729   3.27360   3.27926   3.28654   3.28850
 Alpha virt. eigenvalues --    3.28991   3.29478   3.29700   3.29879   3.30089
 Alpha virt. eigenvalues --    3.30707   3.31468   3.31570   3.31721   3.32254
 Alpha virt. eigenvalues --    3.32466   3.32811   3.33435   3.33678   3.34303
 Alpha virt. eigenvalues --    3.34361   3.34601   3.35127   3.35237   3.35625
 Alpha virt. eigenvalues --    3.35877   3.36760   3.37030   3.37187   3.37708
 Alpha virt. eigenvalues --    3.38438   3.39270   3.39879   3.40556   3.40712
 Alpha virt. eigenvalues --    3.41388   3.41771   3.42077   3.42843   3.43121
 Alpha virt. eigenvalues --    3.43853   3.44201   3.44654   3.44833   3.45362
 Alpha virt. eigenvalues --    3.45805   3.46510   3.46739   3.47766   3.48159
 Alpha virt. eigenvalues --    3.48866   3.49523   3.50052   3.50323   3.50545
 Alpha virt. eigenvalues --    3.50895   3.51650   3.52630   3.52882   3.53552
 Alpha virt. eigenvalues --    3.54010   3.54818   3.55461   3.56006   3.57673
 Alpha virt. eigenvalues --    3.58098   3.59354   3.59542   3.60665   3.60938
 Alpha virt. eigenvalues --    3.61823   3.62918   3.63024   3.63462   3.64184
 Alpha virt. eigenvalues --    3.65220   3.66145   3.66583   3.67690   3.68292
 Alpha virt. eigenvalues --    3.68575   3.69715   3.70274   3.71044   3.71633
 Alpha virt. eigenvalues --    3.71835   3.73245   3.73571   3.74398   3.74760
 Alpha virt. eigenvalues --    3.75161   3.75641   3.77038   3.77615   3.77954
 Alpha virt. eigenvalues --    3.78925   3.79178   3.79748   3.80629   3.81275
 Alpha virt. eigenvalues --    3.82515   3.82999   3.83353   3.83984   3.84480
 Alpha virt. eigenvalues --    3.85443   3.86673   3.87883   3.88316   3.88900
 Alpha virt. eigenvalues --    3.89325   3.89699   3.90698   3.91100   3.92041
 Alpha virt. eigenvalues --    3.92800   3.93538   3.94011   3.94699   3.95047
 Alpha virt. eigenvalues --    3.95570   3.98220   3.99241   4.00075   4.00276
 Alpha virt. eigenvalues --    4.00670   4.01410   4.02594   4.02698   4.03427
 Alpha virt. eigenvalues --    4.04093   4.04977   4.05282   4.06467   4.06967
 Alpha virt. eigenvalues --    4.07382   4.07564   4.08238   4.09436   4.10223
 Alpha virt. eigenvalues --    4.10974   4.11618   4.12056   4.12910   4.13184
 Alpha virt. eigenvalues --    4.13896   4.14347   4.15235   4.16523   4.17749
 Alpha virt. eigenvalues --    4.17909   4.18680   4.18906   4.19776   4.21556
 Alpha virt. eigenvalues --    4.21910   4.22267   4.22682   4.23519   4.23917
 Alpha virt. eigenvalues --    4.24248   4.25928   4.26526   4.27124   4.28634
 Alpha virt. eigenvalues --    4.29324   4.30270   4.30730   4.31912   4.32301
 Alpha virt. eigenvalues --    4.33183   4.33753   4.35667   4.37205   4.38463
 Alpha virt. eigenvalues --    4.38740   4.39677   4.40204   4.41035   4.41973
 Alpha virt. eigenvalues --    4.42573   4.45489   4.47591   4.48723   4.49838
 Alpha virt. eigenvalues --    4.50257   4.50556   4.50981   4.51066   4.51733
 Alpha virt. eigenvalues --    4.52566   4.53181   4.53521   4.54862   4.55632
 Alpha virt. eigenvalues --    4.57170   4.57575   4.57662   4.58193   4.58987
 Alpha virt. eigenvalues --    4.59970   4.61609   4.61897   4.62013   4.62340
 Alpha virt. eigenvalues --    4.63818   4.64255   4.65037   4.66439   4.67489
 Alpha virt. eigenvalues --    4.68393   4.68535   4.68670   4.68939   4.70184
 Alpha virt. eigenvalues --    4.71074   4.73569   4.73868   4.74316   4.74758
 Alpha virt. eigenvalues --    4.75543   4.77565   4.77831   4.78574   4.79097
 Alpha virt. eigenvalues --    4.80281   4.81539   4.82875   4.83619   4.85363
 Alpha virt. eigenvalues --    4.86201   4.87359   4.88012   4.88423   4.89097
 Alpha virt. eigenvalues --    4.89611   4.89874   4.90474   4.91795   4.92796
 Alpha virt. eigenvalues --    4.93540   4.94253   4.95127   4.96642   4.97363
 Alpha virt. eigenvalues --    4.97593   4.98388   4.98681   4.99468   4.99839
 Alpha virt. eigenvalues --    5.00711   5.01018   5.01584   5.02506   5.02714
 Alpha virt. eigenvalues --    5.03264   5.03366   5.04698   5.05072   5.06077
 Alpha virt. eigenvalues --    5.06780   5.06858   5.08140   5.08574   5.09078
 Alpha virt. eigenvalues --    5.09954   5.11414   5.11733   5.13340   5.13381
 Alpha virt. eigenvalues --    5.13537   5.14039   5.15081   5.15308   5.15744
 Alpha virt. eigenvalues --    5.16678   5.16873   5.17346   5.18488   5.19051
 Alpha virt. eigenvalues --    5.19976   5.20560   5.21275   5.21842   5.22899
 Alpha virt. eigenvalues --    5.23248   5.24254   5.25025   5.25228   5.25577
 Alpha virt. eigenvalues --    5.25761   5.26063   5.26838   5.28285   5.28374
 Alpha virt. eigenvalues --    5.28673   5.28953   5.30317   5.32374   5.33095
 Alpha virt. eigenvalues --    5.34164   5.35121   5.35300   5.36276   5.36516
 Alpha virt. eigenvalues --    5.37810   5.37816   5.39306   5.41213   5.43730
 Alpha virt. eigenvalues --    5.45829   5.49422   5.49492   5.50572   5.52346
 Alpha virt. eigenvalues --    5.53057   5.54975   5.55353   5.55557   5.56182
 Alpha virt. eigenvalues --    5.58216   5.58647   5.58981   5.60434   5.61889
 Alpha virt. eigenvalues --    5.62019   5.63152   5.63906   5.64300   5.65527
 Alpha virt. eigenvalues --    5.67264   5.68135   5.68542   5.69863   5.70970
 Alpha virt. eigenvalues --    5.72849   5.74955   5.77741   5.79456   5.80117
 Alpha virt. eigenvalues --    5.81191   5.81690   5.82455   5.84327   5.87258
 Alpha virt. eigenvalues --    5.87732   5.92042   5.92492   5.93222   5.95543
 Alpha virt. eigenvalues --    5.95763   5.96767   5.96860   6.01597   6.08482
 Alpha virt. eigenvalues --    6.11195   6.16486   6.19639   6.19999   6.23682
 Alpha virt. eigenvalues --    6.28993   6.32222   6.35476   6.38006   6.38024
 Alpha virt. eigenvalues --    6.47440   6.51139   6.55101   6.55584   6.55884
 Alpha virt. eigenvalues --    6.57899   6.61462   6.62677   6.65237   6.67207
 Alpha virt. eigenvalues --    6.70507   6.70684   6.72542   6.74888   6.76819
 Alpha virt. eigenvalues --    6.79105   6.82733   6.85391   6.94014   6.97098
 Alpha virt. eigenvalues --    6.99115   6.99394   7.00176   7.02661   7.03343
 Alpha virt. eigenvalues --    7.07006   7.07663   7.12622  22.38069  22.44722
 Alpha virt. eigenvalues --   22.51656  22.56177  22.63992  22.71666  22.72372
 Alpha virt. eigenvalues --   22.75111  22.78322  22.79941  22.82204  22.84579
 Alpha virt. eigenvalues --   22.94406  22.96636  22.98342  22.99387  23.00778
 Alpha virt. eigenvalues --   23.14182  23.16558  23.19297  23.26451  23.31707
 Alpha virt. eigenvalues --   23.40177  23.52059  32.01124  32.01750  32.09546
 Alpha virt. eigenvalues --   32.40980  32.57164  32.63908  32.72642  32.87792
 Alpha virt. eigenvalues --   32.93198  44.01294  44.01347  44.04455  44.04855
 Alpha virt. eigenvalues --   44.07189  44.25216
          Condensed to atoms (all electrons):
 Mulliken charges:
               1
     1  C   -0.078378
     2  H    0.144774
     3  O   -0.304861
     4  C    0.008908
     5  H    0.181293
     6  O   -0.511816
     7  H    0.352258
     8  C    0.006016
     9  H    0.170361
    10  O   -0.463462
    11  H    0.366013
    12  C    0.047577
    13  H    0.148318
    14  N    0.048053
    15  C   -0.010894
    16  H    0.175877
    17  C    0.023363
    18  C   -0.115982
    19  H    0.244197
    20  H    0.084306
    21  C   -0.152822
    22  H    0.191545
    23  C    0.038653
    24  H    0.203323
    25  C    0.368015
    26  O   -0.346163
    27  N   -0.490110
    28  H    0.254750
    29  H    0.298898
    30  N   -0.385658
    31  C    0.454340
    32  N   -0.545221
    33  H    0.287515
    34  H    0.272447
    35  N   -0.319082
    36  H    0.264030
    37  C    0.263472
    38  O   -0.469047
    39  C   -0.012625
    40  N   -0.386794
    41  H    0.254150
    42  C   -0.021878
    43  C   -0.209061
    44  H    0.154637
    45  H    0.171464
    46  N   -0.383279
    47  H    0.251577
    48  C    0.316370
    49  C   -0.242599
    50  H    0.134439
    51  H    0.206672
    52  N   -0.414522
    53  H    0.236146
    54  C    0.097304
    55  C   -0.186256
    56  H    0.171748
    57  C   -0.195345
    58  H    0.144680
    59  C    0.273291
    60  C   -0.157624
    61  H    0.119528
    62  C   -0.187041
    63  H    0.103699
    64  C    0.322172
    65  O   -0.443685
    66  N   -0.526651
    67  H    0.248125
    68  H    0.162668
    69  H    0.293879
 Sum of Mulliken charges =   1.00000
 Mulliken charges with hydrogens summed into heavy atoms:
               1
     1  C    0.229065
     3  O   -0.304861
     4  C    0.190200
     6  O   -0.159558
     8  C    0.176377
    10  O   -0.097449
    12  C    0.195895
    14  N    0.048053
    15  C    0.164984
    17  C    0.023363
    18  C    0.128216
    21  C    0.038722
    23  C    0.241976
    25  C    0.368015
    26  O   -0.346163
    27  N    0.063538
    30  N   -0.385658
    31  C    0.454340
    32  N    0.014741
    35  N   -0.055052
    37  C    0.263472
    38  O   -0.469047
    39  C   -0.012625
    40  N   -0.132644
    42  C    0.062428
    43  C    0.117040
    46  N   -0.131702
    48  C    0.316370
    49  C    0.098513
    52  N   -0.178376
    54  C    0.097304
    55  C   -0.014508
    57  C   -0.050664
    59  C    0.273291
    60  C   -0.038096
    62  C   -0.083342
    64  C    0.322172
    65  O   -0.443685
    66  N    0.015353
 Electronic spatial extent (au):  <R**2>=          28204.3871
 Charge=              1.0000 electrons
 Dipole moment (field-independent basis, Debye):
    X=             -8.0270    Y=             -8.6864    Z=             24.5783  Tot=             27.2760
 Quadrupole moment (field-independent basis, Debye-Ang):
   XX=           -136.3668   YY=           -224.1106   ZZ=           -110.0953
   XY=             -2.9214   XZ=            -89.6997   YZ=             66.6315
 Traceless Quadrupole moment (field-independent basis, Debye-Ang):
   XX=             20.4908   YY=            -67.2530   ZZ=             46.7623
   XY=             -2.9214   XZ=            -89.6997   YZ=             66.6315
 Octapole moment (field-independent basis, Debye-Ang**2):
  XXX=            674.9405  YYY=           -103.3558  ZZZ=            887.2419  XYY=            232.7237
  XXY=           -115.3562  XXZ=            337.7600  XZZ=            -39.1046  YZZ=           -117.3494
  YYZ=            201.5647  XYZ=           -103.4831
 Hexadecapole moment (field-independent basis, Debye-Ang**3):
 XXXX=          -6614.2519 YYYY=          -5180.9876 ZZZZ=         -16264.4830 XXXY=           1288.2359
 XXXZ=           -617.9175 YYYX=           1862.0828 YYYZ=           1570.3338 ZZZX=          -2133.9942
 ZZZY=           4100.9707 XXYY=          -2070.9458 XXZZ=          -3275.4015 YYZZ=          -5380.3229
 XXYZ=           1105.7033 YYXZ=           -185.7849 ZZXY=            533.6598
 N-N= 4.378675563925D+03 E-N=-1.310934086031D+04  KE= 1.867670784514D+03
 No NMR shielding tensors so no spin-rotation constants.
 Leave Link  601 at Sat Jun 22 17:57:11 2024, MaxMem=  2684354560 cpu:              11.3 elap:               0.9
 (Enter /storage/apps/GAUSSIAN/G16_RevA03/g16/l602.exe)

 **********************************************************************

            Electrostatic Properties Using The SCF Density

 **********************************************************************

       Atomic Center    1 is at  -4.200243  0.423546  6.788092
       Atomic Center    2 is at  -4.047177  0.482938  7.797806
       Atomic Center    3 is at  -3.000290 -0.169896  6.180869
       Atomic Center    4 is at  -4.310149  1.810617  6.154806
       Atomic Center    5 is at  -5.268578  2.177315  6.129960
       Atomic Center    6 is at  -3.456156  2.773133  6.816321
       Atomic Center    7 is at  -3.639156  2.860484  7.776044
       Atomic Center    8 is at  -3.691456  1.609502  4.756732
       Atomic Center    9 is at  -4.350860  1.189410  4.093686
       Atomic Center   10 is at  -3.207809  2.832311  4.216722
       Atomic Center   11 is at  -3.016361  3.414197  4.977766
       Atomic Center   12 is at  -2.521947  0.641078  5.093116
       Atomic Center   13 is at  -1.691987  1.169372  5.388516
       Atomic Center   14 is at  -2.091078 -0.294050  4.020532
       Atomic Center   15 is at  -0.762688 -0.334002  3.693623
       Atomic Center   16 is at  -0.191519  0.406645  4.095470
       Atomic Center   17 is at  -0.258264 -1.312078  2.893931
       Atomic Center   18 is at  -1.163239 -2.253737  2.336677
       Atomic Center   19 is at  -0.794198 -3.001095  1.751258
       Atomic Center   20 is at  -0.903809 -0.837022  0.160220
       Atomic Center   21 is at  -2.501082 -2.145755  2.609984
       Atomic Center   22 is at  -3.165516 -2.794317  2.191246
       Atomic Center   23 is at  -2.963052 -1.191093  3.466136
       Atomic Center   24 is at  -3.943792 -1.113700  3.731713
       Atomic Center   25 is at   1.222586 -1.505453  2.646492
       Atomic Center   26 is at   1.611688 -2.482514  1.981594
       Atomic Center   27 is at   2.122687 -0.629390  3.189918
       Atomic Center   28 is at   1.850041  0.097409  3.847979
       Atomic Center   29 is at   3.104475 -0.912439  3.194870
       Atomic Center   30 is at   2.151327 -3.096361 -1.979563
       Atomic Center   31 is at   3.281976 -2.439722 -2.313665
       Atomic Center   32 is at   4.412311 -3.129031 -2.637666
       Atomic Center   33 is at   4.428963 -4.141300 -2.579758
       Atomic Center   34 is at   5.268578 -2.617526 -2.901422
       Atomic Center   35 is at   3.350588 -1.064944 -2.343021
       Atomic Center   36 is at   4.281838 -0.617283 -2.451214
       Atomic Center   37 is at   2.250434 -0.260372 -2.079002
       Atomic Center   38 is at   2.414023  1.013515 -2.036908
       Atomic Center   39 is at   1.029654 -0.945733 -1.822901
       Atomic Center   40 is at  -0.178523 -0.200041 -1.650752
       Atomic Center   41 is at   0.015771  0.774515 -1.409519
       Atomic Center   42 is at  -1.208176 -0.841287 -0.822167
       Atomic Center   43 is at  -1.384861 -2.300827 -1.297031
       Atomic Center   44 is at  -2.023807 -2.792120 -0.670175
       Atomic Center   45 is at  -1.807127 -2.300744 -2.231367
       Atomic Center   46 is at  -0.099282 -2.990692 -1.308254
       Atomic Center   47 is at  -0.094544 -4.005627 -1.347891
       Atomic Center   48 is at   1.034709 -2.324292 -1.724710
       Atomic Center   49 is at  -2.595926 -0.096255 -0.903668
       Atomic Center   50 is at  -2.996174 -0.052710  0.034493
       Atomic Center   51 is at  -3.236197 -0.646521 -1.482230
       Atomic Center   52 is at  -2.523574  1.268365 -1.417866
       Atomic Center   53 is at  -2.768252  2.011643 -0.768626
       Atomic Center   54 is at  -2.252754  2.155314 -5.503054
       Atomic Center   55 is at  -2.438097  3.176705 -4.541201
       Atomic Center   56 is at  -2.485971  4.141300 -4.864502
       Atomic Center   57 is at  -2.526311  2.894708 -3.217039
       Atomic Center   58 is at  -2.645717  3.645997 -2.538907
       Atomic Center   59 is at  -2.445430  1.552891 -2.761933
       Atomic Center   60 is at  -2.276797  0.522950 -3.723337
       Atomic Center   61 is at  -2.217025 -0.449870 -3.428539
       Atomic Center   62 is at  -2.177661  0.822418 -5.041103
       Atomic Center   63 is at  -2.056696  0.059077 -5.705044
       Atomic Center   64 is at  -2.138264  2.494019 -6.914143
       Atomic Center   65 is at  -2.405781  3.673378 -7.349274
       Atomic Center   66 is at  -1.731650  1.532727 -7.797806
       Atomic Center   67 is at  -1.556830  0.580141 -7.496650
       Atomic Center   68 is at  -5.058304 -0.216415  6.582467
       Atomic Center   69 is at  -1.644285  1.690071 -8.872846
 -----------------------------------------------------------------

              Electrostatic Properties (Atomic Units)

 -----------------------------------------------------------------
    Center     Electric         -------- Electric Field --------
               Potential          X             Y             Z
 -----------------------------------------------------------------
    1 Atom    -14.573108     -0.006348      0.007927     -0.004705
    2 Atom     -0.971170      0.011964      0.001883      0.072465
    3 Atom    -22.186066      0.016199     -0.029915      0.011635
    4 Atom    -14.560639     -0.000097     -0.011645     -0.004680
    5 Atom     -0.971462     -0.067333      0.023203     -0.004949
    6 Atom    -22.199174      0.026069      0.016830     -0.023169
    7 Atom     -0.843667     -0.005250     -0.000457      0.005761
    8 Atom    -14.551446      0.003281     -0.001325      0.011867
    9 Atom     -0.951295     -0.048549     -0.028873     -0.046055
   10 Atom    -22.215587      0.002491      0.005524     -0.039785
   11 Atom     -0.865294      0.004210      0.011707      0.012138
   12 Atom    -14.503564     -0.010875      0.010523      0.002068
   13 Atom     -0.939639      0.056729      0.036604      0.017599
   14 Atom    -18.102236     -0.000532     -0.000094      0.000344
   15 Atom    -14.524253     -0.000773     -0.008931     -0.004794
   16 Atom     -0.893535      0.039693      0.052503      0.031795
   17 Atom    -14.561645     -0.002028     -0.003371     -0.002279
   18 Atom    -14.569518      0.000455      0.009271      0.005274
   19 Atom     -0.935966      0.029529     -0.054512     -0.044528
   20 Atom     -1.034642      0.021507     -0.003411      0.071182
   21 Atom    -14.582508      0.006144      0.005358      0.002417
   22 Atom     -0.926884     -0.048385     -0.047323     -0.029138
   23 Atom    -14.523412      0.008138     -0.003396     -0.004472
   24 Atom     -0.896256     -0.069363      0.006059      0.021587
   25 Atom    -14.506959      0.005239     -0.013039     -0.007489
   26 Atom    -22.254960      0.008620     -0.023014     -0.016012
   27 Atom    -18.222232     -0.003956     -0.000413     -0.010007
   28 Atom     -0.871588     -0.000356      0.009131      0.006944
   29 Atom     -0.878615      0.011245     -0.003341     -0.003854
   30 Atom    -18.324625      0.000914     -0.025805      0.000341
   31 Atom    -14.554175     -0.013369     -0.003798      0.004143
   32 Atom    -18.268806     -0.004456      0.002956     -0.000553
   33 Atom     -0.923424     -0.001827     -0.014147      0.001130
   34 Atom     -0.915457     -0.000092     -0.004134     -0.000358
   35 Atom    -18.253008     -0.005058     -0.002159     -0.000671
   36 Atom     -0.909057     -0.005267      0.006838     -0.001230
[...]
     Eigenvalues ---    1.59314   1.60509   1.61465   1.62140   1.74313
     Eigenvalues ---    1.76999   1.77599   1.78305   1.86904   1.91807
     Eigenvalues ---    2.07803
 Quadratic step=6.456D+00 exceeds max=3.000D-01 adjusted using Lamda=-3.875D-01.
 Angle between NR and scaled steps=  83.41 degrees.
 Angle between quadratic step and forces=  22.45 degrees.
 Linear search not attempted -- first point.
 Variable       Old X    -DE/DX   Delta X   Delta X   Delta X     New X
                                 (Linear)    (Quad)   (Total)
    X1       -7.93731   0.00976   0.00000   0.01329   0.01329  -7.92402
    Y1        0.80039   0.00065   0.00000  -0.00154  -0.00154   0.79885
    Z1       12.82763  -0.06231   0.00000  -0.03635  -0.03635  12.79129
    X2       -7.64806   0.00872   0.00000   0.01250   0.01250  -7.63556
    Y2        0.91262   0.00105   0.00000  -0.00281  -0.00281   0.90981
    Z2       14.73572   0.05158   0.00000   0.04410   0.04410  14.77982
    X3       -5.66973  -0.00249   0.00000  -0.00920  -0.00920  -5.67892
    Y3       -0.32106   0.01140   0.00000  -0.00119  -0.00119  -0.32225
    Z3       11.68015  -0.01298   0.00000  -0.01462  -0.01462  11.66553
    X4       -8.14500   0.04980   0.00000   0.02664   0.02664  -8.11836
    Y4        3.42157  -0.01423   0.00000  -0.00436  -0.00436   3.41721
    Z4       11.63090   0.01486   0.00000   0.01311   0.01311  11.64401
    X5       -9.95617  -0.04764   0.00000  -0.04544  -0.04544 -10.00161
    Y5        4.11453   0.01553   0.00000   0.01237   0.01237   4.12690
    Z5       11.58394  -0.00438   0.00000  -0.00652  -0.00652  11.57742
    X6       -6.53119  -0.00474   0.00000   0.00441   0.00441  -6.52678
    Y6        5.24046  -0.01166   0.00000  -0.01720  -0.01720   5.22326
    Z6       12.88098   0.00235   0.00000  -0.00043  -0.00043  12.88055
    X7       -6.87701  -0.00145   0.00000  -0.00793  -0.00793  -6.88493
    Y7        5.40553  -0.00354   0.00000  -0.00709  -0.00709   5.39844
    Z7       14.69459  -0.01892   0.00000  -0.02353  -0.02353  14.67106
    X8       -6.97584   0.05239   0.00000   0.03036   0.03036  -6.94548
    Y8        3.04152   0.04386   0.00000   0.02639   0.02639   3.06791
    Z8        8.98892   0.03631   0.00000   0.02721   0.02721   9.01613
    X9       -8.22193  -0.03472   0.00000  -0.02919  -0.02919  -8.25112
    Y9        2.24766  -0.02079   0.00000  -0.01189  -0.01189   2.23577
    Z9        7.73594  -0.03242   0.00000  -0.02160  -0.02160   7.71434
   X10       -6.06188  -0.00600   0.00000  -0.00138  -0.00138  -6.06326
   Y10        5.35229  -0.01405   0.00000  -0.01107  -0.01107   5.34123
   Z10        7.96845   0.00716   0.00000   0.00536   0.00536   7.97381
   X11       -5.70010  -0.00079   0.00000   0.00054   0.00054  -5.69955
   Y11        6.45190  -0.00409   0.00000  -0.00353  -0.00353   6.44837
   Z11        9.40662  -0.00721   0.00000  -0.01099  -0.01099   9.39562
   X12       -4.76579  -0.06281   0.00000  -0.03723  -0.03723  -4.80302
   Y12        1.21146  -0.03565   0.00000  -0.02077  -0.02077   1.19070
   Z12        9.62459   0.01081   0.00000   0.01348   0.01348   9.63808
   X13       -3.19739   0.04012   0.00000   0.03393   0.03393  -3.16346
   Y13        2.20979   0.02569   0.00000   0.01907   0.01907   2.22887
   Z13       10.18282   0.01098   0.00000   0.00987   0.00987  10.19269
   X14       -3.95157   0.00240   0.00000  -0.00498  -0.00498  -3.95655
   Y14       -0.55567  -0.01082   0.00000  -0.00209  -0.00209  -0.55777
   Z14        7.59770  -0.01222   0.00000  -0.00215  -0.00215   7.59555
   X15       -1.44127  -0.04813   0.00000  -0.02749  -0.02749  -1.46876
   Y15       -0.63117  -0.02966   0.00000  -0.01467  -0.01467  -0.64585
   Z15        6.97994  -0.00898   0.00000   0.00045   0.00045   6.98038
   X16       -0.36192   0.02789   0.00000   0.02109   0.02109  -0.34083
   Y16        0.76845   0.03744   0.00000   0.03496   0.03496   0.80341
   Z16        7.73932   0.02380   0.00000   0.02918   0.02918   7.76850
   X17       -0.48805  -0.00261   0.00000   0.00429   0.00429  -0.48376
   Y17       -2.47947  -0.01830   0.00000  -0.01041  -0.01041  -2.48987
   Z17        5.46874  -0.01288   0.00000  -0.00548  -0.00548   5.46325
   X18       -2.19820   0.00862   0.00000   0.01835   0.01835  -2.17985
   Y18       -4.25895   0.05107   0.00000   0.02617   0.02617  -4.23278
   Z18        4.41568   0.03454   0.00000   0.01369   0.01369   4.42937
   X19       -1.50082   0.02189   0.00000   0.02862   0.02862  -1.47220
   Y19       -5.67125  -0.03876   0.00000  -0.03482  -0.03482  -5.70607
   Z19        3.30940  -0.03269   0.00000  -0.03366  -0.03366   3.27574
   X20       -1.70795   0.01520   0.00000   0.01544   0.01544  -1.69252
   Y20       -1.58174  -0.00388   0.00000  -0.00587  -0.00587  -1.58761
   Z20        0.30277   0.05137   0.00000   0.04807   0.04807   0.35084
   X21       -4.72636   0.02200   0.00000   0.01289   0.01289  -4.71347
   Y21       -4.05489   0.02310   0.00000   0.01533   0.01533  -4.03956
   Z21        4.93216   0.01369   0.00000   0.00725   0.00725   4.93940
   X22       -5.98196  -0.03470   0.00000  -0.03501  -0.03501  -6.01697
   Y22       -5.28049  -0.03377   0.00000  -0.03339  -0.03339  -5.31388
   Z22        4.14086  -0.02039   0.00000  -0.01857  -0.01857   4.12229
   X23       -5.59936   0.06136   0.00000   0.02884   0.02884  -5.57051
   Y23       -2.25084   0.02161   0.00000   0.02043   0.02043  -2.23041
   Z23        6.55005   0.00528   0.00000   0.01038   0.01038   6.56043
   X24       -7.45269  -0.04893   0.00000  -0.04456  -0.04456  -7.49725
   Y24       -2.10459   0.00509   0.00000   0.01025   0.01025  -2.09433
   Z24        7.05192   0.01645   0.00000   0.02299   0.02299   7.07490
   X25        2.31035   0.03861   0.00000   0.01783   0.01783   2.32818
   Y25       -2.84489  -0.03695   0.00000  -0.01375  -0.01375  -2.85864
   Z25        5.00115  -0.02461   0.00000  -0.00353  -0.00353   4.99762
   X26        3.04565  -0.02682   0.00000  -0.02806  -0.02806   3.01759
   Y26       -4.69127   0.04137   0.00000   0.02043   0.02043  -4.67084
   Z26        3.74467   0.02820   0.00000   0.01471   0.01471   3.75938
   X27        4.01130  -0.01403   0.00000  -0.01553  -0.01553   3.99577
   Y27       -1.18938  -0.00070   0.00000  -0.00738  -0.00738  -1.19675
   Z27        6.02807   0.00689   0.00000   0.00624   0.00624   6.03431
   X28        3.49607   0.00515   0.00000   0.00311   0.00311   3.49918
   Y28        0.18408  -0.00793   0.00000  -0.00967  -0.00967   0.17441
   Z28        7.27163  -0.00766   0.00000  -0.00780  -0.00780   7.26383
   X29        5.86661  -0.01133   0.00000  -0.02028  -0.02028   5.84633
   Y29       -1.72426   0.00291   0.00000   0.00531   0.00531  -1.71895
   Z29        6.03743  -0.00386   0.00000  -0.00829  -0.00829   6.02914
   X30        4.06542   0.02556   0.00000   0.01527   0.01527   4.08069
   Y30       -5.85127   0.02540   0.00000   0.02026   0.02026  -5.83101
   Z30       -3.74083  -0.01011   0.00000  -0.00932  -0.00932  -3.75015
   X31        6.20204  -0.03505   0.00000  -0.02286  -0.02286   6.17918
   Y31       -4.61041  -0.01248   0.00000  -0.00477  -0.00477  -4.61518
   Z31       -4.37219   0.01117   0.00000   0.00818   0.00818  -4.36402
   X32        8.33806   0.00923   0.00000  -0.01021  -0.01021   8.32785
   Y32       -5.91301   0.01377   0.00000   0.01290   0.01290  -5.90011
   Z32       -4.98447  -0.00144   0.00000   0.00444   0.00444  -4.98002
   X33        8.36953  -0.00247   0.00000  -0.00729  -0.00729   8.36224
   Y33       -7.82592   0.00944   0.00000   0.01808   0.01808  -7.80784
   Z33       -4.87504   0.00000   0.00000   0.00062   0.00062  -4.87442
   X34        9.95617  -0.01893   0.00000  -0.02575  -0.02575   9.93042
   Y34       -4.94641  -0.01471   0.00000  -0.01714  -0.01714  -4.96355
   Z34       -5.48289   0.00560   0.00000   0.00736   0.00736  -5.47553
   X35        6.33169   0.01881   0.00000  -0.00334  -0.00334   6.32835
   Y35       -2.01245  -0.02132   0.00000  -0.01687  -0.01687  -2.02932
   Z35       -4.42767  -0.00095   0.00000   0.00616   0.00616  -4.42150
   X36        8.09150  -0.02494   0.00000  -0.03679  -0.03679   8.05471
   Y36       -1.16650  -0.00313   0.00000  -0.00545  -0.00545  -1.17194
   Z36       -4.63212   0.00110   0.00000   0.00007   0.00007  -4.63205
   X37        4.25270   0.00699   0.00000  -0.00100  -0.00100   4.25170
   Y37       -0.49203   0.07717   0.00000   0.02394   0.02394  -0.46809
   Z37       -3.92874   0.00661   0.00000   0.00925   0.00925  -3.91949
   X38        4.56184  -0.01253   0.00000  -0.01579  -0.01579   4.54606
   Y38        1.91526  -0.07113   0.00000  -0.04869  -0.04869   1.86658
   Z38       -3.84920  -0.00253   0.00000  -0.00111  -0.00111  -3.85031
   X39        1.94576  -0.01364   0.00000  -0.00631  -0.00631   1.93945
   Y39       -1.78718  -0.00092   0.00000   0.00355   0.00355  -1.78362
   Z39       -3.44478   0.00256   0.00000   0.00394   0.00394  -3.44084
   X40       -0.33736   0.00472   0.00000   0.00570   0.00570  -0.33166
   Y40       -0.37802  -0.00482   0.00000  -0.00417  -0.00417  -0.38219
   Z40       -3.11947   0.00410   0.00000  -0.00246  -0.00246  -3.12193
   X41        0.02980  -0.00169   0.00000  -0.00178  -0.00178   0.02802
   Y41        1.46362  -0.00703   0.00000  -0.01001  -0.01001   1.45361
   Z41       -2.66361  -0.00291   0.00000  -0.00541  -0.00541  -2.66901
   X42       -2.28312  -0.01059   0.00000   0.00702   0.00702  -2.27611
   Y42       -1.58980   0.00643   0.00000   0.01099   0.01099  -1.57882
   Z42       -1.55367  -0.05629   0.00000  -0.03215  -0.03215  -1.58582
   X43       -2.61701   0.06386   0.00000   0.03614   0.03614  -2.58086
   Y43       -4.34793   0.03002   0.00000   0.01843   0.01843  -4.32950
   Z43       -2.45103   0.01285   0.00000   0.00285   0.00285  -2.44819
   X44       -3.82444  -0.03455   0.00000  -0.02682  -0.02682  -3.85126
   Y44       -5.27634  -0.02762   0.00000  -0.02354  -0.02354  -5.29988
   Z44       -1.26645   0.03679   0.00000   0.04132   0.04132  -1.22513
   X45       -3.41498  -0.02174   0.00000  -0.01666  -0.01666  -3.43163
   Y45       -4.34778   0.00277   0.00000   0.00765   0.00765  -4.34013
   Z45       -4.21667  -0.04949   0.00000  -0.05444  -0.05444  -4.27111
   X46       -0.18762   0.00091   0.00000   0.01542   0.01542  -0.17220
   Y46       -5.65159   0.00006   0.00000   0.00590   0.00590  -5.64569
   Z46       -2.47224   0.00100   0.00000   0.00147   0.00147  -2.47077
   X47       -0.17866   0.00391   0.00000   0.00928   0.00928  -0.16938
   Y47       -7.56954   0.00836   0.00000   0.01330   0.01330  -7.55624
   Z47       -2.54714  -0.00266   0.00000  -0.00639  -0.00639  -2.55354
   X48        1.95532   0.01624   0.00000   0.01857   0.01857   1.97389
   Y48       -4.39227  -0.00350   0.00000   0.00283   0.00283  -4.38944
   Z48       -3.25923  -0.00088   0.00000   0.00050   0.00050  -3.25873
   X49       -4.90559   0.06477   0.00000   0.03838   0.03838  -4.86721
   Y49       -0.18189   0.03291   0.00000   0.01725   0.01725  -0.16465
   Z49       -1.70768  -0.02687   0.00000  -0.01918  -0.01918  -1.72687
   X50       -5.66195  -0.02068   0.00000  -0.01044  -0.01044  -5.67239
   Y50       -0.09961   0.00284   0.00000   0.00544   0.00544  -0.09417
   Z50        0.06518   0.05166   0.00000   0.04985   0.04985   0.11503
   X51       -6.11553  -0.03416   0.00000  -0.02903  -0.02903  -6.14456
   Y51       -1.22175  -0.02928   0.00000  -0.02672  -0.02672  -1.24847
   Z51       -2.80101  -0.03302   0.00000  -0.04086  -0.04086  -2.84187
   X52       -4.76886   0.00064   0.00000   0.00764   0.00764  -4.76122
   Y52        2.39686  -0.00677   0.00000  -0.00148  -0.00148   2.39538
   Z52       -2.67938   0.01577   0.00000   0.00638   0.00638  -2.67300
   X53       -5.23124   0.00244   0.00000   0.00278   0.00278  -5.22846
   Y53        3.80145  -0.00566   0.00000  -0.00555  -0.00555   3.79590
   Z53       -1.45249  -0.01053   0.00000  -0.01306  -0.01306  -1.46556
   X54       -4.25709  -0.00025   0.00000  -0.00078  -0.00078  -4.25787
   Y54        4.07295  -0.01253   0.00000  -0.00118  -0.00118   4.07177
   Z54      -10.39927   0.02757   0.00000  -0.00280  -0.00280 -10.40207
   X55       -4.60734   0.00699   0.00000   0.00382   0.00382  -4.60352
   Y55        6.00310  -0.05446   0.00000  -0.03328  -0.03328   5.96982
   Z55       -8.58163  -0.01681   0.00000  -0.01825  -0.01825  -8.59987
   X56       -4.69781  -0.00306   0.00000  -0.00303  -0.00303  -4.70083
   Y56        7.82592   0.04975   0.00000   0.04465   0.04465   7.87058
   Z56       -9.19258  -0.01875   0.00000  -0.02389  -0.02389  -9.21646
   X57       -4.77404   0.00572   0.00000   0.00021   0.00021  -4.77383
   Y57        5.47021  -0.05887   0.00000  -0.03855  -0.03855   5.43165
   Z57       -6.07932  -0.01040   0.00000  -0.00151  -0.00151  -6.08083
   X58       -4.99968  -0.00624   0.00000  -0.00578  -0.00578  -5.00546
   Y58        6.88994   0.03890   0.00000   0.03240   0.03240   6.92234
   Z58       -4.79784   0.03577   0.00000   0.03550   0.03550  -4.76233
   X59       -4.62119  -0.00110   0.00000  -0.00627  -0.00627  -4.62746
   Y59        2.93454   0.00348   0.00000  -0.00007  -0.00007   2.93447
   Z59       -5.21930  -0.01665   0.00000  -0.00001  -0.00001  -5.21930
   X60       -4.30252  -0.00884   0.00000  -0.01165  -0.01165  -4.31417
   Y60        0.98823   0.05339   0.00000   0.03310   0.03310   1.02133
   Z60       -7.03609   0.01869   0.00000   0.01797   0.01797  -7.01812
   X61       -4.18957   0.00432   0.00000   0.00465   0.00465  -4.18492
   Y61       -0.85013  -0.04821   0.00000  -0.04237  -0.04237  -0.89250
   Z61       -6.47900   0.01598   0.00000   0.02013   0.02013  -6.45887
   X62       -4.11518  -0.00629   0.00000  -0.00762  -0.00762  -4.12280
   Y62        1.55415   0.06139   0.00000   0.03986   0.03986   1.59400
   Z62       -9.52630   0.00678   0.00000  -0.00060  -0.00060  -9.52691
   X63       -3.88659   0.00548   0.00000   0.00358   0.00358  -3.88302
   Y63        0.11164  -0.03990   0.00000  -0.03403  -0.03403   0.07761
   Z63      -10.78097  -0.03299   0.00000  -0.03122  -0.03122 -10.81219
   X64       -4.04073  -0.01432   0.00000  -0.00599  -0.00599  -4.04672
   Y64        4.71301   0.07907   0.00000   0.02713   0.02713   4.74014
   Z64      -13.06584  -0.06064   0.00000  -0.04375  -0.04375 -13.10958
   X65       -4.54627   0.01749   0.00000   0.00961   0.00961  -4.53666
   Y65        6.94168  -0.07333   0.00000  -0.04182  -0.04182   6.89986
   Z65      -13.88811   0.03139   0.00000   0.01937   0.01937 -13.86875
   X66       -3.27235   0.00535   0.00000  -0.00284  -0.00284  -3.27519
   Y66        2.89643  -0.00758   0.00000   0.00225   0.00225   2.89868
   Z66      -14.73572  -0.04081   0.00000  -0.02405  -0.02405 -14.75977
   X67       -2.94198  -0.00005   0.00000   0.00111   0.00111  -2.94088
   Y67        1.09631   0.00992   0.00000   0.01621   0.01621   1.11251
   Z67      -14.16662  -0.00239   0.00000  -0.00728  -0.00728 -14.17389
   X68       -9.55881  -0.00047   0.00000   0.00099   0.00099  -9.55782
   Y68       -0.40897   0.00047   0.00000   0.00346   0.00346  -0.40550
   Z68       12.43906  -0.00249   0.00000  -0.01251  -0.01251  12.42655
   X69       -3.10725  -0.00855   0.00000  -0.01347  -0.01347  -3.12072
   Y69        3.19377   0.00170   0.00000   0.00860   0.00860   3.20237
   Z69      -16.76725   0.06146   0.00000   0.07288   0.07288 -16.69437
         Item               Value     Threshold  Converged?
 Maximum Force            0.079070     0.000450     NO 
 RMS     Force            0.027619     0.000300     NO 
 Maximum Displacement     0.072877     0.001800     NO 
 RMS     Displacement     0.020868     0.001200     NO 
 Predicted change in Energy=-7.259594D-02
 GradGradGradGradGradGradGradGradGradGradGradGradGradGradGradGradGradGrad

 Leave Link  103 at Sat Jun 22 18:02:38 2024, MaxMem=  2684354560 cpu:               9.0 elap:               0.6
 (Enter /storage/apps/GAUSSIAN/G16_RevA03/g16/l9999.exe)

 Test job not archived.
 1\1\GINC-T114\Force\RM062X\def2TZVP\C24H30N9O6(1+)\LV87696\22-Jun-2024
 \0\\#P M062X/Def2TZVP scf=(direct,conver=8) EmpiricalDispersion=GD3 No
 Symm force Charge Prop=(Field,Read)\\Gaussian run using SANDER externa
 l interface, route from template gau_job.tpl\\1,1\C,-4.2002433673,0.42
 35463095,6.7880916009\H,-4.0471770025,0.4829382684,7.7978061308\O,-3.0
 002895117,-0.1698959036,6.1808685014\C,-4.3101489858,1.8106172171,6.15
 48062156\H,-5.2685776558,2.1773149914,6.1299596178\O,-3.4561559183,2.7
 731325664,6.8163213192\H,-3.6391555698,2.8604842499,7.7760442721\C,-3.
 691455511,1.6095020791,4.7567324499\H,-4.3508598574,1.1894096703,4.093
 6857891\O,-3.2078089989,2.8323110327,4.2167219717\H,-3.0163612113,3.41
 41972277,4.9777664036\C,-2.5219472482,0.6410783018,5.0931155685\H,-1.6
 919872349,1.169371738,5.3885157202\N,-2.0910784143,-0.294050242,4.0205
 320304\C,-0.76268778,-0.3340023117,3.6936226749\H,-0.1915193505,0.4066
 452332,4.0954701119\C,-0.2582644814,-1.3120781169,2.8939310499\C,-1.16
 32387611,-2.253737347,2.3366774202\H,-0.794197568,-3.0010954526,1.7512
 580559\H,-0.9038090524,-0.8370219729,0.16022031\C,-2.5010818145,-2.145
 7546589,2.6099840487\H,-3.1655164232,-2.7943171396,2.1912464657\C,-2.9
 630523947,-1.1910927478,3.4661363476\H,-3.9437922463,-1.1137001636,3.7
 317129634\C,1.22258593,-1.505452827,2.646492224\O,1.6116884805,-2.4825
 142186,1.9815938117\N,2.1226865781,-0.6293903137,3.1899176742\H,1.8500
 410021,0.0974088873,3.8479793045\H,3.104474802,-0.9124391056,3.1948704
 342\N,2.1513274259,-3.0963606539,-1.9795625352\C,3.2819756956,-2.43972
 2323,-2.3136651764\N,4.412310989,-3.1290309475,-2.6376663406\H,4.42896
 33014,-4.1412996936,-2.5797576133\H,5.2685776558,-2.6175262368,-2.9014
 215513\N,3.3505875491,-1.0649439528,-2.3430207775\H,4.2818376749,-0.61
 72825801,-2.4512143115\C,2.2504338386,-0.2603716738,-2.0790019607\O,2.
 4140231527,1.0135145007,-2.0369077266\C,1.0296537465,-0.9457326523,-1.
 8229005375\N,-0.1785229721,-0.2000414248,-1.6507521521\H,0.0157707803,
 0.7745146555,-1.4095193667\C,-1.2081756582,-0.8412872594,-0.8221671096
 \C,-1.3848608854,-2.3008269924,-1.2970314457\H,-2.0238071556,-2.792119
 7319,-0.670174831\H,-1.8071269883,-2.3007438934,-2.2313667534\N,-0.099
 2818461,-2.9906915965,-1.3082542884\H,-0.0945437715,-4.0056272925,-1.3
 478909754\C,1.0347093529,-2.3242917026,-1.7247101431\C,-2.5959264799,-
 0.096254626,-0.9036678172\H,-2.9961742151,-0.0527100175,0.0344930214\H
 ,-3.2361973941,-0.6465210901,-1.4822301539\N,-2.5235736787,1.268364710
 2,-1.4178662707\H,-2.7682524749,2.0116425184,-0.7686255167\C,-2.252753
 6199,2.1553137021,-5.5030544947\C,-2.438097205,3.1767048843,-4.5412007
 459\H,-2.4859714375,4.1412996936,-4.8645016387\C,-2.5263112422,2.89470
 83631,-3.217039374\H,-2.6457172555,3.6459970189,-2.5389065296\C,-2.445
 4296832,1.5528911609,-2.7619327013\C,-2.27679685,0.5229498479,-3.72333
 69352\H,-2.2170246396,-0.4498702633,-3.4285394145\C,-2.1776613916,0.82
 24184944,-5.0411033445\H,-2.0566964483,0.0590769434,-5.7050438849\C,-2
 .1382635174,2.4940191708,-6.9141427077\O,-2.4057814298,3.6733782108,-7
 .3492735635\N,-1.7316504255,1.5327272652,-7.7978061308\H,-1.5568301549
 ,0.5801411877,-7.4966501943\H,-5.0583038457,-0.2164151042,6.5824666887
 \H,-1.6442846486,1.690070689,-8.8728457896\\Version=ES64L-G16RevA.03\H
 F=-1876.4338015\RMSD=5.819e-09\RMSF=2.762e-02\Dipole=-1.3074669,-3.417
 5873,9.7052709\Quadrupole=15.2343938,-50.0009907,34.7665969,-2.1719909
 ,-66.6895568,49.5389202\PG=C01 [X(C24H30N9O6)]\\@


 The theorems and results in mathematical physics are
 not theorems and results about Nature, but about our
 description of it.
                   --Gerard 't Hooft
 Job cpu time:       0 days  8 hours 38 minutes 18.8 seconds.
 Elapsed time:       0 days  0 hours 32 minutes 35.6 seconds.
 File lengths (MBytes):  RWF=   1039 Int=      0 D2E=      0 Chk=    113 Scr=      1
 Normal termination of Gaussian 16 at Sat Jun 22 18:02:39 2024.
