 Entering Gaussian System, Link 0=g16
 Initial command:
 /storage/apps/GAUSSIAN/G16_RevA03/g16/l1.exe "/scratch/tmp/2140843/Gau-69701.inp" -scrdir="/scratch/tmp/2140843/"
 Entering Link 1 = /storage/apps/GAUSSIAN/G16_RevA03/g16/l1.exe PID=     69703.
  
 Copyright (c) 1988,1990,1992,1993,1995,1998,2003,2009,2016,
            Gaussian, Inc.  All Rights Reserved.
  
 This is part of the Gaussian(R) 16 program.  It is based on
 the Gaussian(R) 09 system (copyright 2009, Gaussian, Inc.),
 the Gaussian(R) 03 system (copyright 2003, Gaussian, Inc.),
 the Gaussian(R) 98 system (copyright 1998, Gaussian, Inc.),
 the Gaussian(R) 94 system (copyright 1995, Gaussian, Inc.),
 the Gaussian 92(TM) system (copyright 1992, Gaussian, Inc.),
 the Gaussian 90(TM) system (copyright 1990, Gaussian, Inc.),
 the Gaussian 88(TM) system (copyright 1988, Gaussian, Inc.),
 the Gaussian 86(TM) system (copyright 1986, Carnegie Mellon
 University), and the Gaussian 82(TM) system (copyright 1983,
 Carnegie Mellon University). Gaussian is a federally registered
 trademark of Gaussian, Inc.
  
 This software contains proprietary and confidential information,
 including trade secrets, belonging to Gaussian, Inc.
  
 This software is provided under written license and may be
 used, copied, transmitted, or stored only in accord with that
 written license.
  
 The following legend is applicable only to US Government
 contracts under FAR:
  
                    RESTRICTED RIGHTS LEGEND
  
 Use, reproduction and disclosure by the US Government is
 subject to restrictions as set forth in subparagraphs (a)
 and (c) of the Commercial Computer Software - Restricted
 Rights clause in FAR 52.227-19.
  
 Gaussian, Inc.
 340 Quinnipiac St., Bldg. 40, Wallingford CT 06492
  
  
 ---------------------------------------------------------------
 Warning -- This program may not be used in any manner that
 competes with the business of Gaussian, Inc. or will provide
 assistance to any competitor of Gaussian, Inc.  The licensee
 of this program is prohibited from giving any competitor of
 Gaussian, Inc. access to this program.  By using this program,
 the user acknowledges that Gaussian, Inc. is engaged in the
 business of creating and licensing software in the field of
 computational chemistry and represents and warrants to the
 licensee that it is not a competitor of Gaussian, Inc. and that
 it will not use this program in any manner prohibited above.
 ---------------------------------------------------------------
  

 Cite this work as:
 Gaussian 16, Revision A.03,
 M. J. Frisch, G. W. Trucks, H. B. Schlegel, G. E. Scuseria, 
 M. A. Robb, J. R. Cheeseman, G. Scalmani, V. Barone, 
 G. A. Petersson, H. Nakatsuji, X. Li, M. Caricato, A. V. Marenich, 
 J. Bloino, B. G. Janesko, R. Gomperts, B. Mennucci, H. P. Hratchian, 
 J. V. Ortiz, A. F. Izmaylov, J. L. Sonnenberg, D. Williams-Young, 
 F. Ding, F. Lipparini, F. Egidi, J. Goings, B. Peng, A. Petrone, 
 T. Henderson, D. Ranasinghe, V. G. Zakrzewski, J. Gao, N. Rega, 
 G. Zheng, W. Liang, M. Hada, M. Ehara, K. Toyota, R. Fukuda, 
 J. Hasegawa, M. Ishida, T. Nakajima, Y. Honda, O. Kitao, H. Nakai, 
 T. Vreven, K. Throssell, J. A. Montgomery, Jr., J. E. Peralta, 
 F. Ogliaro, M. J. Bearpark, J. J. Heyd, E. N. Brothers, K. N. Kudin, 
 V. N. Staroverov, T. A. Keith, R. Kobayashi, J. Normand, 
 K. Raghavachari, A. P. Rendell, J. C. Burant, S. S. Iyengar, 
 J. Tomasi, M. Cossi, J. M. Millam, M. Klene, C. Adamo, R. Cammi, 
 J. W. Ochterski, R. L. Martin, K. Morokuma, O. Farkas, 
 J. B. Foresman, and D. J. Fox, Gaussian, Inc., Wallingford CT, 2016.
 
 ******************************************
 Gaussian 16:  ES64L-G16RevA.03 25-Dec-2016
                22-Jun-2024 
 ******************************************
 %chk=gau_job.chk
 %NProcShared=16
 Will use up to   16 processors via shared memory.
 %mem=20GB
 ----------------------------------------------------------------------
 #P M062X/Def2TZVP scf=(direct,conver=8) EmpiricalDispersion=GD3 NoSymm
  force Charge Prop=(Field,Read)
 ----------------------------------------------------------------------
 1/10=7,18=10,28=-2,30=1,38=1,125=101/1,3;
 2/12=2,15=1,17=6,18=5,29=2,40=1/2;
 3/5=44,7=101,11=2,25=1,30=1,71=1,74=-55,124=31/1,2,3;
 4//1;
 5/5=2,6=8,38=5/2;
 6/7=2,8=2,9=2,10=2,14=2,15=1,28=1/1,2;
 7/7=1,16=-2,29=1,30=1/1,2,3,16;
 1/10=7,18=10,28=-2,30=1/3;
 99/12=1/99;
 Leave Link    1 at Sat Jun 22 17:31:09 2024, MaxMem=  2684354560 cpu:               0.9 elap:               0.1
 (Enter /storage/apps/GAUSSIAN/G16_RevA03/g16/l101.exe)
 ----------------------------------------------------------------------
 Gaussian run using SANDER external interface, route from template gau_
 job.tpl
 ----------------------------------------------------------------------
 Symbolic Z-matrix:
 Charge =  1 Multiplicity = 1
 C                    -4.20449   0.42674   6.7938 
 H                    -4.05601   0.4876    7.80413 
 O                    -3.0008   -0.16574   6.19244 
 C                    -4.31306   1.81239   6.15747 
 H                    -5.27128   2.17954   6.13058 
 O                    -3.45941   2.77595   6.81787 
 H                    -3.64007   2.86209   7.77823 
 C                    -3.69241   1.6078    4.76065 
 H                    -4.3506    1.18581   4.09759 
 O                    -3.2084    2.82931   4.21821 
 H                    -3.01718   3.4128    4.97807 
 C                    -2.52275   0.6408    5.10099 
 H                    -1.69285   1.17027   5.39427 
 N                    -2.09176  -0.2987    4.03198 
 C                    -0.76447  -0.33762   3.70056 
 H                    -0.1936    0.40746   4.09454 
 C                    -0.25985  -1.32222   2.90862 
 C                    -1.16278  -2.27279   2.36598 
 H                    -0.79378  -3.02383   1.78523 
 H                    -0.90464  -0.84171   0.15059 
 C                    -2.50058  -2.16656   2.64218 
 H                    -3.1642   -2.82236   2.23321 
 C                    -2.96301  -1.20334   3.4883 
 H                    -3.94345  -1.12587   3.75499 
 C                     1.22055  -1.51646   2.65922 
 O                     1.60918  -2.49934   2.00265 
 N                     2.12121  -0.63483   3.19264 
 H                     1.84995   0.09251   3.85086 
 H                     3.10357  -0.91643   3.19477 
 N                     2.15121  -3.09687  -1.98643 
 C                     3.28298  -2.44112  -2.31847 
 N                     4.41481  -3.13155  -2.6345 
 H                     4.42933  -4.1438   -2.57726 
 H                     5.27128  -2.62146  -2.90021 
 N                     3.35164  -1.0664   -2.35204 
 H                     4.28365  -0.61939  -2.45666 
 C                     2.25088  -0.2607   -2.09205 
 O                     2.41534   1.01326  -2.05374 
 C                     1.02946  -0.94485  -1.83469 
 N                    -0.17983  -0.20089  -1.66329 
 H                     0.00956   0.77707  -1.43391 
 C                    -1.20741  -0.83877  -0.83232 
 C                    -1.38671  -2.30096  -1.30509 
 H                    -2.02228  -2.79295  -0.67501 
 H                    -1.81392  -2.30107  -2.23709 
 N                    -0.10068  -2.98958  -1.32133 
 H                    -0.09293  -4.00482  -1.34596 
 C                     1.03416  -2.32402  -1.73515 
 C                    -2.59445  -0.09307  -0.91055 
 H                    -2.99449  -0.0487    0.02781 
 H                    -3.23601  -0.64255  -1.48832 
 N                    -2.52211   1.27261  -1.42476 
 H                    -2.76988   2.01521  -0.77549 
 C                    -2.25486   2.15745  -5.5109 
 C                    -2.43989   3.1795   -4.55003 
 H                    -2.48596   4.1438   -4.87439 
 C                    -2.52897   2.89876  -3.22565 
 H                    -2.64805   3.65127  -2.54882 
 C                    -2.44818   1.55717  -2.7694 
 C                    -2.28212   0.52645  -3.73043 
 H                    -2.22457  -0.44637  -3.43525 
 C                    -2.18252   0.8249   -5.04832 
 H                    -2.06267   0.06121  -5.71202 
 C                    -2.13852   2.49467  -6.92205 
 O                    -2.40509   3.67371  -7.35852 
 N                    -1.73153   1.53223  -7.80413 
 H                    -1.55681   0.58006  -7.50168 
 H                    -5.06097  -0.21442   6.58533 
 H                    -1.64345   1.68817  -8.87932 
 
 ITRead=  0  0  0  0  0  0  0  0  0  0  0  0  0  0  0  0  0  0  0  0
 ITRead=  0  0  0  0  0  0  0  0  0  0  0  0  0  0  0  0  0  0  0  0
 ITRead=  0  0  0  0  0  0  0  0  0  0  0  0  0  0  0  0  0  0  0  0
 ITRead=  0  0  0  0  0  0  0  0  0
 MicOpt= -1 -1 -1 -1 -1 -1 -1 -1 -1 -1 -1 -1 -1 -1 -1 -1 -1 -1 -1 -1
 MicOpt= -1 -1 -1 -1 -1 -1 -1 -1 -1 -1 -1 -1 -1 -1 -1 -1 -1 -1 -1 -1
 MicOpt= -1 -1 -1 -1 -1 -1 -1 -1 -1 -1 -1 -1 -1 -1 -1 -1 -1 -1 -1 -1
 MicOpt= -1 -1 -1 -1 -1 -1 -1 -1 -1
 NAtoms=     69 NQM=       69 NQMF=       0 NMMI=      0 NMMIF=      0
                NMic=       0 NMicF=      0.
                    Isotopes and Nuclear Properties:
 (Nuclear quadrupole moments (NQMom) in fm**2, nuclear magnetic moments (NMagM)
  in nuclear magnetons)

  Atom         1           2           3           4           5           6           7           8           9          10
 IAtWgt=          12           1          16          12           1          16           1          12           1          16
 AtmWgt=  12.0000000   1.0078250  15.9949146  12.0000000   1.0078250  15.9949146   1.0078250  12.0000000   1.0078250  15.9949146
 NucSpn=           0           1           0           0           1           0           1           0           1           0
 AtZEff=  -0.0000000  -0.0000000  -0.0000000  -0.0000000  -0.0000000  -0.0000000  -0.0000000  -0.0000000  -0.0000000  -0.0000000
 NQMom=    0.0000000   0.0000000   0.0000000   0.0000000   0.0000000   0.0000000   0.0000000   0.0000000   0.0000000   0.0000000
 NMagM=    0.0000000   2.7928460   0.0000000   0.0000000   2.7928460   0.0000000   2.7928460   0.0000000   2.7928460   0.0000000
 AtZNuc=   6.0000000   1.0000000   8.0000000   6.0000000   1.0000000   8.0000000   1.0000000   6.0000000   1.0000000   8.0000000

  Atom        11          12          13          14          15          16          17          18          19          20
 IAtWgt=           1          12           1          14          12           1          12          12           1           1
 AtmWgt=   1.0078250  12.0000000   1.0078250  14.0030740  12.0000000   1.0078250  12.0000000  12.0000000   1.0078250   1.0078250
 NucSpn=           1           0           1           2           0           1           0           0           1           1
 AtZEff=  -0.0000000  -0.0000000  -0.0000000  -0.0000000  -0.0000000  -0.0000000  -0.0000000  -0.0000000  -0.0000000  -0.0000000
 NQMom=    0.0000000   0.0000000   0.0000000   2.0440000   0.0000000   0.0000000   0.0000000   0.0000000   0.0000000   0.0000000
 NMagM=    2.7928460   0.0000000   2.7928460   0.4037610   0.0000000   2.7928460   0.0000000   0.0000000   2.7928460   2.7928460
 AtZNuc=   1.0000000   6.0000000   1.0000000   7.0000000   6.0000000   1.0000000   6.0000000   6.0000000   1.0000000   1.0000000

  Atom        21          22          23          24          25          26          27          28          29          30
 IAtWgt=          12           1          12           1          12          16          14           1           1          14
 AtmWgt=  12.0000000   1.0078250  12.0000000   1.0078250  12.0000000  15.9949146  14.0030740   1.0078250   1.0078250  14.0030740
 NucSpn=           0           1           0           1           0           0           2           1           1           2
 AtZEff=  -0.0000000  -0.0000000  -0.0000000  -0.0000000  -0.0000000  -0.0000000  -0.0000000  -0.0000000  -0.0000000  -0.0000000
 NQMom=    0.0000000   0.0000000   0.0000000   0.0000000   0.0000000   0.0000000   2.0440000   0.0000000   0.0000000   2.0440000
 NMagM=    0.0000000   2.7928460   0.0000000   2.7928460   0.0000000   0.0000000   0.4037610   2.7928460   2.7928460   0.4037610
 AtZNuc=   6.0000000   1.0000000   6.0000000   1.0000000   6.0000000   8.0000000   7.0000000   1.0000000   1.0000000   7.0000000

  Atom        31          32          33          34          35          36          37          38          39          40
 IAtWgt=          12          14           1           1          14           1          12          16          12          14
 AtmWgt=  12.0000000  14.0030740   1.0078250   1.0078250  14.0030740   1.0078250  12.0000000  15.9949146  12.0000000  14.0030740
 NucSpn=           0           2           1           1           2           1           0           0           0           2
 AtZEff=  -0.0000000  -0.0000000  -0.0000000  -0.0000000  -0.0000000  -0.0000000  -0.0000000  -0.0000000  -0.0000000  -0.0000000
 NQMom=    0.0000000   2.0440000   0.0000000   0.0000000   2.0440000   0.0000000   0.0000000   0.0000000   0.0000000   2.0440000
 NMagM=    0.0000000   0.4037610   2.7928460   2.7928460   0.4037610   2.7928460   0.0000000   0.0000000   0.0000000   0.4037610
 AtZNuc=   6.0000000   7.0000000   1.0000000   1.0000000   7.0000000   1.0000000   6.0000000   8.0000000   6.0000000   7.0000000

  Atom        41          42          43          44          45          46          47          48          49          50
 IAtWgt=           1          12          12           1           1          14           1          12          12           1
 AtmWgt=   1.0078250  12.0000000  12.0000000   1.0078250   1.0078250  14.0030740   1.0078250  12.0000000  12.0000000   1.0078250
 NucSpn=           1           0           0           1           1           2           1           0           0           1
 AtZEff=  -0.0000000  -0.0000000  -0.0000000  -0.0000000  -0.0000000  -0.0000000  -0.0000000  -0.0000000  -0.0000000  -0.0000000
 NQMom=    0.0000000   0.0000000   0.0000000   0.0000000   0.0000000   2.0440000   0.0000000   0.0000000   0.0000000   0.0000000
 NMagM=    2.7928460   0.0000000   0.0000000   2.7928460   2.7928460   0.4037610   2.7928460   0.0000000   0.0000000   2.7928460
 AtZNuc=   1.0000000   6.0000000   6.0000000   1.0000000   1.0000000   7.0000000   1.0000000   6.0000000   6.0000000   1.0000000

  Atom        51          52          53          54          55          56          57          58          59          60
 IAtWgt=           1          14           1          12          12           1          12           1          12          12
 AtmWgt=   1.0078250  14.0030740   1.0078250  12.0000000  12.0000000   1.0078250  12.0000000   1.0078250  12.0000000  12.0000000
 NucSpn=           1           2           1           0           0           1           0           1           0           0
 AtZEff=  -0.0000000  -0.0000000  -0.0000000  -0.0000000  -0.0000000  -0.0000000  -0.0000000  -0.0000000  -0.0000000  -0.0000000
 NQMom=    0.0000000   2.0440000   0.0000000   0.0000000   0.0000000   0.0000000   0.0000000   0.0000000   0.0000000   0.0000000
 NMagM=    2.7928460   0.4037610   2.7928460   0.0000000   0.0000000   2.7928460   0.0000000   2.7928460   0.0000000   0.0000000
 AtZNuc=   1.0000000   7.0000000   1.0000000   6.0000000   6.0000000   1.0000000   6.0000000   1.0000000   6.0000000   6.0000000

  Atom        61          62          63          64          65          66          67          68          69
 IAtWgt=           1          12           1          12          16          14           1           1           1
 AtmWgt=   1.0078250  12.0000000   1.0078250  12.0000000  15.9949146  14.0030740   1.0078250   1.0078250   1.0078250
 NucSpn=           1           0           1           0           0           2           1           1           1
 AtZEff=  -0.0000000  -0.0000000  -0.0000000  -0.0000000  -0.0000000  -0.0000000  -0.0000000  -0.0000000  -0.0000000
 NQMom=    0.0000000   0.0000000   0.0000000   0.0000000   0.0000000   2.0440000   0.0000000   0.0000000   0.0000000
 NMagM=    2.7928460   0.0000000   2.7928460   0.0000000   0.0000000   0.4037610   2.7928460   2.7928460   2.7928460
 AtZNuc=   1.0000000   6.0000000   1.0000000   6.0000000   8.0000000   7.0000000   1.0000000   1.0000000   1.0000000
 Background charge distribution read from input stream:
 Leave Link  101 at Sat Jun 22 17:31:09 2024, MaxMem=  2684354560 cpu:               2.3 elap:               0.2
 (Enter /storage/apps/GAUSSIAN/G16_RevA03/g16/l103.exe)

 GradGradGradGradGradGradGradGradGradGradGradGradGradGradGradGradGradGrad
 Berny optimization.
 Initialization pass.
 Trust Radius=3.00D-01 FncErr=1.00D-07 GrdErr=1.00D-07 EigMax=2.50D+02 EigMin=1.00D-04
 Number of steps in this run=      2 maximum allowed number of steps=      2.
 GradGradGradGradGradGradGradGradGradGradGradGradGradGradGradGradGradGrad

 Leave Link  103 at Sat Jun 22 17:31:09 2024, MaxMem=  2684354560 cpu:               0.4 elap:               0.1
 (Enter /storage/apps/GAUSSIAN/G16_RevA03/g16/l202.exe)
 Symmetry turned off by external request.
 Stoichiometry    C24H30N9O6(1+)
 Framework group  C1[X(C24H30N9O6)]
 Deg. of freedom   201
 Full point group                 C1      NOp   1
                          Input orientation:                          
 ---------------------------------------------------------------------
 Center     Atomic      Atomic             Coordinates (Angstroms)
 Number     Number       Type             X           Y           Z
 ---------------------------------------------------------------------
      1          6           0       -4.204487    0.426736    6.793797
      2          1           0       -4.056005    0.487598    7.804133
      3          8           0       -3.000803   -0.165743    6.192436
      4          6           0       -4.313063    1.812385    6.157474
      5          1           0       -5.271276    2.179543    6.130584
      6          8           0       -3.459405    2.775947    6.817865
      7          1           0       -3.640068    2.862088    7.778229
      8          6           0       -3.692412    1.607797    4.760648
      9          1           0       -4.350597    1.185812    4.097589
     10          8           0       -3.208397    2.829313    4.218208
     11          1           0       -3.017181    3.412798    4.978073
     12          6           0       -2.522750    0.640798    5.100987
     13          1           0       -1.692850    1.170274    5.394266
     14          7           0       -2.091759   -0.298700    4.031983
     15          6           0       -0.764467   -0.337624    3.700563
     16          1           0       -0.193598    0.407462    4.094542
     17          6           0       -0.259854   -1.322224    2.908617
     18          6           0       -1.162777   -2.272788    2.365982
     19          1           0       -0.793780   -3.023832    1.785227
     20          1           0       -0.904637   -0.841711    0.150586
     21          6           0       -2.500584   -2.166564    2.642175
     22          1           0       -3.164202   -2.822358    2.233214
     23          6           0       -2.963014   -1.203336    3.488297
     24          1           0       -3.943454   -1.125874    3.754991
     25          6           0        1.220548   -1.516461    2.659223
     26          8           0        1.609179   -2.499337    2.002651
     27          7           0        2.121209   -0.634828    3.192640
     28          1           0        1.849945    0.092510    3.850859
     29          1           0        3.103572   -0.916434    3.194766
     30          7           0        2.151208   -3.096869   -1.986426
     31          6           0        3.282980   -2.441121   -2.318471
     32          7           0        4.414813   -3.131545   -2.634495
     33          1           0        4.429334   -4.143800   -2.577259
     34          1           0        5.271276   -2.621455   -2.900212
     35          7           0        3.351644   -1.066396   -2.352040
     36          1           0        4.283655   -0.619388   -2.456664
     37          6           0        2.250880   -0.260698   -2.092048
     38          8           0        2.415340    1.013264   -2.053744
     39          6           0        1.029464   -0.944847   -1.834687
     40          7           0       -0.179832   -0.200891   -1.663286
     41          1           0        0.009558    0.777069   -1.433913
     42          6           0       -1.207415   -0.838767   -0.832322
     43          6           0       -1.386710   -2.300963   -1.305090
     44          1           0       -2.022276   -2.792945   -0.675015
     45          1           0       -1.813922   -2.301068   -2.237089
     46          7           0       -0.100685   -2.989579   -1.321334
     47          1           0       -0.092929   -4.004818   -1.345962
     48          6           0        1.034159   -2.324021   -1.735151
     49          6           0       -2.594450   -0.093072   -0.910551
     50          1           0       -2.994495   -0.048698    0.027814
     51          1           0       -3.236015   -0.642554   -1.488320
     52          7           0       -2.522108    1.272606   -1.424757
     53          1           0       -2.769878    2.015205   -0.775492
     54          6           0       -2.254863    2.157448   -5.510901
     55          6           0       -2.439889    3.179504   -4.550033
     56          1           0       -2.485957    4.143800   -4.874388
     57          6           0       -2.528972    2.898762   -3.225648
     58          1           0       -2.648046    3.651269   -2.548822
     59          6           0       -2.448182    1.557174   -2.769404
     60          6           0       -2.282123    0.526450   -3.730426
     61          1           0       -2.224566   -0.446374   -3.435251
     62          6           0       -2.182519    0.824905   -5.048323
     63          1           0       -2.062665    0.061211   -5.712023
     64          6           0       -2.138525    2.494669   -6.922055
     65          8           0       -2.405092    3.673710   -7.358524
     66          7           0       -1.731531    1.532233   -7.804133
     67          1           0       -1.556806    0.580065   -7.501677
     68          1           0       -5.060966   -0.214422    6.585325
     69          1           0       -1.643454    1.688173   -8.879319
 ---------------------------------------------------------------------
 Rotational constants (GHZ):           0.1071756           0.0496686           0.0376612
 Leave Link  202 at Sat Jun 22 17:31:09 2024, MaxMem=  2684354560 cpu:               0.3 elap:               0.1
 (Enter /storage/apps/GAUSSIAN/G16_RevA03/g16/l301.exe)
 Standard basis: def2TZVP (5D, 7F)
 Ernie: Thresh=  0.10000D-02 Tol=  0.10000D-05 Strict=F.
  1389 basis functions,  2229 primitive gaussians,  1584 cartesian basis functions
   142 alpha electrons      142 beta electrons
       nuclear repulsion energy      4374.0988389612 Hartrees.
 IExCor= 4336 DFT=T Ex+Corr=M062X ExCW=0 ScaHFX=  0.540000
 ScaDFX=  1.000000  1.000000  1.000000  1.000000 ScalE2=  1.000000  1.000000
 IRadAn=      5 IRanWt=     -1 IRanGd=            0 ICorTp=0 IEmpDi=131
 NAtoms=   69 NActive=   69 NUniq=   69 SFac= 1.00D+00 NAtFMM=   60 NAOKFM=T Big=T
 Integral buffers will be    131072 words long.
 Raffenetti 2 integral format.
 Two-electron integral symmetry is turned off.
 R6Disp:  Grimme-D3 Dispersion energy=       -0.0064220336 Hartrees.
 Nuclear repulsion after empirical dispersion term =     4374.0924169275 Hartrees.
 Leave Link  301 at Sat Jun 22 17:31:09 2024, MaxMem=  2684354560 cpu:               1.3 elap:               0.1
 (Enter /storage/apps/GAUSSIAN/G16_RevA03/g16/l302.exe)
 NPDir=0 NMtPBC=     1 NCelOv=     1 NCel=       1 NClECP=     1 NCelD=      1
         NCelK=      1 NCelE2=     1 NClLst=     1 CellRange=     0.0.
 One-electron integrals computed using PRISM.
   1 Symmetry operations used in ECPInt.
 ECPInt:  NShTT=  150975 NPrTT=  462228 LenC2=  105867 LenP2D=  213547.
 LDataN:  DoStor=T MaxTD1= 6 Len=  172
 NBasis=  1389 RedAO= T EigKep=  6.10D-06  NBF=  1389
 NBsUse=  1389 1.00D-06 EigRej= -1.00D+00 NBFU=  1389
 Precomputing XC quadrature grid using
 IXCGrd= 4 IRadAn=           5 IRanWt=          -1 IRanGd=           0 AccXCQ= 0.00D+00.
 Generated NRdTot=       0 NPtTot=           0 NUsed=           0 NTot=          32
 NSgBfM=  1461  1455  1456  1460  1461 MxSgAt=    69 MxSgA2=    69.
 Leave Link  302 at Sat Jun 22 17:31:12 2024, MaxMem=  2684354560 cpu:              45.7 elap:               2.9
 (Enter /storage/apps/GAUSSIAN/G16_RevA03/g16/l303.exe)
 DipDrv:  MaxL=1.
 Leave Link  303 at Sat Jun 22 17:31:13 2024, MaxMem=  2684354560 cpu:               4.3 elap:               0.3
 (Enter /storage/apps/GAUSSIAN/G16_RevA03/g16/l401.exe)
 ExpMin= 9.52D-02 ExpMax= 2.70D+04 ExpMxC= 9.22D+02 IAcc=3 IRadAn=         5 AccDes= 0.00D+00
 Harris functional with IExCor= 1009 and IRadAn=       5 diagonalized for initial guess.
 HarFok:  IExCor= 1009 AccDes= 0.00D+00 IRadAn=         5 IDoV= 1 UseB2=F ITyADJ=14
 ICtDFT=  3500011 ScaDFX=  1.000000  1.000000  1.000000  1.000000
 FoFCou: FMM=F IPFlag=           0 FMFlag=      100000 FMFlg1=        2001
         NFxFlg=           0 DoJE=T BraDBF=F KetDBF=T FulRan=T
         wScrn=  0.000000 ICntrl=       500 IOpCl=  0 I1Cent=   200000004 NGrid=           0
         NMat0=    1 NMatS0=      1 NMatT0=    0 NMatD0=    1 NMtDS0=    0 NMtDT0=    0
 Symmetry not used in FoFCou.
 Harris En= -1875.52145361076    
 JPrj=0 DoOrth=F DoCkMO=F.
 Leave Link  401 at Sat Jun 22 17:31:19 2024, MaxMem=  2684354560 cpu:             109.2 elap:               6.9
 (Enter /storage/apps/GAUSSIAN/G16_RevA03/g16/l502.exe)
 Two-electron integral symmetry not used.
 Closed shell SCF:
 Using DIIS extrapolation, IDIIS=  1040.
 NGot=  2684354560 LenX=  2679300873 LenY=  2676790233
 Requested convergence on RMS density matrix=1.00D-08 within 128 cycles.
 Requested convergence on MAX density matrix=1.00D-06.
 Requested convergence on             energy=1.00D-06.
 No special actions if energy rises.
 Fock matrices will be formed incrementally for  20 cycles.
 Integral accuracy reduced to 1.0D-05 until final iterations.

 Cycle   1  Pass 0  IDiag  1:
 FoFJK:  IHMeth= 1 ICntrl=       0 DoSepK=F KAlg= 0 I1Cent=           0 FoldK=F
 IRaf= 680000000 NMat=       1 IRICut=       1 DoRegI=T DoRafI=F ISym2E= 0 IDoP0=0 IntGTp=1.
 FoFCou: FMM=T IPFlag=           0 FMFlag=      100000 FMFlg1=        2001
         NFxFlg=           0 DoJE=F BraDBF=F KetDBF=F FulRan=T
         wScrn=  0.000000 ICntrl=         0 IOpCl=  0 I1Cent=           0 NGrid=           0
         NMat0=    1 NMatS0=      1 NMatT0=    0 NMatD0=    1 NMtDS0=    0 NMtDT0=    0
 Symmetry not used in FoFCou.
 FMM levels:  10  Number of levels for PrismC:   9
 E= -1875.45508031914    
 DIIS: error= 1.58D-02 at cycle   1 NSaved=   1.
 NSaved= 1 IEnMin= 1 EnMin= -1875.45508031914     IErMin= 1 ErrMin= 1.58D-02
 ErrMax= 1.58D-02  0.00D+00 EMaxC= 1.00D-01 BMatC= 1.38D+00 BMatP= 1.38D+00
 IDIUse=3 WtCom= 8.42D-01 WtEn= 1.58D-01
 Coeff-Com:  0.100D+01
 Coeff-En:   0.100D+01
 Coeff:      0.100D+01
 Gap=    -0.015 Goal=   None    Shift=    0.000
 GapD=   -0.015 DampG=0.250 DampE=0.500 DampFc=0.2500 IDamp=-1.
 Damping current iteration by 2.50D-01
 RMSDP=4.23D+01 MaxDP=9.32D+03              OVMax= 9.74D-01

 Problem detected with inexpensive integrals.
 Switching to full accuracy and repeating last cycle.
 Cycle   2  Pass 1  IDiag  1:
 E= -1875.45513752894     Delta-E=       -0.000057209798 Rises=F Damp=F
 DIIS: error= 1.58D-02 at cycle   1 NSaved=   1.
 NSaved= 1 IEnMin= 1 EnMin= -1875.45513752894     IErMin= 1 ErrMin= 1.58D-02
 ErrMax= 1.58D-02  0.00D+00 EMaxC= 1.00D-01 BMatC= 1.38D+00 BMatP= 1.38D+00
 IDIUse=3 WtCom= 8.42D-01 WtEn= 1.58D-01
 Coeff-Com:  0.100D+01
 Coeff-En:   0.100D+01
 Coeff:      0.100D+01
 Gap=    -0.015 Goal=   None    Shift=    0.000
 GapD=   -0.015 DampG=0.250 DampE=0.500 DampFc=0.2500 IDamp=-1.
 Damping current iteration by 2.50D-01
 RMSDP=3.87D-03 MaxDP=1.14D+00 DE=-5.72D-05 OVMax= 7.84D-01

 Cycle   3  Pass 1  IDiag  1:
 RMSU=  9.66D-04    CP:  1.01D+00
 E= -1875.68321330108     Delta-E=       -0.228075772140 Rises=F Damp=T
 DIIS: error= 8.68D-03 at cycle   2 NSaved=   2.
 NSaved= 2 IEnMin= 2 EnMin= -1875.68321330108     IErMin= 2 ErrMin= 8.68D-03
 ErrMax= 8.68D-03  0.00D+00 EMaxC= 1.00D-01 BMatC= 4.55D-01 BMatP= 1.38D+00
 IDIUse=3 WtCom= 9.13D-01 WtEn= 8.68D-02
 Coeff-Com: -0.618D+00 0.162D+01
 Coeff-En:   0.871D-01 0.913D+00
 Coeff:     -0.557D+00 0.156D+01
 Gap=     0.248 Goal=   None    Shift=    0.000
 GapD=    0.248 DampG=1.000 DampE=1.000 DampFc=1.0000 IDamp=-1.
 RMSDP=1.14D-03 MaxDP=1.39D-01 DE=-2.28D-01 OVMax= 6.66D-01

 Cycle   4  Pass 1  IDiag  1:
 RMSU=  1.14D-03    CP:  9.99D-01  1.07D+00
 E= -1875.87529409754     Delta-E=       -0.192080796461 Rises=F Damp=F
 DIIS: error= 1.64D-02 at cycle   3 NSaved=   3.
 NSaved= 3 IEnMin= 3 EnMin= -1875.87529409754     IErMin= 2 ErrMin= 8.68D-03
 ErrMax= 1.64D-02  0.00D+00 EMaxC= 1.00D-01 BMatC= 5.76D-01 BMatP= 4.55D-01
 IDIUse=2 WtCom= 0.00D+00 WtEn= 1.00D+00
 Coeff-En:   0.000D+00 0.363D+00 0.637D+00
 Coeff:      0.000D+00 0.363D+00 0.637D+00
 Gap=     0.310 Goal=   None    Shift=    0.000
 RMSDP=1.71D-03 MaxDP=2.45D-01 DE=-1.92D-01 OVMax= 9.91D-01

 Cycle   5  Pass 1  IDiag  1:
 RMSU=  1.41D-03    CP:  9.95D-01  1.74D+00  3.65D-01
 E= -1870.06423776493     Delta-E=        5.811056332614 Rises=F Damp=F
 DIIS: error= 5.55D-02 at cycle   4 NSaved=   4.
 NSaved= 4 IEnMin= 3 EnMin= -1875.87529409754     IErMin= 2 ErrMin= 8.68D-03
 ErrMax= 5.55D-02  0.00D+00 EMaxC= 1.00D-01 BMatC= 2.50D+00 BMatP= 4.55D-01
 IDIUse=2 WtCom= 0.00D+00 WtEn= 1.00D+00
 Coeff-En:   0.000D+00 0.000D+00 0.845D+00 0.155D+00
 Coeff:      0.000D+00 0.000D+00 0.845D+00 0.155D+00
 Gap=    -0.130 Goal=   None    Shift=    0.000
 RMSDP=1.83D-03 MaxDP=5.57D-01 DE= 5.81D+00 OVMax= 9.99D-01

 Cycle   6  Pass 1  IDiag  1:
 RMSU=  1.18D-03    CP:  1.01D+00  1.17D+00  4.94D-01  9.76D-02
 E= -1876.30898001984     Delta-E=       -6.244742254914 Rises=F Damp=F
 DIIS: error= 6.96D-03 at cycle   5 NSaved=   5.
 NSaved= 5 IEnMin= 5 EnMin= -1876.30898001984     IErMin= 5 ErrMin= 6.96D-03
 ErrMax= 6.96D-03  0.00D+00 EMaxC= 1.00D-01 BMatC= 1.59D-01 BMatP= 4.55D-01
 IDIUse=3 WtCom= 9.30D-01 WtEn= 6.96D-02
 Coeff-Com: -0.143D+00 0.292D+00 0.363D+00 0.419D-01 0.447D+00
 Coeff-En:   0.000D+00 0.000D+00 0.136D+00 0.000D+00 0.864D+00
 Coeff:     -0.133D+00 0.272D+00 0.347D+00 0.390D-01 0.476D+00
 Gap=     0.187 Goal=   None    Shift=    0.000
 RMSDP=7.84D-04 MaxDP=3.46D-01 DE=-6.24D+00 OVMax= 1.24D-01

 Cycle   7  Pass 1  IDiag  1:
 RMSU=  4.32D-04    CP:  1.00D+00  1.09D+00  6.33D-01  1.20D-01  4.64D-01
 E= -1876.39799899088     Delta-E=       -0.089018971035 Rises=F Damp=F
 DIIS: error= 3.87D-03 at cycle   6 NSaved=   6.
 NSaved= 6 IEnMin= 6 EnMin= -1876.39799899088     IErMin= 6 ErrMin= 3.87D-03
 ErrMax= 3.87D-03  0.00D+00 EMaxC= 1.00D-01 BMatC= 3.86D-02 BMatP= 1.59D-01
 IDIUse=3 WtCom= 9.61D-01 WtEn= 3.87D-02
 Coeff-Com: -0.130D+00 0.184D+00 0.176D-01-0.237D-02 0.243D+00 0.688D+00
 Coeff-En:   0.000D+00 0.000D+00 0.000D+00 0.000D+00 0.215D+00 0.785D+00
 Coeff:     -0.125D+00 0.177D+00 0.169D-01-0.228D-02 0.242D+00 0.692D+00
 Gap=     0.076 Goal=   None    Shift=    0.000
 RMSDP=2.63D-04 MaxDP=1.13D-01 DE=-8.90D-02 OVMax= 4.80D-02

 Cycle   8  Pass 1  IDiag  1:
 RMSU=  1.19D-04    CP:  1.01D+00  1.17D+00  5.55D-01  1.21D-01  6.36D-01
                    CP:  9.84D-01
 E= -1876.43167642283     Delta-E=       -0.033677431956 Rises=F Damp=F
 DIIS: error= 8.00D-04 at cycle   7 NSaved=   7.
 NSaved= 7 IEnMin= 7 EnMin= -1876.43167642283     IErMin= 7 ErrMin= 8.00D-04
 ErrMax= 8.00D-04  0.00D+00 EMaxC= 1.00D-01 BMatC= 1.38D-03 BMatP= 3.86D-02
 IDIUse=3 WtCom= 9.92D-01 WtEn= 8.00D-03
 Coeff-Com: -0.597D-01 0.835D-01-0.249D-01 0.393D-03 0.411D-01 0.277D+00
 Coeff-Com:  0.682D+00
 Coeff-En:   0.000D+00 0.000D+00 0.000D+00 0.000D+00 0.000D+00 0.000D+00
 Coeff-En:   0.100D+01
 Coeff:     -0.593D-01 0.828D-01-0.247D-01 0.390D-03 0.408D-01 0.275D+00
 Coeff:      0.685D+00
 Gap=     0.073 Goal=   None    Shift=    0.000
 RMSDP=5.03D-05 MaxDP=6.23D-03 DE=-3.37D-02 OVMax= 1.72D-02

 Cycle   9  Pass 1  IDiag  1:
 RMSU=  3.69D-05    CP:  1.01D+00  1.18D+00  5.46D-01  1.23D-01  6.27D-01
                    CP:  1.05D+00  1.03D+00
 E= -1876.43305502679     Delta-E=       -0.001378603960 Rises=F Damp=F
 DIIS: error= 5.05D-04 at cycle   8 NSaved=   8.
 NSaved= 8 IEnMin= 8 EnMin= -1876.43305502679     IErMin= 8 ErrMin= 5.05D-04
 ErrMax= 5.05D-04  0.00D+00 EMaxC= 1.00D-01 BMatC= 5.01D-04 BMatP= 1.38D-03
 IDIUse=3 WtCom= 9.95D-01 WtEn= 5.05D-03
 Coeff-Com: -0.209D-01 0.298D-01-0.290D-01-0.211D-03-0.263D-01 0.465D-01
 Coeff-Com:  0.369D+00 0.631D+00
 Coeff-En:   0.000D+00 0.000D+00 0.000D+00 0.000D+00 0.000D+00 0.000D+00
 Coeff-En:   0.000D+00 0.100D+01
 Coeff:     -0.208D-01 0.297D-01-0.289D-01-0.210D-03-0.262D-01 0.463D-01
 Coeff:      0.367D+00 0.633D+00
 Gap=     0.073 Goal=   None    Shift=    0.000
 RMSDP=4.26D-05 MaxDP=1.35D-02 DE=-1.38D-03 OVMax= 9.16D-03

 Cycle  10  Pass 1  IDiag  1:
 RMSU=  2.33D-05    CP:  1.01D+00  1.18D+00  5.35D-01  1.24D-01  6.40D-01
                    CP:  1.09D+00  1.22D+00  9.91D-01
 E= -1876.43361078642     Delta-E=       -0.000555759632 Rises=F Damp=F
 DIIS: error= 1.43D-04 at cycle   9 NSaved=   9.
 NSaved= 9 IEnMin= 9 EnMin= -1876.43361078642     IErMin= 9 ErrMin= 1.43D-04
 ErrMax= 1.43D-04  0.00D+00 EMaxC= 1.00D-01 BMatC= 3.95D-05 BMatP= 5.01D-04
 IDIUse=3 WtCom= 9.99D-01 WtEn= 1.43D-03
 Coeff-Com: -0.381D-02 0.653D-02-0.569D-02 0.222D-03-0.133D-01-0.192D-01
 Coeff-Com:  0.123D-01 0.211D+00 0.812D+00
 Coeff-En:   0.000D+00 0.000D+00 0.000D+00 0.000D+00 0.000D+00 0.000D+00
 Coeff-En:   0.000D+00 0.000D+00 0.100D+01
 Coeff:     -0.380D-02 0.652D-02-0.568D-02 0.222D-03-0.133D-01-0.192D-01
 Coeff:      0.122D-01 0.211D+00 0.812D+00
 Gap=     0.073 Goal=   None    Shift=    0.000
 RMSDP=1.63D-05 MaxDP=1.78D-03 DE=-5.56D-04 OVMax= 7.92D-03

 Cycle  11  Pass 1  IDiag  1:
 RMSU=  1.01D-05    CP:  1.01D+00  1.18D+00  5.31D-01  1.25D-01  6.37D-01
                    CP:  1.10D+00  1.26D+00  1.19D+00  1.17D+00
 E= -1876.43369142840     Delta-E=       -0.000080641979 Rises=F Damp=F
 DIIS: error= 5.87D-05 at cycle  10 NSaved=  10.
 NSaved=10 IEnMin=10 EnMin= -1876.43369142840     IErMin=10 ErrMin= 5.87D-05
 ErrMax= 5.87D-05  0.00D+00 EMaxC= 1.00D-01 BMatC= 1.26D-05 BMatP= 3.95D-05
 IDIUse=1 WtCom= 1.00D+00 WtEn= 0.00D+00
 Coeff-Com:  0.781D-03-0.522D-03 0.240D-02-0.176D-03-0.375D-03-0.128D-01
 Coeff-Com: -0.713D-01-0.620D-01 0.417D+00 0.727D+00
 Coeff:      0.781D-03-0.522D-03 0.240D-02-0.176D-03-0.375D-03-0.128D-01
 Coeff:     -0.713D-01-0.620D-01 0.417D+00 0.727D+00
 Gap=     0.072 Goal=   None    Shift=    0.000
 RMSDP=9.69D-06 MaxDP=1.16D-03 DE=-8.06D-05 OVMax= 5.75D-03

 Cycle  12  Pass 1  IDiag  1:
 RMSU=  4.62D-06    CP:  1.01D+00  1.18D+00  5.30D-01  1.25D-01  6.37D-01
                    CP:  1.11D+00  1.28D+00  1.27D+00  1.39D+00  1.26D+00
 E= -1876.43371335112     Delta-E=       -0.000021922718 Rises=F Damp=F
 DIIS: error= 3.20D-05 at cycle  11 NSaved=  11.
 NSaved=11 IEnMin=11 EnMin= -1876.43371335112     IErMin=11 ErrMin= 3.20D-05
 ErrMax= 3.20D-05  0.00D+00 EMaxC= 1.00D-01 BMatC= 2.28D-06 BMatP= 1.26D-05
 IDIUse=1 WtCom= 1.00D+00 WtEn= 0.00D+00
 Coeff-Com:  0.787D-03-0.973D-03 0.200D-02-0.121D-03 0.121D-02-0.138D-02
 Coeff-Com: -0.246D-01-0.448D-01 0.751D-01 0.282D+00 0.711D+00
 Coeff:      0.787D-03-0.973D-03 0.200D-02-0.121D-03 0.121D-02-0.138D-02
 Coeff:     -0.246D-01-0.448D-01 0.751D-01 0.282D+00 0.711D+00
 Gap=     0.073 Goal=   None    Shift=    0.000
 RMSDP=4.74D-06 MaxDP=1.27D-03 DE=-2.19D-05 OVMax= 2.72D-03

 Cycle  13  Pass 1  IDiag  1:
 RMSU=  1.88D-06    CP:  1.01D+00  1.18D+00  5.30D-01  1.25D-01  6.35D-01
                    CP:  1.11D+00  1.28D+00  1.30D+00  1.44D+00  1.54D+00
                    CP:  1.42D+00
 E= -1876.43371735857     Delta-E=       -0.000004007452 Rises=F Damp=F
 DIIS: error= 1.97D-05 at cycle  12 NSaved=  12.
 NSaved=12 IEnMin=12 EnMin= -1876.43371735857     IErMin=12 ErrMin= 1.97D-05
 ErrMax= 1.97D-05  0.00D+00 EMaxC= 1.00D-01 BMatC= 8.08D-07 BMatP= 2.28D-06
 IDIUse=1 WtCom= 1.00D+00 WtEn= 0.00D+00
 Coeff-Com:  0.453D-03-0.705D-03 0.465D-03-0.701D-04 0.349D-03 0.289D-02
 Coeff-Com:  0.748D-02-0.911D-03-0.612D-01-0.375D-01 0.248D+00 0.841D+00
 Coeff:      0.453D-03-0.705D-03 0.465D-03-0.701D-04 0.349D-03 0.289D-02
 Coeff:      0.748D-02-0.911D-03-0.612D-01-0.375D-01 0.248D+00 0.841D+00
 Gap=     0.073 Goal=   None    Shift=    0.000
 RMSDP=3.57D-06 MaxDP=8.85D-04 DE=-4.01D-06 OVMax= 2.44D-03

 Cycle  14  Pass 1  IDiag  1:
 RMSU=  1.11D-06    CP:  1.01D+00  1.18D+00  5.30D-01  1.25D-01  6.34D-01
                    CP:  1.11D+00  1.28D+00  1.32D+00  1.48D+00  1.72D+00
                    CP:  1.82D+00  1.41D+00
 E= -1876.43371937944     Delta-E=       -0.000002020866 Rises=F Damp=F
 DIIS: error= 1.13D-05 at cycle  13 NSaved=  13.
 NSaved=13 IEnMin=13 EnMin= -1876.43371937944     IErMin=13 ErrMin= 1.13D-05
 ErrMax= 1.13D-05  0.00D+00 EMaxC= 1.00D-01 BMatC= 2.58D-07 BMatP= 8.08D-07
 IDIUse=1 WtCom= 1.00D+00 WtEn= 0.00D+00
 Coeff-Com:  0.885D-04-0.140D-03-0.115D-03-0.145D-04-0.349D-03 0.112D-02
 Coeff-Com:  0.947D-02 0.151D-01-0.362D-01-0.803D-01-0.161D+00 0.338D+00
 Coeff-Com:  0.914D+00
 Coeff:      0.885D-04-0.140D-03-0.115D-03-0.145D-04-0.349D-03 0.112D-02
 Coeff:      0.947D-02 0.151D-01-0.362D-01-0.803D-01-0.161D+00 0.338D+00
 Coeff:      0.914D+00
 Gap=     0.073 Goal=   None    Shift=    0.000
 RMSDP=2.86D-06 MaxDP=7.17D-04 DE=-2.02D-06 OVMax= 1.84D-03

 Cycle  15  Pass 1  IDiag  1:
 RMSU=  4.28D-07    CP:  1.01D+00  1.18D+00  5.31D-01  1.25D-01  6.33D-01
                    CP:  1.11D+00  1.28D+00  1.33D+00  1.50D+00  1.86D+00
                    CP:  2.16D+00  1.96D+00  1.49D+00
 E= -1876.43372021735     Delta-E=       -0.000000837914 Rises=F Damp=F
 DIIS: error= 3.03D-06 at cycle  14 NSaved=  14.
 NSaved=14 IEnMin=14 EnMin= -1876.43372021735     IErMin=14 ErrMin= 3.03D-06
 ErrMax= 3.03D-06  0.00D+00 EMaxC= 1.00D-01 BMatC= 2.32D-08 BMatP= 2.58D-07
 IDIUse=1 WtCom= 1.00D+00 WtEn= 0.00D+00
 Coeff-Com:  0.511D-04-0.733D-04-0.109D-03 0.193D-05-0.205D-03-0.138D-03
 Coeff-Com:  0.289D-02 0.686D-02-0.321D-02-0.250D-01-0.128D+00 0.139D-01
 Coeff-Com:  0.414D+00 0.720D+00
 Coeff:      0.511D-04-0.733D-04-0.109D-03 0.193D-05-0.205D-03-0.138D-03
 Coeff:      0.289D-02 0.686D-02-0.321D-02-0.250D-01-0.128D+00 0.139D-01
 Coeff:      0.414D+00 0.720D+00
 Gap=     0.073 Goal=   None    Shift=    0.000
 RMSDP=1.07D-06 MaxDP=2.07D-04 DE=-8.38D-07 OVMax= 7.98D-04

 Cycle  16  Pass 1  IDiag  1:
 RMSU=  1.78D-07    CP:  1.01D+00  1.18D+00  5.31D-01  1.25D-01  6.33D-01
                    CP:  1.11D+00  1.28D+00  1.33D+00  1.51D+00  1.91D+00
                    CP:  2.29D+00  2.16D+00  1.83D+00  1.41D+00
 E= -1876.43372037512     Delta-E=       -0.000000157763 Rises=F Damp=F
 DIIS: error= 2.16D-06 at cycle  15 NSaved=  15.
 NSaved=15 IEnMin=15 EnMin= -1876.43372037512     IErMin=15 ErrMin= 2.16D-06
 ErrMax= 2.16D-06  0.00D+00 EMaxC= 1.00D-01 BMatC= 6.00D-09 BMatP= 2.32D-08
 IDIUse=1 WtCom= 1.00D+00 WtEn= 0.00D+00
 Coeff-Com:  0.958D-05-0.978D-05-0.111D-04 0.806D-05 0.242D-04-0.491D-03
 Coeff-Com: -0.106D-02-0.129D-02 0.110D-01 0.122D-01-0.197D-01-0.987D-01
 Coeff-Com: -0.842D-01 0.336D+00 0.847D+00
 Coeff:      0.958D-05-0.978D-05-0.111D-04 0.806D-05 0.242D-04-0.491D-03
 Coeff:     -0.106D-02-0.129D-02 0.110D-01 0.122D-01-0.197D-01-0.987D-01
 Coeff:     -0.842D-01 0.336D+00 0.847D+00
 Gap=     0.073 Goal=   None    Shift=    0.000
 RMSDP=8.07D-07 MaxDP=1.64D-04 DE=-1.58D-07 OVMax= 6.01D-04

 Cycle  17  Pass 1  IDiag  1:
 RMSU=  1.14D-07    CP:  1.01D+00  1.18D+00  5.31D-01  1.25D-01  6.33D-01
                    CP:  1.11D+00  1.28D+00  1.34D+00  1.51D+00  1.94D+00
                    CP:  2.39D+00  2.33D+00  2.09D+00  1.82D+00  1.44D+00
 E= -1876.43372043667     Delta-E=       -0.000000061549 Rises=F Damp=F
 DIIS: error= 8.70D-07 at cycle  16 NSaved=  16.
 NSaved=16 IEnMin=16 EnMin= -1876.43372043667     IErMin=16 ErrMin= 8.70D-07
 ErrMax= 8.70D-07  0.00D+00 EMaxC= 1.00D-01 BMatC= 1.76D-09 BMatP= 6.00D-09
 IDIUse=1 WtCom= 1.00D+00 WtEn= 0.00D+00
 Coeff-Com: -0.733D-05 0.129D-04 0.180D-04 0.295D-05 0.622D-04-0.252D-03
 Coeff-Com: -0.944D-03-0.242D-02 0.613D-02 0.103D-01 0.184D-01-0.486D-01
 Coeff-Com: -0.130D+00-0.367D-01 0.383D+00 0.801D+00
 Coeff:     -0.733D-05 0.129D-04 0.180D-04 0.295D-05 0.622D-04-0.252D-03
 Coeff:     -0.944D-03-0.242D-02 0.613D-02 0.103D-01 0.184D-01-0.486D-01
 Coeff:     -0.130D+00-0.367D-01 0.383D+00 0.801D+00
 Gap=     0.073 Goal=   None    Shift=    0.000
 RMSDP=4.10D-07 MaxDP=8.09D-05 DE=-6.15D-08 OVMax= 3.13D-04

 Cycle  18  Pass 1  IDiag  1:
 RMSU=  5.27D-08    CP:  1.01D+00  1.18D+00  5.31D-01  1.25D-01  6.33D-01
                    CP:  1.11D+00  1.28D+00  1.34D+00  1.52D+00  1.95D+00
                    CP:  2.43D+00  2.41D+00  2.24D+00  2.06D+00  1.87D+00
                    CP:  1.22D+00
 E= -1876.43372045102     Delta-E=       -0.000000014355 Rises=F Damp=F
 DIIS: error= 3.98D-07 at cycle  17 NSaved=  17.
 NSaved=17 IEnMin=17 EnMin= -1876.43372045102     IErMin=17 ErrMin= 3.98D-07
 ErrMax= 3.98D-07  0.00D+00 EMaxC= 1.00D-01 BMatC= 3.77D-10 BMatP= 1.76D-09
 IDIUse=1 WtCom= 1.00D+00 WtEn= 0.00D+00
 Coeff-Com: -0.444D-05 0.654D-05 0.133D-04 0.820D-06 0.295D-04-0.224D-04
 Coeff-Com: -0.149D-03-0.921D-03 0.518D-03 0.178D-02 0.131D-01 0.188D-02
 Coeff-Com: -0.384D-01-0.114D+00-0.440D-01 0.392D+00 0.788D+00
 Coeff:     -0.444D-05 0.654D-05 0.133D-04 0.820D-06 0.295D-04-0.224D-04
 Coeff:     -0.149D-03-0.921D-03 0.518D-03 0.178D-02 0.131D-01 0.188D-02
 Coeff:     -0.384D-01-0.114D+00-0.440D-01 0.392D+00 0.788D+00
 Gap=     0.073 Goal=   None    Shift=    0.000
 RMSDP=1.92D-07 MaxDP=3.83D-05 DE=-1.44D-08 OVMax= 1.48D-04

 Cycle  19  Pass 1  IDiag  1:
 RMSU=  2.07D-08    CP:  1.01D+00  1.18D+00  5.31D-01  1.25D-01  6.33D-01
                    CP:  1.11D+00  1.28D+00  1.34D+00  1.52D+00  1.96D+00
                    CP:  2.46D+00  2.44D+00  2.31D+00  2.17D+00  2.07D+00
                    CP:  1.52D+00  1.15D+00
 E= -1876.43372045345     Delta-E=       -0.000000002429 Rises=F Damp=F
 DIIS: error= 1.17D-07 at cycle  18 NSaved=  18.
 NSaved=18 IEnMin=18 EnMin= -1876.43372045345     IErMin=18 ErrMin= 1.17D-07
 ErrMax= 1.17D-07  0.00D+00 EMaxC= 1.00D-01 BMatC= 4.54D-11 BMatP= 3.77D-10
 IDIUse=1 WtCom= 1.00D+00 WtEn= 0.00D+00
 Coeff-Com: -0.208D-05 0.290D-05 0.407D-05-0.777D-08 0.833D-05 0.197D-04
 Coeff-Com:  0.425D-04-0.157D-03-0.522D-03-0.457D-03 0.346D-02 0.667D-02
 Coeff-Com: -0.183D-02-0.503D-01-0.677D-01 0.867D-01 0.372D+00 0.653D+00
 Coeff:     -0.208D-05 0.290D-05 0.407D-05-0.777D-08 0.833D-05 0.197D-04
 Coeff:      0.425D-04-0.157D-03-0.522D-03-0.457D-03 0.346D-02 0.667D-02
 Coeff:     -0.183D-02-0.503D-01-0.677D-01 0.867D-01 0.372D+00 0.653D+00
 Gap=     0.073 Goal=   None    Shift=    0.000
 RMSDP=4.39D-08 MaxDP=7.11D-06 DE=-2.43D-09 OVMax= 3.43D-05

 Cycle  20  Pass 1  IDiag  1:
 RMSU=  7.37D-09    CP:  1.01D+00  1.18D+00  5.31D-01  1.25D-01  6.33D-01
                    CP:  1.11D+00  1.28D+00  1.34D+00  1.52D+00  1.96D+00
                    CP:  2.46D+00  2.45D+00  2.32D+00  2.20D+00  2.13D+00
                    CP:  1.59D+00  1.32D+00  1.10D+00
 E= -1876.43372045369     Delta-E=       -0.000000000239 Rises=F Damp=F
 DIIS: error= 4.77D-08 at cycle  19 NSaved=  19.
 NSaved=19 IEnMin=19 EnMin= -1876.43372045369     IErMin=19 ErrMin= 4.77D-08
 ErrMax= 4.77D-08  0.00D+00 EMaxC= 1.00D-01 BMatC= 6.53D-12 BMatP= 4.54D-11
 IDIUse=1 WtCom= 1.00D+00 WtEn= 0.00D+00
 Coeff-Com: -0.330D-06 0.391D-06-0.130D-06-0.800D-07-0.790D-07 0.144D-04
 Coeff-Com:  0.388D-04 0.892D-04-0.329D-03-0.469D-03-0.922D-03 0.259D-02
 Coeff-Com:  0.560D-02-0.170D-02-0.222D-01-0.321D-01 0.298D-01 0.290D+00
 Coeff-Com:  0.729D+00
 Coeff:     -0.330D-06 0.391D-06-0.130D-06-0.800D-07-0.790D-07 0.144D-04
 Coeff:      0.388D-04 0.892D-04-0.329D-03-0.469D-03-0.922D-03 0.259D-02
 Coeff:      0.560D-02-0.170D-02-0.222D-01-0.321D-01 0.298D-01 0.290D+00
 Coeff:      0.729D+00
 Gap=     0.073 Goal=   None    Shift=    0.000
 RMSDP=1.50D-08 MaxDP=2.43D-06 DE=-2.39D-10 OVMax= 1.16D-05

 Cycle  21  Pass 1  IDiag  1:
 RMSU=  3.03D-09    CP:  1.01D+00  1.18D+00  5.31D-01  1.25D-01  6.33D-01
                    CP:  1.11D+00  1.28D+00  1.34D+00  1.52D+00  1.96D+00
                    CP:  2.46D+00  2.45D+00  2.33D+00  2.21D+00  2.15D+00
                    CP:  1.63D+00  1.37D+00  1.30D+00  1.13D+00
 E= -1876.43372045364     Delta-E=        0.000000000044 Rises=F Damp=F
 DIIS: error= 2.35D-08 at cycle  20 NSaved=  20.
 NSaved=20 IEnMin=19 EnMin= -1876.43372045369     IErMin=20 ErrMin= 2.35D-08
 ErrMax= 2.35D-08  0.00D+00 EMaxC= 1.00D-01 BMatC= 1.23D-12 BMatP= 6.53D-12
 IDIUse=1 WtCom= 1.00D+00 WtEn= 0.00D+00
 Coeff-Com: -0.170D-06 0.252D-06-0.580D-06-0.821D-07-0.105D-05 0.464D-05
 Coeff-Com:  0.808D-05 0.623D-04-0.699D-04-0.106D-03-0.905D-03 0.204D-03
 Coeff-Com:  0.246D-02 0.629D-02-0.115D-02-0.277D-01-0.393D-01 0.335D-01
 Coeff-Com:  0.330D+00 0.697D+00
 Coeff:     -0.170D-06 0.252D-06-0.580D-06-0.821D-07-0.105D-05 0.464D-05
 Coeff:      0.808D-05 0.623D-04-0.699D-04-0.106D-03-0.905D-03 0.204D-03
 Coeff:      0.246D-02 0.629D-02-0.115D-02-0.277D-01-0.393D-01 0.335D-01
 Coeff:      0.330D+00 0.697D+00
 Gap=     0.073 Goal=   None    Shift=    0.000
 RMSDP=6.02D-09 MaxDP=9.93D-07 DE= 4.37D-11 OVMax= 4.58D-06

 SCF Done:  E(RM062X) =  -1876.43372045     A.U. after   21 cycles
            NFock= 21  Conv=0.60D-08     -V/T= 2.0047
 KE= 1.867662483310D+03 PE=-1.310019395356D+04 EE= 4.982005332867D+03
 Leave Link  502 at Sat Jun 22 17:59:15 2024, MaxMem=  2684354560 cpu:           26741.6 elap:            1676.0
 (Enter /storage/apps/GAUSSIAN/G16_RevA03/g16/l601.exe)
 Copying SCF densities to generalized density rwf, IOpCl= 0 IROHF=0.

 **********************************************************************

            Population analysis using the SCF density.

 **********************************************************************

 Alpha  occ. eigenvalues --  -19.79179 -19.77576 -19.76081 -19.72857 -19.63735
 Alpha  occ. eigenvalues --  -19.61200 -15.02878 -14.90544 -14.87526 -14.85553
 Alpha  occ. eigenvalues --  -14.84430 -14.84102 -14.81880 -14.81107 -14.81032
 Alpha  occ. eigenvalues --  -10.79817 -10.79591 -10.78539 -10.78461 -10.74945
 Alpha  occ. eigenvalues --  -10.74580 -10.74512 -10.74143 -10.74014 -10.72947
 Alpha  occ. eigenvalues --  -10.72704 -10.70707 -10.69082 -10.68171 -10.66279
 Alpha  occ. eigenvalues --  -10.65658 -10.65495 -10.65142 -10.62904 -10.59300
 Alpha  occ. eigenvalues --  -10.58996 -10.58572 -10.58479 -10.58358  -1.33808
 Alpha  occ. eigenvalues --   -1.29980  -1.28504  -1.27989  -1.26708  -1.21239
 Alpha  occ. eigenvalues --   -1.16049  -1.15249  -1.15076  -1.14426  -1.12588
 Alpha  occ. eigenvalues --   -1.11917  -1.08097  -1.08072  -1.07642  -1.05090
 Alpha  occ. eigenvalues --   -1.03445  -1.02177  -1.00845  -1.00770  -0.96562
 Alpha  occ. eigenvalues --   -0.94764  -0.92799  -0.91508  -0.90840  -0.88597
 Alpha  occ. eigenvalues --   -0.88367  -0.86667  -0.85641  -0.82552  -0.82013
 Alpha  occ. eigenvalues --   -0.81548  -0.80529  -0.77919  -0.77888  -0.77325
 Alpha  occ. eigenvalues --   -0.77041  -0.75788  -0.75251  -0.74206  -0.74014
 Alpha  occ. eigenvalues --   -0.73225  -0.71929  -0.71034  -0.70925  -0.70112
 Alpha  occ. eigenvalues --   -0.70028  -0.69255  -0.69216  -0.67565  -0.66993
 Alpha  occ. eigenvalues --   -0.66441  -0.66096  -0.65658  -0.64994  -0.64894
 Alpha  occ. eigenvalues --   -0.64572  -0.64188  -0.63225  -0.62787  -0.62168
 Alpha  occ. eigenvalues --   -0.62009  -0.61840  -0.61172  -0.60705  -0.60344
 Alpha  occ. eigenvalues --   -0.59305  -0.59221  -0.58989  -0.57530  -0.57432
 Alpha  occ. eigenvalues --   -0.56244  -0.55660  -0.55213  -0.54497  -0.54411
 Alpha  occ. eigenvalues --   -0.54264  -0.53029  -0.52479  -0.51910  -0.51661
 Alpha  occ. eigenvalues --   -0.51358  -0.51148  -0.50752  -0.50240  -0.50149
 Alpha  occ. eigenvalues --   -0.49033  -0.48820  -0.48395  -0.47518  -0.46605
 Alpha  occ. eigenvalues --   -0.45385  -0.43225  -0.42385  -0.41881  -0.40327
 Alpha  occ. eigenvalues --   -0.38982  -0.38042  -0.37125  -0.35907  -0.35844
 Alpha  occ. eigenvalues --   -0.31245  -0.29092
 Alpha virt. eigenvalues --   -0.21789  -0.18256  -0.08368  -0.07813  -0.07250
 Alpha virt. eigenvalues --   -0.06785  -0.06499  -0.05221  -0.04822  -0.04335
 Alpha virt. eigenvalues --   -0.04038  -0.02872  -0.02552  -0.02511  -0.01733
 Alpha virt. eigenvalues --   -0.01625  -0.01190  -0.01082  -0.00677  -0.00063
 Alpha virt. eigenvalues --    0.00620   0.00891   0.01120   0.01314   0.01524
 Alpha virt. eigenvalues --    0.02072   0.02184   0.02559   0.02964   0.03672
 Alpha virt. eigenvalues --    0.03896   0.04183   0.04741   0.05236   0.05603
 Alpha virt. eigenvalues --    0.05921   0.06078   0.06214   0.06459   0.06575
 Alpha virt. eigenvalues --    0.07070   0.07271   0.07741   0.08322   0.08659
 Alpha virt. eigenvalues --    0.09226   0.09528   0.09856   0.10325   0.10556
 Alpha virt. eigenvalues --    0.10726   0.11314   0.11676   0.11910   0.12250
 Alpha virt. eigenvalues --    0.12446   0.12491   0.13059   0.13504   0.13680
 Alpha virt. eigenvalues --    0.14275   0.14331   0.14878   0.15285   0.15646
 Alpha virt. eigenvalues --    0.15847   0.16150   0.16239   0.16819   0.17175
 Alpha virt. eigenvalues --    0.17429   0.17840   0.18102   0.18717   0.18830
 Alpha virt. eigenvalues --    0.19030   0.19361   0.19550   0.19833   0.20133
 Alpha virt. eigenvalues --    0.20455   0.20666   0.21170   0.21335   0.21542
 Alpha virt. eigenvalues --    0.21774   0.21864   0.22835   0.22982   0.23270
 Alpha virt. eigenvalues --    0.23567   0.23729   0.24086   0.24156   0.24616
 Alpha virt. eigenvalues --    0.24723   0.24939   0.25230   0.25519   0.25904
 Alpha virt. eigenvalues --    0.26231   0.26415   0.26575   0.27266   0.27356
 Alpha virt. eigenvalues --    0.27845   0.28051   0.28115   0.28396   0.28684
 Alpha virt. eigenvalues --    0.29208   0.29351   0.29510   0.29724   0.29994
 Alpha virt. eigenvalues --    0.30206   0.30498   0.30787   0.31090   0.31348
 Alpha virt. eigenvalues --    0.31514   0.31757   0.31965   0.32138   0.32434
 Alpha virt. eigenvalues --    0.32685   0.32969   0.33365   0.33661   0.33866
 Alpha virt. eigenvalues --    0.34033   0.34413   0.34761   0.35205   0.35276
 Alpha virt. eigenvalues --    0.35545   0.35732   0.35939   0.36088   0.36279
 Alpha virt. eigenvalues --    0.36457   0.36645   0.36775   0.37138   0.37547
 Alpha virt. eigenvalues --    0.37968   0.38156   0.38389   0.38620   0.39036
 Alpha virt. eigenvalues --    0.39074   0.39444   0.39693   0.39921   0.40236
 Alpha virt. eigenvalues --    0.40454   0.40549   0.40748   0.41150   0.41262
 Alpha virt. eigenvalues --    0.41722   0.41963   0.42077   0.42598   0.42981
 Alpha virt. eigenvalues --    0.43182   0.43359   0.43552   0.43790   0.43978
 Alpha virt. eigenvalues --    0.44454   0.44691   0.45007   0.45208   0.45254
 Alpha virt. eigenvalues --    0.45943   0.46170   0.46452   0.46698   0.46779
 Alpha virt. eigenvalues --    0.47136   0.47544   0.47994   0.48318   0.48391
 Alpha virt. eigenvalues --    0.48801   0.49243   0.49397   0.49847   0.50188
 Alpha virt. eigenvalues --    0.50264   0.50292   0.50792   0.51313   0.51379
 Alpha virt. eigenvalues --    0.51517   0.52018   0.52463   0.52852   0.53061
 Alpha virt. eigenvalues --    0.53479   0.53848   0.54158   0.54359   0.55027
 Alpha virt. eigenvalues --    0.55440   0.55759   0.56025   0.56164   0.56703
 Alpha virt. eigenvalues --    0.56982   0.57168   0.57208   0.57514   0.57892
 Alpha virt. eigenvalues --    0.58592   0.58836   0.58925   0.59100   0.60043
 Alpha virt. eigenvalues --    0.60148   0.60532   0.60942   0.61090   0.61642
 Alpha virt. eigenvalues --    0.61856   0.62495   0.62970   0.63141   0.63304
 Alpha virt. eigenvalues --    0.63414   0.63662   0.64079   0.64324   0.65070
 Alpha virt. eigenvalues --    0.65234   0.65411   0.65710   0.66548   0.66667
 Alpha virt. eigenvalues --    0.67205   0.67864   0.67962   0.68501   0.68823
 Alpha virt. eigenvalues --    0.69343   0.69675   0.69979   0.70350   0.70834
 Alpha virt. eigenvalues --    0.71052   0.71309   0.71481   0.71823   0.72697
 Alpha virt. eigenvalues --    0.73084   0.73570   0.73747   0.74296   0.74549
 Alpha virt. eigenvalues --    0.74979   0.74988   0.75544   0.75713   0.76623
 Alpha virt. eigenvalues --    0.76888   0.77068   0.77575   0.77913   0.77998
 Alpha virt. eigenvalues --    0.78408   0.78596   0.79332   0.79720   0.80523
 Alpha virt. eigenvalues --    0.80914   0.81402   0.82227   0.82500   0.82968
 Alpha virt. eigenvalues --    0.83249   0.83850   0.83934   0.84332   0.84775
 Alpha virt. eigenvalues --    0.85050   0.85124   0.85501   0.86636   0.87259
 Alpha virt. eigenvalues --    0.87409   0.87984   0.88478   0.88789   0.89007
 Alpha virt. eigenvalues --    0.89485   0.90239   0.90443   0.91130   0.91251
 Alpha virt. eigenvalues --    0.91871   0.92458   0.92752   0.93451   0.94175
 Alpha virt. eigenvalues --    0.94399   0.94544   0.95293   0.95475   0.96425
 Alpha virt. eigenvalues --    0.97049   0.97669   0.97959   0.98607   0.98886
 Alpha virt. eigenvalues --    0.99394   0.99857   1.00141   1.00861   1.01219
 Alpha virt. eigenvalues --    1.01610   1.01784   1.02304   1.03483   1.03789
 Alpha virt. eigenvalues --    1.04656   1.05204   1.05571   1.06217   1.06781
 Alpha virt. eigenvalues --    1.07420   1.07812   1.08057   1.08351   1.08649
 Alpha virt. eigenvalues --    1.09288   1.10126   1.10341   1.10993   1.11211
 Alpha virt. eigenvalues --    1.11772   1.12374   1.12697   1.13190   1.14577
 Alpha virt. eigenvalues --    1.15143   1.15475   1.15637   1.15970   1.16591
 Alpha virt. eigenvalues --    1.16645   1.17530   1.17917   1.18351   1.19237
 Alpha virt. eigenvalues --    1.19380   1.20241   1.21372   1.22070   1.22754
 Alpha virt. eigenvalues --    1.23070   1.23389   1.23545   1.24047   1.24365
 Alpha virt. eigenvalues --    1.25077   1.25555   1.25837   1.26133   1.26725
 Alpha virt. eigenvalues --    1.27554   1.27814   1.28094   1.28298   1.28937
 Alpha virt. eigenvalues --    1.29247   1.29942   1.30297   1.30935   1.31344
 Alpha virt. eigenvalues --    1.31618   1.32502   1.33011   1.34159   1.34599
 Alpha virt. eigenvalues --    1.34865   1.35674   1.35861   1.36307   1.36411
 Alpha virt. eigenvalues --    1.37179   1.37791   1.38165   1.38361   1.39043
 Alpha virt. eigenvalues --    1.39420   1.39665   1.40766   1.40803   1.41100
 Alpha virt. eigenvalues --    1.41871   1.42533   1.42747   1.43026   1.43314
 Alpha virt. eigenvalues --    1.44161   1.44378   1.44555   1.44717   1.45435
 Alpha virt. eigenvalues --    1.45621   1.46223   1.46678   1.47125   1.47530
 Alpha virt. eigenvalues --    1.47670   1.48145   1.48679   1.49263   1.49550
 Alpha virt. eigenvalues --    1.50098   1.50284   1.50534   1.51450   1.51848
 Alpha virt. eigenvalues --    1.52245   1.52333   1.52514   1.52917   1.53182
 Alpha virt. eigenvalues --    1.53704   1.54138   1.54465   1.54827   1.54898
 Alpha virt. eigenvalues --    1.55308   1.55962   1.56133   1.56673   1.56966
 Alpha virt. eigenvalues --    1.57267   1.57627   1.57793   1.58024   1.58134
 Alpha virt. eigenvalues --    1.59352   1.59947   1.60149   1.60379   1.60542
 Alpha virt. eigenvalues --    1.60676   1.61199   1.61628   1.61957   1.62255
 Alpha virt. eigenvalues --    1.63393   1.63668   1.63863   1.64246   1.64638
 Alpha virt. eigenvalues --    1.65160   1.65333   1.65926   1.66079   1.66820
 Alpha virt. eigenvalues --    1.67531   1.67688   1.68242   1.68760   1.69360
 Alpha virt. eigenvalues --    1.69712   1.69876   1.70653   1.71438   1.72061
 Alpha virt. eigenvalues --    1.72275   1.72543   1.73183   1.73418   1.73676
 Alpha virt. eigenvalues --    1.74224   1.74655   1.74895   1.76203   1.76644
 Alpha virt. eigenvalues --    1.76947   1.77134   1.77380   1.77587   1.77863
 Alpha virt. eigenvalues --    1.78496   1.79129   1.79679   1.80629   1.80768
 Alpha virt. eigenvalues --    1.81356   1.81672   1.81714   1.82737   1.83099
 Alpha virt. eigenvalues --    1.83419   1.83638   1.84240   1.84979   1.85267
 Alpha virt. eigenvalues --    1.85684   1.86001   1.86633   1.87100   1.87382
 Alpha virt. eigenvalues --    1.87771   1.88656   1.89202   1.89616   1.89855
 Alpha virt. eigenvalues --    1.90152   1.90460   1.90599   1.91013   1.92201
 Alpha virt. eigenvalues --    1.92307   1.92713   1.93594   1.93776   1.94753
 Alpha virt. eigenvalues --    1.95068   1.95188   1.95834   1.96265   1.96970
 Alpha virt. eigenvalues --    1.97235   1.97869   1.98103   1.98776   1.99133
 Alpha virt. eigenvalues --    1.99670   2.00239   2.01127   2.01231   2.02172
 Alpha virt. eigenvalues --    2.02642   2.03129   2.03957   2.04196   2.04443
 Alpha virt. eigenvalues --    2.05600   2.06022   2.06065   2.06893   2.07812
 Alpha virt. eigenvalues --    2.07969   2.08332   2.08868   2.09539   2.09658
 Alpha virt. eigenvalues --    2.10390   2.10789   2.10984   2.11115   2.11719
 Alpha virt. eigenvalues --    2.12750   2.13318   2.13524   2.14366   2.14547
 Alpha virt. eigenvalues --    2.15332   2.15946   2.16295   2.16914   2.17123
 Alpha virt. eigenvalues --    2.17663   2.18154   2.18810   2.19181   2.19239
 Alpha virt. eigenvalues --    2.20164   2.20790   2.21183   2.21298   2.21711
 Alpha virt. eigenvalues --    2.22358   2.23209   2.23569   2.24426   2.24714
 Alpha virt. eigenvalues --    2.25618   2.25705   2.26156   2.26815   2.27227
 Alpha virt. eigenvalues --    2.27589   2.27693   2.28740   2.29326   2.30013
 Alpha virt. eigenvalues --    2.30309   2.30655   2.31321   2.32303   2.32911
 Alpha virt. eigenvalues --    2.33401   2.34048   2.34424   2.35164   2.35484
 Alpha virt. eigenvalues --    2.35907   2.36213   2.36886   2.37237   2.37435
 Alpha virt. eigenvalues --    2.38147   2.38780   2.39335   2.39599   2.40685
 Alpha virt. eigenvalues --    2.40978   2.41641   2.42608   2.43313   2.43652
 Alpha virt. eigenvalues --    2.44038   2.44860   2.45425   2.45918   2.46492
 Alpha virt. eigenvalues --    2.46779   2.47668   2.48195   2.48637   2.49392
 Alpha virt. eigenvalues --    2.49698   2.50436   2.50519   2.51399   2.51583
 Alpha virt. eigenvalues --    2.52360   2.52825   2.52921   2.53614   2.54144
 Alpha virt. eigenvalues --    2.55074   2.55386   2.56018   2.56283   2.56805
 Alpha virt. eigenvalues --    2.57083   2.57684   2.58577   2.59003   2.59564
 Alpha virt. eigenvalues --    2.59729   2.60386   2.60679   2.61053   2.61368
 Alpha virt. eigenvalues --    2.61883   2.62528   2.62711   2.63299   2.63562
 Alpha virt. eigenvalues --    2.63742   2.64735   2.65264   2.65604   2.65996
 Alpha virt. eigenvalues --    2.66323   2.66692   2.67090   2.67417   2.67749
 Alpha virt. eigenvalues --    2.68495   2.68752   2.69205   2.69475   2.69653
 Alpha virt. eigenvalues --    2.69928   2.70191   2.70320   2.71443   2.71522
 Alpha virt. eigenvalues --    2.72343   2.72566   2.72761   2.73846   2.74119
 Alpha virt. eigenvalues --    2.74386   2.74876   2.75299   2.75938   2.76537
 Alpha virt. eigenvalues --    2.76809   2.77063   2.77413   2.77529   2.78359
 Alpha virt. eigenvalues --    2.78573   2.78763   2.79815   2.80249   2.80525
 Alpha virt. eigenvalues --    2.80989   2.81570   2.81941   2.82259   2.82481
 Alpha virt. eigenvalues --    2.83078   2.83514   2.83781   2.83844   2.84986
 Alpha virt. eigenvalues --    2.85403   2.86048   2.86204   2.86499   2.87059
 Alpha virt. eigenvalues --    2.87354   2.87801   2.87913   2.88496   2.88823
 Alpha virt. eigenvalues --    2.89448   2.89597   2.90039   2.90417   2.90965
 Alpha virt. eigenvalues --    2.91149   2.91499   2.91756   2.92097   2.92318
 Alpha virt. eigenvalues --    2.92732   2.92773   2.93411   2.93713   2.94589
 Alpha virt. eigenvalues --    2.94993   2.95474   2.95614   2.96026   2.96150
 Alpha virt. eigenvalues --    2.96748   2.97172   2.98046   2.98629   2.98891
 Alpha virt. eigenvalues --    2.99142   2.99919   3.00478   3.00596   3.01335
 Alpha virt. eigenvalues --    3.01460   3.01724   3.02056   3.02455   3.02835
 Alpha virt. eigenvalues --    3.03412   3.03705   3.03825   3.04046   3.04802
 Alpha virt. eigenvalues --    3.05355   3.05547   3.06269   3.06356   3.06853
 Alpha virt. eigenvalues --    3.07276   3.08044   3.08220   3.08613   3.08726
 Alpha virt. eigenvalues --    3.09282   3.09659   3.09950   3.10270   3.10955
 Alpha virt. eigenvalues --    3.11464   3.11727   3.11913   3.12007   3.12464
 Alpha virt. eigenvalues --    3.12794   3.13156   3.13388   3.13917   3.14361
 Alpha virt. eigenvalues --    3.14695   3.14867   3.15326   3.15455   3.15935
 Alpha virt. eigenvalues --    3.16252   3.16808   3.17154   3.17360   3.17563
 Alpha virt. eigenvalues --    3.17596   3.18732   3.19307   3.19431   3.19828
 Alpha virt. eigenvalues --    3.20477   3.20637   3.20929   3.21300   3.21777
 Alpha virt. eigenvalues --    3.22237   3.22451   3.22982   3.23198   3.23797
 Alpha virt. eigenvalues --    3.24828   3.25282   3.25512   3.25921   3.26327
 Alpha virt. eigenvalues --    3.26716   3.27384   3.27920   3.28648   3.28862
 Alpha virt. eigenvalues --    3.28932   3.29467   3.29680   3.29898   3.30022
 Alpha virt. eigenvalues --    3.30678   3.31363   3.31544   3.31682   3.32246
 Alpha virt. eigenvalues --    3.32457   3.32750   3.33449   3.33621   3.34298
 Alpha virt. eigenvalues --    3.34360   3.34553   3.35097   3.35239   3.35607
 Alpha virt. eigenvalues --    3.35863   3.36744   3.37017   3.37126   3.37721
 Alpha virt. eigenvalues --    3.38424   3.39260   3.39840   3.40479   3.40682
 Alpha virt. eigenvalues --    3.41369   3.41719   3.42065   3.42880   3.43160
 Alpha virt. eigenvalues --    3.43772   3.44218   3.44632   3.44766   3.45319
 Alpha virt. eigenvalues --    3.45711   3.46463   3.46599   3.47625   3.48050
 Alpha virt. eigenvalues --    3.48854   3.49527   3.50031   3.50287   3.50535
 Alpha virt. eigenvalues --    3.50847   3.51527   3.52607   3.52839   3.53541
 Alpha virt. eigenvalues --    3.53895   3.54742   3.55450   3.55977   3.57635
 Alpha virt. eigenvalues --    3.58102   3.59258   3.59633   3.60654   3.60949
 Alpha virt. eigenvalues --    3.61844   3.62963   3.63079   3.63601   3.64140
 Alpha virt. eigenvalues --    3.65224   3.66026   3.66440   3.67609   3.68271
 Alpha virt. eigenvalues --    3.68691   3.69709   3.70278   3.71041   3.71561
 Alpha virt. eigenvalues --    3.71772   3.73176   3.73596   3.74429   3.74722
 Alpha virt. eigenvalues --    3.75161   3.75609   3.77019   3.77611   3.77964
 Alpha virt. eigenvalues --    3.78920   3.79069   3.79772   3.80612   3.81174
 Alpha virt. eigenvalues --    3.82626   3.83017   3.83257   3.83934   3.84506
 Alpha virt. eigenvalues --    3.85375   3.86624   3.87943   3.88315   3.88947
 Alpha virt. eigenvalues --    3.89275   3.89593   3.90588   3.91069   3.92013
 Alpha virt. eigenvalues --    3.92763   3.93471   3.93943   3.94645   3.94991
 Alpha virt. eigenvalues --    3.95486   3.98252   3.99237   4.00088   4.00257
 Alpha virt. eigenvalues --    4.00598   4.01415   4.02540   4.02624   4.03317
 Alpha virt. eigenvalues --    4.04056   4.04688   4.05301   4.06428   4.07005
 Alpha virt. eigenvalues --    4.07366   4.07491   4.08273   4.09441   4.10179
 Alpha virt. eigenvalues --    4.10903   4.11541   4.11960   4.12914   4.13196
 Alpha virt. eigenvalues --    4.13867   4.14321   4.15225   4.16393   4.17727
 Alpha virt. eigenvalues --    4.17896   4.18628   4.18895   4.19802   4.21557
 Alpha virt. eigenvalues --    4.21865   4.22217   4.22693   4.23569   4.23871
 Alpha virt. eigenvalues --    4.24250   4.25839   4.26430   4.27093   4.28590
 Alpha virt. eigenvalues --    4.29186   4.30286   4.30676   4.31846   4.32120
 Alpha virt. eigenvalues --    4.33136   4.33630   4.35648   4.37153   4.38390
 Alpha virt. eigenvalues --    4.38706   4.39716   4.40095   4.40946   4.41974
 Alpha virt. eigenvalues --    4.42583   4.45425   4.47593   4.48740   4.49768
 Alpha virt. eigenvalues --    4.50256   4.50575   4.50853   4.51084   4.51590
 Alpha virt. eigenvalues --    4.52579   4.53116   4.53506   4.54827   4.55621
 Alpha virt. eigenvalues --    4.57150   4.57574   4.57656   4.58195   4.58962
 Alpha virt. eigenvalues --    4.59939   4.61542   4.61800   4.62072   4.62319
 Alpha virt. eigenvalues --    4.63875   4.64330   4.65140   4.66420   4.67422
 Alpha virt. eigenvalues --    4.68381   4.68569   4.68724   4.68957   4.70052
 Alpha virt. eigenvalues --    4.71085   4.73508   4.73773   4.74229   4.74764
 Alpha virt. eigenvalues --    4.75564   4.77531   4.77787   4.78569   4.79134
 Alpha virt. eigenvalues --    4.80217   4.81622   4.82940   4.83687   4.85397
 Alpha virt. eigenvalues --    4.86126   4.87382   4.88010   4.88469   4.89048
 Alpha virt. eigenvalues --    4.89461   4.89777   4.90397   4.91729   4.92746
 Alpha virt. eigenvalues --    4.93520   4.94267   4.95210   4.96663   4.97400
 Alpha virt. eigenvalues --    4.97615   4.98357   4.98706   4.99418   4.99878
 Alpha virt. eigenvalues --    5.00749   5.00980   5.01597   5.02573   5.02697
 Alpha virt. eigenvalues --    5.03279   5.03327   5.04685   5.05043   5.06045
 Alpha virt. eigenvalues --    5.06745   5.06809   5.08019   5.08537   5.09131
 Alpha virt. eigenvalues --    5.09957   5.11356   5.11665   5.13321   5.13402
 Alpha virt. eigenvalues --    5.13612   5.13976   5.15042   5.15272   5.15730
 Alpha virt. eigenvalues --    5.16664   5.16852   5.17278   5.18480   5.19005
 Alpha virt. eigenvalues --    5.19916   5.20653   5.21317   5.21788   5.22932
 Alpha virt. eigenvalues --    5.23248   5.24254   5.25004   5.25238   5.25594
 Alpha virt. eigenvalues --    5.25666   5.26112   5.26926   5.28271   5.28347
 Alpha virt. eigenvalues --    5.28652   5.28968   5.30384   5.32477   5.33016
 Alpha virt. eigenvalues --    5.34188   5.35080   5.35212   5.36215   5.36512
 Alpha virt. eigenvalues --    5.37714   5.37890   5.39299   5.41283   5.43811
 Alpha virt. eigenvalues --    5.45838   5.49385   5.49504   5.50576   5.52313
 Alpha virt. eigenvalues --    5.52981   5.54998   5.55339   5.55535   5.56214
 Alpha virt. eigenvalues --    5.58166   5.58602   5.58972   5.60382   5.61840
 Alpha virt. eigenvalues --    5.61972   5.63134   5.63824   5.64397   5.65488
 Alpha virt. eigenvalues --    5.67264   5.68098   5.68509   5.69861   5.70926
 Alpha virt. eigenvalues --    5.72746   5.74896   5.77736   5.79327   5.80111
 Alpha virt. eigenvalues --    5.81137   5.81660   5.82507   5.84244   5.87277
 Alpha virt. eigenvalues --    5.87765   5.92008   5.92451   5.93099   5.95580
 Alpha virt. eigenvalues --    5.95757   5.96746   5.96807   6.01708   6.08487
 Alpha virt. eigenvalues --    6.11167   6.16422   6.19698   6.20030   6.23720
 Alpha virt. eigenvalues --    6.28837   6.32140   6.35515   6.37996   6.38028
 Alpha virt. eigenvalues --    6.47354   6.51145   6.55125   6.55556   6.55909
 Alpha virt. eigenvalues --    6.57836   6.61493   6.62644   6.65240   6.67156
 Alpha virt. eigenvalues --    6.70494   6.70676   6.72461   6.74850   6.76859
 Alpha virt. eigenvalues --    6.79128   6.82715   6.85371   6.93874   6.97145
 Alpha virt. eigenvalues --    6.99130   6.99332   7.00162   7.02652   7.03317
 Alpha virt. eigenvalues --    7.07027   7.07679   7.12525  22.37979  22.44705
 Alpha virt. eigenvalues --   22.51270  22.56135  22.63934  22.71453  22.72372
 Alpha virt. eigenvalues --   22.74795  22.78163  22.79772  22.82165  22.84612
 Alpha virt. eigenvalues --   22.94404  22.96542  22.98265  22.99396  23.00807
 Alpha virt. eigenvalues --   23.14059  23.16488  23.19330  23.26484  23.31591
 Alpha virt. eigenvalues --   23.40072  23.52116  32.01142  32.01676  32.09558
 Alpha virt. eigenvalues --   32.40974  32.57251  32.63796  32.72579  32.87815
 Alpha virt. eigenvalues --   32.93058  44.01151  44.01305  44.04466  44.04823
 Alpha virt. eigenvalues --   44.07187  44.25114
          Condensed to atoms (all electrons):
 Mulliken charges:
               1
     1  C   -0.079356
     2  H    0.145197
     3  O   -0.305021
     4  C    0.009734
     5  H    0.181370
     6  O   -0.511852
     7  H    0.352276
     8  C    0.006258
     9  H    0.170515
    10  O   -0.463315
    11  H    0.366032
    12  C    0.046690
    13  H    0.148626
    14  N    0.048209
    15  C   -0.010413
    16  H    0.176559
    17  C    0.021822
    18  C   -0.115485
    19  H    0.242205
    20  H    0.083454
    21  C   -0.147684
    22  H    0.191435
    23  C    0.037166
    24  H    0.203256
    25  C    0.369126
    26  O   -0.346575
    27  N   -0.489760
    28  H    0.254667
    29  H    0.299007
    30  N   -0.385722
    31  C    0.454566
    32  N   -0.545595
    33  H    0.287407
    34  H    0.272489
    35  N   -0.319325
    36  H    0.263946
    37  C    0.263354
    38  O   -0.469346
    39  C   -0.013540
    40  N   -0.388242
    41  H    0.254603
    42  C   -0.021072
    43  C   -0.203286
    44  H    0.152306
    45  H    0.170124
    46  N   -0.384059
    47  H    0.251373
    48  C    0.316652
    49  C   -0.241881
    50  H    0.134033
    51  H    0.206020
    52  N   -0.415240
    53  H    0.236107
    54  C    0.097697
    55  C   -0.186051
    56  H    0.171678
    57  C   -0.195355
    58  H    0.144826
    59  C    0.271600
    60  C   -0.156841
    61  H    0.119748
    62  C   -0.187325
    63  H    0.103691
    64  C    0.322091
    65  O   -0.443723
    66  N   -0.526558
    67  H    0.248145
    68  H    0.162722
    69  H    0.293841
 Sum of Mulliken charges =   1.00000
 Mulliken charges with hydrogens summed into heavy atoms:
               1
     1  C    0.228563
     3  O   -0.305021
     4  C    0.191104
     6  O   -0.159576
     8  C    0.176773
    10  O   -0.097283
    12  C    0.195315
    14  N    0.048209
    15  C    0.166146
    17  C    0.021822
    18  C    0.126719
    21  C    0.043751
    23  C    0.240422
    25  C    0.369126
    26  O   -0.346575
    27  N    0.063915
    30  N   -0.385722
    31  C    0.454566
    32  N    0.014301
    35  N   -0.055379
    37  C    0.263354
    38  O   -0.469346
    39  C   -0.013540
    40  N   -0.133639
    42  C    0.062382
    43  C    0.119144
    46  N   -0.132687
    48  C    0.316652
    49  C    0.098173
    52  N   -0.179133
    54  C    0.097697
    55  C   -0.014373
    57  C   -0.050530
    59  C    0.271600
    60  C   -0.037093
    62  C   -0.083635
    64  C    0.322091
    65  O   -0.443723
    66  N    0.015428
 Electronic spatial extent (au):  <R**2>=          28283.1545
 Charge=              1.0000 electrons
 Dipole moment (field-independent basis, Debye):
    X=             -8.0806    Y=             -8.7189    Z=             24.7293  Tot=             27.4382
 Quadrupole moment (field-independent basis, Debye-Ang):
   XX=           -136.3098   YY=           -223.9479   ZZ=           -109.9205
   XY=             -2.7962   XZ=            -89.9441   YZ=             66.4155
 Traceless Quadrupole moment (field-independent basis, Debye-Ang):
   XX=             20.4162   YY=            -67.2218   ZZ=             46.8056
   XY=             -2.7962   XZ=            -89.9441   YZ=             66.4155
 Octapole moment (field-independent basis, Debye-Ang**2):
  XXX=            674.7843  YYY=           -102.6092  ZZZ=            891.4121  XYY=            232.1523
  XXY=           -115.2333  XXZ=            339.2858  XZZ=            -40.6360  YZZ=           -118.2623
  YYZ=            203.0439  XYZ=           -102.7014
 Hexadecapole moment (field-independent basis, Debye-Ang**3):
 XXXX=          -6619.2471 YYYY=          -5194.3632 ZZZZ=         -16345.4911 XXXY=           1290.2594
 XXXZ=           -619.5337 YYYX=           1865.7426 YYYZ=           1577.6202 ZZZX=          -2143.9276
 ZZZY=           4121.0523 XXYY=          -2073.2621 XXZZ=          -3284.3760 YYZZ=          -5399.0820
 XXYZ=           1108.4691 YYXZ=           -188.0511 ZZXY=            537.7715
 N-N= 4.374092416928D+03 E-N=-1.310019395559D+04  KE= 1.867662483310D+03
 No NMR shielding tensors so no spin-rotation constants.
 Leave Link  601 at Sat Jun 22 17:59:16 2024, MaxMem=  2684354560 cpu:               9.9 elap:               0.8
 (Enter /storage/apps/GAUSSIAN/G16_RevA03/g16/l602.exe)

 **********************************************************************

            Electrostatic Properties Using The SCF Density

 **********************************************************************

       Atomic Center    1 is at  -4.204487  0.426736  6.793797
       Atomic Center    2 is at  -4.056005  0.487598  7.804133
       Atomic Center    3 is at  -3.000803 -0.165743  6.192436
       Atomic Center    4 is at  -4.313063  1.812385  6.157474
       Atomic Center    5 is at  -5.271276  2.179543  6.130584
       Atomic Center    6 is at  -3.459405  2.775947  6.817865
       Atomic Center    7 is at  -3.640068  2.862088  7.778229
       Atomic Center    8 is at  -3.692412  1.607797  4.760648
       Atomic Center    9 is at  -4.350597  1.185812  4.097589
       Atomic Center   10 is at  -3.208397  2.829313  4.218208
       Atomic Center   11 is at  -3.017181  3.412798  4.978073
       Atomic Center   12 is at  -2.522750  0.640798  5.100987
       Atomic Center   13 is at  -1.692850  1.170274  5.394266
       Atomic Center   14 is at  -2.091759 -0.298700  4.031983
       Atomic Center   15 is at  -0.764467 -0.337624  3.700563
       Atomic Center   16 is at  -0.193598  0.407462  4.094542
       Atomic Center   17 is at  -0.259854 -1.322224  2.908617
       Atomic Center   18 is at  -1.162777 -2.272788  2.365982
       Atomic Center   19 is at  -0.793780 -3.023832  1.785227
       Atomic Center   20 is at  -0.904637 -0.841711  0.150586
       Atomic Center   21 is at  -2.500584 -2.166564  2.642175
       Atomic Center   22 is at  -3.164202 -2.822358  2.233214
       Atomic Center   23 is at  -2.963014 -1.203336  3.488297
       Atomic Center   24 is at  -3.943454 -1.125874  3.754991
       Atomic Center   25 is at   1.220548 -1.516461  2.659223
       Atomic Center   26 is at   1.609179 -2.499337  2.002651
       Atomic Center   27 is at   2.121209 -0.634828  3.192640
       Atomic Center   28 is at   1.849945  0.092510  3.850859
       Atomic Center   29 is at   3.103572 -0.916434  3.194766
       Atomic Center   30 is at   2.151208 -3.096869 -1.986426
       Atomic Center   31 is at   3.282980 -2.441121 -2.318471
       Atomic Center   32 is at   4.414813 -3.131545 -2.634495
       Atomic Center   33 is at   4.429334 -4.143800 -2.577259
       Atomic Center   34 is at   5.271276 -2.621455 -2.900212
       Atomic Center   35 is at   3.351644 -1.066396 -2.352040
       Atomic Center   36 is at   4.283655 -0.619388 -2.456664
       Atomic Center   37 is at   2.250880 -0.260698 -2.092048
       Atomic Center   38 is at   2.415340  1.013264 -2.053744
       Atomic Center   39 is at   1.029464 -0.944847 -1.834687
       Atomic Center   40 is at  -0.179832 -0.200891 -1.663286
       Atomic Center   41 is at   0.009558  0.777069 -1.433913
       Atomic Center   42 is at  -1.207415 -0.838767 -0.832322
       Atomic Center   43 is at  -1.386710 -2.300963 -1.305090
       Atomic Center   44 is at  -2.022276 -2.792945 -0.675015
       Atomic Center   45 is at  -1.813922 -2.301068 -2.237089
       Atomic Center   46 is at  -0.100685 -2.989579 -1.321334
       Atomic Center   47 is at  -0.092929 -4.004818 -1.345962
       Atomic Center   48 is at   1.034159 -2.324021 -1.735151
       Atomic Center   49 is at  -2.594450 -0.093072 -0.910551
       Atomic Center   50 is at  -2.994495 -0.048698  0.027814
       Atomic Center   51 is at  -3.236015 -0.642554 -1.488320
       Atomic Center   52 is at  -2.522108  1.272606 -1.424757
       Atomic Center   53 is at  -2.769878  2.015205 -0.775492
       Atomic Center   54 is at  -2.254863  2.157448 -5.510901
       Atomic Center   55 is at  -2.439889  3.179504 -4.550033
       Atomic Center   56 is at  -2.485957  4.143800 -4.874388
       Atomic Center   57 is at  -2.528972  2.898762 -3.225648
       Atomic Center   58 is at  -2.648046  3.651269 -2.548822
       Atomic Center   59 is at  -2.448182  1.557174 -2.769404
       Atomic Center   60 is at  -2.282123  0.526450 -3.730426
       Atomic Center   61 is at  -2.224566 -0.446374 -3.435251
       Atomic Center   62 is at  -2.182519  0.824905 -5.048323
       Atomic Center   63 is at  -2.062665  0.061211 -5.712023
       Atomic Center   64 is at  -2.138525  2.494669 -6.922055
       Atomic Center   65 is at  -2.405092  3.673710 -7.358524
       Atomic Center   66 is at  -1.731531  1.532233 -7.804133
       Atomic Center   67 is at  -1.556806  0.580065 -7.501677
       Atomic Center   68 is at  -5.060966 -0.214422  6.585325
       Atomic Center   69 is at  -1.643454  1.688173 -8.879319
 -----------------------------------------------------------------

              Electrostatic Properties (Atomic Units)

 -----------------------------------------------------------------
    Center     Electric         -------- Electric Field --------
               Potential          X             Y             Z
 -----------------------------------------------------------------
    1 Atom    -14.572783     -0.006324      0.007929     -0.004777
    2 Atom     -0.970792      0.011683      0.001976      0.072472
    3 Atom    -22.185756      0.016295     -0.029773      0.011865
    4 Atom    -14.560457     -0.000090     -0.011655     -0.004655
    5 Atom     -0.971303     -0.067309      0.023221     -0.005098
    6 Atom    -22.199038      0.025967      0.016918     -0.023204
    7 Atom     -0.843504     -0.005224     -0.000471      0.005687
    8 Atom    -14.551229      0.003249     -0.001288      0.011880
    9 Atom     -0.951108     -0.048481     -0.029018     -0.046059
   10 Atom    -22.215415      0.002507      0.005443     -0.039802
   11 Atom     -0.865125      0.004211      0.011751      0.012116
   12 Atom    -14.503254     -0.010889      0.010575      0.002063
   13 Atom     -0.939367      0.056763      0.036685      0.017463
   14 Atom    -18.101762     -0.000553     -0.000140      0.000342
   15 Atom    -14.523754     -0.000766     -0.008984     -0.004623
   16 Atom     -0.893191      0.039664      0.052944      0.031187
   17 Atom    -14.561290     -0.001996     -0.003429     -0.002201
   18 Atom    -14.569243      0.000311      0.009321      0.005106
   19 Atom     -0.935573      0.029510     -0.054840     -0.043933
   20 Atom     -1.035721      0.021916     -0.003164      0.071371
   21 Atom    -14.582115      0.006192      0.005403      0.002316
   22 Atom     -0.926573     -0.048199     -0.047694     -0.028447
   23 Atom    -14.523094      0.008155     -0.003475     -0.004396
   24 Atom     -0.895981     -0.069308      0.006129      0.021748
   25 Atom    -14.506665      0.005303     -0.013104     -0.007333
   26 Atom    -22.254657      0.008631     -0.023140     -0.015790
   27 Atom    -18.221991     -0.003992     -0.000387     -0.010065
   28 Atom     -0.871368     -0.000319      0.009154      0.006843
   29 Atom     -0.878433      0.011144     -0.003343     -0.003821
   30 Atom    -18.324995      0.000912     -0.025793      0.000394
   31 Atom    -14.554572     -0.013398     -0.003755      0.004133
   32 Atom    -18.269134     -0.004377      0.002972     -0.000311
   33 Atom     -0.923741     -0.001822     -0.014210      0.001094
   34 Atom     -0.915728     -0.000103     -0.004125     -0.000384
   35 Atom    -18.253444     -0.005086     -0.002163     -0.000732
   36 Atom     -0.909483     -0.005316      0.006858     -0.001316
[...]
     Eigenvalues ---    1.43303   1.45051   1.52012   1.54883   1.56141
     Eigenvalues ---    1.59343   1.60490   1.61419   1.62137   1.74279
     Eigenvalues ---    1.76931   1.77602   1.78285   1.86950   1.91697
     Eigenvalues ---    2.07783
 Quadratic step=6.344D+00 exceeds max=3.000D-01 adjusted using Lamda=-3.873D-01.
 Angle between NR and scaled steps=  83.29 degrees.
 Angle between quadratic step and forces=  22.48 degrees.
 Linear search not attempted -- first point.
 Variable       Old X    -DE/DX   Delta X   Delta X   Delta X     New X
                                 (Linear)    (Quad)   (Total)
    X1       -7.94533   0.01014   0.00000   0.01360   0.01360  -7.93173
    Y1        0.80641   0.00061   0.00000  -0.00156  -0.00156   0.80486
    Z1       12.83842  -0.06240   0.00000  -0.03645  -0.03645  12.80196
    X2       -7.66474   0.00854   0.00000   0.01245   0.01245  -7.65229
    Y2        0.92143   0.00111   0.00000  -0.00276  -0.00276   0.91866
    Z2       14.74767   0.05157   0.00000   0.04404   0.04404  14.79171
    X3       -5.67070  -0.00251   0.00000  -0.00910  -0.00910  -5.67980
    Y3       -0.31321   0.01133   0.00000  -0.00124  -0.00124  -0.31445
    Z3       11.70201  -0.01311   0.00000  -0.01474  -0.01474  11.68727
    X4       -8.15051   0.04981   0.00000   0.02670   0.02670  -8.12381
    Y4        3.42491  -0.01425   0.00000  -0.00433  -0.00433   3.42058
    Z4       11.63594   0.01493   0.00000   0.01312   0.01312  11.64906
    X5       -9.96127  -0.04762   0.00000  -0.04539  -0.04539 -10.00666
    Y5        4.11874   0.01554   0.00000   0.01234   0.01234   4.13108
    Z5       11.58512  -0.00449   0.00000  -0.00663  -0.00663  11.57850
    X6       -6.53733  -0.00473   0.00000   0.00444   0.00444  -6.53289
    Y6        5.24578  -0.01169   0.00000  -0.01720  -0.01720   5.22858
    Z6       12.88390   0.00245   0.00000  -0.00037  -0.00037  12.88353
    X7       -6.87873  -0.00148   0.00000  -0.00799  -0.00799  -6.88672
    Y7        5.40856  -0.00353   0.00000  -0.00707  -0.00707   5.40149
    Z7       14.69872  -0.01900   0.00000  -0.02357  -0.02357  14.67515
    X8       -6.97765   0.05229   0.00000   0.03032   0.03032  -6.94733
    Y8        3.03830   0.04396   0.00000   0.02649   0.02649   3.06479
    Z8        8.99632   0.03630   0.00000   0.02720   0.02720   9.02352
    X9       -8.22144  -0.03468   0.00000  -0.02917  -0.02917  -8.25061
    Y9        2.24086  -0.02090   0.00000  -0.01198  -0.01198   2.22888
    Z9        7.74332  -0.03242   0.00000  -0.02160  -0.02160   7.72173
   X10       -6.06299  -0.00599   0.00000  -0.00136  -0.00136  -6.06435
   Y10        5.34663  -0.01401   0.00000  -0.01101  -0.01101   5.33562
   Z10        7.97126   0.00718   0.00000   0.00538   0.00538   7.97664
   X11       -5.70165  -0.00079   0.00000   0.00056   0.00056  -5.70109
   Y11        6.44925  -0.00408   0.00000  -0.00351  -0.00351   6.44575
   Z11        9.40719  -0.00720   0.00000  -0.01098  -0.01098   9.39621
   X12       -4.76731  -0.06283   0.00000  -0.03721  -0.03721  -4.80452
   Y12        1.21093  -0.03550   0.00000  -0.02065  -0.02065   1.19029
   Z12        9.63947   0.01103   0.00000   0.01360   0.01360   9.65306
   X13       -3.19902   0.04015   0.00000   0.03401   0.03401  -3.16501
   Y13        2.21150   0.02574   0.00000   0.01913   0.01913   2.23062
   Z13       10.19368   0.01088   0.00000   0.00980   0.00980  10.20348
   X14       -3.95285   0.00228   0.00000  -0.00506  -0.00506  -3.95791
   Y14       -0.56446  -0.01128   0.00000  -0.00251  -0.00251  -0.56697
   Z14        7.61934  -0.01227   0.00000  -0.00210  -0.00210   7.61725
   X15       -1.44463  -0.04814   0.00000  -0.02746  -0.02746  -1.47209
   Y15       -0.63802  -0.02987   0.00000  -0.01486  -0.01486  -0.65288
   Z15        6.99305  -0.00834   0.00000   0.00103   0.00103   6.99408
   X16       -0.36585   0.02786   0.00000   0.02102   0.02102  -0.34482
   Y16        0.76999   0.03779   0.00000   0.03545   0.03545   0.80544
   Z16        7.73756   0.02335   0.00000   0.02878   0.02878   7.76634
   X17       -0.49105  -0.00238   0.00000   0.00442   0.00442  -0.48664
   Y17       -2.49864  -0.01833   0.00000  -0.01046  -0.01046  -2.50910
   Z17        5.49649  -0.01248   0.00000  -0.00519  -0.00519   5.49130
   X18       -2.19733   0.00771   0.00000   0.01764   0.01764  -2.17969
   Y18       -4.29495   0.05120   0.00000   0.02635   0.02635  -4.26860
   Z18        4.47106   0.03350   0.00000   0.01264   0.01264   4.48370
   X19       -1.50003   0.02188   0.00000   0.02851   0.02851  -1.47152
   Y19       -5.71421  -0.03902   0.00000  -0.03532  -0.03532  -5.74954
   Z19        3.37359  -0.03219   0.00000  -0.03309  -0.03309   3.34050
   X20       -1.70952   0.01564   0.00000   0.01632   0.01632  -1.69320
   Y20       -1.59060  -0.00348   0.00000  -0.00483  -0.00483  -1.59544
   Z20        0.28457   0.05155   0.00000   0.04835   0.04835   0.33292
   X21       -4.72542   0.02227   0.00000   0.01292   0.01292  -4.71250
   Y21       -4.09421   0.02335   0.00000   0.01557   0.01557  -4.07864
   Z21        4.99299   0.01311   0.00000   0.00668   0.00668   4.99966
   X22       -5.97947  -0.03453   0.00000  -0.03484  -0.03484  -6.01431
   Y22       -5.33348  -0.03400   0.00000  -0.03353  -0.03353  -5.36702
   Z22        4.22016  -0.01990   0.00000  -0.01822  -0.01822   4.20195
   X23       -5.59929   0.06141   0.00000   0.02894   0.02894  -5.57035
   Y23       -2.27398   0.02175   0.00000   0.02035   0.02035  -2.25362
   Z23        6.59193   0.00511   0.00000   0.01031   0.01031   6.60224
   X24       -7.45205  -0.04889   0.00000  -0.04443  -0.04443  -7.49648
   Y24       -2.12759   0.00517   0.00000   0.01039   0.01039  -2.11720
   Z24        7.09590   0.01659   0.00000   0.02322   0.02322   7.11912
   X25        2.30650   0.03885   0.00000   0.01812   0.01812   2.32462
   Y25       -2.86570  -0.03709   0.00000  -0.01375  -0.01375  -2.87944
   Z25        5.02520  -0.02424   0.00000  -0.00323  -0.00323   5.02197
   X26        3.04091  -0.02689   0.00000  -0.02813  -0.02813   3.01278
   Y26       -4.72306   0.04167   0.00000   0.02071   0.02071  -4.70235
   Z26        3.78446   0.02779   0.00000   0.01439   0.01439   3.79885
   X27        4.00850  -0.01399   0.00000  -0.01540  -0.01540   3.99310
   Y27       -1.19965  -0.00068   0.00000  -0.00728  -0.00728  -1.20693
   Z27        6.03321   0.00697   0.00000   0.00637   0.00637   6.03958
   X28        3.49589   0.00515   0.00000   0.00314   0.00314   3.49903
   Y28        0.17482  -0.00792   0.00000  -0.00956  -0.00956   0.16526
   Z28        7.27707  -0.00775   0.00000  -0.00792  -0.00792   7.26915
   X29        5.86490  -0.01144   0.00000  -0.02039  -0.02039   5.84451
   Y29       -1.73181   0.00287   0.00000   0.00523   0.00523  -1.72658
   Z29        6.03723  -0.00375   0.00000  -0.00805  -0.00805   6.02919
   X30        4.06519   0.02562   0.00000   0.01529   0.01529   4.08049
   Y30       -5.85223   0.02544   0.00000   0.02042   0.02042  -5.83182
   Z30       -3.75380  -0.01000   0.00000  -0.00910  -0.00910  -3.76290
   X31        6.20393  -0.03518   0.00000  -0.02294  -0.02294   6.18099
   Y31       -4.61305  -0.01232   0.00000  -0.00463  -0.00463  -4.61768
   Z31       -4.38128   0.01117   0.00000   0.00831   0.00831  -4.37297
   X32        8.34279   0.00925   0.00000  -0.01025  -0.01025   8.33254
   Y32       -5.91776   0.01375   0.00000   0.01293   0.01293  -5.90483
   Z32       -4.97847  -0.00156   0.00000   0.00429   0.00429  -4.97419
   X33        8.37023  -0.00242   0.00000  -0.00719  -0.00719   8.36303
   Y33       -7.83065   0.00939   0.00000   0.01804   0.01804  -7.81261
   Z33       -4.87031  -0.00003   0.00000   0.00053   0.00053  -4.86978
   X34        9.96127  -0.01895   0.00000  -0.02582  -0.02582   9.93545
   Y34       -4.95383  -0.01467   0.00000  -0.01708  -0.01708  -4.97091
   Z34       -5.48061   0.00559   0.00000   0.00726   0.00726  -5.47334
   X35        6.33369   0.01869   0.00000  -0.00352  -0.00352   6.33017
   Y35       -2.01520  -0.02141   0.00000  -0.01687  -0.01687  -2.03206
   Z35       -4.44471  -0.00073   0.00000   0.00640   0.00640  -4.43831
   X36        8.09493  -0.02501   0.00000  -0.03698  -0.03698   8.05796
   Y36       -1.17047  -0.00310   0.00000  -0.00539  -0.00539  -1.17586
   Z36       -4.64242   0.00094   0.00000  -0.00020  -0.00020  -4.64262
   X37        4.25355   0.00683   0.00000  -0.00118  -0.00118   4.25237
   Y37       -0.49265   0.07715   0.00000   0.02393   0.02393  -0.46872
   Z37       -3.95340   0.00655   0.00000   0.00949   0.00949  -3.94390
   X38        4.56433  -0.01259   0.00000  -0.01592  -0.01592   4.54841
   Y38        1.91479  -0.07112   0.00000  -0.04871  -0.04871   1.86609
   Z38       -3.88101  -0.00235   0.00000  -0.00100  -0.00100  -3.88201
   X39        1.94541  -0.01341   0.00000  -0.00616  -0.00616   1.93925
   Y39       -1.78550  -0.00144   0.00000   0.00321   0.00321  -1.78229
   Z39       -3.46706   0.00252   0.00000   0.00389   0.00389  -3.46317
   X40       -0.33983   0.00493   0.00000   0.00574   0.00574  -0.33410
   Y40       -0.37963  -0.00471   0.00000  -0.00439  -0.00439  -0.38402
   Z40       -3.14316   0.00381   0.00000  -0.00254  -0.00254  -3.14570
   X41        0.01806  -0.00150   0.00000  -0.00142  -0.00142   0.01664
   Y41        1.46845  -0.00696   0.00000  -0.01014  -0.01014   1.45831
   Z41       -2.70970  -0.00258   0.00000  -0.00478  -0.00478  -2.71448
   X42       -2.28168  -0.01127   0.00000   0.00640   0.00640  -2.27528
   Y42       -1.58504   0.00502   0.00000   0.00960   0.00960  -1.57545
   Z42       -1.57286  -0.05576   0.00000  -0.03155  -0.03155  -1.60441
   X43       -2.62050   0.06386   0.00000   0.03611   0.03611  -2.58439
   Y43       -4.34819   0.03067   0.00000   0.01889   0.01889  -4.32930
   Z43       -2.46626   0.01248   0.00000   0.00250   0.00250  -2.46376
   X44       -3.82155  -0.03421   0.00000  -0.02642  -0.02642  -3.84797
   Y44       -5.27790  -0.02734   0.00000  -0.02295  -0.02295  -5.30085
   Z44       -1.27559   0.03693   0.00000   0.04143   0.04143  -1.23417
   X45       -3.42782  -0.02186   0.00000  -0.01663  -0.01663  -3.44445
   Y45       -4.34839   0.00259   0.00000   0.00740   0.00740  -4.34099
   Z45       -4.22749  -0.04954   0.00000  -0.05471  -0.05471  -4.28219
   X46       -0.19027   0.00088   0.00000   0.01535   0.01535  -0.17492
   Y46       -5.64949   0.00016   0.00000   0.00617   0.00617  -5.64331
   Z46       -2.49696   0.00104   0.00000   0.00139   0.00139  -2.49557
   X47       -0.17561   0.00390   0.00000   0.00924   0.00924  -0.16637
   Y47       -7.56801   0.00834   0.00000   0.01336   0.01336  -7.55465
   Z47       -2.54350  -0.00283   0.00000  -0.00669  -0.00669  -2.55019
   X48        1.95428   0.01612   0.00000   0.01852   0.01852   1.97280
   Y48       -4.39176  -0.00312   0.00000   0.00307   0.00307  -4.38869
   Z48       -3.27896  -0.00086   0.00000   0.00052   0.00052  -3.27844
   X49       -4.90280   0.06454   0.00000   0.03810   0.03810  -4.86470
   Y49       -0.17588   0.03329   0.00000   0.01748   0.01748  -0.15840
   Z49       -1.72069  -0.02709   0.00000  -0.01946  -0.01946  -1.74015
   X50       -5.65878  -0.02042   0.00000  -0.01004  -0.01004  -5.66881
   Y50       -0.09203   0.00281   0.00000   0.00539   0.00539  -0.08664
   Z50        0.05256   0.05156   0.00000   0.04972   0.04972   0.10228
   X51       -6.11518  -0.03427   0.00000  -0.02932  -0.02932  -6.14450
   Y51       -1.21425  -0.02923   0.00000  -0.02661  -0.02661  -1.24086
   Z51       -2.81252  -0.03304   0.00000  -0.04095  -0.04095  -2.85347
   X52       -4.76609   0.00056   0.00000   0.00761   0.00761  -4.75849
   Y52        2.40488  -0.00682   0.00000  -0.00156  -0.00156   2.40331
   Z52       -2.69240   0.01578   0.00000   0.00632   0.00632  -2.68608
   X53       -5.23431   0.00253   0.00000   0.00290   0.00290  -5.23141
   Y53        3.80819  -0.00580   0.00000  -0.00578  -0.00578   3.80241
   Z53       -1.46547  -0.01065   0.00000  -0.01324  -0.01324  -1.47871
   X54       -4.26107  -0.00033   0.00000  -0.00081  -0.00081  -4.26189
   Y54        4.07699  -0.01252   0.00000  -0.00120  -0.00120   4.07579
   Z54      -10.41409   0.02750   0.00000  -0.00286  -0.00286 -10.41696
   X55       -4.61072   0.00694   0.00000   0.00384   0.00384  -4.60688
   Y55        6.00839  -0.05440   0.00000  -0.03322  -0.03322   5.97517
   Z55       -8.59832  -0.01674   0.00000  -0.01815  -0.01815  -8.61647
   X56       -4.69778  -0.00302   0.00000  -0.00306  -0.00306  -4.70084
   Y56        7.83065   0.04979   0.00000   0.04475   0.04475   7.87539
   Z56       -9.21126  -0.01876   0.00000  -0.02384  -0.02384  -9.23510
   X57       -4.77906   0.00573   0.00000   0.00030   0.00030  -4.77877
   Y57        5.47787  -0.05894   0.00000  -0.03864  -0.03864   5.43922
   Z57       -6.09559  -0.01026   0.00000  -0.00135  -0.00135  -6.09694
   X58       -5.00408  -0.00619   0.00000  -0.00567  -0.00567  -5.00975
   Y58        6.89990   0.03890   0.00000   0.03230   0.03230   6.93220
   Z58       -4.81658   0.03579   0.00000   0.03565   0.03565  -4.78092
   X59       -4.62639  -0.00114   0.00000  -0.00624  -0.00624  -4.63264
   Y59        2.94263   0.00337   0.00000  -0.00020  -0.00020   2.94243
   Z59       -5.23341  -0.01655   0.00000   0.00007   0.00007  -5.23334
   X60       -4.31259  -0.00871   0.00000  -0.01152  -0.01152  -4.32410
   Y60        0.99485   0.05338   0.00000   0.03305   0.03305   1.02789
   Z60       -7.04948   0.01867   0.00000   0.01799   0.01799  -7.03150
   X61       -4.20382   0.00426   0.00000   0.00469   0.00469  -4.19913
   Y61       -0.84352  -0.04823   0.00000  -0.04243  -0.04243  -0.88596
   Z61       -6.49168   0.01601   0.00000   0.02020   0.02020  -6.47148
   X62       -4.12436  -0.00614   0.00000  -0.00746  -0.00746  -4.13183
   Y62        1.55884   0.06128   0.00000   0.03972   0.03972   1.59857
   Z62       -9.53995   0.00679   0.00000  -0.00059  -0.00059  -9.54054
   X63       -3.89787   0.00539   0.00000   0.00347   0.00347  -3.89441
   Y63        0.11567  -0.03997   0.00000  -0.03420  -0.03420   0.08148
   Z63      -10.79416  -0.03295   0.00000  -0.03117  -0.03117 -10.82533
   X64       -4.04123  -0.01427   0.00000  -0.00601  -0.00601  -4.04723
   Y64        4.71424   0.07907   0.00000   0.02715   0.02715   4.74139
   Z64      -13.08079  -0.06070   0.00000  -0.04383  -0.04383 -13.12462
   X65       -4.54497   0.01743   0.00000   0.00960   0.00960  -4.53537
   Y65        6.94231  -0.07326   0.00000  -0.04172  -0.04172   6.90058
   Z65      -13.90559   0.03141   0.00000   0.01930   0.01930 -13.88630
   X66       -3.27212   0.00539   0.00000  -0.00281  -0.00281  -3.27493
   Y66        2.89550  -0.00764   0.00000   0.00224   0.00224   2.89774
   Z66      -14.74767  -0.04090   0.00000  -0.02416  -0.02416 -14.77183
   X67       -2.94194  -0.00004   0.00000   0.00113   0.00113  -2.94081
   Y67        1.09616   0.00991   0.00000   0.01621   0.01621   1.11238
   Z67      -14.17612  -0.00239   0.00000  -0.00730  -0.00730 -14.18342
   X68       -9.56384  -0.00048   0.00000   0.00107   0.00107  -9.56277
   Y68       -0.40520   0.00045   0.00000   0.00344   0.00344  -0.40175
   Z68       12.44446  -0.00250   0.00000  -0.01253  -0.01253  12.43193
   X69       -3.10568  -0.00858   0.00000  -0.01348  -0.01348  -3.11916
   Y69        3.19018   0.00179   0.00000   0.00871   0.00871   3.19890
   Z69      -16.77948   0.06145   0.00000   0.07282   0.07282 -16.70666
         Item               Value     Threshold  Converged?
 Maximum Force            0.079069     0.000450     NO 
 RMS     Force            0.027611     0.000300     NO 
 Maximum Displacement     0.072820     0.001800     NO 
 RMS     Displacement     0.020865     0.001200     NO 
 Predicted change in Energy=-7.255057D-02
 GradGradGradGradGradGradGradGradGradGradGradGradGradGradGradGradGradGrad

 Leave Link  103 at Sat Jun 22 18:04:46 2024, MaxMem=  2684354560 cpu:              10.3 elap:               0.7
 (Enter /storage/apps/GAUSSIAN/G16_RevA03/g16/l9999.exe)

 Test job not archived.
 1\1\GINC-T016\Force\RM062X\def2TZVP\C24H30N9O6(1+)\LV87696\22-Jun-2024
 \0\\#P M062X/Def2TZVP scf=(direct,conver=8) EmpiricalDispersion=GD3 No
 Symm force Charge Prop=(Field,Read)\\Gaussian run using SANDER externa
 l interface, route from template gau_job.tpl\\1,1\C,-4.2044874568,0.42
 67360168,6.7937971048\H,-4.0560050327,0.4875984963,7.8041332711\O,-3.0
 008028444,-0.1657428706,6.192435878\C,-4.3130634656,1.8123853683,6.157
 47371\H,-5.2712755384,2.1795432765,6.1305837527\O,-3.4594054154,2.7759
 474057,6.8178652081\H,-3.6400677933,2.8620876618,7.778229396\C,-3.6924
 115722,1.6077972667,4.760648194\H,-4.35059671,1.1858123195,4.097588777
 1\O,-3.2083970549,2.8293132549,4.2182078023\H,-3.0171808542,3.41279790
 73,4.9780729744\C,-2.522749987,0.6407981193,5.1009868671\H,-1.69285024
 61,1.1702737948,5.3942655307\N,-2.0917593989,-0.2986995073,4.031983343
 2\C,-0.7644669803,-0.3376241447,3.7005626671\H,-0.1935975435,0.4074620
 075,4.0945420892\C,-0.2598544249,-1.3222238694,2.9086170591\C,-1.16277
 664,-2.2727880584,2.3659816969\H,-0.7937799637,-3.0238315603,1.7852267
 356\H,-0.9046371239,-0.8417110383,0.1505860764\C,-2.5005839031,-2.1665
 643873,2.6421750979\H,-3.1642015663,-2.8223580852,2.2332141556\C,-2.96
 30143109,-1.2033358451,3.4882973883\H,-3.9434539456,-1.1258738902,3.75
 49909715\C,1.2205484021,-1.5164614115,2.6592231158\O,1.6091786749,-2.4
 99336811,2.0026512613\N,2.1212086974,-0.634827782,3.1926396775\H,1.849
 9454342,0.09251002,3.8508592222\H,3.1035717779,-0.9164342495,3.1947659
 836\N,2.1512077952,-3.0968689932,-1.9864256723\C,3.2829800094,-2.44112
 14124,-2.3184714624\N,4.4148129501,-3.1315450939,-2.634495394\H,4.4293
 335183,-4.1438001855,-2.5772586704\H,5.2712755384,-2.6214552792,-2.900
 2123681\N,3.351643709,-1.06639601,-2.3520402535\H,4.2836546745,-0.6193
 879661,-2.4566636506\C,2.2508800454,-0.2606977904,-2.0920482648\O,2.41
 53400273,1.0132643642,-2.0537439357\C,1.0294644247,-0.9448465037,-1.83
 46867876\N,-0.1798315619,-0.2008909017,-1.6632862962\H,0.0095578182,0.
 7770693113,-1.4339131614\C,-1.2074149817,-0.838767414,-0.8323217864\C,
 -1.3867103136,-2.3009632757,-1.305089576\H,-2.0222763706,-2.7929451873
 ,-0.6750147855\H,-1.8139222225,-2.301067615,-2.2370891046\N,-0.1006848
 227,-2.9895790791,-1.3213344172\H,-0.0929294784,-4.0048178485,-1.34596
 19883\C,1.0341591531,-2.32402083,-1.7351512723\C,-2.5944500289,-0.0930
 715871,-0.9105510891\H,-2.9944948681,-0.0486983954,0.027813891\H,-3.23
 60148743,-0.6425536786,-1.488319751\N,-2.5221084043,1.2726060116,-1.42
 47571317\H,-2.7698782622,2.015205267,-0.7754917487\C,-2.2548632483,2.1
 574475969,-5.510901378\C,-2.4398888661,3.1795040376,-4.5500330941\H,-2
 .4859572786,4.1438001855,-4.8743883554\C,-2.5289719794,2.8987620312,-3
 .2256475463\H,-2.6480460306,3.6512686719,-2.5488224889\C,-2.4481822479
 ,1.5571744997,-2.7694036656\C,-2.2821225171,0.5264504038,-3.7304256221
 \H,-2.2245655366,-0.4463742014,-3.435250675\C,-2.1825192756,0.82490466
 57,-5.0483226065\H,-2.0626650774,0.0612113328,-5.7120233616\C,-2.13852
 4717,2.4946687082,-6.9220548897\O,-2.4050919355,3.6737100014,-7.358523
 6193\N,-1.7315307203,1.5322334404,-7.8041332711\H,-1.5568064556,0.5800
 645636,-7.5016773882\H,-5.0609660122,-0.2144222415,6.5853251114\H,-1.6
 434536292,1.6881728773,-8.8793194495\\Version=ES64L-G16RevA.03\HF=-187
 6.4337205\RMSD=6.025e-09\RMSF=2.761e-02\Dipole=-1.3267757,-3.4269304,9
 .7651239\Quadrupole=15.1789769,-49.9777821,34.7988053,-2.0789199,-66.8
 712073,49.3783325\PG=C01 [X(C24H30N9O6)]\\@


 ROSE IS A RED
 TY COBB IS BLUE
 'CAUSE PETE JUST HIT
 NO. 4592.
 Job cpu time:       0 days  8 hours 56 minutes 20.0 seconds.
 Elapsed time:       0 days  0 hours 33 minutes 37.2 seconds.
 File lengths (MBytes):  RWF=   1039 Int=      0 D2E=      0 Chk=    113 Scr=      1
 Normal termination of Gaussian 16 at Sat Jun 22 18:04:46 2024.
