 Entering Gaussian System, Link 0=g16
 Initial command:
 /storage/apps/GAUSSIAN/G16_RevA03/g16/l1.exe "/scratch/tmp/2140808/Gau-10673.inp" -scrdir="/scratch/tmp/2140808/"
 Entering Link 1 = /storage/apps/GAUSSIAN/G16_RevA03/g16/l1.exe PID=     10675.
  
 Copyright (c) 1988,1990,1992,1993,1995,1998,2003,2009,2016,
            Gaussian, Inc.  All Rights Reserved.
  
 This is part of the Gaussian(R) 16 program.  It is based on
 the Gaussian(R) 09 system (copyright 2009, Gaussian, Inc.),
 the Gaussian(R) 03 system (copyright 2003, Gaussian, Inc.),
 the Gaussian(R) 98 system (copyright 1998, Gaussian, Inc.),
 the Gaussian(R) 94 system (copyright 1995, Gaussian, Inc.),
 the Gaussian 92(TM) system (copyright 1992, Gaussian, Inc.),
 the Gaussian 90(TM) system (copyright 1990, Gaussian, Inc.),
 the Gaussian 88(TM) system (copyright 1988, Gaussian, Inc.),
 the Gaussian 86(TM) system (copyright 1986, Carnegie Mellon
 University), and the Gaussian 82(TM) system (copyright 1983,
 Carnegie Mellon University). Gaussian is a federally registered
 trademark of Gaussian, Inc.
  
 This software contains proprietary and confidential information,
 including trade secrets, belonging to Gaussian, Inc.
  
 This software is provided under written license and may be
 used, copied, transmitted, or stored only in accord with that
 written license.
  
 The following legend is applicable only to US Government
 contracts under FAR:
  
                    RESTRICTED RIGHTS LEGEND
  
 Use, reproduction and disclosure by the US Government is
 subject to restrictions as set forth in subparagraphs (a)
 and (c) of the Commercial Computer Software - Restricted
 Rights clause in FAR 52.227-19.
  
 Gaussian, Inc.
 340 Quinnipiac St., Bldg. 40, Wallingford CT 06492
  
  
 ---------------------------------------------------------------
 Warning -- This program may not be used in any manner that
 competes with the business of Gaussian, Inc. or will provide
 assistance to any competitor of Gaussian, Inc.  The licensee
 of this program is prohibited from giving any competitor of
 Gaussian, Inc. access to this program.  By using this program,
 the user acknowledges that Gaussian, Inc. is engaged in the
 business of creating and licensing software in the field of
 computational chemistry and represents and warrants to the
 licensee that it is not a competitor of Gaussian, Inc. and that
 it will not use this program in any manner prohibited above.
 ---------------------------------------------------------------
  

 Cite this work as:
 Gaussian 16, Revision A.03,
 M. J. Frisch, G. W. Trucks, H. B. Schlegel, G. E. Scuseria, 
 M. A. Robb, J. R. Cheeseman, G. Scalmani, V. Barone, 
 G. A. Petersson, H. Nakatsuji, X. Li, M. Caricato, A. V. Marenich, 
 J. Bloino, B. G. Janesko, R. Gomperts, B. Mennucci, H. P. Hratchian, 
 J. V. Ortiz, A. F. Izmaylov, J. L. Sonnenberg, D. Williams-Young, 
 F. Ding, F. Lipparini, F. Egidi, J. Goings, B. Peng, A. Petrone, 
 T. Henderson, D. Ranasinghe, V. G. Zakrzewski, J. Gao, N. Rega, 
 G. Zheng, W. Liang, M. Hada, M. Ehara, K. Toyota, R. Fukuda, 
 J. Hasegawa, M. Ishida, T. Nakajima, Y. Honda, O. Kitao, H. Nakai, 
 T. Vreven, K. Throssell, J. A. Montgomery, Jr., J. E. Peralta, 
 F. Ogliaro, M. J. Bearpark, J. J. Heyd, E. N. Brothers, K. N. Kudin, 
 V. N. Staroverov, T. A. Keith, R. Kobayashi, J. Normand, 
 K. Raghavachari, A. P. Rendell, J. C. Burant, S. S. Iyengar, 
 J. Tomasi, M. Cossi, J. M. Millam, M. Klene, C. Adamo, R. Cammi, 
 J. W. Ochterski, R. L. Martin, K. Morokuma, O. Farkas, 
 J. B. Foresman, and D. J. Fox, Gaussian, Inc., Wallingford CT, 2016.
 
 ******************************************
 Gaussian 16:  ES64L-G16RevA.03 25-Dec-2016
                22-Jun-2024 
 ******************************************
 %chk=gau_job.chk
 %NProcShared=16
 Will use up to   16 processors via shared memory.
 %mem=20GB
 ----------------------------------------------------------------------
 #P M062X/Def2TZVP scf=(direct,conver=8) EmpiricalDispersion=GD3 NoSymm
  force Charge Prop=(Field,Read)
 ----------------------------------------------------------------------
 1/10=7,18=10,28=-2,30=1,38=1,125=101/1,3;
 2/12=2,15=1,17=6,18=5,29=2,40=1/2;
 3/5=44,7=101,11=2,25=1,30=1,71=1,74=-55,124=31/1,2,3;
 4//1;
 5/5=2,6=8,38=5/2;
 6/7=2,8=2,9=2,10=2,14=2,15=1,28=1/1,2;
 7/7=1,16=-2,29=1,30=1/1,2,3,16;
 1/10=7,18=10,28=-2,30=1/3;
 99/12=1/99;
 Leave Link    1 at Sat Jun 22 17:10:52 2024, MaxMem=  2684354560 cpu:               0.9 elap:               0.1
 (Enter /storage/apps/GAUSSIAN/G16_RevA03/g16/l101.exe)
 ----------------------------------------------------------------------
 Gaussian run using SANDER external interface, route from template gau_
 job.tpl
 ----------------------------------------------------------------------
 Symbolic Z-matrix:
 Charge =  1 Multiplicity = 1
 C                    -4.15566   0.40254   6.7614 
 H                    -4.01399   0.48363   7.77175 
 O                    -2.95042  -0.18007   6.16933 
 C                    -4.29324   1.78177   6.11292 
 H                    -5.26112   2.123     6.07727 
 O                    -3.47843   2.77973   6.78199 
 H                    -3.64694   2.8213    7.74454 
 C                    -3.65966   1.57897   4.72763 
 H                    -4.3133    1.14392   4.06868 
 O                    -3.21493   2.81986   4.16782 
 H                    -3.00819   3.39594   4.92803 
 C                    -2.46948   0.6416    5.05816 
 H                    -1.66279   1.19047   5.37966 
 N                    -2.01965  -0.22725   3.97123 
 C                    -0.66794  -0.31266   3.69111 
 H                    -0.07968   0.27938   4.27396 
 C                    -0.15545  -1.11876   2.74567 
 C                    -1.06884  -1.93547   1.85438 
 H                    -0.7433   -2.90282   1.8066 
 H                    -0.98226  -1.57722   0.89696 
 C                    -2.49968  -1.87502   2.31197 
 H                    -3.16925  -2.50238   1.86963 
 C                    -2.90929  -1.07633   3.2943 
 H                    -3.87811  -1.05537   3.60983 
 C                     1.29055  -1.30881   2.5281 
 O                     1.71582  -2.17299   1.70915 
 N                     2.20673  -0.54245   3.20914 
 H                     1.926     0.09708   3.94924 
 H                     3.17191  -0.87077   3.22706 
 N                     2.1445   -3.15531  -1.96158 
 C                     3.27822  -2.46001  -2.25602 
 N                     4.4083   -3.12094  -2.583 
 H                     4.44707  -4.13639  -2.54193 
 H                     5.26112  -2.59606  -2.84575 
 N                     3.32855  -1.08138  -2.26112 
 H                     4.25721  -0.62071  -2.3859 
 C                     2.23399  -0.28709  -1.9454 
 O                     2.347     0.97594  -1.9107 
 C                     1.02377  -1.00563  -1.69683 
 N                    -0.14002  -0.3351   -1.32699 
 H                    -0.05675   0.68297  -1.22702 
 C                    -1.29754  -0.92119  -1.10218 
 C                    -1.43329  -2.40896  -1.35578 
 H                    -2.01801  -2.8215   -0.62778 
 H                    -1.92591  -2.55349  -2.24623 
 N                    -0.12838  -3.07941  -1.37349 
 H                    -0.10937  -4.09222  -1.2794 
 C                     1.02626  -2.42859  -1.68274 
 C                    -2.53482  -0.08235  -0.81436 
 H                    -2.68228  -0.00318   0.19488 
 H                    -3.34924  -0.57129  -1.19883 
 N                    -2.42324   1.27835  -1.35278 
 H                    -2.78154   2.0062   -0.73197 
 C                    -2.253     2.14478  -5.46288 
 C                    -2.40756   3.17081  -4.4993 
 H                    -2.44391   4.13639  -4.8213 
 C                    -2.48024   2.889    -3.17342 
 H                    -2.57923   3.64212  -2.49417 
 C                    -2.41344   1.54784  -2.71929 
 C                    -2.29207   0.52322  -3.68225 
 H                    -2.27445  -0.45465  -3.3971 
 C                    -2.21177   0.82652  -5.00816 
 H                    -2.13293   0.05918  -5.67391 
 C                    -2.13717   2.49501  -6.88518 
 O                    -2.39842   3.67394  -7.30628 
 N                    -1.72172   1.54112  -7.77175 
 H                    -1.56851   0.58099  -7.4813 
 H                    -5.00651  -0.24947   6.56383 
 H                    -1.63561   1.70391  -8.84608 
 
 ITRead=  0  0  0  0  0  0  0  0  0  0  0  0  0  0  0  0  0  0  0  0
 ITRead=  0  0  0  0  0  0  0  0  0  0  0  0  0  0  0  0  0  0  0  0
 ITRead=  0  0  0  0  0  0  0  0  0  0  0  0  0  0  0  0  0  0  0  0
 ITRead=  0  0  0  0  0  0  0  0  0
 MicOpt= -1 -1 -1 -1 -1 -1 -1 -1 -1 -1 -1 -1 -1 -1 -1 -1 -1 -1 -1 -1
 MicOpt= -1 -1 -1 -1 -1 -1 -1 -1 -1 -1 -1 -1 -1 -1 -1 -1 -1 -1 -1 -1
 MicOpt= -1 -1 -1 -1 -1 -1 -1 -1 -1 -1 -1 -1 -1 -1 -1 -1 -1 -1 -1 -1
 MicOpt= -1 -1 -1 -1 -1 -1 -1 -1 -1
 NAtoms=     69 NQM=       69 NQMF=       0 NMMI=      0 NMMIF=      0
                NMic=       0 NMicF=      0.
                    Isotopes and Nuclear Properties:
 (Nuclear quadrupole moments (NQMom) in fm**2, nuclear magnetic moments (NMagM)
  in nuclear magnetons)

  Atom         1           2           3           4           5           6           7           8           9          10
 IAtWgt=          12           1          16          12           1          16           1          12           1          16
 AtmWgt=  12.0000000   1.0078250  15.9949146  12.0000000   1.0078250  15.9949146   1.0078250  12.0000000   1.0078250  15.9949146
 NucSpn=           0           1           0           0           1           0           1           0           1           0
 AtZEff=  -0.0000000  -0.0000000  -0.0000000  -0.0000000  -0.0000000  -0.0000000  -0.0000000  -0.0000000  -0.0000000  -0.0000000
 NQMom=    0.0000000   0.0000000   0.0000000   0.0000000   0.0000000   0.0000000   0.0000000   0.0000000   0.0000000   0.0000000
 NMagM=    0.0000000   2.7928460   0.0000000   0.0000000   2.7928460   0.0000000   2.7928460   0.0000000   2.7928460   0.0000000
 AtZNuc=   6.0000000   1.0000000   8.0000000   6.0000000   1.0000000   8.0000000   1.0000000   6.0000000   1.0000000   8.0000000

  Atom        11          12          13          14          15          16          17          18          19          20
 IAtWgt=           1          12           1          14          12           1          12          12           1           1
 AtmWgt=   1.0078250  12.0000000   1.0078250  14.0030740  12.0000000   1.0078250  12.0000000  12.0000000   1.0078250   1.0078250
 NucSpn=           1           0           1           2           0           1           0           0           1           1
 AtZEff=  -0.0000000  -0.0000000  -0.0000000  -0.0000000  -0.0000000  -0.0000000  -0.0000000  -0.0000000  -0.0000000  -0.0000000
 NQMom=    0.0000000   0.0000000   0.0000000   2.0440000   0.0000000   0.0000000   0.0000000   0.0000000   0.0000000   0.0000000
 NMagM=    2.7928460   0.0000000   2.7928460   0.4037610   0.0000000   2.7928460   0.0000000   0.0000000   2.7928460   2.7928460
 AtZNuc=   1.0000000   6.0000000   1.0000000   7.0000000   6.0000000   1.0000000   6.0000000   6.0000000   1.0000000   1.0000000

  Atom        21          22          23          24          25          26          27          28          29          30
 IAtWgt=          12           1          12           1          12          16          14           1           1          14
 AtmWgt=  12.0000000   1.0078250  12.0000000   1.0078250  12.0000000  15.9949146  14.0030740   1.0078250   1.0078250  14.0030740
 NucSpn=           0           1           0           1           0           0           2           1           1           2
 AtZEff=  -0.0000000  -0.0000000  -0.0000000  -0.0000000  -0.0000000  -0.0000000  -0.0000000  -0.0000000  -0.0000000  -0.0000000
 NQMom=    0.0000000   0.0000000   0.0000000   0.0000000   0.0000000   0.0000000   2.0440000   0.0000000   0.0000000   2.0440000
 NMagM=    0.0000000   2.7928460   0.0000000   2.7928460   0.0000000   0.0000000   0.4037610   2.7928460   2.7928460   0.4037610
 AtZNuc=   6.0000000   1.0000000   6.0000000   1.0000000   6.0000000   8.0000000   7.0000000   1.0000000   1.0000000   7.0000000

  Atom        31          32          33          34          35          36          37          38          39          40
 IAtWgt=          12          14           1           1          14           1          12          16          12          14
 AtmWgt=  12.0000000  14.0030740   1.0078250   1.0078250  14.0030740   1.0078250  12.0000000  15.9949146  12.0000000  14.0030740
 NucSpn=           0           2           1           1           2           1           0           0           0           2
 AtZEff=  -0.0000000  -0.0000000  -0.0000000  -0.0000000  -0.0000000  -0.0000000  -0.0000000  -0.0000000  -0.0000000  -0.0000000
 NQMom=    0.0000000   2.0440000   0.0000000   0.0000000   2.0440000   0.0000000   0.0000000   0.0000000   0.0000000   2.0440000
 NMagM=    0.0000000   0.4037610   2.7928460   2.7928460   0.4037610   2.7928460   0.0000000   0.0000000   0.0000000   0.4037610
 AtZNuc=   6.0000000   7.0000000   1.0000000   1.0000000   7.0000000   1.0000000   6.0000000   8.0000000   6.0000000   7.0000000

  Atom        41          42          43          44          45          46          47          48          49          50
 IAtWgt=           1          12          12           1           1          14           1          12          12           1
 AtmWgt=   1.0078250  12.0000000  12.0000000   1.0078250   1.0078250  14.0030740   1.0078250  12.0000000  12.0000000   1.0078250
 NucSpn=           1           0           0           1           1           2           1           0           0           1
 AtZEff=  -0.0000000  -0.0000000  -0.0000000  -0.0000000  -0.0000000  -0.0000000  -0.0000000  -0.0000000  -0.0000000  -0.0000000
 NQMom=    0.0000000   0.0000000   0.0000000   0.0000000   0.0000000   2.0440000   0.0000000   0.0000000   0.0000000   0.0000000
 NMagM=    2.7928460   0.0000000   0.0000000   2.7928460   2.7928460   0.4037610   2.7928460   0.0000000   0.0000000   2.7928460
 AtZNuc=   1.0000000   6.0000000   6.0000000   1.0000000   1.0000000   7.0000000   1.0000000   6.0000000   6.0000000   1.0000000

  Atom        51          52          53          54          55          56          57          58          59          60
 IAtWgt=           1          14           1          12          12           1          12           1          12          12
 AtmWgt=   1.0078250  14.0030740   1.0078250  12.0000000  12.0000000   1.0078250  12.0000000   1.0078250  12.0000000  12.0000000
 NucSpn=           1           2           1           0           0           1           0           1           0           0
 AtZEff=  -0.0000000  -0.0000000  -0.0000000  -0.0000000  -0.0000000  -0.0000000  -0.0000000  -0.0000000  -0.0000000  -0.0000000
 NQMom=    0.0000000   2.0440000   0.0000000   0.0000000   0.0000000   0.0000000   0.0000000   0.0000000   0.0000000   0.0000000
 NMagM=    2.7928460   0.4037610   2.7928460   0.0000000   0.0000000   2.7928460   0.0000000   2.7928460   0.0000000   0.0000000
 AtZNuc=   1.0000000   7.0000000   1.0000000   6.0000000   6.0000000   1.0000000   6.0000000   1.0000000   6.0000000   6.0000000

  Atom        61          62          63          64          65          66          67          68          69
 IAtWgt=           1          12           1          12          16          14           1           1           1
 AtmWgt=   1.0078250  12.0000000   1.0078250  12.0000000  15.9949146  14.0030740   1.0078250   1.0078250   1.0078250
 NucSpn=           1           0           1           0           0           2           1           1           1
 AtZEff=  -0.0000000  -0.0000000  -0.0000000  -0.0000000  -0.0000000  -0.0000000  -0.0000000  -0.0000000  -0.0000000
 NQMom=    0.0000000   0.0000000   0.0000000   0.0000000   0.0000000   2.0440000   0.0000000   0.0000000   0.0000000
 NMagM=    2.7928460   0.0000000   2.7928460   0.0000000   0.0000000   0.4037610   2.7928460   2.7928460   2.7928460
 AtZNuc=   1.0000000   6.0000000   1.0000000   6.0000000   8.0000000   7.0000000   1.0000000   1.0000000   1.0000000
 Background charge distribution read from input stream:
 Leave Link  101 at Sat Jun 22 17:10:53 2024, MaxMem=  2684354560 cpu:               3.1 elap:               0.3
 (Enter /storage/apps/GAUSSIAN/G16_RevA03/g16/l103.exe)

 GradGradGradGradGradGradGradGradGradGradGradGradGradGradGradGradGradGrad
 Berny optimization.
 Initialization pass.
 Trust Radius=3.00D-01 FncErr=1.00D-07 GrdErr=1.00D-07 EigMax=2.50D+02 EigMin=1.00D-04
 Number of steps in this run=      2 maximum allowed number of steps=      2.
 GradGradGradGradGradGradGradGradGradGradGradGradGradGradGradGradGradGrad

 Leave Link  103 at Sat Jun 22 17:10:53 2024, MaxMem=  2684354560 cpu:               0.7 elap:               0.2
 (Enter /storage/apps/GAUSSIAN/G16_RevA03/g16/l202.exe)
 Symmetry turned off by external request.
 Stoichiometry    C24H30N9O6(1+)
 Framework group  C1[X(C24H30N9O6)]
 Deg. of freedom   201
 Full point group                 C1      NOp   1
                          Input orientation:                          
 ---------------------------------------------------------------------
 Center     Atomic      Atomic             Coordinates (Angstroms)
 Number     Number       Type             X           Y           Z
 ---------------------------------------------------------------------
      1          6           0       -4.155656    0.402541    6.761402
      2          1           0       -4.013989    0.483628    7.771746
      3          8           0       -2.950424   -0.180069    6.169326
      4          6           0       -4.293235    1.781774    6.112922
      5          1           0       -5.261119    2.123003    6.077270
      6          8           0       -3.478426    2.779735    6.781986
      7          1           0       -3.646943    2.821296    7.744543
      8          6           0       -3.659663    1.578969    4.727633
      9          1           0       -4.313297    1.143917    4.068684
     10          8           0       -3.214928    2.819855    4.167824
     11          1           0       -3.008191    3.395939    4.928028
     12          6           0       -2.469482    0.641605    5.058163
     13          1           0       -1.662787    1.190470    5.379657
     14          7           0       -2.019654   -0.227254    3.971229
     15          6           0       -0.667941   -0.312662    3.691111
     16          1           0       -0.079683    0.279383    4.273958
     17          6           0       -0.155448   -1.118756    2.745669
     18          6           0       -1.068839   -1.935466    1.854379
     19          1           0       -0.743304   -2.902822    1.806601
     20          1           0       -0.982256   -1.577217    0.896959
     21          6           0       -2.499685   -1.875020    2.311965
     22          1           0       -3.169254   -2.502376    1.869628
     23          6           0       -2.909294   -1.076327    3.294302
     24          1           0       -3.878106   -1.055367    3.609826
     25          6           0        1.290545   -1.308813    2.528103
     26          8           0        1.715823   -2.172986    1.709147
     27          7           0        2.206733   -0.542447    3.209139
     28          1           0        1.926001    0.097082    3.949235
     29          1           0        3.171907   -0.870772    3.227056
     30          7           0        2.144500   -3.155308   -1.961580
     31          6           0        3.278220   -2.460015   -2.256017
     32          7           0        4.408298   -3.120943   -2.583003
     33          1           0        4.447075   -4.136388   -2.541931
     34          1           0        5.261119   -2.596060   -2.845752
     35          7           0        3.328545   -1.081382   -2.261118
     36          1           0        4.257212   -0.620710   -2.385897
     37          6           0        2.233987   -0.287090   -1.945400
     38          8           0        2.347003    0.975945   -1.910704
     39          6           0        1.023769   -1.005626   -1.696833
     40          7           0       -0.140020   -0.335104   -1.326992
     41          1           0       -0.056752    0.682971   -1.227015
     42          6           0       -1.297541   -0.921190   -1.102183
     43          6           0       -1.433291   -2.408962   -1.355778
     44          1           0       -2.018010   -2.821499   -0.627784
     45          1           0       -1.925915   -2.553489   -2.246231
     46          7           0       -0.128379   -3.079409   -1.373493
     47          1           0       -0.109366   -4.092222   -1.279395
     48          6           0        1.026262   -2.428586   -1.682739
     49          6           0       -2.534825   -0.082346   -0.814359
     50          1           0       -2.682276   -0.003178    0.194882
     51          1           0       -3.349240   -0.571285   -1.198829
     52          7           0       -2.423240    1.278352   -1.352783
     53          1           0       -2.781538    2.006199   -0.731965
     54          6           0       -2.252996    2.144783   -5.462882
     55          6           0       -2.407563    3.170806   -4.499300
     56          1           0       -2.443909    4.136388   -4.821295
     57          6           0       -2.480240    2.888995   -3.173420
     58          1           0       -2.579231    3.642117   -2.494167
     59          6           0       -2.413440    1.547844   -2.719289
     60          6           0       -2.292072    0.523222   -3.682249
     61          1           0       -2.274449   -0.454654   -3.397101
     62          6           0       -2.211766    0.826522   -5.008160
     63          1           0       -2.132932    0.059184   -5.673912
     64          6           0       -2.137175    2.495011   -6.885182
     65          8           0       -2.398418    3.673944   -7.306279
     66          7           0       -1.721716    1.541117   -7.771746
     67          1           0       -1.568509    0.580990   -7.481300
     68          1           0       -5.006507   -0.249469    6.563833
     69          1           0       -1.635612    1.703909   -8.846076
 ---------------------------------------------------------------------
 Rotational constants (GHZ):           0.1081834           0.0510536           0.0385884
 Leave Link  202 at Sat Jun 22 17:10:54 2024, MaxMem=  2684354560 cpu:               0.5 elap:               0.1
 (Enter /storage/apps/GAUSSIAN/G16_RevA03/g16/l301.exe)
 Standard basis: def2TZVP (5D, 7F)
 Ernie: Thresh=  0.10000D-02 Tol=  0.10000D-05 Strict=F.
  1389 basis functions,  2229 primitive gaussians,  1584 cartesian basis functions
   142 alpha electrons      142 beta electrons
       nuclear repulsion energy      4409.5177790065 Hartrees.
 IExCor= 4336 DFT=T Ex+Corr=M062X ExCW=0 ScaHFX=  0.540000
 ScaDFX=  1.000000  1.000000  1.000000  1.000000 ScalE2=  1.000000  1.000000
 IRadAn=      5 IRanWt=     -1 IRanGd=            0 ICorTp=0 IEmpDi=131
 NAtoms=   69 NActive=   69 NUniq=   69 SFac= 1.00D+00 NAtFMM=   60 NAOKFM=T Big=T
 Integral buffers will be    131072 words long.
 Raffenetti 2 integral format.
 Two-electron integral symmetry is turned off.
 R6Disp:  Grimme-D3 Dispersion energy=       -0.0064770449 Hartrees.
 Nuclear repulsion after empirical dispersion term =     4409.5113019617 Hartrees.
 Leave Link  301 at Sat Jun 22 17:10:54 2024, MaxMem=  2684354560 cpu:               5.7 elap:               0.6
 (Enter /storage/apps/GAUSSIAN/G16_RevA03/g16/l302.exe)
 NPDir=0 NMtPBC=     1 NCelOv=     1 NCel=       1 NClECP=     1 NCelD=      1
         NCelK=      1 NCelE2=     1 NClLst=     1 CellRange=     0.0.
 One-electron integrals computed using PRISM.
   1 Symmetry operations used in ECPInt.
 ECPInt:  NShTT=  150975 NPrTT=  462228 LenC2=  106690 LenP2D=  215525.
 LDataN:  DoStor=T MaxTD1= 6 Len=  172
 NBasis=  1389 RedAO= T EigKep=  5.96D-06  NBF=  1389
 NBsUse=  1389 1.00D-06 EigRej= -1.00D+00 NBFU=  1389
 Precomputing XC quadrature grid using
 IXCGrd= 4 IRadAn=           5 IRanWt=          -1 IRanGd=           0 AccXCQ= 0.00D+00.
 Generated NRdTot=       0 NPtTot=           0 NUsed=           0 NTot=          32
 NSgBfM=  1494  1486  1493  1494  1494 MxSgAt=    69 MxSgA2=    69.
 Leave Link  302 at Sat Jun 22 17:10:58 2024, MaxMem=  2684354560 cpu:              45.5 elap:               3.0
 (Enter /storage/apps/GAUSSIAN/G16_RevA03/g16/l303.exe)
 DipDrv:  MaxL=1.
 Leave Link  303 at Sat Jun 22 17:10:59 2024, MaxMem=  2684354560 cpu:               4.7 elap:               0.6
 (Enter /storage/apps/GAUSSIAN/G16_RevA03/g16/l401.exe)
 ExpMin= 9.52D-02 ExpMax= 2.70D+04 ExpMxC= 9.22D+02 IAcc=3 IRadAn=         5 AccDes= 0.00D+00
 Harris functional with IExCor= 1009 and IRadAn=       5 diagonalized for initial guess.
 HarFok:  IExCor= 1009 AccDes= 0.00D+00 IRadAn=         5 IDoV= 1 UseB2=F ITyADJ=14
 ICtDFT=  3500011 ScaDFX=  1.000000  1.000000  1.000000  1.000000
 FoFCou: FMM=F IPFlag=           0 FMFlag=      100000 FMFlg1=        2001
         NFxFlg=           0 DoJE=T BraDBF=F KetDBF=T FulRan=T
         wScrn=  0.000000 ICntrl=       500 IOpCl=  0 I1Cent=   200000004 NGrid=           0
         NMat0=    1 NMatS0=      1 NMatT0=    0 NMatD0=    1 NMtDS0=    0 NMtDT0=    0
 Symmetry not used in FoFCou.
 Harris En= -1875.51959047310    
 JPrj=0 DoOrth=F DoCkMO=F.
 Leave Link  401 at Sat Jun 22 17:11:06 2024, MaxMem=  2684354560 cpu:             105.3 elap:               6.9
 (Enter /storage/apps/GAUSSIAN/G16_RevA03/g16/l502.exe)
 Two-electron integral symmetry not used.
 Closed shell SCF:
 Using DIIS extrapolation, IDIIS=  1040.
 NGot=  2684354560 LenX=  2679300873 LenY=  2676790233
 Requested convergence on RMS density matrix=1.00D-08 within 128 cycles.
 Requested convergence on MAX density matrix=1.00D-06.
 Requested convergence on             energy=1.00D-06.
 No special actions if energy rises.
 Fock matrices will be formed incrementally for  20 cycles.
 Integral accuracy reduced to 1.0D-05 until final iterations.

 Cycle   1  Pass 0  IDiag  1:
 FoFJK:  IHMeth= 1 ICntrl=       0 DoSepK=F KAlg= 0 I1Cent=           0 FoldK=F
 IRaf= 690000000 NMat=       1 IRICut=       1 DoRegI=T DoRafI=F ISym2E= 0 IDoP0=0 IntGTp=1.
 FoFCou: FMM=T IPFlag=           0 FMFlag=      100000 FMFlg1=        2001
         NFxFlg=           0 DoJE=F BraDBF=F KetDBF=F FulRan=T
         wScrn=  0.000000 ICntrl=         0 IOpCl=  0 I1Cent=           0 NGrid=           0
         NMat0=    1 NMatS0=      1 NMatT0=    0 NMatD0=    1 NMtDS0=    0 NMtDT0=    0
 Symmetry not used in FoFCou.
 FMM levels:  10  Number of levels for PrismC:   9
 E= -1875.48454711830    
 DIIS: error= 1.57D-02 at cycle   1 NSaved=   1.
 NSaved= 1 IEnMin= 1 EnMin= -1875.48454711830     IErMin= 1 ErrMin= 1.57D-02
 ErrMax= 1.57D-02  0.00D+00 EMaxC= 1.00D-01 BMatC= 1.37D+00 BMatP= 1.37D+00
 IDIUse=3 WtCom= 8.43D-01 WtEn= 1.57D-01
 Coeff-Com:  0.100D+01
 Coeff-En:   0.100D+01
 Coeff:      0.100D+01
 Gap=     0.348 Goal=   None    Shift=    0.000
 GapD=    0.348 DampG=1.000 DampE=0.500 DampFc=0.5000 IDamp=-1.
 Damping current iteration by 5.00D-01
 RMSDP=5.19D+01 MaxDP=1.11D+04              OVMax= 9.98D-01

 Problem detected with inexpensive integrals.
 Switching to full accuracy and repeating last cycle.
 Cycle   2  Pass 1  IDiag  1:
 E= -1875.48475656728     Delta-E=       -0.000209448978 Rises=F Damp=F
 DIIS: error= 1.57D-02 at cycle   1 NSaved=   1.
 NSaved= 1 IEnMin= 1 EnMin= -1875.48475656728     IErMin= 1 ErrMin= 1.57D-02
 ErrMax= 1.57D-02  0.00D+00 EMaxC= 1.00D-01 BMatC= 1.37D+00 BMatP= 1.37D+00
 IDIUse=3 WtCom= 8.43D-01 WtEn= 1.57D-01
 Coeff-Com:  0.100D+01
 Coeff-En:   0.100D+01
 Coeff:      0.100D+01
 Gap=     0.348 Goal=   None    Shift=    0.000
 GapD=    0.348 DampG=1.000 DampE=0.500 DampFc=0.5000 IDamp=-1.
 Damping current iteration by 5.00D-01
 RMSDP=3.67D-03 MaxDP=1.05D+00 DE=-2.09D-04 OVMax= 9.12D-01

 Cycle   3  Pass 1  IDiag  1:
 RMSU=  1.83D-03    CP:  1.02D+00
 E= -1875.50362051489     Delta-E=       -0.018863947603 Rises=F Damp=T
 DIIS: error= 9.77D-03 at cycle   2 NSaved=   2.
 NSaved= 2 IEnMin= 2 EnMin= -1875.50362051489     IErMin= 2 ErrMin= 9.77D-03
 ErrMax= 9.77D-03  0.00D+00 EMaxC= 1.00D-01 BMatC= 3.16D-01 BMatP= 1.37D+00
 IDIUse=3 WtCom= 9.02D-01 WtEn= 9.77D-02
 Coeff-Com:  0.151D+00 0.849D+00
 Coeff-En:   0.489D+00 0.511D+00
 Coeff:      0.184D+00 0.816D+00
 Gap=    -0.393 Goal=   None    Shift=    0.000
 GapD=   -0.393 DampG=0.250 DampE=1.000 DampFc=0.2500 IDamp=-1.
 Damping current iteration by 2.50D-01
 RMSDP=1.49D-03 MaxDP=2.99D-01 DE=-1.89D-02 OVMax= 6.65D-01

 Cycle   4  Pass 1  IDiag  1:
 RMSU=  3.01D-04    CP:  1.01D+00  8.81D-01
 E= -1875.82190598207     Delta-E=       -0.318285467180 Rises=F Damp=T
 DIIS: error= 4.31D-03 at cycle   3 NSaved=   3.
 NSaved= 3 IEnMin= 3 EnMin= -1875.82190598207     IErMin= 3 ErrMin= 4.31D-03
 ErrMax= 4.31D-03  0.00D+00 EMaxC= 1.00D-01 BMatC= 9.34D-02 BMatP= 3.16D-01
 IDIUse=3 WtCom= 9.57D-01 WtEn= 4.31D-02
 Coeff-Com: -0.302D-01-0.753D+00 0.178D+01
 Coeff-En:   0.212D+00 0.000D+00 0.788D+00
 Coeff:     -0.198D-01-0.720D+00 0.174D+01
 Gap=     0.226 Goal=   None    Shift=    0.000
 RMSDP=1.05D-03 MaxDP=2.34D-01 DE=-3.18D-01 OVMax= 2.05D-01

 Cycle   5  Pass 1  IDiag  1:
 RMSU=  6.19D-04    CP:  9.97D-01  5.08D-01  2.64D+00
 E= -1876.40434942840     Delta-E=       -0.582443446337 Rises=F Damp=F
 DIIS: error= 3.26D-03 at cycle   4 NSaved=   4.
 NSaved= 4 IEnMin= 4 EnMin= -1876.40434942840     IErMin= 4 ErrMin= 3.26D-03
 ErrMax= 3.26D-03  0.00D+00 EMaxC= 1.00D-01 BMatC= 3.99D-02 BMatP= 9.34D-02
 IDIUse=3 WtCom= 9.67D-01 WtEn= 3.26D-02
 Coeff-Com: -0.837D-01 0.688D-01 0.272D+00 0.743D+00
 Coeff-En:   0.000D+00 0.000D+00 0.000D+00 0.100D+01
 Coeff:     -0.810D-01 0.665D-01 0.263D+00 0.751D+00
 Gap=     0.168 Goal=   None    Shift=    0.000
 RMSDP=2.52D-04 MaxDP=8.40D-02 DE=-5.82D-01 OVMax= 3.70D-02

 Cycle   6  Pass 1  IDiag  1:
 RMSU=  2.04D-04    CP:  1.00D+00  5.64D-01  2.39D+00  1.12D+00
 E= -1876.43677046402     Delta-E=       -0.032421035613 Rises=F Damp=F
 DIIS: error= 2.28D-03 at cycle   5 NSaved=   5.
 NSaved= 5 IEnMin= 5 EnMin= -1876.43677046402     IErMin= 5 ErrMin= 2.28D-03
 ErrMax= 2.28D-03  0.00D+00 EMaxC= 1.00D-01 BMatC= 8.31D-03 BMatP= 3.99D-02
 IDIUse=3 WtCom= 9.77D-01 WtEn= 2.28D-02
 Coeff-Com: -0.463D-01 0.237D+00-0.178D+00 0.344D+00 0.643D+00
 Coeff-En:   0.000D+00 0.000D+00 0.000D+00 0.000D+00 0.100D+01
 Coeff:     -0.453D-01 0.232D+00-0.174D+00 0.337D+00 0.651D+00
 Gap=     0.166 Goal=   None    Shift=    0.000
 RMSDP=1.53D-04 MaxDP=5.01D-02 DE=-3.24D-02 OVMax= 4.51D-02

 Cycle   7  Pass 1  IDiag  1:
 RMSU=  9.55D-05    CP:  1.00D+00  5.73D-01  2.16D+00  1.26D+00  1.18D+00
 E= -1876.44619347197     Delta-E=       -0.009423007959 Rises=F Damp=F
 DIIS: error= 5.52D-04 at cycle   6 NSaved=   6.
 NSaved= 6 IEnMin= 6 EnMin= -1876.44619347197     IErMin= 6 ErrMin= 5.52D-04
 ErrMax= 5.52D-04  0.00D+00 EMaxC= 1.00D-01 BMatC= 1.15D-03 BMatP= 8.31D-03
 IDIUse=3 WtCom= 9.94D-01 WtEn= 5.52D-03
 Coeff-Com: -0.471D-02 0.932D-01-0.117D+00-0.636D-01 0.247D+00 0.845D+00
 Coeff-En:   0.000D+00 0.000D+00 0.000D+00 0.000D+00 0.000D+00 0.100D+01
 Coeff:     -0.469D-02 0.927D-01-0.116D+00-0.632D-01 0.245D+00 0.846D+00
 Gap=     0.173 Goal=   None    Shift=    0.000
 RMSDP=7.01D-05 MaxDP=2.44D-02 DE=-9.42D-03 OVMax= 1.62D-02

 Cycle   8  Pass 1  IDiag  1:
 RMSU=  3.48D-05    CP:  1.00D+00  5.83D-01  2.08D+00  1.29D+00  1.42D+00
                    CP:  1.05D+00
 E= -1876.44744319273     Delta-E=       -0.001249720756 Rises=F Damp=F
 DIIS: error= 2.56D-04 at cycle   7 NSaved=   7.
 NSaved= 7 IEnMin= 7 EnMin= -1876.44744319273     IErMin= 7 ErrMin= 2.56D-04
 ErrMax= 2.56D-04  0.00D+00 EMaxC= 1.00D-01 BMatC= 1.78D-04 BMatP= 1.15D-03
 IDIUse=3 WtCom= 9.97D-01 WtEn= 2.56D-03
 Coeff-Com:  0.205D-02 0.368D-02-0.102D-01-0.607D-01 0.320D-01 0.400D+00
 Coeff-Com:  0.633D+00
 Coeff-En:   0.000D+00 0.000D+00 0.000D+00 0.000D+00 0.000D+00 0.000D+00
 Coeff-En:   0.100D+01
 Coeff:      0.204D-02 0.367D-02-0.102D-01-0.605D-01 0.319D-01 0.399D+00
 Coeff:      0.634D+00
 Gap=     0.173 Goal=   None    Shift=    0.000
 RMSDP=2.27D-05 MaxDP=3.92D-03 DE=-1.25D-03 OVMax= 5.42D-03

 Cycle   9  Pass 1  IDiag  1:
 RMSU=  2.09D-05    CP:  1.00D+00  5.81D-01  2.07D+00  1.28D+00  1.43D+00
                    CP:  1.12D+00  1.02D+00
 E= -1876.44760388859     Delta-E=       -0.000160695861 Rises=F Damp=F
 DIIS: error= 7.53D-05 at cycle   8 NSaved=   8.
 NSaved= 8 IEnMin= 8 EnMin= -1876.44760388859     IErMin= 8 ErrMin= 7.53D-05
 ErrMax= 7.53D-05  0.00D+00 EMaxC= 1.00D-01 BMatC= 1.91D-05 BMatP= 1.78D-04
 IDIUse=1 WtCom= 1.00D+00 WtEn= 0.00D+00
 Coeff-Com:  0.328D-03-0.797D-02 0.109D-01-0.685D-02 0.149D-02 0.548D-01
 Coeff-Com:  0.215D+00 0.732D+00
 Coeff:      0.328D-03-0.797D-02 0.109D-01-0.685D-02 0.149D-02 0.548D-01
 Coeff:      0.215D+00 0.732D+00
 Gap=     0.173 Goal=   None    Shift=    0.000
 RMSDP=1.10D-05 MaxDP=4.24D-03 DE=-1.61D-04 OVMax= 1.88D-03

 Cycle  10  Pass 1  IDiag  1:
 RMSU=  6.17D-06    CP:  1.00D+00  5.79D-01  2.08D+00  1.27D+00  1.42D+00
                    CP:  1.10D+00  1.10D+00  1.18D+00
 E= -1876.44762482444     Delta-E=       -0.000020935850 Rises=F Damp=F
 DIIS: error= 3.99D-05 at cycle   9 NSaved=   9.
 NSaved= 9 IEnMin= 9 EnMin= -1876.44762482444     IErMin= 9 ErrMin= 3.99D-05
 ErrMax= 3.99D-05  0.00D+00 EMaxC= 1.00D-01 BMatC= 4.79D-06 BMatP= 1.91D-05
 IDIUse=1 WtCom= 1.00D+00 WtEn= 0.00D+00
 Coeff-Com: -0.510D-03-0.448D-02 0.796D-02 0.126D-01-0.234D-02-0.739D-01
 Coeff-Com: -0.697D-01 0.331D+00 0.800D+00
 Coeff:     -0.510D-03-0.448D-02 0.796D-02 0.126D-01-0.234D-02-0.739D-01
 Coeff:     -0.697D-01 0.331D+00 0.800D+00
 Gap=     0.173 Goal=   None    Shift=    0.000
 RMSDP=7.47D-06 MaxDP=2.99D-03 DE=-2.09D-05 OVMax= 9.58D-04

 Cycle  11  Pass 1  IDiag  1:
 RMSU=  2.85D-06    CP:  1.00D+00  5.79D-01  2.09D+00  1.27D+00  1.41D+00
                    CP:  1.09D+00  1.15D+00  1.44D+00  1.18D+00
 E= -1876.44763048833     Delta-E=       -0.000005663884 Rises=F Damp=F
 DIIS: error= 1.54D-05 at cycle  10 NSaved=  10.
 NSaved=10 IEnMin=10 EnMin= -1876.44763048833     IErMin=10 ErrMin= 1.54D-05
 ErrMax= 1.54D-05  0.00D+00 EMaxC= 1.00D-01 BMatC= 7.91D-07 BMatP= 4.79D-06
 IDIUse=1 WtCom= 1.00D+00 WtEn= 0.00D+00
 Coeff-Com: -0.183D-03-0.166D-03 0.618D-03 0.525D-02-0.796D-03-0.402D-01
 Coeff-Com: -0.638D-01 0.568D-01 0.367D+00 0.675D+00
 Coeff:     -0.183D-03-0.166D-03 0.618D-03 0.525D-02-0.796D-03-0.402D-01
 Coeff:     -0.638D-01 0.568D-01 0.367D+00 0.675D+00
 Gap=     0.173 Goal=   None    Shift=    0.000
 RMSDP=2.09D-06 MaxDP=5.04D-04 DE=-5.66D-06 OVMax= 6.48D-04

 Cycle  12  Pass 1  IDiag  1:
 RMSU=  1.01D-06    CP:  1.00D+00  5.79D-01  2.09D+00  1.27D+00  1.42D+00
                    CP:  1.10D+00  1.17D+00  1.51D+00  1.26D+00  9.17D-01
 E= -1876.44763154207     Delta-E=       -0.000001053744 Rises=F Damp=F
 DIIS: error= 5.91D-06 at cycle  11 NSaved=  11.
 NSaved=11 IEnMin=11 EnMin= -1876.44763154207     IErMin=11 ErrMin= 5.91D-06
 ErrMax= 5.91D-06  0.00D+00 EMaxC= 1.00D-01 BMatC= 9.07D-08 BMatP= 7.91D-07
 IDIUse=1 WtCom= 1.00D+00 WtEn= 0.00D+00
 Coeff-Com: -0.329D-04 0.363D-03-0.445D-03 0.104D-02-0.302D-03-0.111D-01
 Coeff-Com: -0.233D-01-0.918D-02 0.690D-01 0.308D+00 0.666D+00
 Coeff:     -0.329D-04 0.363D-03-0.445D-03 0.104D-02-0.302D-03-0.111D-01
 Coeff:     -0.233D-01-0.918D-02 0.690D-01 0.308D+00 0.666D+00
 Gap=     0.173 Goal=   None    Shift=    0.000
 RMSDP=7.15D-07 MaxDP=2.61D-04 DE=-1.05D-06 OVMax= 1.70D-04

 Cycle  13  Pass 1  IDiag  1:
 RMSU=  2.91D-07    CP:  1.00D+00  5.79D-01  2.09D+00  1.27D+00  1.42D+00
                    CP:  1.10D+00  1.17D+00  1.53D+00  1.30D+00  1.02D+00
                    CP:  1.00D+00
 E= -1876.44763164254     Delta-E=       -0.000000100470 Rises=F Damp=F
 DIIS: error= 2.10D-06 at cycle  12 NSaved=  12.
 NSaved=12 IEnMin=12 EnMin= -1876.44763164254     IErMin=12 ErrMin= 2.10D-06
 ErrMax= 2.10D-06  0.00D+00 EMaxC= 1.00D-01 BMatC= 1.08D-08 BMatP= 9.07D-08
 IDIUse=1 WtCom= 1.00D+00 WtEn= 0.00D+00
 Coeff-Com:  0.221D-04 0.149D-03-0.265D-03-0.430D-03-0.394D-04 0.190D-02
 Coeff-Com:  0.165D-03-0.129D-01-0.360D-01 0.183D-01 0.284D+00 0.745D+00
 Coeff:      0.221D-04 0.149D-03-0.265D-03-0.430D-03-0.394D-04 0.190D-02
 Coeff:      0.165D-03-0.129D-01-0.360D-01 0.183D-01 0.284D+00 0.745D+00
 Gap=     0.173 Goal=   None    Shift=    0.000
 RMSDP=2.41D-07 MaxDP=5.51D-05 DE=-1.00D-07 OVMax= 5.44D-05

 Cycle  14  Pass 1  IDiag  1:
 RMSU=  1.12D-07    CP:  1.00D+00  5.79D-01  2.09D+00  1.27D+00  1.42D+00
                    CP:  1.10D+00  1.17D+00  1.54D+00  1.31D+00  1.04D+00
                    CP:  1.08D+00  9.48D-01
 E= -1876.44763165427     Delta-E=       -0.000000011730 Rises=F Damp=F
 DIIS: error= 5.41D-07 at cycle  13 NSaved=  13.
 NSaved=13 IEnMin=13 EnMin= -1876.44763165427     IErMin=13 ErrMin= 5.41D-07
 ErrMax= 5.41D-07  0.00D+00 EMaxC= 1.00D-01 BMatC= 1.26D-09 BMatP= 1.08D-08
 IDIUse=1 WtCom= 1.00D+00 WtEn= 0.00D+00
 Coeff-Com:  0.403D-05 0.147D-04-0.230D-04-0.146D-03 0.441D-04 0.141D-02
 Coeff-Com:  0.144D-02-0.397D-02-0.177D-01-0.121D-01 0.590D-01 0.284D+00
 Coeff-Com:  0.688D+00
 Coeff:      0.403D-05 0.147D-04-0.230D-04-0.146D-03 0.441D-04 0.141D-02
 Coeff:      0.144D-02-0.397D-02-0.177D-01-0.121D-01 0.590D-01 0.284D+00
 Coeff:      0.688D+00
 Gap=     0.173 Goal=   None    Shift=    0.000
 RMSDP=6.73D-08 MaxDP=2.65D-05 DE=-1.17D-08 OVMax= 1.13D-05

 Cycle  15  Pass 1  IDiag  1:
 RMSU=  4.02D-08    CP:  1.00D+00  5.79D-01  2.09D+00  1.27D+00  1.42D+00
                    CP:  1.10D+00  1.17D+00  1.54D+00  1.31D+00  1.05D+00
                    CP:  1.09D+00  1.00D+00  9.92D-01
 E= -1876.44763165551     Delta-E=       -0.000000001241 Rises=F Damp=F
 DIIS: error= 3.87D-07 at cycle  14 NSaved=  14.
 NSaved=14 IEnMin=14 EnMin= -1876.44763165551     IErMin=14 ErrMin= 3.87D-07
 ErrMax= 3.87D-07  0.00D+00 EMaxC= 1.00D-01 BMatC= 2.13D-10 BMatP= 1.26D-09
 IDIUse=1 WtCom= 1.00D+00 WtEn= 0.00D+00
 Coeff-Com: -0.209D-06-0.895D-05 0.138D-04-0.128D-04 0.224D-04 0.436D-03
 Coeff-Com:  0.663D-03-0.141D-03-0.342D-02-0.767D-02-0.158D-01 0.196D-01
 Coeff-Com:  0.344D+00 0.663D+00
 Coeff:     -0.209D-06-0.895D-05 0.138D-04-0.128D-04 0.224D-04 0.436D-03
 Coeff:      0.663D-03-0.141D-03-0.342D-02-0.767D-02-0.158D-01 0.196D-01
 Coeff:      0.344D+00 0.663D+00
 Gap=     0.173 Goal=   None    Shift=    0.000
 RMSDP=2.05D-08 MaxDP=4.25D-06 DE=-1.24D-09 OVMax= 5.96D-06

 Cycle  16  Pass 1  IDiag  1:
 RMSU=  1.59D-08    CP:  1.00D+00  5.79D-01  2.09D+00  1.27D+00  1.42D+00
                    CP:  1.10D+00  1.17D+00  1.54D+00  1.31D+00  1.05D+00
                    CP:  1.09D+00  1.02D+00  1.07D+00  9.23D-01
 E= -1876.44763165575     Delta-E=       -0.000000000239 Rises=F Damp=F
 DIIS: error= 9.22D-08 at cycle  15 NSaved=  15.
 NSaved=15 IEnMin=15 EnMin= -1876.44763165575     IErMin=15 ErrMin= 9.22D-08
 ErrMax= 9.22D-08  0.00D+00 EMaxC= 1.00D-01 BMatC= 2.32D-11 BMatP= 2.13D-10
 IDIUse=1 WtCom= 1.00D+00 WtEn= 0.00D+00
 Coeff-Com: -0.741D-06-0.457D-05 0.809D-05 0.115D-04 0.118D-05 0.391D-04
 Coeff-Com:  0.134D-03 0.462D-03 0.416D-03-0.166D-02-0.141D-01-0.244D-01
 Coeff-Com:  0.718D-01 0.286D+00 0.681D+00
 Coeff:     -0.741D-06-0.457D-05 0.809D-05 0.115D-04 0.118D-05 0.391D-04
 Coeff:      0.134D-03 0.462D-03 0.416D-03-0.166D-02-0.141D-01-0.244D-01
 Coeff:      0.718D-01 0.286D+00 0.681D+00
 Gap=     0.173 Goal=   None    Shift=    0.000
 RMSDP=7.62D-09 MaxDP=1.27D-06 DE=-2.39D-10 OVMax= 1.71D-06

 Cycle  17  Pass 1  IDiag  1:
 RMSU=  5.93D-09    CP:  1.00D+00  5.79D-01  2.09D+00  1.27D+00  1.42D+00
                    CP:  1.10D+00  1.17D+00  1.54D+00  1.31D+00  1.05D+00
                    CP:  1.09D+00  1.02D+00  1.09D+00  1.01D+00  9.73D-01
 E= -1876.44763165573     Delta-E=        0.000000000017 Rises=F Damp=F
 DIIS: error= 4.19D-08 at cycle  16 NSaved=  16.
 NSaved=16 IEnMin=15 EnMin= -1876.44763165575     IErMin=16 ErrMin= 4.19D-08
 ErrMax= 4.19D-08  0.00D+00 EMaxC= 1.00D-01 BMatC= 5.12D-12 BMatP= 2.32D-11
 IDIUse=1 WtCom= 1.00D+00 WtEn= 0.00D+00
 Coeff-Com: -0.299D-06 0.486D-06-0.113D-06 0.654D-05-0.672D-05-0.547D-04
 Coeff-Com: -0.476D-04 0.277D-03 0.680D-03 0.666D-03-0.395D-02-0.151D-01
 Coeff-Com: -0.242D-01 0.188D-01 0.316D+00 0.707D+00
 Coeff:     -0.299D-06 0.486D-06-0.113D-06 0.654D-05-0.672D-05-0.547D-04
 Coeff:     -0.476D-04 0.277D-03 0.680D-03 0.666D-03-0.395D-02-0.151D-01
 Coeff:     -0.242D-01 0.188D-01 0.316D+00 0.707D+00
 Gap=     0.173 Goal=   None    Shift=    0.000
 RMSDP=4.09D-09 MaxDP=8.99D-07 DE= 1.73D-11 OVMax= 1.35D-06

 SCF Done:  E(RM062X) =  -1876.44763166     A.U. after   17 cycles
            NFock= 17  Conv=0.41D-08     -V/T= 2.0048
 KE= 1.867517940286D+03 PE=-1.316997567131D+04 EE= 5.016498797406D+03
 Leave Link  502 at Sat Jun 22 17:32:58 2024, MaxMem=  2684354560 cpu:           20949.2 elap:            1312.2
 (Enter /storage/apps/GAUSSIAN/G16_RevA03/g16/l601.exe)
 Copying SCF densities to generalized density rwf, IOpCl= 0 IROHF=0.

 **********************************************************************

            Population analysis using the SCF density.

 **********************************************************************

 Alpha  occ. eigenvalues --  -19.72982 -19.72067 -19.71178 -19.70060 -19.67369
 Alpha  occ. eigenvalues --  -19.64519 -14.98456 -14.93088 -14.91475 -14.91292
 Alpha  occ. eigenvalues --  -14.89003 -14.88738 -14.86918 -14.85008 -14.84169
 Alpha  occ. eigenvalues --  -10.81226 -10.77707 -10.77350 -10.77313 -10.73535
 Alpha  occ. eigenvalues --  -10.73028 -10.72082 -10.71625 -10.71490 -10.70154
 Alpha  occ. eigenvalues --  -10.69282 -10.68810 -10.68764 -10.68480 -10.67409
 Alpha  occ. eigenvalues --  -10.67204 -10.63940 -10.63336 -10.63206 -10.63076
 Alpha  occ. eigenvalues --  -10.63066 -10.63024 -10.62373 -10.62224  -1.28019
 Alpha  occ. eigenvalues --   -1.26407  -1.25487  -1.23422  -1.22772  -1.22141
 Alpha  occ. eigenvalues --   -1.21850  -1.19312  -1.18714  -1.17254  -1.16515
 Alpha  occ. eigenvalues --   -1.13668  -1.11605  -1.08644  -1.06736  -1.05414
 Alpha  occ. eigenvalues --   -1.03362  -1.01661  -0.98042  -0.96841  -0.96548
 Alpha  occ. eigenvalues --   -0.96349  -0.95101  -0.93410  -0.92259  -0.89102
 Alpha  occ. eigenvalues --   -0.87432  -0.86800  -0.84117  -0.83266  -0.81918
 Alpha  occ. eigenvalues --   -0.81168  -0.80095  -0.79919  -0.79562  -0.76153
 Alpha  occ. eigenvalues --   -0.75292  -0.75225  -0.74755  -0.73752  -0.73317
 Alpha  occ. eigenvalues --   -0.72719  -0.72049  -0.70915  -0.70531  -0.69630
 Alpha  occ. eigenvalues --   -0.69518  -0.69112  -0.68750  -0.67664  -0.67451
 Alpha  occ. eigenvalues --   -0.66808  -0.66673  -0.66501  -0.65340  -0.64623
 Alpha  occ. eigenvalues --   -0.63971  -0.63400  -0.63227  -0.62195  -0.61970
 Alpha  occ. eigenvalues --   -0.61373  -0.61129  -0.60896  -0.60592  -0.60486
 Alpha  occ. eigenvalues --   -0.59676  -0.59464  -0.58401  -0.58319  -0.57374
 Alpha  occ. eigenvalues --   -0.57318  -0.56821  -0.56684  -0.56075  -0.55720
 Alpha  occ. eigenvalues --   -0.55234  -0.54172  -0.53467  -0.53420  -0.53034
 Alpha  occ. eigenvalues --   -0.52259  -0.52142  -0.51319  -0.49478  -0.49345
 Alpha  occ. eigenvalues --   -0.48251  -0.47208  -0.46532  -0.46047  -0.45225
 Alpha  occ. eigenvalues --   -0.44356  -0.43872  -0.43471  -0.42974  -0.42071
 Alpha  occ. eigenvalues --   -0.41719  -0.41050  -0.39174  -0.39048  -0.37980
 Alpha  occ. eigenvalues --   -0.35888  -0.34405
 Alpha virt. eigenvalues --   -0.17090  -0.09903  -0.09357  -0.09034  -0.07078
 Alpha virt. eigenvalues --   -0.06747  -0.06485  -0.05936  -0.05094  -0.03807
 Alpha virt. eigenvalues --   -0.03026  -0.02842  -0.02602  -0.02127  -0.01639
 Alpha virt. eigenvalues --   -0.01361  -0.01165  -0.00449   0.00164   0.00737
 Alpha virt. eigenvalues --    0.01125   0.01207   0.01588   0.01961   0.02391
 Alpha virt. eigenvalues --    0.02896   0.03269   0.03506   0.03955   0.04088
 Alpha virt. eigenvalues --    0.04403   0.04703   0.05427   0.05528   0.05729
 Alpha virt. eigenvalues --    0.05991   0.06157   0.06598   0.06910   0.07321
 Alpha virt. eigenvalues --    0.07632   0.07849   0.08427   0.08858   0.08983
 Alpha virt. eigenvalues --    0.09500   0.09893   0.10161   0.10528   0.10628
 Alpha virt. eigenvalues --    0.10784   0.11292   0.11491   0.12078   0.12317
 Alpha virt. eigenvalues --    0.12463   0.12857   0.13041   0.13264   0.13567
 Alpha virt. eigenvalues --    0.14007   0.14157   0.14763   0.14875   0.15243
 Alpha virt. eigenvalues --    0.15539   0.15863   0.15910   0.16552   0.16824
 Alpha virt. eigenvalues --    0.17297   0.17818   0.17999   0.18085   0.18339
 Alpha virt. eigenvalues --    0.18619   0.18775   0.19370   0.19620   0.19991
 Alpha virt. eigenvalues --    0.20200   0.20448   0.20765   0.21023   0.21126
 Alpha virt. eigenvalues --    0.21595   0.22183   0.22444   0.22573   0.22860
 Alpha virt. eigenvalues --    0.23378   0.23657   0.23849   0.24040   0.24399
 Alpha virt. eigenvalues --    0.24563   0.25050   0.25428   0.25679   0.25865
 Alpha virt. eigenvalues --    0.26014   0.26416   0.26564   0.26857   0.27240
 Alpha virt. eigenvalues --    0.27366   0.27919   0.28161   0.28573   0.28907
 Alpha virt. eigenvalues --    0.29074   0.29509   0.29678   0.29890   0.30083
 Alpha virt. eigenvalues --    0.30536   0.30721   0.30959   0.31324   0.31533
 Alpha virt. eigenvalues --    0.31646   0.31874   0.32190   0.32816   0.32820
 Alpha virt. eigenvalues --    0.33107   0.33332   0.33623   0.34010   0.34203
 Alpha virt. eigenvalues --    0.34297   0.34506   0.34634   0.35133   0.35175
 Alpha virt. eigenvalues --    0.35544   0.35716   0.35925   0.36221   0.36464
 Alpha virt. eigenvalues --    0.36686   0.36913   0.37255   0.37417   0.37487
 Alpha virt. eigenvalues --    0.37984   0.38198   0.38502   0.38625   0.38928
 Alpha virt. eigenvalues --    0.39022   0.39314   0.39581   0.39662   0.40231
 Alpha virt. eigenvalues --    0.40467   0.40683   0.40918   0.41142   0.41470
 Alpha virt. eigenvalues --    0.41709   0.41872   0.42013   0.42205   0.42512
 Alpha virt. eigenvalues --    0.42627   0.42842   0.43293   0.43565   0.43717
 Alpha virt. eigenvalues --    0.44013   0.44527   0.44589   0.44810   0.45328
 Alpha virt. eigenvalues --    0.45841   0.46101   0.46313   0.47035   0.47126
 Alpha virt. eigenvalues --    0.47316   0.47424   0.47834   0.47991   0.48606
 Alpha virt. eigenvalues --    0.48944   0.49214   0.49259   0.49647   0.49896
 Alpha virt. eigenvalues --    0.50461   0.50734   0.50950   0.51364   0.51514
 Alpha virt. eigenvalues --    0.51935   0.52015   0.52486   0.52817   0.53187
 Alpha virt. eigenvalues --    0.53612   0.53887   0.54325   0.54713   0.54806
 Alpha virt. eigenvalues --    0.55027   0.55519   0.55870   0.56293   0.56697
 Alpha virt. eigenvalues --    0.56880   0.57170   0.57467   0.57822   0.57830
 Alpha virt. eigenvalues --    0.58290   0.58499   0.58691   0.58918   0.59387
 Alpha virt. eigenvalues --    0.59514   0.59754   0.60195   0.60489   0.61224
 Alpha virt. eigenvalues --    0.61632   0.61801   0.62155   0.62508   0.62966
 Alpha virt. eigenvalues --    0.63170   0.63330   0.63923   0.64119   0.64296
 Alpha virt. eigenvalues --    0.64770   0.65228   0.66035   0.66244   0.66544
 Alpha virt. eigenvalues --    0.66695   0.67292   0.67656   0.68181   0.68389
 Alpha virt. eigenvalues --    0.68903   0.69270   0.69713   0.69870   0.70466
 Alpha virt. eigenvalues --    0.70943   0.71538   0.71918   0.72068   0.72802
 Alpha virt. eigenvalues --    0.72895   0.73270   0.73341   0.74145   0.74259
 Alpha virt. eigenvalues --    0.74600   0.74859   0.75421   0.75633   0.76350
 Alpha virt. eigenvalues --    0.76750   0.77229   0.77667   0.77937   0.78072
 Alpha virt. eigenvalues --    0.78468   0.79313   0.79444   0.79796   0.80080
 Alpha virt. eigenvalues --    0.80314   0.80861   0.81333   0.81772   0.82487
 Alpha virt. eigenvalues --    0.82899   0.83597   0.83953   0.84288   0.84724
 Alpha virt. eigenvalues --    0.85102   0.85546   0.85800   0.86877   0.87177
 Alpha virt. eigenvalues --    0.87667   0.88426   0.88812   0.89335   0.89914
 Alpha virt. eigenvalues --    0.90561   0.90847   0.91291   0.91682   0.92123
 Alpha virt. eigenvalues --    0.92846   0.93207   0.93929   0.94382   0.94836
 Alpha virt. eigenvalues --    0.95261   0.95449   0.95599   0.96768   0.97389
 Alpha virt. eigenvalues --    0.97785   0.97899   0.98300   0.98819   0.99574
 Alpha virt. eigenvalues --    1.00061   1.00806   1.01052   1.01574   1.01938
 Alpha virt. eigenvalues --    1.02309   1.02573   1.02957   1.03513   1.03957
 Alpha virt. eigenvalues --    1.04870   1.05266   1.05488   1.05858   1.06782
 Alpha virt. eigenvalues --    1.06990   1.07612   1.07958   1.08194   1.09228
 Alpha virt. eigenvalues --    1.09553   1.10810   1.11411   1.11728   1.12011
 Alpha virt. eigenvalues --    1.12420   1.12906   1.13976   1.14493   1.14757
 Alpha virt. eigenvalues --    1.15329   1.16329   1.16761   1.17043   1.17831
 Alpha virt. eigenvalues --    1.18263   1.18682   1.19048   1.19592   1.19994
 Alpha virt. eigenvalues --    1.20973   1.21119   1.21396   1.21551   1.22095
 Alpha virt. eigenvalues --    1.22224   1.22630   1.22957   1.23236   1.23584
 Alpha virt. eigenvalues --    1.24298   1.24405   1.25228   1.25660   1.26411
 Alpha virt. eigenvalues --    1.26692   1.27022   1.27754   1.28466   1.28792
 Alpha virt. eigenvalues --    1.29428   1.29862   1.30045   1.30699   1.31099
 Alpha virt. eigenvalues --    1.31413   1.32146   1.33128   1.33662   1.34060
 Alpha virt. eigenvalues --    1.34418   1.35112   1.35479   1.35738   1.36251
 Alpha virt. eigenvalues --    1.36281   1.36756   1.37579   1.37901   1.38723
 Alpha virt. eigenvalues --    1.39223   1.39508   1.40334   1.40885   1.41253
 Alpha virt. eigenvalues --    1.41404   1.42171   1.42548   1.43005   1.43473
 Alpha virt. eigenvalues --    1.43717   1.43910   1.44449   1.45036   1.45219
 Alpha virt. eigenvalues --    1.45664   1.45912   1.46547   1.46681   1.47509
 Alpha virt. eigenvalues --    1.47750   1.48564   1.48866   1.49185   1.49463
 Alpha virt. eigenvalues --    1.50135   1.50290   1.50370   1.51506   1.51668
 Alpha virt. eigenvalues --    1.51984   1.52354   1.52795   1.52909   1.53073
 Alpha virt. eigenvalues --    1.53595   1.54186   1.54472   1.54681   1.54792
 Alpha virt. eigenvalues --    1.55175   1.56035   1.56312   1.56813   1.57190
 Alpha virt. eigenvalues --    1.57279   1.57662   1.57978   1.58606   1.59146
 Alpha virt. eigenvalues --    1.59520   1.59760   1.60330   1.60556   1.61111
 Alpha virt. eigenvalues --    1.61284   1.61693   1.61756   1.62233   1.62411
 Alpha virt. eigenvalues --    1.62653   1.62688   1.63765   1.64174   1.64268
 Alpha virt. eigenvalues --    1.64738   1.64919   1.65552   1.65712   1.66308
 Alpha virt. eigenvalues --    1.66701   1.67393   1.67687   1.68506   1.68776
 Alpha virt. eigenvalues --    1.69047   1.69354   1.70033   1.70771   1.71188
 Alpha virt. eigenvalues --    1.71897   1.72150   1.72299   1.72762   1.73325
 Alpha virt. eigenvalues --    1.74284   1.75077   1.75466   1.75673   1.76882
 Alpha virt. eigenvalues --    1.77001   1.77531   1.77802   1.78226   1.78342
 Alpha virt. eigenvalues --    1.79104   1.79492   1.80217   1.80711   1.80801
 Alpha virt. eigenvalues --    1.81163   1.81765   1.82380   1.82948   1.83051
 Alpha virt. eigenvalues --    1.83643   1.83872   1.84648   1.84892   1.85219
 Alpha virt. eigenvalues --    1.85392   1.86064   1.86384   1.86553   1.87202
 Alpha virt. eigenvalues --    1.87506   1.88282   1.88548   1.89270   1.89545
 Alpha virt. eigenvalues --    1.90123   1.90495   1.90704   1.90982   1.92153
 Alpha virt. eigenvalues --    1.92663   1.93335   1.94278   1.94483   1.94831
 Alpha virt. eigenvalues --    1.95419   1.95972   1.96329   1.96779   1.98271
 Alpha virt. eigenvalues --    1.98809   1.99236   1.99768   2.00137   2.00689
 Alpha virt. eigenvalues --    2.01057   2.01398   2.01568   2.02116   2.02791
 Alpha virt. eigenvalues --    2.03062   2.03448   2.03801   2.04782   2.05061
 Alpha virt. eigenvalues --    2.05821   2.06016   2.07001   2.07620   2.07972
 Alpha virt. eigenvalues --    2.08094   2.08655   2.09179   2.09481   2.09940
 Alpha virt. eigenvalues --    2.10137   2.10686   2.11871   2.12244   2.13065
 Alpha virt. eigenvalues --    2.13236   2.13732   2.14641   2.15189   2.15486
 Alpha virt. eigenvalues --    2.15662   2.16202   2.16885   2.17292   2.17759
 Alpha virt. eigenvalues --    2.18089   2.18393   2.18928   2.19499   2.20141
 Alpha virt. eigenvalues --    2.20510   2.21150   2.21733   2.21914   2.22343
 Alpha virt. eigenvalues --    2.22891   2.23111   2.23357   2.24341   2.24612
 Alpha virt. eigenvalues --    2.25585   2.25898   2.26422   2.26865   2.27074
 Alpha virt. eigenvalues --    2.27509   2.27795   2.28873   2.29123   2.30210
 Alpha virt. eigenvalues --    2.31206   2.31604   2.31716   2.32758   2.33267
 Alpha virt. eigenvalues --    2.33442   2.33946   2.34343   2.34966   2.35352
 Alpha virt. eigenvalues --    2.35877   2.36720   2.37436   2.37547   2.38298
 Alpha virt. eigenvalues --    2.38598   2.39125   2.39383   2.40760   2.41055
 Alpha virt. eigenvalues --    2.42250   2.42962   2.43453   2.43838   2.44356
 Alpha virt. eigenvalues --    2.44642   2.44755   2.45423   2.46023   2.46484
 Alpha virt. eigenvalues --    2.46969   2.47521   2.48329   2.48765   2.49656
 Alpha virt. eigenvalues --    2.50115   2.50456   2.50763   2.51465   2.51893
 Alpha virt. eigenvalues --    2.52050   2.52901   2.54315   2.54628   2.54891
 Alpha virt. eigenvalues --    2.55357   2.56181   2.56411   2.56966   2.57183
 Alpha virt. eigenvalues --    2.57500   2.57816   2.58652   2.59121   2.59337
 Alpha virt. eigenvalues --    2.60147   2.60464   2.60738   2.60789   2.61296
 Alpha virt. eigenvalues --    2.61462   2.62246   2.63292   2.63762   2.63862
 Alpha virt. eigenvalues --    2.64278   2.64681   2.64774   2.65310   2.65472
 Alpha virt. eigenvalues --    2.66131   2.66565   2.67079   2.67756   2.67856
 Alpha virt. eigenvalues --    2.68450   2.68779   2.68936   2.69684   2.70201
 Alpha virt. eigenvalues --    2.70825   2.71196   2.71716   2.72079   2.72782
 Alpha virt. eigenvalues --    2.72981   2.73549   2.73931   2.74193   2.74443
 Alpha virt. eigenvalues --    2.75027   2.75345   2.75588   2.76362   2.77093
 Alpha virt. eigenvalues --    2.77500   2.77911   2.78353   2.78538   2.79292
 Alpha virt. eigenvalues --    2.79429   2.80142   2.80539   2.80890   2.81300
 Alpha virt. eigenvalues --    2.81843   2.82236   2.82399   2.83240   2.83554
 Alpha virt. eigenvalues --    2.83723   2.84171   2.85052   2.85559   2.85805
 Alpha virt. eigenvalues --    2.85830   2.86140   2.86443   2.86685   2.87203
 Alpha virt. eigenvalues --    2.87802   2.88092   2.88554   2.88775   2.88955
 Alpha virt. eigenvalues --    2.89416   2.89818   2.90568   2.90673   2.90930
 Alpha virt. eigenvalues --    2.91053   2.91442   2.91809   2.92060   2.92408
 Alpha virt. eigenvalues --    2.93073   2.93666   2.93902   2.94632   2.95045
 Alpha virt. eigenvalues --    2.95507   2.95749   2.96337   2.96585   2.96927
 Alpha virt. eigenvalues --    2.97114   2.97479   2.97743   2.98399   2.98573
 Alpha virt. eigenvalues --    2.98850   2.99495   2.99985   3.00178   3.00790
 Alpha virt. eigenvalues --    3.01049   3.01546   3.01993   3.02703   3.03060
 Alpha virt. eigenvalues --    3.03848   3.04085   3.04337   3.04706   3.05111
 Alpha virt. eigenvalues --    3.05422   3.05813   3.06426   3.07107   3.07300
 Alpha virt. eigenvalues --    3.07563   3.08011   3.08378   3.08655   3.09175
 Alpha virt. eigenvalues --    3.09904   3.10247   3.10568   3.10870   3.11314
 Alpha virt. eigenvalues --    3.11404   3.11806   3.11822   3.12163   3.12887
 Alpha virt. eigenvalues --    3.12934   3.13221   3.13295   3.13725   3.13850
 Alpha virt. eigenvalues --    3.14450   3.15081   3.15214   3.15788   3.16207
 Alpha virt. eigenvalues --    3.16398   3.16730   3.17007   3.17292   3.17610
 Alpha virt. eigenvalues --    3.18143   3.18301   3.19198   3.19409   3.20020
 Alpha virt. eigenvalues --    3.20336   3.20541   3.21205   3.21562   3.21756
 Alpha virt. eigenvalues --    3.21930   3.22107   3.22968   3.23089   3.23197
 Alpha virt. eigenvalues --    3.24244   3.24568   3.24847   3.25144   3.25233
 Alpha virt. eigenvalues --    3.26303   3.26507   3.26885   3.27420   3.27684
 Alpha virt. eigenvalues --    3.28164   3.28285   3.29199   3.29521   3.30163
 Alpha virt. eigenvalues --    3.30657   3.31100   3.31342   3.31676   3.31938
 Alpha virt. eigenvalues --    3.32245   3.32733   3.32840   3.33804   3.34118
 Alpha virt. eigenvalues --    3.34641   3.35284   3.35520   3.35738   3.36073
 Alpha virt. eigenvalues --    3.36410   3.36860   3.37039   3.37756   3.38143
 Alpha virt. eigenvalues --    3.38443   3.38985   3.39272   3.39436   3.39584
 Alpha virt. eigenvalues --    3.39958   3.40235   3.40856   3.41248   3.41577
 Alpha virt. eigenvalues --    3.42136   3.42775   3.43591   3.43963   3.45117
 Alpha virt. eigenvalues --    3.45442   3.45746   3.46127   3.46842   3.47493
 Alpha virt. eigenvalues --    3.47942   3.49157   3.49531   3.49828   3.51289
 Alpha virt. eigenvalues --    3.51600   3.51867   3.53021   3.53176   3.54421
 Alpha virt. eigenvalues --    3.55821   3.56006   3.56187   3.56819   3.57039
 Alpha virt. eigenvalues --    3.57413   3.57824   3.59301   3.59465   3.61231
 Alpha virt. eigenvalues --    3.61478   3.62231   3.63656   3.64242   3.64792
 Alpha virt. eigenvalues --    3.64986   3.65361   3.66071   3.66256   3.67153
 Alpha virt. eigenvalues --    3.67887   3.68791   3.69954   3.70449   3.71435
 Alpha virt. eigenvalues --    3.72402   3.72454   3.73250   3.73990   3.74455
 Alpha virt. eigenvalues --    3.75187   3.75792   3.76090   3.76471   3.77752
 Alpha virt. eigenvalues --    3.78071   3.78216   3.79190   3.79267   3.80454
 Alpha virt. eigenvalues --    3.80946   3.81768   3.82614   3.83645   3.84133
 Alpha virt. eigenvalues --    3.84776   3.85162   3.86423   3.86639   3.87106
 Alpha virt. eigenvalues --    3.88243   3.89361   3.90142   3.90432   3.92097
 Alpha virt. eigenvalues --    3.92845   3.93038   3.94457   3.94929   3.95825
 Alpha virt. eigenvalues --    3.96455   3.97447   3.98420   3.98885   3.99167
 Alpha virt. eigenvalues --    4.00185   4.00392   4.01614   4.02293   4.02749
 Alpha virt. eigenvalues --    4.03437   4.03631   4.04459   4.05212   4.05616
 Alpha virt. eigenvalues --    4.05724   4.07112   4.07766   4.08331   4.08547
 Alpha virt. eigenvalues --    4.09640   4.10000   4.10673   4.10816   4.11220
 Alpha virt. eigenvalues --    4.12501   4.13474   4.14326   4.15043   4.16444
 Alpha virt. eigenvalues --    4.17355   4.17805   4.18385   4.19194   4.19696
 Alpha virt. eigenvalues --    4.20724   4.21237   4.23102   4.24098   4.24270
 Alpha virt. eigenvalues --    4.24501   4.26748   4.26966   4.27385   4.29325
 Alpha virt. eigenvalues --    4.30450   4.30622   4.31655   4.32335   4.33336
 Alpha virt. eigenvalues --    4.34198   4.34824   4.35088   4.37034   4.37454
 Alpha virt. eigenvalues --    4.38022   4.41235   4.41846   4.42720   4.42809
 Alpha virt. eigenvalues --    4.43669   4.44757   4.45102   4.45966   4.47041
 Alpha virt. eigenvalues --    4.48137   4.48731   4.50353   4.51290   4.51760
 Alpha virt. eigenvalues --    4.52478   4.53400   4.55499   4.56603   4.56913
 Alpha virt. eigenvalues --    4.58003   4.58653   4.58805   4.59448   4.59920
 Alpha virt. eigenvalues --    4.60434   4.60660   4.60999   4.61620   4.62687
 Alpha virt. eigenvalues --    4.64549   4.65105   4.65486   4.65909   4.66368
 Alpha virt. eigenvalues --    4.67046   4.68673   4.69379   4.70548   4.70824
 Alpha virt. eigenvalues --    4.71372   4.71800   4.72108   4.72576   4.74009
 Alpha virt. eigenvalues --    4.74436   4.74558   4.75166   4.75496   4.77508
 Alpha virt. eigenvalues --    4.78331   4.80409   4.80728   4.81813   4.81886
 Alpha virt. eigenvalues --    4.82316   4.83786   4.84064   4.84858   4.85832
 Alpha virt. eigenvalues --    4.87386   4.88060   4.89231   4.90467   4.91158
 Alpha virt. eigenvalues --    4.92323   4.92820   4.93271   4.93570   4.94605
 Alpha virt. eigenvalues --    4.94893   4.96224   4.97413   4.97575   4.98087
 Alpha virt. eigenvalues --    4.99558   4.99968   5.00144   5.00865   5.01053
 Alpha virt. eigenvalues --    5.01660   5.02128   5.02725   5.03456   5.04466
 Alpha virt. eigenvalues --    5.05676   5.06061   5.06341   5.07445   5.08461
 Alpha virt. eigenvalues --    5.08829   5.09466   5.10196   5.10878   5.11154
 Alpha virt. eigenvalues --    5.11875   5.12568   5.13146   5.13691   5.14201
 Alpha virt. eigenvalues --    5.14886   5.16504   5.16637   5.17760   5.18098
 Alpha virt. eigenvalues --    5.18223   5.19428   5.19575   5.19788   5.20572
 Alpha virt. eigenvalues --    5.21791   5.22554   5.22670   5.23389   5.23662
 Alpha virt. eigenvalues --    5.24684   5.25547   5.27045   5.27972   5.28386
 Alpha virt. eigenvalues --    5.29501   5.29724   5.30206   5.31775   5.32045
 Alpha virt. eigenvalues --    5.33621   5.34835   5.35163   5.36758   5.38472
 Alpha virt. eigenvalues --    5.38924   5.39430   5.41522   5.41853   5.42261
 Alpha virt. eigenvalues --    5.43670   5.44763   5.47602   5.48163   5.50709
 Alpha virt. eigenvalues --    5.52125   5.52614   5.53535   5.56214   5.56698
 Alpha virt. eigenvalues --    5.57943   5.59165   5.59864   5.61429   5.63591
 Alpha virt. eigenvalues --    5.63780   5.64415   5.65309   5.66154   5.66583
 Alpha virt. eigenvalues --    5.69094   5.70267   5.70462   5.73345   5.73986
 Alpha virt. eigenvalues --    5.76358   5.77060   5.78066   5.78692   5.79755
 Alpha virt. eigenvalues --    5.81814   5.82758   5.83554   5.83923   5.86059
 Alpha virt. eigenvalues --    5.86920   5.89863   5.92059   5.93419   5.93506
 Alpha virt. eigenvalues --    5.94877   5.97887   5.99449   6.02780   6.13762
 Alpha virt. eigenvalues --    6.15879   6.16119   6.17259   6.17547   6.22197
 Alpha virt. eigenvalues --    6.29646   6.35045   6.35914   6.36115   6.42753
 Alpha virt. eigenvalues --    6.51045   6.51203   6.52087   6.56191   6.57703
 Alpha virt. eigenvalues --    6.58798   6.64158   6.67023   6.70465   6.70743
 Alpha virt. eigenvalues --    6.71494   6.71985   6.75605   6.76235   6.76960
 Alpha virt. eigenvalues --    6.80943   6.87554   6.89692   6.92971   6.96514
 Alpha virt. eigenvalues --    6.98381   7.02116   7.02850   7.04531   7.04765
 Alpha virt. eigenvalues --    7.07440   7.10117   7.17065  22.37152  22.44102
 Alpha virt. eigenvalues --   22.54318  22.60846  22.68763  22.70118  22.74451
 Alpha virt. eigenvalues --   22.76796  22.80288  22.81730  22.88057  22.91098
 Alpha virt. eigenvalues --   22.91979  22.95067  22.95965  23.06332  23.08004
 Alpha virt. eigenvalues --   23.10268  23.12877  23.13287  23.22904  23.33356
 Alpha virt. eigenvalues --   23.38792  23.47631  31.96318  32.05955  32.06464
 Alpha virt. eigenvalues --   32.36057  32.52951  32.57750  32.70681  32.86371
 Alpha virt. eigenvalues --   33.05851  44.01214  44.02766  44.04764  44.07889
 Alpha virt. eigenvalues --   44.09404  44.31290
          Condensed to atoms (all electrons):
 Mulliken charges:
               1
     1  C   -0.070485
     2  H    0.123788
     3  O   -0.308367
     4  C    0.014658
     5  H    0.162204
     6  O   -0.518563
     7  H    0.340921
     8  C   -0.005435
     9  H    0.159906
    10  O   -0.485580
    11  H    0.355501
    12  C    0.053891
    13  H    0.131910
    14  N   -0.047998
    15  C   -0.040935
    16  H    0.124088
    17  C   -0.012600
    18  C   -0.157742
    19  H    0.197567
    20  H   -0.052970
    21  C   -0.299059
    22  H    0.165395
    23  C   -0.021745
    24  H    0.167618
    25  C    0.350289
    26  O   -0.449502
    27  N   -0.512547
    28  H    0.251435
    29  H    0.274741
    30  N   -0.368130
    31  C    0.488078
    32  N   -0.504439
    33  H    0.305871
    34  H    0.288600
    35  N   -0.320593
    36  H    0.282287
    37  C    0.285701
    38  O   -0.418300
    39  C   -0.052876
    40  N   -0.115440
    41  H    0.311311
    42  C    0.029990
    43  C   -0.167173
    44  H    0.217900
    45  H    0.187503
    46  N   -0.344023
    47  H    0.278312
    48  C    0.383712
    49  C   -0.231436
    50  H    0.243429
    51  H    0.225486
    52  N   -0.434825
    53  H    0.263701
    54  C    0.098463
    55  C   -0.175991
    56  H    0.182819
    57  C   -0.185211
    58  H    0.163373
    59  C    0.263510
    60  C   -0.204652
    61  H    0.123461
    62  C   -0.185658
    63  H    0.117022
    64  C    0.327736
    65  O   -0.420715
    66  N   -0.523987
    67  H    0.247978
    68  H    0.143801
    69  H    0.303021
 Sum of Mulliken charges =   1.00000
 Mulliken charges with hydrogens summed into heavy atoms:
               1
     1  C    0.197104
     3  O   -0.308367
     4  C    0.176861
     6  O   -0.177643
     8  C    0.154471
    10  O   -0.130078
    12  C    0.185801
    14  N   -0.047998
    15  C    0.083153
    17  C   -0.012600
    18  C   -0.013145
    21  C   -0.133665
    23  C    0.145873
    25  C    0.350289
    26  O   -0.449502
    27  N    0.013630
    30  N   -0.368130
    31  C    0.488078
    32  N    0.090031
    35  N   -0.038306
    37  C    0.285701
    38  O   -0.418300
    39  C   -0.052876
    40  N    0.195871
    42  C    0.029990
    43  C    0.238230
    46  N   -0.065710
    48  C    0.383712
    49  C    0.237479
    52  N   -0.171125
    54  C    0.098463
    55  C    0.006828
    57  C   -0.021838
    59  C    0.263510
    60  C   -0.081191
    62  C   -0.068636
    64  C    0.327736
    65  O   -0.420715
    66  N    0.027012
 Electronic spatial extent (au):  <R**2>=          27675.0301
 Charge=              1.0000 electrons
 Dipole moment (field-independent basis, Debye):
    X=             -2.0281    Y=             -8.8750    Z=              3.4400  Tot=              9.7320
 Quadrupole moment (field-independent basis, Debye-Ang):
   XX=           -139.8135   YY=           -216.7412   ZZ=           -137.8511
   XY=            -13.0399   XZ=            -59.2752   YZ=             68.8351
 Traceless Quadrupole moment (field-independent basis, Debye-Ang):
   XX=             24.9885   YY=            -51.9393   ZZ=             26.9508
   XY=            -13.0399   XZ=            -59.2752   YZ=             68.8351
 Octapole moment (field-independent basis, Debye-Ang**2):
  XXX=            780.7098  YYY=           -138.4285  ZZZ=            466.7987  XYY=            270.0677
  XXY=           -137.1166  XXZ=            154.7345  XZZ=             80.9555  YZZ=           -101.4954
  YYZ=            101.4805  XYZ=            -66.0828
 Hexadecapole moment (field-independent basis, Debye-Ang**3):
 XXXX=          -6579.9455 YYYY=          -4907.8057 ZZZZ=         -16373.9360 XXXY=           1148.5700
 XXXZ=           -299.7433 YYYX=           1749.5097 YYYZ=           1406.8213 ZZZX=          -1055.8845
 ZZZY=           3456.2660 XXYY=          -1995.8750 XXZZ=          -3583.4333 YYZZ=          -5275.6206
 XXYZ=           1039.9862 YYXZ=            -52.6153 ZZXY=            500.3702
 N-N= 4.409511301962D+03 E-N=-1.316997566900D+04  KE= 1.867517940286D+03
 No NMR shielding tensors so no spin-rotation constants.
 Leave Link  601 at Sat Jun 22 17:32:59 2024, MaxMem=  2684354560 cpu:               9.9 elap:               0.8
 (Enter /storage/apps/GAUSSIAN/G16_RevA03/g16/l602.exe)

 **********************************************************************

            Electrostatic Properties Using The SCF Density

 **********************************************************************

       Atomic Center    1 is at  -4.155656  0.402541  6.761402
       Atomic Center    2 is at  -4.013989  0.483628  7.771746
       Atomic Center    3 is at  -2.950424 -0.180069  6.169326
       Atomic Center    4 is at  -4.293235  1.781774  6.112922
       Atomic Center    5 is at  -5.261119  2.123003  6.077270
       Atomic Center    6 is at  -3.478426  2.779735  6.781986
       Atomic Center    7 is at  -3.646943  2.821296  7.744543
       Atomic Center    8 is at  -3.659663  1.578969  4.727633
       Atomic Center    9 is at  -4.313297  1.143917  4.068684
       Atomic Center   10 is at  -3.214928  2.819855  4.167824
       Atomic Center   11 is at  -3.008191  3.395939  4.928028
       Atomic Center   12 is at  -2.469482  0.641605  5.058163
       Atomic Center   13 is at  -1.662787  1.190470  5.379657
       Atomic Center   14 is at  -2.019654 -0.227254  3.971229
       Atomic Center   15 is at  -0.667941 -0.312662  3.691111
       Atomic Center   16 is at  -0.079683  0.279383  4.273958
       Atomic Center   17 is at  -0.155448 -1.118756  2.745669
       Atomic Center   18 is at  -1.068839 -1.935466  1.854379
       Atomic Center   19 is at  -0.743304 -2.902822  1.806601
       Atomic Center   20 is at  -0.982256 -1.577217  0.896959
       Atomic Center   21 is at  -2.499685 -1.875020  2.311965
       Atomic Center   22 is at  -3.169254 -2.502376  1.869628
       Atomic Center   23 is at  -2.909294 -1.076327  3.294302
       Atomic Center   24 is at  -3.878106 -1.055367  3.609826
       Atomic Center   25 is at   1.290545 -1.308813  2.528103
       Atomic Center   26 is at   1.715823 -2.172986  1.709147
       Atomic Center   27 is at   2.206733 -0.542447  3.209139
       Atomic Center   28 is at   1.926001  0.097082  3.949235
       Atomic Center   29 is at   3.171907 -0.870772  3.227056
       Atomic Center   30 is at   2.144500 -3.155308 -1.961580
       Atomic Center   31 is at   3.278220 -2.460015 -2.256017
       Atomic Center   32 is at   4.408298 -3.120943 -2.583003
       Atomic Center   33 is at   4.447075 -4.136388 -2.541931
       Atomic Center   34 is at   5.261119 -2.596060 -2.845752
       Atomic Center   35 is at   3.328545 -1.081382 -2.261118
       Atomic Center   36 is at   4.257212 -0.620710 -2.385897
       Atomic Center   37 is at   2.233987 -0.287090 -1.945400
       Atomic Center   38 is at   2.347003  0.975945 -1.910704
       Atomic Center   39 is at   1.023769 -1.005626 -1.696833
       Atomic Center   40 is at  -0.140020 -0.335104 -1.326992
       Atomic Center   41 is at  -0.056752  0.682971 -1.227015
       Atomic Center   42 is at  -1.297541 -0.921190 -1.102183
       Atomic Center   43 is at  -1.433291 -2.408962 -1.355778
       Atomic Center   44 is at  -2.018010 -2.821499 -0.627784
       Atomic Center   45 is at  -1.925915 -2.553489 -2.246231
       Atomic Center   46 is at  -0.128379 -3.079409 -1.373493
       Atomic Center   47 is at  -0.109366 -4.092222 -1.279395
       Atomic Center   48 is at   1.026262 -2.428586 -1.682739
       Atomic Center   49 is at  -2.534825 -0.082346 -0.814359
       Atomic Center   50 is at  -2.682276 -0.003178  0.194882
       Atomic Center   51 is at  -3.349240 -0.571285 -1.198829
       Atomic Center   52 is at  -2.423240  1.278352 -1.352783
       Atomic Center   53 is at  -2.781538  2.006199 -0.731965
       Atomic Center   54 is at  -2.252996  2.144783 -5.462882
       Atomic Center   55 is at  -2.407563  3.170806 -4.499300
       Atomic Center   56 is at  -2.443909  4.136388 -4.821295
       Atomic Center   57 is at  -2.480240  2.888995 -3.173420
       Atomic Center   58 is at  -2.579231  3.642117 -2.494167
       Atomic Center   59 is at  -2.413440  1.547844 -2.719289
       Atomic Center   60 is at  -2.292072  0.523222 -3.682249
       Atomic Center   61 is at  -2.274449 -0.454654 -3.397101
       Atomic Center   62 is at  -2.211766  0.826522 -5.008160
       Atomic Center   63 is at  -2.132932  0.059184 -5.673912
       Atomic Center   64 is at  -2.137175  2.495011 -6.885182
       Atomic Center   65 is at  -2.398418  3.673944 -7.306279
       Atomic Center   66 is at  -1.721716  1.541117 -7.771746
       Atomic Center   67 is at  -1.568509  0.580990 -7.481300
       Atomic Center   68 is at  -5.006507 -0.249469  6.563833
       Atomic Center   69 is at  -1.635612  1.703909 -8.846076
 -----------------------------------------------------------------

              Electrostatic Properties (Atomic Units)

 -----------------------------------------------------------------
    Center     Electric         -------- Electric Field --------
               Potential          X             Y             Z
 -----------------------------------------------------------------
    1 Atom    -14.627635     -0.004511      0.006991     -0.005787
    2 Atom     -1.023675      0.010815      0.003371      0.072892
    3 Atom    -22.257293      0.017066     -0.029075      0.009241
    4 Atom    -14.612972      0.000449     -0.012290     -0.005428
    5 Atom     -1.021943     -0.067536      0.021673     -0.005048
    6 Atom    -22.245095      0.024185      0.018518     -0.023791
    7 Atom     -0.889592     -0.004817     -0.001405      0.007678
    8 Atom    -14.612821      0.004520     -0.003073      0.012349
    9 Atom     -1.009900     -0.046894     -0.030375     -0.045454
   10 Atom    -22.264295      0.001079      0.004493     -0.039181
   11 Atom     -0.914169      0.004601      0.011074      0.012117
   12 Atom    -14.579495     -0.008797      0.006191     -0.002746
   13 Atom     -1.013163      0.054700      0.038409      0.019971
   14 Atom    -18.235379     -0.000538      0.003220      0.001160
   15 Atom    -14.622568      0.000593     -0.010494     -0.009810
   16 Atom     -0.984416      0.041467      0.042189      0.043805
   17 Atom    -14.664053     -0.003049      0.001172      0.001352
   18 Atom    -14.671375     -0.001894      0.004006      0.009730
   19 Atom     -1.032899      0.025945     -0.074019     -0.002134
   20 Atom     -1.020248      0.007776      0.025814     -0.066245
   21 Atom    -14.675842      0.005716      0.009478      0.007331
   22 Atom     -1.010078     -0.050319     -0.045140     -0.030244
   23 Atom    -14.634643      0.007670     -0.007347     -0.010294
   24 Atom     -0.994658     -0.068230      0.001206      0.024294
   25 Atom    -14.567907     -0.000117     -0.008779     -0.007478
   26 Atom    -22.307483      0.008232     -0.019100     -0.017948
   27 Atom    -18.277328     -0.004022      0.001862     -0.011329
   28 Atom     -0.926264     -0.001870      0.006637      0.008592
   29 Atom     -0.929931      0.010826     -0.004236     -0.002865
   30 Atom    -18.266534      0.000288     -0.027500     -0.000928
   31 Atom    -14.488667     -0.010048     -0.003462      0.002927
   32 Atom    -18.212479     -0.004138      0.002574     -0.000035
   33 Atom     -0.871190     -0.002319     -0.013965      0.000973
   34 Atom     -0.862597     -0.000848     -0.004195      0.000651
   35 Atom    -18.197439     -0.003506     -0.001739     -0.001046
   36 Atom     -0.854858     -0.007645      0.005326      0.000262
   37 Atom    -14.529144     -0.008587      0.017475      0.003122
   38 Atom    -22.281475      0.002970      0.027385      0.000517
   39 Atom    -14.597783      0.010432     -0.009172     -0.002872
   40 Atom    -18.145588     -0.003331     -0.006433     -0.001289
   41 Atom     -0.839872     -0.000733      0.022923      0.000330
   42 Atom    -14.528565     -0.001149      0.002813     -0.002769
   43 Atom    -14.571043      0.002125      0.006090      0.001230
   44 Atom     -0.953893     -0.043593     -0.030987      0.057497
   45 Atom     -0.960108     -0.035407     -0.007303     -0.066507
   46 Atom    -18.210156      0.004193      0.004771      0.002647
   47 Atom     -0.877838      0.004027     -0.015532      0.000688
   48 Atom    -14.529018      0.005131      0.008674     -0.001021
   49 Atom    -14.584859      0.003874      0.001132     -0.004151
   50 Atom     -0.957746     -0.008778      0.003892      0.076919
   51 Atom     -0.969435     -0.060245     -0.039026     -0.030790
   52 Atom    -18.237377      0.012732     -0.000348     -0.000916
   53 Atom     -0.905670     -0.003083      0.009383      0.004945
   54 Atom    -14.673910     -0.000379     -0.001057      0.007172
   55 Atom    -14.686557      0.001109     -0.011215     -0.000933
   56 Atom     -1.039386     -0.003285      0.069963     -0.025136
   57 Atom    -14.683673      0.001560     -0.010312     -0.007379
   58 Atom     -1.019072     -0.006742      0.054754      0.049261
   59 Atom    -14.610878     -0.000267      0.003159     -0.014670
   60 Atom    -14.674239     -0.000007      0.013299     -0.000939
   61 Atom     -1.001286      0.001102     -0.070139      0.020129
   62 Atom    -14.675405     -0.000967      0.013135      0.004966
   63 Atom     -1.012592      0.005091     -0.055667     -0.046687
   64 Atom    -14.588018     -0.004818      0.018219     -0.003930
   65 Atom    -22.337000     -0.005250      0.023046     -0.007486
   66 Atom    -18.284784      0.001220      0.006683     -0.000619
   67 Atom     -0.942921      0.003704     -0.012320      0.004072
   68 Atom     -1.018650     -0.015132     -0.010889     -0.005834
   69 Atom     -0.925100     -0.006951      0.004303      0.041416
 -----------------------------------------------------------------
 Leave Link  602 at Sat Jun 22 17:32:59 2024, MaxMem=  2684354560 cpu:               3.8 elap:               0.3
 (Enter /storage/apps/GAUSSIAN/G16_RevA03/g16/l701.exe)
 ... and contract with generalized density number  0.
 Compute integral first derivatives.
 R6Disp: Adding Grimme-D3 dispersion energy 1st derivatives to the gradient.
   1 Symmetry operations used in ECPInt.
 ECPInt:  NShTT=  150975 NPrTT=  462228 LenC2=  106690 LenP2D=  215525.
 LDataN:  DoStor=T MaxTD1= 7 Len=  274
 Leave Link  701 at Sat Jun 22 17:33:00 2024, MaxMem=  2684354560 cpu:              17.0 elap:               1.2
 (Enter /storage/apps/GAUSSIAN/G16_RevA03/g16/l702.exe)
 L702 exits ... SP integral derivatives will be done elsewhere.
 Leave Link  702 at Sat Jun 22 17:33:01 2024, MaxMem=  2684354560 cpu:               0.3 elap:               0.0
 (Enter /storage/apps/GAUSSIAN/G16_RevA03/g16/l703.exe)
 Integral derivatives from FoFJK, PRISM(SPDF).
 Compute integral first derivatives, UseDBF=F ICtDFT=           0.
 Calling FoFJK, ICntrl=      2127 FMM=T ISym2X=0 I1Cent= 0 IOpClX= 0 NMat=1 NMatS=1 NMatT=0.
 FoFJK:  IHMeth= 1 ICntrl=    2127 DoSepK=F KAlg= 0 I1Cent=           0 FoldK=F
 IRaf=         0 NMat=       1 IRICut=       1 DoRegI=T DoRafI=F ISym2E= 0 IDoP0=0 IntGTp=1.
 FoFCou: FMM=T IPFlag=           0 FMFlag=      100000 FMFlg1=        2001
         NFxFlg=           0 DoJE=F BraDBF=F KetDBF=F FulRan=T
         wScrn=  0.000000 ICntrl=      2127 IOpCl=  0 I1Cent=           0 NGrid=           0
         NMat0=    1 NMatS0=      1 NMatT0=    0 NMatD0=    1 NMtDS0=    0 NMtDT0=    0
 Symmetry not used in FoFCou.
 FMM levels:  10  Number of levels for PrismC:   9
 Leave Link  703 at Sat Jun 22 17:38:24 2024, MaxMem=  2684354560 cpu:            5161.8 elap:             323.1
 (Enter /storage/apps/GAUSSIAN/G16_RevA03/g16/l716.exe)
 Dipole        =-7.97914678D-01-3.49168349D+00 1.35340730D+00
 -------------------------------------------------------------------
 Center     Atomic                   Forces (Hartrees/Bohr)
 Number     Number              X              Y              Z
 -------------------------------------------------------------------
      1        6           0.015057386   -0.001255051   -0.063217009
      2        1           0.007670350    0.002236670    0.052156616
      3        8          -0.006754575    0.013935615   -0.010755410
      4        6           0.048266884   -0.012373837    0.014663514
      5        1          -0.047701260    0.014605984   -0.004202819
[...]
     Eigenvalues ---    1.76482   1.77117   1.85748   1.89661   1.96447
     Eigenvalues ---    1.98206
 Quadratic step=6.923D+00 exceeds max=3.000D-01 adjusted using Lamda=-3.870D-01.
 Angle between NR and scaled steps=  83.41 degrees.
 Angle between quadratic step and forces=  23.01 degrees.
 Linear search not attempted -- first point.
 Variable       Old X    -DE/DX   Delta X   Delta X   Delta X     New X
                                 (Linear)    (Quad)   (Total)
    X1       -7.85305   0.01506   0.00000   0.01707   0.01707  -7.83598
    Y1        0.76069  -0.00126   0.00000  -0.00203  -0.00203   0.75866
    Z1       12.77720  -0.06322   0.00000  -0.03719  -0.03719  12.74001
    X2       -7.58534   0.00767   0.00000   0.01164   0.01164  -7.57370
    Y2        0.91392   0.00224   0.00000  -0.00189  -0.00189   0.91204
    Z2       14.68647   0.05216   0.00000   0.04459   0.04459  14.73106
    X3       -5.57549  -0.00675   0.00000  -0.01103  -0.01103  -5.58652
    Y3       -0.34028   0.01394   0.00000   0.00137   0.00137  -0.33891
    Z3       11.65834  -0.01076   0.00000  -0.01608  -0.01608  11.64226
    X4       -8.11304   0.04827   0.00000   0.02545   0.02545  -8.08759
    Y4        3.36706  -0.01237   0.00000  -0.00379  -0.00379   3.36327
    Z4       11.55175   0.01466   0.00000   0.01291   0.01291  11.56466
    X5       -9.94207  -0.04770   0.00000  -0.04594  -0.04594  -9.98801
    Y5        4.01189   0.01461   0.00000   0.01180   0.01180   4.02369
    Z5       11.48438  -0.00420   0.00000  -0.00572  -0.00572  11.47866
    X6       -6.57327  -0.00446   0.00000   0.00365   0.00365  -6.56963
    Y6        5.25294  -0.01173   0.00000  -0.01660  -0.01660   5.23634
    Z6       12.81610   0.00103   0.00000  -0.00177  -0.00177  12.81433
    X7       -6.89172  -0.00127   0.00000  -0.00681  -0.00681  -6.89854
    Y7        5.33148  -0.00331   0.00000  -0.00797  -0.00797   5.32351
    Z7       14.63506  -0.01733   0.00000  -0.02166  -0.02166  14.61341
    X8       -6.91576   0.05034   0.00000   0.03034   0.03034  -6.88542
    Y8        2.98382   0.04439   0.00000   0.02547   0.02547   3.00929
    Z8        8.93393   0.03802   0.00000   0.02847   0.02847   8.96240
    X9       -8.15095  -0.03328   0.00000  -0.02703  -0.02703  -8.17798
    Y9        2.16169  -0.02185   0.00000  -0.01301  -0.01301   2.14868
    Z9        7.68870  -0.03197   0.00000  -0.02124  -0.02124   7.66746
   X10       -6.07533  -0.00541   0.00000  -0.00154  -0.00154  -6.07687
   Y10        5.32875  -0.01381   0.00000  -0.01224  -0.01224   5.31651
   Z10        7.87605   0.00866   0.00000   0.00785   0.00785   7.88389
   X11       -5.68466  -0.00081   0.00000   0.00097   0.00097  -5.68369
   Y11        6.41739  -0.00454   0.00000  -0.00422  -0.00422   6.41318
   Z11        9.31262  -0.00733   0.00000  -0.01013  -0.01013   9.30250
   X12       -4.66664  -0.05540   0.00000  -0.03250  -0.03250  -4.69915
   Y12        1.21246  -0.04748   0.00000  -0.02935  -0.02935   1.18311
   Z12        9.55854  -0.00397   0.00000   0.00373   0.00373   9.56227
   X13       -3.14221   0.03846   0.00000   0.03166   0.03166  -3.11055
   Y13        2.24966   0.02726   0.00000   0.01900   0.01900   2.26866
   Z13       10.16608   0.01306   0.00000   0.01111   0.01111  10.17719
   X14       -3.81659   0.00109   0.00000  -0.00552  -0.00552  -3.82211
   Y14       -0.42945   0.01075   0.00000   0.01048   0.01048  -0.41897
   Z14        7.50454   0.00560   0.00000   0.00399   0.00399   7.50853
   X15       -1.26223  -0.03779   0.00000  -0.02181  -0.02181  -1.28403
   Y15       -0.59085  -0.03276   0.00000  -0.01471  -0.01471  -0.60555
   Z15        6.97519  -0.02876   0.00000  -0.00836  -0.00836   6.96683
   X16       -0.15058   0.02938   0.00000   0.02505   0.02505  -0.12553
   Y16        0.52796   0.03032   0.00000   0.02727   0.02727   0.55523
   Z16        8.07661   0.03222   0.00000   0.03384   0.03384   8.11045
   X17       -0.29375  -0.00328   0.00000  -0.00130  -0.00130  -0.29506
   Y17       -2.11414  -0.00188   0.00000  -0.00414  -0.00414  -2.11829
   Z17        5.18856  -0.00192   0.00000  -0.00001  -0.00001   5.18855
   X18       -2.01981  -0.01677   0.00000  -0.00052  -0.00052  -2.02033
   Y18       -3.65750   0.03282   0.00000   0.01355   0.01355  -3.64395
   Z18        3.50427   0.05184   0.00000   0.02627   0.02627   3.53054
   X19       -1.40464   0.01907   0.00000   0.02101   0.02101  -1.38363
   Y19       -5.48554  -0.05374   0.00000  -0.05784  -0.05784  -5.54338
   Z19        3.41398  -0.00131   0.00000   0.00481   0.00481   3.41879
   X20       -1.85620   0.00573   0.00000   0.00717   0.00717  -1.84902
   Y20       -2.98051   0.01837   0.00000   0.02366   0.02366  -2.95685
   Z20        1.69501  -0.04662   0.00000  -0.04523  -0.04523   1.64978
   X21       -4.72372   0.03500   0.00000   0.02026   0.02026  -4.70346
   Y21       -3.54327   0.03246   0.00000   0.01840   0.01840  -3.52487
   Z21        4.36898   0.02325   0.00000   0.01330   0.01330   4.38228
   X22       -5.98902  -0.03651   0.00000  -0.03474  -0.03474  -6.02377
   Y22       -4.72881  -0.03220   0.00000  -0.02794  -0.02794  -4.75675
   Z22        3.53308  -0.02138   0.00000  -0.01722  -0.01722   3.51586
   X23       -5.49777   0.05539   0.00000   0.02736   0.02736  -5.47041
   Y23       -2.03396   0.00517   0.00000   0.01375   0.01375  -2.02021
   Z23        6.22533  -0.01308   0.00000   0.00039   0.00039   6.22572
   X24       -7.32856  -0.04820   0.00000  -0.04402  -0.04402  -7.37258
   Y24       -1.99436   0.00148   0.00000   0.00332   0.00332  -1.99104
   Z24        6.82158   0.01823   0.00000   0.02028   0.02028   6.84186
   X25        2.43878   0.03380   0.00000   0.01287   0.01287   2.45165
   Y25       -2.47330  -0.02823   0.00000  -0.00791  -0.00791  -2.48121
   Z25        4.77742  -0.02671   0.00000  -0.00456  -0.00456   4.77286
   X26        3.24243  -0.02516   0.00000  -0.02824  -0.02824   3.21420
   Y26       -4.10635   0.03620   0.00000   0.02511   0.02511  -4.08124
   Z26        3.22982   0.03075   0.00000   0.01602   0.01602   3.24584
   X27        4.17012  -0.00779   0.00000  -0.01040  -0.01040   4.15972
   Y27       -1.02508  -0.00004   0.00000  -0.00589  -0.00589  -1.03097
   Z27        6.06439   0.00595   0.00000   0.00315   0.00315   6.06755
   X28        3.63961   0.00410   0.00000   0.00249   0.00249   3.64210
   Y28        0.18346  -0.00845   0.00000  -0.01206  -0.01206   0.17140
   Z28        7.46297  -0.00807   0.00000  -0.00785  -0.00785   7.45512
   X29        5.99404  -0.01147   0.00000  -0.01796  -0.01796   5.97607
   Y29       -1.64552   0.00312   0.00000   0.00443   0.00443  -1.64109
   Z29        6.09825  -0.00324   0.00000  -0.00689  -0.00689   6.09136
   X30        4.05252   0.01528   0.00000   0.00751   0.00751   4.06003
   Y30       -5.96267   0.02570   0.00000   0.02352   0.02352  -5.93915
   Z30       -3.70685  -0.00507   0.00000  -0.00543  -0.00543  -3.71228
   X31        6.19494  -0.02720   0.00000  -0.02115  -0.02115   6.17379
   Y31       -4.64875  -0.00863   0.00000  -0.00158  -0.00158  -4.65034
   Z31       -4.26325   0.00734   0.00000   0.00615   0.00615  -4.25710
   X32        8.33048   0.00542   0.00000  -0.01428  -0.01428   8.31619
   Y32       -5.89773   0.01492   0.00000   0.01339   0.01339  -5.88433
   Z32       -4.88117  -0.00061   0.00000   0.00474   0.00474  -4.87643
   X33        8.40375  -0.00357   0.00000  -0.01076  -0.01076   8.39300
   Y33       -7.81664   0.00953   0.00000   0.01853   0.01853  -7.79811
   Z33       -4.80355   0.00017   0.00000   0.00118   0.00118  -4.80238
   X34        9.94207  -0.01951   0.00000  -0.02801  -0.02801   9.91407
   Y34       -4.90584  -0.01491   0.00000  -0.01781  -0.01781  -4.92365
   Z34       -5.37769   0.00648   0.00000   0.00979   0.00979  -5.36790
   X35        6.29004   0.02239   0.00000  -0.00087  -0.00087   6.28917
   Y35       -2.04351  -0.01939   0.00000  -0.01480  -0.01480  -2.05832
   Z35       -4.27289  -0.00106   0.00000   0.00587   0.00587  -4.26702
   X36        8.04496  -0.02690   0.00000  -0.03825  -0.03825   8.00672
   Y36       -1.17297  -0.00475   0.00000  -0.00643  -0.00643  -1.17940
   Z36       -4.50869   0.00284   0.00000   0.00373   0.00373  -4.50496
   X37        4.22162  -0.00410   0.00000  -0.00777  -0.00777   4.21386
   Y37       -0.54252   0.07542   0.00000   0.01940   0.01940  -0.52312
   Z37       -3.67627   0.00277   0.00000   0.00038   0.00038  -3.67589
   X38        4.43519  -0.00784   0.00000  -0.01341  -0.01341   4.42178
   Y38        1.84427  -0.06879   0.00000  -0.04714  -0.04714   1.79713
   Z38       -3.61071  -0.00013   0.00000   0.00316   0.00316  -3.60755
   X39        1.93464   0.00536   0.00000   0.00486   0.00486   1.93950
   Y39       -1.90036  -0.02547   0.00000  -0.01692  -0.01692  -1.91728
   Z39       -3.20655  -0.00004   0.00000   0.00166   0.00166  -3.20488
   X40       -0.26460  -0.02303   0.00000  -0.00306  -0.00306  -0.26766
   Y40       -0.63325  -0.01941   0.00000  -0.01418  -0.01418  -0.64743
   Z40       -2.50765   0.00449   0.00000  -0.00196  -0.00196  -2.50961
   X41       -0.10725  -0.00272   0.00000  -0.00575  -0.00575  -0.11299
   Y41        1.29063  -0.00010   0.00000  -0.00729  -0.00729   1.28334
   Z41       -2.31872  -0.00189   0.00000  -0.00552  -0.00552  -2.32424
   X42       -2.45200   0.02665   0.00000   0.02284   0.02284  -2.42916
   Y42       -1.74080   0.02008   0.00000   0.01980   0.01980  -1.72099
   Z42       -2.08282  -0.01402   0.00000  -0.02144  -0.02144  -2.10426
   X43       -2.70853   0.06392   0.00000   0.03888   0.03888  -2.66964
   Y43       -4.55228   0.02975   0.00000   0.02119   0.02119  -4.53109
   Z43       -2.56205   0.00559   0.00000   0.00207   0.00207  -2.55998
   X44       -3.81349  -0.03121   0.00000  -0.02265  -0.02265  -3.83614
   Y44       -5.33186  -0.02177   0.00000  -0.01557  -0.01557  -5.34743
   Z44       -1.18634   0.04262   0.00000   0.04761   0.04761  -1.13873
   X45       -3.63945  -0.02548   0.00000  -0.01934  -0.01934  -3.65879
   Y45       -4.82540  -0.00372   0.00000   0.00329   0.00329  -4.82210
   Z45       -4.24476  -0.04832   0.00000  -0.05250  -0.05250  -4.29726
   X46       -0.24260   0.00824   0.00000   0.02083   0.02083  -0.22177
   Y46       -5.81924   0.00570   0.00000   0.01236   0.01236  -5.80688
   Z46       -2.59553  -0.00081   0.00000  -0.00122  -0.00122  -2.59675
   X47       -0.20667   0.00353   0.00000   0.01014   0.01014  -0.19653
   Y47       -7.73318   0.00787   0.00000   0.01589   0.01589  -7.71729
   Z47       -2.41771  -0.00171   0.00000  -0.00367  -0.00367  -2.42138
   X48        1.93935   0.01114   0.00000   0.01619   0.01619   1.95554
   Y48       -4.58936   0.00704   0.00000   0.00777   0.00777  -4.58159
   Z48       -3.17992  -0.00208   0.00000  -0.00250  -0.00250  -3.18242
   X49       -4.79012   0.05290   0.00000   0.03130   0.03130  -4.75882
   Y49       -0.15561   0.03546   0.00000   0.02161   0.02161  -0.13400
   Z49       -1.53891  -0.04304   0.00000  -0.02710  -0.02710  -1.56602
   X50       -5.06877  -0.00533   0.00000   0.00462   0.00462  -5.06415
   Y50       -0.00600   0.00190   0.00000   0.00201   0.00201  -0.00399
   Z50        0.36827   0.05626   0.00000   0.05394   0.05394   0.42222
   X51       -6.32915  -0.04267   0.00000  -0.03647  -0.03647  -6.36562
   Y51       -1.07957  -0.02916   0.00000  -0.02961  -0.02961  -1.10918
   Z51       -2.26546  -0.02318   0.00000  -0.03256  -0.03256  -2.29802
   X52       -4.57926   0.00194   0.00000   0.01031   0.01031  -4.56895
   Y52        2.41574  -0.00735   0.00000  -0.00069  -0.00069   2.41505
   Z52       -2.55639   0.01661   0.00000   0.00735   0.00735  -2.54904
   X53       -5.25635   0.00474   0.00000   0.00662   0.00662  -5.24972
   Y53        3.79117  -0.00735   0.00000  -0.00898  -0.00898   3.78218
   Z53       -1.38321  -0.00943   0.00000  -0.01035  -0.01035  -1.39357
   X54       -4.25755  -0.00082   0.00000  -0.00123  -0.00123  -4.25878
   Y54        4.05305  -0.00348   0.00000   0.00362   0.00362   4.05667
   Z54      -10.32335   0.02086   0.00000  -0.00602  -0.00602 -10.32937
   X55       -4.54964   0.00541   0.00000   0.00225   0.00225  -4.54739
   Y55        5.99196  -0.05385   0.00000  -0.03150  -0.03150   5.96046
   Z55       -8.50244  -0.01406   0.00000  -0.01636  -0.01636  -8.51880
   X56       -4.61832  -0.00247   0.00000  -0.00279  -0.00279  -4.62111
   Y56        7.81664   0.04988   0.00000   0.04571   0.04571   7.86235
   Z56       -9.11093  -0.01851   0.00000  -0.02282  -0.02282  -9.13375
   X57       -4.68697   0.00442   0.00000  -0.00043  -0.00043  -4.68740
   Y57        5.45941  -0.05641   0.00000  -0.03683  -0.03683   5.42258
   Z57       -5.99689  -0.01129   0.00000  -0.00099  -0.00099  -5.99788
   X58       -4.87404  -0.00478   0.00000  -0.00396  -0.00396  -4.87800
   Y58        6.88260   0.03908   0.00000   0.03342   0.03342   6.91602
   Z58       -4.71329   0.03580   0.00000   0.03603   0.03603  -4.67726
   X59       -4.56074  -0.00091   0.00000  -0.00409  -0.00409  -4.56483
   Y59        2.92500   0.00170   0.00000  -0.00104  -0.00104   2.92396
   Z59       -5.13871  -0.01424   0.00000   0.00250   0.00250  -5.13621
   X60       -4.33139  -0.00418   0.00000  -0.00665  -0.00665  -4.33804
   Y60        0.98875   0.05334   0.00000   0.02986   0.02986   1.01861
   Z60       -6.95844   0.01964   0.00000   0.02024   0.02024  -6.93821
   X61       -4.29809   0.00072   0.00000  -0.00023  -0.00023  -4.29832
   Y61       -0.85917  -0.05066   0.00000  -0.04757  -0.04757  -0.90674
   Z61       -6.41959   0.01501   0.00000   0.01951   0.01951  -6.40008
   X62       -4.17963  -0.00251   0.00000  -0.00361  -0.00361  -4.18324
   Y62        1.56190   0.05062   0.00000   0.03108   0.03108   1.59298
   Z62       -9.46405   0.00916   0.00000   0.00066   0.00066  -9.46339
   X63       -4.03066   0.00348   0.00000   0.00234   0.00234  -4.02832
   Y63        0.11184  -0.04006   0.00000  -0.03760  -0.03760   0.07424
   Z63      -10.72214  -0.03341   0.00000  -0.03275  -0.03275 -10.75489
   X64       -4.03867  -0.01287   0.00000  -0.00497  -0.00497  -4.04365
   Y64        4.71489   0.07621   0.00000   0.02572   0.02572   4.74061
   Z64      -13.01111  -0.05780   0.00000  -0.04243  -0.04243 -13.05354
   X65       -4.53235   0.01639   0.00000   0.00794   0.00794  -4.52441
   Y65        6.94275  -0.07217   0.00000  -0.04029  -0.04029   6.90246
   Z65      -13.80687   0.03215   0.00000   0.02196   0.02196 -13.78491
   X66       -3.25357   0.00455   0.00000  -0.00392  -0.00392  -3.25749
   Y66        2.91229  -0.00802   0.00000   0.00081   0.00081   2.91310
   Z66      -14.68647  -0.03847   0.00000  -0.02178  -0.02178 -14.70825
   X67       -2.96405   0.00013   0.00000   0.00119   0.00119  -2.96286
   Y67        1.09791   0.01000   0.00000   0.01523   0.01523   1.11314
   Z67      -14.13761  -0.00229   0.00000  -0.00641  -0.00641 -14.14402
   X68       -9.46093  -0.00118   0.00000   0.00113   0.00113  -9.45979
   Y68       -0.47143   0.00029   0.00000   0.00368   0.00368  -0.46775
   Z68       12.40385  -0.00263   0.00000  -0.01308  -0.01308  12.39077
   X69       -3.09086  -0.00862   0.00000  -0.01418  -0.01418  -3.10504
   Y69        3.21992   0.00150   0.00000   0.00797   0.00797   3.22789
   Z69      -16.71666   0.06078   0.00000   0.07322   0.07322 -16.64344
         Item               Value     Threshold  Converged?
 Maximum Force            0.076215     0.000450     NO 
 RMS     Force            0.027021     0.000300     NO 
 Maximum Displacement     0.073220     0.001800     NO 
 RMS     Displacement     0.020863     0.001200     NO 
 Predicted change in Energy=-7.113802D-02
 GradGradGradGradGradGradGradGradGradGradGradGradGradGradGradGradGradGrad

 Leave Link  103 at Sat Jun 22 17:38:24 2024, MaxMem=  2684354560 cpu:               7.7 elap:               0.5
 (Enter /storage/apps/GAUSSIAN/G16_RevA03/g16/l9999.exe)

 Test job not archived.
 1\1\GINC-T048\Force\RM062X\def2TZVP\C24H30N9O6(1+)\LV87696\22-Jun-2024
 \0\\#P M062X/Def2TZVP scf=(direct,conver=8) EmpiricalDispersion=GD3 No
 Symm force Charge Prop=(Field,Read)\\Gaussian run using SANDER externa
 l interface, route from template gau_job.tpl\\1,1\C,-4.1556555332,0.40
 25408082,6.7614021491\H,-4.0139885179,0.4836281101,7.7717455785\O,-2.9
 504242934,-0.1800694281,6.1693256731\C,-4.2932352051,1.7817736216,6.11
 29220134\H,-5.2611185908,2.1230028844,6.0772700207\O,-3.4784255732,2.7
 79734536,6.7819856639\H,-3.6469434612,2.8212960292,7.7445426866\C,-3.6
 596632364,1.5789690317,4.7276329563\H,-4.3132974847,1.1439169202,4.068
 6836298\O,-3.2149280369,2.8198552545,4.1678241596\H,-3.0081913511,3.39
 59390412,4.9280279661\C,-2.4694818598,0.6416048804,5.0581625549\H,-1.6
 627865675,1.190470216,5.3796574552\N,-2.0196536686,-0.2272540943,3.971
 2294933\C,-0.6679407853,-0.3126624115,3.6911109112\H,-0.0796829305,0.2
 793830799,4.2739575855\C,-0.1554476215,-1.118755511,2.7456691484\C,-1.
 0688389033,-1.9354655117,1.8543794043\H,-0.7433039347,-2.9028216723,1.
 8066010486\H,-0.982256407,-1.5772172458,0.8969588254\C,-2.4996848177,-
 1.875019683,2.3119653568\H,-3.1692541629,-2.5023760681,1.8696278755\C,
 -2.9092938648,-1.0763274851,3.2943021397\H,-3.8781057899,-1.0553674024
 ,3.6098262622\C,1.2905452505,-1.3088133172,2.5281026748\O,1.7158226415
 ,-2.1729861218,1.7091469192\N,2.2067333316,-0.5424471118,3.2091393948\
 H,1.926000728,0.0970821377,3.9492354192\H,3.1719071137,-0.8707716509,3
 .2270557271\N,2.1445003595,-3.1553082785,-1.9615799182\C,3.2782195064,
 -2.4600148144,-2.2560167855\N,4.4082979218,-3.1209428289,-2.5830026408
 \H,4.4470747749,-4.1363884501,-2.5419307801\H,5.2611185908,-2.59605962
 02,-2.8457515914\N,3.3285453853,-1.0813815506,-2.2611181802\H,4.257211
 7219,-0.6207104076,-2.3858970111\C,2.2339872498,-0.2870895124,-1.94539
 96255\O,2.3470026613,0.9759445075,-1.9107042156\C,1.0237689879,-1.0056
 259302,-1.6968327738\N,-0.1400197078,-0.335103564,-1.3269915038\H,-0.0
 567517765,0.6829712988,-1.2270150608\C,-1.2975407141,-0.9211899194,-1.
 1021827674\C,-1.4332906991,-2.4089622581,-1.3557784098\H,-2.0180095038
 ,-2.8214994485,-0.6277843674\H,-1.9259148741,-2.5534891247,-2.24623124
 79\N,-0.1283789355,-3.079408932,-1.3734934597\H,-0.1093662761,-4.09222
 2428,-1.2793952524\C,1.0262617013,-2.4285858581,-1.6827390663\C,-2.534
 8249373,-0.0823458948,-0.8143586332\H,-2.682275561,-0.0031776518,0.194
 8824238\H,-3.3492396231,-0.5712850929,-1.1988290794\N,-2.4232401231,1.
 2783523492,-1.3527830492\H,-2.7815381062,2.0061986421,-0.7319652835\C,
 -2.252996192,2.1447825361,-5.4628821488\C,-2.407563248,3.1708061607,-4
 .4992996421\H,-2.4439090119,4.1363884501,-4.8212954103\C,-2.4802396855
 ,2.8889953721,-3.1734198904\H,-2.5792313346,3.6421167766,-2.494167037\
 C,-2.4134402484,1.5478436863,-2.7192894645\C,-2.2920719348,0.523221702
 ,-3.6822486966\H,-2.2744488316,-0.4546536501,-3.3971009817\C,-2.211766
 1157,0.8265218278,-5.0081595659\H,-2.1329323372,0.0591844036,-5.673911
 8925\C,-2.1371746656,2.4950109141,-6.8851823615\O,-2.3984183136,3.6739
 444521,-7.3062788158\N,-1.7217157776,1.5411168943,-7.7717455785\H,-1.5
 685093813,0.5809903931,-7.481300269\H,-5.006507447,-0.2494694112,6.563
 8326815\H,-1.6356123594,1.7039090527,-8.8460755625\\Version=ES64L-G16R
 evA.03\HF=-1876.4476317\RMSD=4.088e-09\RMSF=2.702e-02\Dipole=1.0151188
 ,-3.5191408,1.405707\Quadrupole=18.5783056,-38.6155759,20.0372703,-9.6
 948161,-44.0696267,51.1772441\PG=C01 [X(C24H30N9O6)]\\@


 Boundary, n.  In political geography, an imaginary
 line between two nations, separating the imaginary
 rights of one from the imaginary rights of another.
                               -- Ambrose Bierce
 Job cpu time:       0 days  7 hours 18 minutes 39.5 seconds.
 Elapsed time:       0 days  0 hours 27 minutes 30.2 seconds.
 File lengths (MBytes):  RWF=   1039 Int=      0 D2E=      0 Chk=    113 Scr=      1
 Normal termination of Gaussian 16 at Sat Jun 22 17:38:25 2024.
