 Entering Gaussian System, Link 0=g16
 Initial command:
 /storage/apps/GAUSSIAN/G16_RevA03/g16/l1.exe "/scratch/tmp/2140813/Gau-126447.inp" -scrdir="/scratch/tmp/2140813/"
 Entering Link 1 = /storage/apps/GAUSSIAN/G16_RevA03/g16/l1.exe PID=    126448.
  
 Copyright (c) 1988,1990,1992,1993,1995,1998,2003,2009,2016,
            Gaussian, Inc.  All Rights Reserved.
  
 This is part of the Gaussian(R) 16 program.  It is based on
 the Gaussian(R) 09 system (copyright 2009, Gaussian, Inc.),
 the Gaussian(R) 03 system (copyright 2003, Gaussian, Inc.),
 the Gaussian(R) 98 system (copyright 1998, Gaussian, Inc.),
 the Gaussian(R) 94 system (copyright 1995, Gaussian, Inc.),
 the Gaussian 92(TM) system (copyright 1992, Gaussian, Inc.),
 the Gaussian 90(TM) system (copyright 1990, Gaussian, Inc.),
 the Gaussian 88(TM) system (copyright 1988, Gaussian, Inc.),
 the Gaussian 86(TM) system (copyright 1986, Carnegie Mellon
 University), and the Gaussian 82(TM) system (copyright 1983,
 Carnegie Mellon University). Gaussian is a federally registered
 trademark of Gaussian, Inc.
  
 This software contains proprietary and confidential information,
 including trade secrets, belonging to Gaussian, Inc.
  
 This software is provided under written license and may be
 used, copied, transmitted, or stored only in accord with that
 written license.
  
 The following legend is applicable only to US Government
 contracts under FAR:
  
                    RESTRICTED RIGHTS LEGEND
  
 Use, reproduction and disclosure by the US Government is
 subject to restrictions as set forth in subparagraphs (a)
 and (c) of the Commercial Computer Software - Restricted
 Rights clause in FAR 52.227-19.
  
 Gaussian, Inc.
 340 Quinnipiac St., Bldg. 40, Wallingford CT 06492
  
  
 ---------------------------------------------------------------
 Warning -- This program may not be used in any manner that
 competes with the business of Gaussian, Inc. or will provide
 assistance to any competitor of Gaussian, Inc.  The licensee
 of this program is prohibited from giving any competitor of
 Gaussian, Inc. access to this program.  By using this program,
 the user acknowledges that Gaussian, Inc. is engaged in the
 business of creating and licensing software in the field of
 computational chemistry and represents and warrants to the
 licensee that it is not a competitor of Gaussian, Inc. and that
 it will not use this program in any manner prohibited above.
 ---------------------------------------------------------------
  

 Cite this work as:
 Gaussian 16, Revision A.03,
 M. J. Frisch, G. W. Trucks, H. B. Schlegel, G. E. Scuseria, 
 M. A. Robb, J. R. Cheeseman, G. Scalmani, V. Barone, 
 G. A. Petersson, H. Nakatsuji, X. Li, M. Caricato, A. V. Marenich, 
 J. Bloino, B. G. Janesko, R. Gomperts, B. Mennucci, H. P. Hratchian, 
 J. V. Ortiz, A. F. Izmaylov, J. L. Sonnenberg, D. Williams-Young, 
 F. Ding, F. Lipparini, F. Egidi, J. Goings, B. Peng, A. Petrone, 
 T. Henderson, D. Ranasinghe, V. G. Zakrzewski, J. Gao, N. Rega, 
 G. Zheng, W. Liang, M. Hada, M. Ehara, K. Toyota, R. Fukuda, 
 J. Hasegawa, M. Ishida, T. Nakajima, Y. Honda, O. Kitao, H. Nakai, 
 T. Vreven, K. Throssell, J. A. Montgomery, Jr., J. E. Peralta, 
 F. Ogliaro, M. J. Bearpark, J. J. Heyd, E. N. Brothers, K. N. Kudin, 
 V. N. Staroverov, T. A. Keith, R. Kobayashi, J. Normand, 
 K. Raghavachari, A. P. Rendell, J. C. Burant, S. S. Iyengar, 
 J. Tomasi, M. Cossi, J. M. Millam, M. Klene, C. Adamo, R. Cammi, 
 J. W. Ochterski, R. L. Martin, K. Morokuma, O. Farkas, 
 J. B. Foresman, and D. J. Fox, Gaussian, Inc., Wallingford CT, 2016.
 
 ******************************************
 Gaussian 16:  ES64L-G16RevA.03 25-Dec-2016
                22-Jun-2024 
 ******************************************
 %chk=gau_job.chk
 %NProcShared=16
 Will use up to   16 processors via shared memory.
 %mem=20GB
 ----------------------------------------------------------------------
 #P M062X/Def2TZVP scf=(direct,conver=8) EmpiricalDispersion=GD3 NoSymm
  force Charge Prop=(Field,Read)
 ----------------------------------------------------------------------
 1/10=7,18=10,28=-2,30=1,38=1,125=101/1,3;
 2/12=2,15=1,17=6,18=5,29=2,40=1/2;
 3/5=44,7=101,11=2,25=1,30=1,71=1,74=-55,124=31/1,2,3;
 4//1;
 5/5=2,6=8,38=5/2;
 6/7=2,8=2,9=2,10=2,14=2,15=1,28=1/1,2;
 7/7=1,16=-2,29=1,30=1/1,2,3,16;
 1/10=7,18=10,28=-2,30=1/3;
 99/12=1/99;
 Leave Link    1 at Sat Jun 22 17:16:46 2024, MaxMem=  2684354560 cpu:               0.8 elap:               0.1
 (Enter /storage/apps/GAUSSIAN/G16_RevA03/g16/l101.exe)
 ----------------------------------------------------------------------
 Gaussian run using SANDER external interface, route from template gau_
 job.tpl
 ----------------------------------------------------------------------
 Symbolic Z-matrix:
 Charge =  1 Multiplicity = 1
 C                    -4.15079   0.36885   6.73873 
 H                    -3.98688   0.43982   7.74639 
 O                    -2.96246  -0.21724   6.11558 
 C                    -4.29243   1.75644   6.10862 
 H                    -5.25945   2.10097   6.08712 
 O                    -3.46805   2.74211   6.78392 
 H                    -3.64775   2.79022   7.74399 
 C                    -3.6702    1.5731    4.71516 
 H                    -4.32817   1.14983   4.05278 
 O                    -3.22423   2.82086   4.17363 
 H                    -3.01069   3.3846    4.94146 
 C                    -2.48091   0.62784   5.02718 
 H                    -1.67399   1.17013   5.35902 
 N                    -2.03167  -0.22041   3.92176 
 C                    -0.68034  -0.30363   3.64487 
 H                    -0.08955   0.25452   4.25737 
 C                    -0.17167  -1.08502   2.67561 
 C                    -1.09915  -1.82861   1.74767 
 H                    -0.74344  -2.76286   1.53872 
 H                    -1.08228  -1.34303   0.84123 
 C                    -2.50571  -1.86338   2.26132 
 H                    -3.16116  -2.51634   1.83517 
 C                    -2.91494  -1.08488   3.26164 
 H                    -3.87209  -1.10229   3.61093 
 C                     1.27527  -1.30037   2.46971 
 O                     1.69245  -2.15063   1.6344 
 N                     2.19423  -0.57391   3.18721 
 H                     1.91753   0.06373   3.9299 
 H                     3.15735  -0.90855   3.19956 
 N                     2.16428  -3.14092  -1.92466 
 C                     3.28737  -2.44665  -2.25395 
 N                     4.40735  -3.10988  -2.6152 
 H                     4.44691  -4.12434  -2.56018 
 H                     5.25945  -2.5872   -2.88408 
 N                     3.33468  -1.06849  -2.26524 
 H                     4.2606   -0.60755  -2.4035 
 C                     2.24483  -0.27561  -1.92882 
 O                     2.36044   0.98944  -1.90425 
 C                     1.04234  -0.99237  -1.64667 
 N                    -0.12302  -0.31776  -1.27352 
 H                    -0.0422    0.70065  -1.18236 
 C                    -1.26469  -0.92031  -0.97296 
 C                    -1.39485  -2.39435  -1.31977 
 H                    -2.03439  -2.84809  -0.66675 
 H                    -1.81494  -2.47322  -2.2546 
 N                    -0.09361  -3.06683  -1.27433 
 H                    -0.07775  -4.08242  -1.22045 
 C                     1.05213  -2.41318  -1.62105 
 C                    -2.54755  -0.09486  -0.82533 
 H                    -2.84016  -0.04307   0.153 
 H                    -3.2867   -0.5921   -1.33195 
 N                    -2.39805   1.27244  -1.32566 
 H                    -2.74721   1.99929  -0.69891 
 C                    -2.22871   2.13202  -5.43205 
 C                    -2.38491   3.16179  -4.47362 
 H                    -2.43343   4.12434  -4.80274 
 C                    -2.446     2.88721  -3.14585 
 H                    -2.54692   3.6424   -2.46924 
 C                    -2.36867   1.54892  -2.68891 
 C                    -2.22515   0.52064  -3.64581 
 H                    -2.17973  -0.45457  -3.35511 
 C                    -2.15572   0.81709  -4.97258 
 H                    -2.05956   0.0477   -5.63363 
 C                    -2.13629   2.47769  -6.85468 
 O                    -2.40626   3.65574  -7.27454 
 N                    -1.73618   1.52323  -7.74639 
 H                    -1.57616   0.56299  -7.4599 
 H                    -5.00915  -0.27701   6.55383 
 H                    -1.65346   1.69214  -8.82004 
 
 ITRead=  0  0  0  0  0  0  0  0  0  0  0  0  0  0  0  0  0  0  0  0
 ITRead=  0  0  0  0  0  0  0  0  0  0  0  0  0  0  0  0  0  0  0  0
 ITRead=  0  0  0  0  0  0  0  0  0  0  0  0  0  0  0  0  0  0  0  0
 ITRead=  0  0  0  0  0  0  0  0  0
 MicOpt= -1 -1 -1 -1 -1 -1 -1 -1 -1 -1 -1 -1 -1 -1 -1 -1 -1 -1 -1 -1
 MicOpt= -1 -1 -1 -1 -1 -1 -1 -1 -1 -1 -1 -1 -1 -1 -1 -1 -1 -1 -1 -1
 MicOpt= -1 -1 -1 -1 -1 -1 -1 -1 -1 -1 -1 -1 -1 -1 -1 -1 -1 -1 -1 -1
 MicOpt= -1 -1 -1 -1 -1 -1 -1 -1 -1
 NAtoms=     69 NQM=       69 NQMF=       0 NMMI=      0 NMMIF=      0
                NMic=       0 NMicF=      0.
                    Isotopes and Nuclear Properties:
 (Nuclear quadrupole moments (NQMom) in fm**2, nuclear magnetic moments (NMagM)
  in nuclear magnetons)

  Atom         1           2           3           4           5           6           7           8           9          10
 IAtWgt=          12           1          16          12           1          16           1          12           1          16
 AtmWgt=  12.0000000   1.0078250  15.9949146  12.0000000   1.0078250  15.9949146   1.0078250  12.0000000   1.0078250  15.9949146
 NucSpn=           0           1           0           0           1           0           1           0           1           0
 AtZEff=  -0.0000000  -0.0000000  -0.0000000  -0.0000000  -0.0000000  -0.0000000  -0.0000000  -0.0000000  -0.0000000  -0.0000000
 NQMom=    0.0000000   0.0000000   0.0000000   0.0000000   0.0000000   0.0000000   0.0000000   0.0000000   0.0000000   0.0000000
 NMagM=    0.0000000   2.7928460   0.0000000   0.0000000   2.7928460   0.0000000   2.7928460   0.0000000   2.7928460   0.0000000
 AtZNuc=   6.0000000   1.0000000   8.0000000   6.0000000   1.0000000   8.0000000   1.0000000   6.0000000   1.0000000   8.0000000

  Atom        11          12          13          14          15          16          17          18          19          20
 IAtWgt=           1          12           1          14          12           1          12          12           1           1
 AtmWgt=   1.0078250  12.0000000   1.0078250  14.0030740  12.0000000   1.0078250  12.0000000  12.0000000   1.0078250   1.0078250
 NucSpn=           1           0           1           2           0           1           0           0           1           1
 AtZEff=  -0.0000000  -0.0000000  -0.0000000  -0.0000000  -0.0000000  -0.0000000  -0.0000000  -0.0000000  -0.0000000  -0.0000000
 NQMom=    0.0000000   0.0000000   0.0000000   2.0440000   0.0000000   0.0000000   0.0000000   0.0000000   0.0000000   0.0000000
 NMagM=    2.7928460   0.0000000   2.7928460   0.4037610   0.0000000   2.7928460   0.0000000   0.0000000   2.7928460   2.7928460
 AtZNuc=   1.0000000   6.0000000   1.0000000   7.0000000   6.0000000   1.0000000   6.0000000   6.0000000   1.0000000   1.0000000

  Atom        21          22          23          24          25          26          27          28          29          30
 IAtWgt=          12           1          12           1          12          16          14           1           1          14
 AtmWgt=  12.0000000   1.0078250  12.0000000   1.0078250  12.0000000  15.9949146  14.0030740   1.0078250   1.0078250  14.0030740
 NucSpn=           0           1           0           1           0           0           2           1           1           2
 AtZEff=  -0.0000000  -0.0000000  -0.0000000  -0.0000000  -0.0000000  -0.0000000  -0.0000000  -0.0000000  -0.0000000  -0.0000000
 NQMom=    0.0000000   0.0000000   0.0000000   0.0000000   0.0000000   0.0000000   2.0440000   0.0000000   0.0000000   2.0440000
 NMagM=    0.0000000   2.7928460   0.0000000   2.7928460   0.0000000   0.0000000   0.4037610   2.7928460   2.7928460   0.4037610
 AtZNuc=   6.0000000   1.0000000   6.0000000   1.0000000   6.0000000   8.0000000   7.0000000   1.0000000   1.0000000   7.0000000

  Atom        31          32          33          34          35          36          37          38          39          40
 IAtWgt=          12          14           1           1          14           1          12          16          12          14
 AtmWgt=  12.0000000  14.0030740   1.0078250   1.0078250  14.0030740   1.0078250  12.0000000  15.9949146  12.0000000  14.0030740
 NucSpn=           0           2           1           1           2           1           0           0           0           2
 AtZEff=  -0.0000000  -0.0000000  -0.0000000  -0.0000000  -0.0000000  -0.0000000  -0.0000000  -0.0000000  -0.0000000  -0.0000000
 NQMom=    0.0000000   2.0440000   0.0000000   0.0000000   2.0440000   0.0000000   0.0000000   0.0000000   0.0000000   2.0440000
 NMagM=    0.0000000   0.4037610   2.7928460   2.7928460   0.4037610   2.7928460   0.0000000   0.0000000   0.0000000   0.4037610
 AtZNuc=   6.0000000   7.0000000   1.0000000   1.0000000   7.0000000   1.0000000   6.0000000   8.0000000   6.0000000   7.0000000

  Atom        41          42          43          44          45          46          47          48          49          50
 IAtWgt=           1          12          12           1           1          14           1          12          12           1
 AtmWgt=   1.0078250  12.0000000  12.0000000   1.0078250   1.0078250  14.0030740   1.0078250  12.0000000  12.0000000   1.0078250
 NucSpn=           1           0           0           1           1           2           1           0           0           1
 AtZEff=  -0.0000000  -0.0000000  -0.0000000  -0.0000000  -0.0000000  -0.0000000  -0.0000000  -0.0000000  -0.0000000  -0.0000000
 NQMom=    0.0000000   0.0000000   0.0000000   0.0000000   0.0000000   2.0440000   0.0000000   0.0000000   0.0000000   0.0000000
 NMagM=    2.7928460   0.0000000   0.0000000   2.7928460   2.7928460   0.4037610   2.7928460   0.0000000   0.0000000   2.7928460
 AtZNuc=   1.0000000   6.0000000   6.0000000   1.0000000   1.0000000   7.0000000   1.0000000   6.0000000   6.0000000   1.0000000

  Atom        51          52          53          54          55          56          57          58          59          60
 IAtWgt=           1          14           1          12          12           1          12           1          12          12
 AtmWgt=   1.0078250  14.0030740   1.0078250  12.0000000  12.0000000   1.0078250  12.0000000   1.0078250  12.0000000  12.0000000
 NucSpn=           1           2           1           0           0           1           0           1           0           0
 AtZEff=  -0.0000000  -0.0000000  -0.0000000  -0.0000000  -0.0000000  -0.0000000  -0.0000000  -0.0000000  -0.0000000  -0.0000000
 NQMom=    0.0000000   2.0440000   0.0000000   0.0000000   0.0000000   0.0000000   0.0000000   0.0000000   0.0000000   0.0000000
 NMagM=    2.7928460   0.4037610   2.7928460   0.0000000   0.0000000   2.7928460   0.0000000   2.7928460   0.0000000   0.0000000
 AtZNuc=   1.0000000   7.0000000   1.0000000   6.0000000   6.0000000   1.0000000   6.0000000   1.0000000   6.0000000   6.0000000

  Atom        61          62          63          64          65          66          67          68          69
 IAtWgt=           1          12           1          12          16          14           1           1           1
 AtmWgt=   1.0078250  12.0000000   1.0078250  12.0000000  15.9949146  14.0030740   1.0078250   1.0078250   1.0078250
 NucSpn=           1           0           1           0           0           2           1           1           1
 AtZEff=  -0.0000000  -0.0000000  -0.0000000  -0.0000000  -0.0000000  -0.0000000  -0.0000000  -0.0000000  -0.0000000
 NQMom=    0.0000000   0.0000000   0.0000000   0.0000000   0.0000000   2.0440000   0.0000000   0.0000000   0.0000000
 NMagM=    2.7928460   0.0000000   2.7928460   0.0000000   0.0000000   0.4037610   2.7928460   2.7928460   2.7928460
 AtZNuc=   1.0000000   6.0000000   1.0000000   6.0000000   8.0000000   7.0000000   1.0000000   1.0000000   1.0000000
 Background charge distribution read from input stream:
 Leave Link  101 at Sat Jun 22 17:16:46 2024, MaxMem=  2684354560 cpu:               2.0 elap:               0.2
 (Enter /storage/apps/GAUSSIAN/G16_RevA03/g16/l103.exe)

 GradGradGradGradGradGradGradGradGradGradGradGradGradGradGradGradGradGrad
 Berny optimization.
 Initialization pass.
 Trust Radius=3.00D-01 FncErr=1.00D-07 GrdErr=1.00D-07 EigMax=2.50D+02 EigMin=1.00D-04
 Number of steps in this run=      2 maximum allowed number of steps=      2.
 GradGradGradGradGradGradGradGradGradGradGradGradGradGradGradGradGradGrad

 Leave Link  103 at Sat Jun 22 17:16:46 2024, MaxMem=  2684354560 cpu:               0.4 elap:               0.1
 (Enter /storage/apps/GAUSSIAN/G16_RevA03/g16/l202.exe)
 Symmetry turned off by external request.
 Stoichiometry    C24H30N9O6(1+)
 Framework group  C1[X(C24H30N9O6)]
 Deg. of freedom   201
 Full point group                 C1      NOp   1
                          Input orientation:                          
 ---------------------------------------------------------------------
 Center     Atomic      Atomic             Coordinates (Angstroms)
 Number     Number       Type             X           Y           Z
 ---------------------------------------------------------------------
      1          6           0       -4.150791    0.368846    6.738725
      2          1           0       -3.986876    0.439820    7.746393
      3          8           0       -2.962455   -0.217237    6.115577
      4          6           0       -4.292426    1.756437    6.108616
      5          1           0       -5.259453    2.100970    6.087117
      6          8           0       -3.468054    2.742107    6.783916
      7          1           0       -3.647745    2.790221    7.743993
      8          6           0       -3.670204    1.573099    4.715158
      9          1           0       -4.328172    1.149835    4.052784
     10          8           0       -3.224234    2.820864    4.173633
     11          1           0       -3.010693    3.384601    4.941461
     12          6           0       -2.480905    0.627837    5.027181
     13          1           0       -1.673991    1.170126    5.359016
     14          7           0       -2.031665   -0.220415    3.921764
     15          6           0       -0.680339   -0.303632    3.644873
     16          1           0       -0.089549    0.254525    4.257373
     17          6           0       -0.171672   -1.085024    2.675613
     18          6           0       -1.099151   -1.828609    1.747669
     19          1           0       -0.743441   -2.762865    1.538723
     20          1           0       -1.082276   -1.343031    0.841225
     21          6           0       -2.505712   -1.863378    2.261324
     22          1           0       -3.161157   -2.516340    1.835174
     23          6           0       -2.914936   -1.084877    3.261642
     24          1           0       -3.872092   -1.102287    3.610929
     25          6           0        1.275265   -1.300371    2.469709
     26          8           0        1.692446   -2.150628    1.634402
     27          7           0        2.194234   -0.573905    3.187212
     28          1           0        1.917529    0.063731    3.929899
     29          1           0        3.157350   -0.908546    3.199564
     30          7           0        2.164279   -3.140924   -1.924656
     31          6           0        3.287366   -2.446655   -2.253951
     32          7           0        4.407351   -3.109880   -2.615202
     33          1           0        4.446911   -4.124342   -2.560178
     34          1           0        5.259453   -2.587201   -2.884079
     35          7           0        3.334685   -1.068487   -2.265244
     36          1           0        4.260598   -0.607547   -2.403497
     37          6           0        2.244834   -0.275606   -1.928818
     38          8           0        2.360443    0.989440   -1.904255
     39          6           0        1.042340   -0.992366   -1.646669
     40          7           0       -0.123025   -0.317755   -1.273521
     41          1           0       -0.042195    0.700648   -1.182363
     42          6           0       -1.264685   -0.920307   -0.972961
     43          6           0       -1.394853   -2.394346   -1.319771
     44          1           0       -2.034395   -2.848094   -0.666750
     45          1           0       -1.814938   -2.473218   -2.254604
     46          7           0       -0.093612   -3.066831   -1.274334
     47          1           0       -0.077747   -4.082423   -1.220446
     48          6           0        1.052134   -2.413179   -1.621048
     49          6           0       -2.547550   -0.094859   -0.825328
     50          1           0       -2.840158   -0.043069    0.152996
     51          1           0       -3.286700   -0.592104   -1.331954
     52          7           0       -2.398051    1.272439   -1.325658
     53          1           0       -2.747210    1.999290   -0.698914
     54          6           0       -2.228714    2.132019   -5.432051
     55          6           0       -2.384911    3.161785   -4.473623
     56          1           0       -2.433426    4.124342   -4.802737
     57          6           0       -2.445999    2.887211   -3.145846
     58          1           0       -2.546920    3.642403   -2.469244
     59          6           0       -2.368672    1.548923   -2.688912
     60          6           0       -2.225147    0.520643   -3.645809
     61          1           0       -2.179732   -0.454565   -3.355115
     62          6           0       -2.155719    0.817090   -4.972581
     63          1           0       -2.059562    0.047697   -5.633632
     64          6           0       -2.136294    2.477690   -6.854684
     65          8           0       -2.406263    3.655739   -7.274538
     66          7           0       -1.736182    1.523229   -7.746393
     67          1           0       -1.576160    0.562990   -7.459900
     68          1           0       -5.009151   -0.277012    6.553829
     69          1           0       -1.653463    1.692139   -8.820045
 ---------------------------------------------------------------------
 Rotational constants (GHZ):           0.1092086           0.0515934           0.0389681
 Leave Link  202 at Sat Jun 22 17:16:47 2024, MaxMem=  2684354560 cpu:               0.3 elap:               0.1
 (Enter /storage/apps/GAUSSIAN/G16_RevA03/g16/l301.exe)
 Standard basis: def2TZVP (5D, 7F)
 Ernie: Thresh=  0.10000D-02 Tol=  0.10000D-05 Strict=F.
  1389 basis functions,  2229 primitive gaussians,  1584 cartesian basis functions
   142 alpha electrons      142 beta electrons
       nuclear repulsion energy      4429.3117610750 Hartrees.
 IExCor= 4336 DFT=T Ex+Corr=M062X ExCW=0 ScaHFX=  0.540000
 ScaDFX=  1.000000  1.000000  1.000000  1.000000 ScalE2=  1.000000  1.000000
 IRadAn=      5 IRanWt=     -1 IRanGd=            0 ICorTp=0 IEmpDi=131
 NAtoms=   69 NActive=   69 NUniq=   69 SFac= 1.00D+00 NAtFMM=   60 NAOKFM=T Big=T
 Integral buffers will be    131072 words long.
 Raffenetti 2 integral format.
 Two-electron integral symmetry is turned off.
 R6Disp:  Grimme-D3 Dispersion energy=       -0.0065001077 Hartrees.
 Nuclear repulsion after empirical dispersion term =     4429.3052609673 Hartrees.
 Leave Link  301 at Sat Jun 22 17:16:47 2024, MaxMem=  2684354560 cpu:               1.4 elap:               0.1
 (Enter /storage/apps/GAUSSIAN/G16_RevA03/g16/l302.exe)
 NPDir=0 NMtPBC=     1 NCelOv=     1 NCel=       1 NClECP=     1 NCelD=      1
         NCelK=      1 NCelE2=     1 NClLst=     1 CellRange=     0.0.
 One-electron integrals computed using PRISM.
   1 Symmetry operations used in ECPInt.
 ECPInt:  NShTT=  150975 NPrTT=  462228 LenC2=  107098 LenP2D=  216611.
 LDataN:  DoStor=T MaxTD1= 6 Len=  172
 NBasis=  1389 RedAO= T EigKep=  5.89D-06  NBF=  1389
 NBsUse=  1389 1.00D-06 EigRej= -1.00D+00 NBFU=  1389
 Precomputing XC quadrature grid using
 IXCGrd= 4 IRadAn=           5 IRanWt=          -1 IRanGd=           0 AccXCQ= 0.00D+00.
 Generated NRdTot=       0 NPtTot=           0 NUsed=           0 NTot=          32
 NSgBfM=  1481  1464  1470  1475  1481 MxSgAt=    69 MxSgA2=    69.
 Leave Link  302 at Sat Jun 22 17:16:49 2024, MaxMem=  2684354560 cpu:              44.4 elap:               2.8
 (Enter /storage/apps/GAUSSIAN/G16_RevA03/g16/l303.exe)
 DipDrv:  MaxL=1.
 Leave Link  303 at Sat Jun 22 17:16:50 2024, MaxMem=  2684354560 cpu:               4.1 elap:               0.3
 (Enter /storage/apps/GAUSSIAN/G16_RevA03/g16/l401.exe)
 ExpMin= 9.52D-02 ExpMax= 2.70D+04 ExpMxC= 9.22D+02 IAcc=3 IRadAn=         5 AccDes= 0.00D+00
 Harris functional with IExCor= 1009 and IRadAn=       5 diagonalized for initial guess.
 HarFok:  IExCor= 1009 AccDes= 0.00D+00 IRadAn=         5 IDoV= 1 UseB2=F ITyADJ=14
 ICtDFT=  3500011 ScaDFX=  1.000000  1.000000  1.000000  1.000000
 FoFCou: FMM=F IPFlag=           0 FMFlag=      100000 FMFlg1=        2001
         NFxFlg=           0 DoJE=T BraDBF=F KetDBF=T FulRan=T
         wScrn=  0.000000 ICntrl=       500 IOpCl=  0 I1Cent=   200000004 NGrid=           0
         NMat0=    1 NMatS0=      1 NMatT0=    0 NMatD0=    1 NMtDS0=    0 NMtDT0=    0
 Symmetry not used in FoFCou.
 Harris En= -1875.51105995078    
 JPrj=0 DoOrth=F DoCkMO=F.
 Leave Link  401 at Sat Jun 22 17:16:57 2024, MaxMem=  2684354560 cpu:             105.4 elap:               6.7
 (Enter /storage/apps/GAUSSIAN/G16_RevA03/g16/l502.exe)
 Two-electron integral symmetry not used.
 Closed shell SCF:
 Using DIIS extrapolation, IDIIS=  1040.
 NGot=  2684354560 LenX=  2679300873 LenY=  2676790233
 Requested convergence on RMS density matrix=1.00D-08 within 128 cycles.
 Requested convergence on MAX density matrix=1.00D-06.
 Requested convergence on             energy=1.00D-06.
 No special actions if energy rises.
 Fock matrices will be formed incrementally for  20 cycles.
 Integral accuracy reduced to 1.0D-05 until final iterations.

 Cycle   1  Pass 0  IDiag  1:
 FoFJK:  IHMeth= 1 ICntrl=       0 DoSepK=F KAlg= 0 I1Cent=           0 FoldK=F
 IRaf= 690000000 NMat=       1 IRICut=       1 DoRegI=T DoRafI=F ISym2E= 0 IDoP0=0 IntGTp=1.
 FoFCou: FMM=T IPFlag=           0 FMFlag=      100000 FMFlg1=        2001
         NFxFlg=           0 DoJE=F BraDBF=F KetDBF=F FulRan=T
         wScrn=  0.000000 ICntrl=         0 IOpCl=  0 I1Cent=           0 NGrid=           0
         NMat0=    1 NMatS0=      1 NMatT0=    0 NMatD0=    1 NMtDS0=    0 NMtDT0=    0
 Symmetry not used in FoFCou.
 FMM levels:  10  Number of levels for PrismC:   9
 E= -1875.47998519169    
 DIIS: error= 1.54D-02 at cycle   1 NSaved=   1.
 NSaved= 1 IEnMin= 1 EnMin= -1875.47998519169     IErMin= 1 ErrMin= 1.54D-02
 ErrMax= 1.54D-02  0.00D+00 EMaxC= 1.00D-01 BMatC= 1.37D+00 BMatP= 1.37D+00
 IDIUse=3 WtCom= 8.46D-01 WtEn= 1.54D-01
 Coeff-Com:  0.100D+01
 Coeff-En:   0.100D+01
 Coeff:      0.100D+01
 Gap=     0.243 Goal=   None    Shift=    0.000
 GapD=    0.243 DampG=1.000 DampE=0.500 DampFc=0.5000 IDamp=-1.
 Damping current iteration by 5.00D-01
 RMSDP=5.61D+01 MaxDP=1.17D+04              OVMax= 9.98D-01

 Problem detected with inexpensive integrals.
 Switching to full accuracy and repeating last cycle.
 Cycle   2  Pass 1  IDiag  1:
 E= -1875.48019729378     Delta-E=       -0.000212102094 Rises=F Damp=F
 DIIS: error= 1.54D-02 at cycle   1 NSaved=   1.
 NSaved= 1 IEnMin= 1 EnMin= -1875.48019729378     IErMin= 1 ErrMin= 1.54D-02
 ErrMax= 1.54D-02  0.00D+00 EMaxC= 1.00D-01 BMatC= 1.37D+00 BMatP= 1.37D+00
 IDIUse=3 WtCom= 8.46D-01 WtEn= 1.54D-01
 Coeff-Com:  0.100D+01
 Coeff-En:   0.100D+01
 Coeff:      0.100D+01
 Gap=     0.243 Goal=   None    Shift=    0.000
 GapD=    0.243 DampG=1.000 DampE=0.500 DampFc=0.5000 IDamp=-1.
 Damping current iteration by 5.00D-01
 RMSDP=3.79D-03 MaxDP=1.05D+00 DE=-2.12D-04 OVMax= 2.97D-01

 Cycle   3  Pass 1  IDiag  1:
 RMSU=  1.89D-03    CP:  1.03D+00
 E= -1875.88764176298     Delta-E=       -0.407444469203 Rises=F Damp=T
 DIIS: error= 4.11D-03 at cycle   2 NSaved=   2.
 NSaved= 2 IEnMin= 2 EnMin= -1875.88764176298     IErMin= 2 ErrMin= 4.11D-03
 ErrMax= 4.11D-03  0.00D+00 EMaxC= 1.00D-01 BMatC= 1.61D-01 BMatP= 1.37D+00
 IDIUse=3 WtCom= 9.59D-01 WtEn= 4.11D-02
 Coeff-Com:  0.864D-02 0.991D+00
 Coeff-En:   0.831D-01 0.917D+00
 Coeff:      0.117D-01 0.988D+00
 Gap=     0.257 Goal=   None    Shift=    0.000
 GapD=    0.257 DampG=1.000 DampE=1.000 DampFc=1.0000 IDamp=-1.
 RMSDP=1.34D-03 MaxDP=3.90D-01 DE=-4.07D-01 OVMax= 2.47D-01

 Cycle   4  Pass 1  IDiag  1:
 RMSU=  9.88D-04    CP:  1.00D+00  5.24D-01
 E= -1876.34161750474     Delta-E=       -0.453975741752 Rises=F Damp=F
 DIIS: error= 6.81D-03 at cycle   3 NSaved=   3.
 NSaved= 3 IEnMin= 3 EnMin= -1876.34161750474     IErMin= 2 ErrMin= 4.11D-03
 ErrMax= 6.81D-03  0.00D+00 EMaxC= 1.00D-01 BMatC= 1.29D-01 BMatP= 1.61D-01
 IDIUse=3 WtCom= 9.32D-01 WtEn= 6.81D-02
 Coeff-Com: -0.103D+00 0.515D+00 0.588D+00
 Coeff-En:   0.000D+00 0.000D+00 0.100D+01
 Coeff:     -0.959D-01 0.480D+00 0.616D+00
 Gap=     0.175 Goal=   None    Shift=    0.000
 RMSDP=4.69D-04 MaxDP=1.41D-01 DE=-4.54D-01 OVMax= 7.67D-02

 Cycle   5  Pass 1  IDiag  1:
 RMSU=  3.25D-04    CP:  1.01D+00  6.85D-01  8.51D-01
 E= -1876.42975644653     Delta-E=       -0.088138941789 Rises=F Damp=F
 DIIS: error= 1.85D-03 at cycle   4 NSaved=   4.
 NSaved= 4 IEnMin= 4 EnMin= -1876.42975644653     IErMin= 4 ErrMin= 1.85D-03
 ErrMax= 1.85D-03  0.00D+00 EMaxC= 1.00D-01 BMatC= 1.61D-02 BMatP= 1.29D-01
 IDIUse=3 WtCom= 9.81D-01 WtEn= 1.85D-02
 Coeff-Com: -0.460D-01 0.123D+00 0.311D+00 0.612D+00
 Coeff-En:   0.000D+00 0.000D+00 0.649D-01 0.935D+00
 Coeff:     -0.452D-01 0.121D+00 0.307D+00 0.618D+00
 Gap=     0.174 Goal=   None    Shift=    0.000
 RMSDP=1.72D-04 MaxDP=4.81D-02 DE=-8.81D-02 OVMax= 2.56D-02

 Cycle   6  Pass 1  IDiag  1:
 RMSU=  8.21D-05    CP:  1.00D+00  6.35D-01  9.23D-01  7.09D-01
 E= -1876.44161347764     Delta-E=       -0.011857031114 Rises=F Damp=F
 DIIS: error= 4.97D-04 at cycle   5 NSaved=   5.
 NSaved= 5 IEnMin= 5 EnMin= -1876.44161347764     IErMin= 5 ErrMin= 4.97D-04
 ErrMax= 4.97D-04  0.00D+00 EMaxC= 1.00D-01 BMatC= 7.91D-04 BMatP= 1.61D-02
 IDIUse=3 WtCom= 9.95D-01 WtEn= 4.97D-03
 Coeff-Com: -0.145D-01 0.266D-01 0.999D-01 0.279D+00 0.609D+00
 Coeff-En:   0.000D+00 0.000D+00 0.000D+00 0.000D+00 0.100D+01
 Coeff:     -0.144D-01 0.264D-01 0.995D-01 0.278D+00 0.611D+00
 Gap=     0.176 Goal=   None    Shift=    0.000
 RMSDP=3.19D-05 MaxDP=7.08D-03 DE=-1.19D-02 OVMax= 8.34D-03

 Cycle   7  Pass 1  IDiag  1:
 RMSU=  2.94D-05    CP:  1.00D+00  6.37D-01  9.24D-01  7.14D-01  8.57D-01
 E= -1876.44224313636     Delta-E=       -0.000629658718 Rises=F Damp=F
 DIIS: error= 2.01D-04 at cycle   6 NSaved=   6.
 NSaved= 6 IEnMin= 6 EnMin= -1876.44224313636     IErMin= 6 ErrMin= 2.01D-04
 ErrMax= 2.01D-04  0.00D+00 EMaxC= 1.00D-01 BMatC= 1.01D-04 BMatP= 7.91D-04
 IDIUse=3 WtCom= 9.98D-01 WtEn= 2.01D-03
 Coeff-Com: -0.219D-02 0.817D-03 0.150D-01 0.640D-01 0.299D+00 0.624D+00
 Coeff-En:   0.000D+00 0.000D+00 0.000D+00 0.000D+00 0.000D+00 0.100D+01
 Coeff:     -0.218D-02 0.815D-03 0.150D-01 0.639D-01 0.298D+00 0.624D+00
 Gap=     0.176 Goal=   None    Shift=    0.000
 RMSDP=1.94D-05 MaxDP=6.17D-03 DE=-6.30D-04 OVMax= 3.21D-03

 Cycle   8  Pass 1  IDiag  1:
 RMSU=  1.28D-05    CP:  1.00D+00  6.32D-01  9.29D-01  7.19D-01  9.78D-01
                    CP:  8.25D-01
 E= -1876.44233842244     Delta-E=       -0.000095286085 Rises=F Damp=F
 DIIS: error= 7.15D-05 at cycle   7 NSaved=   7.
 NSaved= 7 IEnMin= 7 EnMin= -1876.44233842244     IErMin= 7 ErrMin= 7.15D-05
 ErrMax= 7.15D-05  0.00D+00 EMaxC= 1.00D-01 BMatC= 1.39D-05 BMatP= 1.01D-04
 IDIUse=1 WtCom= 1.00D+00 WtEn= 0.00D+00
 Coeff-Com:  0.136D-02-0.407D-02-0.870D-02-0.166D-01 0.499D-01 0.283D+00
 Coeff-Com:  0.695D+00
 Coeff:      0.136D-02-0.407D-02-0.870D-02-0.166D-01 0.499D-01 0.283D+00
 Coeff:      0.695D+00
 Gap=     0.176 Goal=   None    Shift=    0.000
 RMSDP=9.67D-06 MaxDP=2.00D-03 DE=-9.53D-05 OVMax= 1.96D-03

 Cycle   9  Pass 1  IDiag  1:
 RMSU=  4.88D-06    CP:  1.00D+00  6.29D-01  9.32D-01  7.18D-01  1.02D+00
                    CP:  9.49D-01  1.05D+00
 E= -1876.44235421525     Delta-E=       -0.000015792803 Rises=F Damp=F
 DIIS: error= 2.58D-05 at cycle   8 NSaved=   8.
 NSaved= 8 IEnMin= 8 EnMin= -1876.44235421525     IErMin= 8 ErrMin= 2.58D-05
 ErrMax= 2.58D-05  0.00D+00 EMaxC= 1.00D-01 BMatC= 2.76D-06 BMatP= 1.39D-05
 IDIUse=1 WtCom= 1.00D+00 WtEn= 0.00D+00
 Coeff-Com:  0.109D-02-0.210D-02-0.639D-02-0.205D-01-0.300D-01 0.836D-02
 Coeff-Com:  0.333D+00 0.716D+00
 Coeff:      0.109D-02-0.210D-02-0.639D-02-0.205D-01-0.300D-01 0.836D-02
 Coeff:      0.333D+00 0.716D+00
 Gap=     0.176 Goal=   None    Shift=    0.000
 RMSDP=4.61D-06 MaxDP=1.52D-03 DE=-1.58D-05 OVMax= 9.92D-04

 Cycle  10  Pass 1  IDiag  1:
 RMSU=  2.17D-06    CP:  1.00D+00  6.28D-01  9.33D-01  7.14D-01  1.04D+00
                    CP:  9.70D-01  1.22D+00  9.38D-01
 E= -1876.44235777370     Delta-E=       -0.000003558458 Rises=F Damp=F
 DIIS: error= 8.27D-06 at cycle   9 NSaved=   9.
 NSaved= 9 IEnMin= 9 EnMin= -1876.44235777370     IErMin= 9 ErrMin= 8.27D-06
 ErrMax= 8.27D-06  0.00D+00 EMaxC= 1.00D-01 BMatC= 2.95D-07 BMatP= 2.76D-06
 IDIUse=1 WtCom= 1.00D+00 WtEn= 0.00D+00
 Coeff-Com:  0.240D-03-0.324D-03-0.110D-02-0.549D-02-0.149D-01-0.313D-01
 Coeff-Com:  0.414D-01 0.269D+00 0.742D+00
 Coeff:      0.240D-03-0.324D-03-0.110D-02-0.549D-02-0.149D-01-0.313D-01
 Coeff:      0.414D-01 0.269D+00 0.742D+00
 Gap=     0.176 Goal=   None    Shift=    0.000
 RMSDP=1.49D-06 MaxDP=2.97D-04 DE=-3.56D-06 OVMax= 3.28D-04

 Cycle  11  Pass 1  IDiag  1:
 RMSU=  7.33D-07    CP:  1.00D+00  6.28D-01  9.33D-01  7.13D-01  1.04D+00
                    CP:  9.78D-01  1.26D+00  1.06D+00  1.13D+00
 E= -1876.44235818811     Delta-E=       -0.000000414406 Rises=F Damp=F
 DIIS: error= 2.68D-06 at cycle  10 NSaved=  10.
 NSaved=10 IEnMin=10 EnMin= -1876.44235818811     IErMin=10 ErrMin= 2.68D-06
 ErrMax= 2.68D-06  0.00D+00 EMaxC= 1.00D-01 BMatC= 5.10D-08 BMatP= 2.95D-07
 IDIUse=1 WtCom= 1.00D+00 WtEn= 0.00D+00
 Coeff-Com: -0.110D-03 0.269D-03 0.793D-03 0.160D-02-0.305D-03-0.165D-01
 Coeff-Com: -0.467D-01-0.256D-01 0.306D+00 0.780D+00
 Coeff:     -0.110D-03 0.269D-03 0.793D-03 0.160D-02-0.305D-03-0.165D-01
 Coeff:     -0.467D-01-0.256D-01 0.306D+00 0.780D+00
 Gap=     0.176 Goal=   None    Shift=    0.000
 RMSDP=6.86D-07 MaxDP=1.92D-04 DE=-4.14D-07 OVMax= 2.63D-04

 Cycle  12  Pass 1  IDiag  1:
 RMSU=  2.96D-07    CP:  1.00D+00  6.27D-01  9.34D-01  7.13D-01  1.05D+00
                    CP:  9.79D-01  1.29D+00  1.09D+00  1.28D+00  1.08D+00
 E= -1876.44235827363     Delta-E=       -0.000000085523 Rises=F Damp=F
 DIIS: error= 1.49D-06 at cycle  11 NSaved=  11.
 NSaved=11 IEnMin=11 EnMin= -1876.44235827363     IErMin=11 ErrMin= 1.49D-06
 ErrMax= 1.49D-06  0.00D+00 EMaxC= 1.00D-01 BMatC= 1.06D-08 BMatP= 5.10D-08
 IDIUse=1 WtCom= 1.00D+00 WtEn= 0.00D+00
 Coeff-Com: -0.690D-04 0.144D-03 0.449D-03 0.125D-02 0.138D-02-0.472D-02
 Coeff-Com: -0.239D-01-0.406D-01 0.475D-01 0.379D+00 0.640D+00
 Coeff:     -0.690D-04 0.144D-03 0.449D-03 0.125D-02 0.138D-02-0.472D-02
 Coeff:     -0.239D-01-0.406D-01 0.475D-01 0.379D+00 0.640D+00
 Gap=     0.176 Goal=   None    Shift=    0.000
 RMSDP=2.03D-07 MaxDP=3.23D-05 DE=-8.55D-08 OVMax= 5.72D-05

 Cycle  13  Pass 1  IDiag  1:
 RMSU=  1.10D-07    CP:  1.00D+00  6.27D-01  9.34D-01  7.13D-01  1.05D+00
                    CP:  9.79D-01  1.30D+00  1.10D+00  1.31D+00  1.24D+00
                    CP:  9.60D-01
 E= -1876.44235828596     Delta-E=       -0.000000012326 Rises=F Damp=F
 DIIS: error= 6.21D-07 at cycle  12 NSaved=  12.
 NSaved=12 IEnMin=12 EnMin= -1876.44235828596     IErMin=12 ErrMin= 6.21D-07
 ErrMax= 6.21D-07  0.00D+00 EMaxC= 1.00D-01 BMatC= 1.43D-09 BMatP= 1.06D-08
 IDIUse=1 WtCom= 1.00D+00 WtEn= 0.00D+00
 Coeff-Com: -0.102D-04 0.158D-04 0.561D-04 0.269D-03 0.698D-03 0.596D-03
 Coeff-Com: -0.119D-02-0.142D-01-0.430D-01 0.383D-01 0.285D+00 0.734D+00
 Coeff:     -0.102D-04 0.158D-04 0.561D-04 0.269D-03 0.698D-03 0.596D-03
 Coeff:     -0.119D-02-0.142D-01-0.430D-01 0.383D-01 0.285D+00 0.734D+00
 Gap=     0.176 Goal=   None    Shift=    0.000
 RMSDP=8.14D-08 MaxDP=9.59D-06 DE=-1.23D-08 OVMax= 3.55D-05

 Cycle  14  Pass 1  IDiag  1:
 RMSU=  4.60D-08    CP:  1.00D+00  6.27D-01  9.34D-01  7.13D-01  1.05D+00
                    CP:  9.80D-01  1.30D+00  1.10D+00  1.33D+00  1.28D+00
                    CP:  1.09D+00  1.06D+00
 E= -1876.44235828823     Delta-E=       -0.000000002271 Rises=F Damp=F
 DIIS: error= 1.92D-07 at cycle  13 NSaved=  13.
 NSaved=13 IEnMin=13 EnMin= -1876.44235828823     IErMin=13 ErrMin= 1.92D-07
 ErrMax= 1.92D-07  0.00D+00 EMaxC= 1.00D-01 BMatC= 1.95D-10 BMatP= 1.43D-09
 IDIUse=1 WtCom= 1.00D+00 WtEn= 0.00D+00
 Coeff-Com:  0.636D-05-0.149D-04-0.429D-04-0.755D-04 0.736D-04 0.778D-03
 Coeff-Com:  0.350D-02 0.252D-03-0.259D-01-0.356D-01 0.849D-02 0.277D+00
 Coeff-Com:  0.772D+00
 Coeff:      0.636D-05-0.149D-04-0.429D-04-0.755D-04 0.736D-04 0.778D-03
 Coeff:      0.350D-02 0.252D-03-0.259D-01-0.356D-01 0.849D-02 0.277D+00
 Coeff:      0.772D+00
 Gap=     0.176 Goal=   None    Shift=    0.000
 RMSDP=3.76D-08 MaxDP=8.41D-06 DE=-2.27D-09 OVMax= 1.42D-05

 Cycle  15  Pass 1  IDiag  1:
 RMSU=  2.07D-08    CP:  1.00D+00  6.27D-01  9.34D-01  7.13D-01  1.05D+00
                    CP:  9.80D-01  1.30D+00  1.10D+00  1.34D+00  1.30D+00
                    CP:  1.13D+00  1.19D+00  1.23D+00
 E= -1876.44235828855     Delta-E=       -0.000000000314 Rises=F Damp=F
 DIIS: error= 2.03D-07 at cycle  14 NSaved=  14.
 NSaved=14 IEnMin=14 EnMin= -1876.44235828855     IErMin=13 ErrMin= 1.92D-07
 ErrMax= 2.03D-07  0.00D+00 EMaxC= 1.00D-01 BMatC= 3.40D-11 BMatP= 1.95D-10
 IDIUse=1 WtCom= 1.00D+00 WtEn= 0.00D+00
 Coeff-Com:  0.424D-05-0.873D-05-0.277D-04-0.718D-04-0.809D-04 0.167D-03
 Coeff-Com:  0.176D-02 0.233D-02-0.404D-02-0.184D-01-0.452D-01-0.348D-02
 Coeff-Com:  0.328D+00 0.739D+00
 Coeff:      0.424D-05-0.873D-05-0.277D-04-0.718D-04-0.809D-04 0.167D-03
 Coeff:      0.176D-02 0.233D-02-0.404D-02-0.184D-01-0.452D-01-0.348D-02
 Coeff:      0.328D+00 0.739D+00
 Gap=     0.176 Goal=   None    Shift=    0.000
 RMSDP=1.32D-08 MaxDP=1.99D-06 DE=-3.14D-10 OVMax= 5.21D-06

 Cycle  16  Pass 1  IDiag  1:
 RMSU=  6.51D-09    CP:  1.00D+00  6.27D-01  9.34D-01  7.13D-01  1.05D+00
                    CP:  9.80D-01  1.30D+00  1.10D+00  1.34D+00  1.31D+00
                    CP:  1.15D+00  1.24D+00  1.38D+00  1.01D+00
 E= -1876.44235828857     Delta-E=       -0.000000000024 Rises=F Damp=F
 DIIS: error= 4.39D-08 at cycle  15 NSaved=  15.
 NSaved=15 IEnMin=15 EnMin= -1876.44235828857     IErMin=15 ErrMin= 4.39D-08
 ErrMax= 4.39D-08  0.00D+00 EMaxC= 1.00D-01 BMatC= 6.38D-12 BMatP= 3.40D-11
 IDIUse=1 WtCom= 1.00D+00 WtEn= 0.00D+00
 Coeff-Com:  0.940D-06-0.178D-05-0.804D-05-0.210D-04-0.492D-04-0.331D-04
 Coeff-Com:  0.348D-03 0.933D-03 0.136D-02-0.283D-02-0.209D-01-0.392D-01
 Coeff-Com:  0.248D-01 0.317D+00 0.718D+00
 Coeff:      0.940D-06-0.178D-05-0.804D-05-0.210D-04-0.492D-04-0.331D-04
 Coeff:      0.348D-03 0.933D-03 0.136D-02-0.283D-02-0.209D-01-0.392D-01
 Coeff:      0.248D-01 0.317D+00 0.718D+00
 Gap=     0.176 Goal=   None    Shift=    0.000
 RMSDP=6.23D-09 MaxDP=1.65D-06 DE=-2.36D-11 OVMax= 1.96D-06

 Cycle  17  Pass 1  IDiag  1:
 RMSU=  3.26D-09    CP:  1.00D+00  6.27D-01  9.34D-01  7.13D-01  1.05D+00
                    CP:  9.80D-01  1.30D+00  1.10D+00  1.34D+00  1.31D+00
                    CP:  1.15D+00  1.26D+00  1.43D+00  1.16D+00  9.68D-01
 E= -1876.44235828867     Delta-E=       -0.000000000103 Rises=F Damp=F
 DIIS: error= 2.16D-08 at cycle  16 NSaved=  16.
 NSaved=16 IEnMin=16 EnMin= -1876.44235828867     IErMin=16 ErrMin= 2.16D-08
 ErrMax= 2.16D-08  0.00D+00 EMaxC= 1.00D-01 BMatC= 1.38D-12 BMatP= 6.38D-12
 IDIUse=1 WtCom= 1.00D+00 WtEn= 0.00D+00
 Coeff-Com: -0.440D-06 0.959D-06 0.895D-06 0.414D-05-0.971D-05-0.502D-04
 Coeff-Com: -0.159D-03 0.386D-04 0.158D-02 0.254D-02-0.200D-02-0.202D-01
 Coeff-Com: -0.564D-01 0.204D-01 0.360D+00 0.694D+00
 Coeff:     -0.440D-06 0.959D-06 0.895D-06 0.414D-05-0.971D-05-0.502D-04
 Coeff:     -0.159D-03 0.386D-04 0.158D-02 0.254D-02-0.200D-02-0.202D-01
 Coeff:     -0.564D-01 0.204D-01 0.360D+00 0.694D+00
 Gap=     0.176 Goal=   None    Shift=    0.000
 RMSDP=2.73D-09 MaxDP=9.66D-07 DE=-1.03D-10 OVMax= 7.29D-07

 SCF Done:  E(RM062X) =  -1876.44235829     A.U. after   17 cycles
            NFock= 17  Conv=0.27D-08     -V/T= 2.0048
 KE= 1.867555362557D+03 PE=-1.320960044163D+04 EE= 5.036297459818D+03
 Leave Link  502 at Sat Jun 22 17:38:49 2024, MaxMem=  2684354560 cpu:           20958.3 elap:            1312.6
 (Enter /storage/apps/GAUSSIAN/G16_RevA03/g16/l601.exe)
 Copying SCF densities to generalized density rwf, IOpCl= 0 IROHF=0.

 **********************************************************************

            Population analysis using the SCF density.

 **********************************************************************

 Alpha  occ. eigenvalues --  -19.73222 -19.72443 -19.71374 -19.69728 -19.67674
 Alpha  occ. eigenvalues --  -19.64377 -14.97608 -14.92815 -14.90977 -14.90951
 Alpha  occ. eigenvalues --  -14.89605 -14.88587 -14.86594 -14.85320 -14.84058
 Alpha  occ. eigenvalues --  -10.80855 -10.77368 -10.76990 -10.76851 -10.73904
 Alpha  occ. eigenvalues --  -10.72559 -10.72421 -10.71404 -10.71341 -10.69886
 Alpha  occ. eigenvalues --  -10.69107 -10.69076 -10.69025 -10.68915 -10.67666
 Alpha  occ. eigenvalues --  -10.67632 -10.64442 -10.63617 -10.63485 -10.63182
 Alpha  occ. eigenvalues --  -10.63024 -10.62901 -10.62235 -10.62081  -1.27544
 Alpha  occ. eigenvalues --   -1.26754  -1.24850  -1.23807  -1.22515  -1.22368
 Alpha  occ. eigenvalues --   -1.22073  -1.18832  -1.18586  -1.17804  -1.16405
 Alpha  occ. eigenvalues --   -1.13351  -1.11242  -1.08980  -1.06621  -1.05233
 Alpha  occ. eigenvalues --   -1.03191  -1.02112  -0.98479  -0.96811  -0.96574
 Alpha  occ. eigenvalues --   -0.95846  -0.94966  -0.93814  -0.91971  -0.88694
 Alpha  occ. eigenvalues --   -0.87277  -0.87038  -0.84558  -0.82833  -0.81801
 Alpha  occ. eigenvalues --   -0.81525  -0.80186  -0.79918  -0.79258  -0.75697
 Alpha  occ. eigenvalues --   -0.75623  -0.74973  -0.74592  -0.74197  -0.73275
 Alpha  occ. eigenvalues --   -0.72415  -0.72029  -0.70887  -0.70550  -0.69729
 Alpha  occ. eigenvalues --   -0.69413  -0.69081  -0.68831  -0.67828  -0.67394
 Alpha  occ. eigenvalues --   -0.67188  -0.66422  -0.66250  -0.65455  -0.64802
 Alpha  occ. eigenvalues --   -0.63803  -0.63468  -0.62954  -0.62641  -0.62369
 Alpha  occ. eigenvalues --   -0.61505  -0.61312  -0.60589  -0.60316  -0.60070
 Alpha  occ. eigenvalues --   -0.59542  -0.59110  -0.58642  -0.58078  -0.57666
 Alpha  occ. eigenvalues --   -0.57586  -0.56947  -0.56487  -0.56162  -0.55564
 Alpha  occ. eigenvalues --   -0.55109  -0.54263  -0.53725  -0.53490  -0.53148
 Alpha  occ. eigenvalues --   -0.52449  -0.52153  -0.52007  -0.49585  -0.49352
 Alpha  occ. eigenvalues --   -0.47958  -0.47100  -0.46321  -0.46236  -0.44888
 Alpha  occ. eigenvalues --   -0.44692  -0.43745  -0.43584  -0.43216  -0.42333
 Alpha  occ. eigenvalues --   -0.42028  -0.40934  -0.39044  -0.38924  -0.37841
 Alpha  occ. eigenvalues --   -0.35795  -0.34619
 Alpha virt. eigenvalues --   -0.16991  -0.10228  -0.09246  -0.08892  -0.06799
 Alpha virt. eigenvalues --   -0.06614  -0.06264  -0.05802  -0.05144  -0.03683
 Alpha virt. eigenvalues --   -0.03135  -0.03012  -0.02543  -0.02241  -0.01454
 Alpha virt. eigenvalues --   -0.01360  -0.01116  -0.00353   0.00263   0.00796
 Alpha virt. eigenvalues --    0.01196   0.01304   0.01738   0.02134   0.02559
 Alpha virt. eigenvalues --    0.02812   0.03329   0.03389   0.03925   0.04057
 Alpha virt. eigenvalues --    0.04389   0.04666   0.05265   0.05495   0.05829
 Alpha virt. eigenvalues --    0.06091   0.06297   0.06576   0.06841   0.07567
 Alpha virt. eigenvalues --    0.07819   0.07937   0.08359   0.08871   0.09015
 Alpha virt. eigenvalues --    0.09581   0.10083   0.10347   0.10481   0.10672
 Alpha virt. eigenvalues --    0.10935   0.11333   0.11796   0.12129   0.12330
 Alpha virt. eigenvalues --    0.12549   0.12932   0.13108   0.13445   0.13886
 Alpha virt. eigenvalues --    0.14005   0.14204   0.14685   0.14972   0.15328
 Alpha virt. eigenvalues --    0.15753   0.15927   0.16271   0.16729   0.16812
 Alpha virt. eigenvalues --    0.17517   0.17813   0.17961   0.18161   0.18488
 Alpha virt. eigenvalues --    0.18768   0.18865   0.19495   0.19906   0.20095
 Alpha virt. eigenvalues --    0.20440   0.20561   0.20904   0.21162   0.21325
 Alpha virt. eigenvalues --    0.21597   0.22169   0.22626   0.22756   0.22986
 Alpha virt. eigenvalues --    0.23389   0.23788   0.24019   0.24095   0.24412
 Alpha virt. eigenvalues --    0.24754   0.25347   0.25586   0.25894   0.26054
 Alpha virt. eigenvalues --    0.26160   0.26596   0.26615   0.27143   0.27521
 Alpha virt. eigenvalues --    0.27720   0.28044   0.28233   0.28659   0.28726
 Alpha virt. eigenvalues --    0.28996   0.29461   0.29550   0.29885   0.30020
 Alpha virt. eigenvalues --    0.30437   0.30917   0.31023   0.31483   0.31563
 Alpha virt. eigenvalues --    0.31716   0.32036   0.32376   0.32871   0.32950
 Alpha virt. eigenvalues --    0.33143   0.33465   0.33642   0.34081   0.34175
 Alpha virt. eigenvalues --    0.34378   0.34636   0.34747   0.35215   0.35271
 Alpha virt. eigenvalues --    0.35542   0.35729   0.35880   0.36350   0.36509
 Alpha virt. eigenvalues --    0.36730   0.36941   0.37178   0.37361   0.37629
 Alpha virt. eigenvalues --    0.37901   0.38299   0.38340   0.38649   0.38927
 Alpha virt. eigenvalues --    0.39199   0.39308   0.39487   0.39819   0.40193
 Alpha virt. eigenvalues --    0.40473   0.40574   0.40937   0.41196   0.41579
 Alpha virt. eigenvalues --    0.41748   0.41855   0.42068   0.42375   0.42805
 Alpha virt. eigenvalues --    0.42872   0.43133   0.43281   0.43791   0.44027
 Alpha virt. eigenvalues --    0.44372   0.44434   0.44656   0.44949   0.45559
 Alpha virt. eigenvalues --    0.46216   0.46309   0.46613   0.47016   0.47212
 Alpha virt. eigenvalues --    0.47366   0.47611   0.48045   0.48186   0.48665
 Alpha virt. eigenvalues --    0.49117   0.49285   0.49553   0.49990   0.50187
 Alpha virt. eigenvalues --    0.50693   0.50985   0.51089   0.51376   0.51858
 Alpha virt. eigenvalues --    0.51982   0.52341   0.52723   0.53315   0.53435
 Alpha virt. eigenvalues --    0.53612   0.54075   0.54707   0.54830   0.55039
 Alpha virt. eigenvalues --    0.55199   0.55696   0.55905   0.56437   0.57065
 Alpha virt. eigenvalues --    0.57207   0.57361   0.57747   0.57909   0.58172
 Alpha virt. eigenvalues --    0.58623   0.58790   0.58869   0.59452   0.59667
 Alpha virt. eigenvalues --    0.59768   0.60396   0.60829   0.60936   0.61293
 Alpha virt. eigenvalues --    0.61509   0.62024   0.62323   0.62641   0.63016
 Alpha virt. eigenvalues --    0.63413   0.63501   0.63795   0.64176   0.64544
 Alpha virt. eigenvalues --    0.64694   0.65654   0.66031   0.66335   0.66941
 Alpha virt. eigenvalues --    0.67024   0.67621   0.68212   0.68584   0.68938
 Alpha virt. eigenvalues --    0.69172   0.69413   0.69656   0.70399   0.71060
 Alpha virt. eigenvalues --    0.71300   0.71733   0.72258   0.72684   0.72955
 Alpha virt. eigenvalues --    0.73218   0.73460   0.73708   0.74335   0.74607
 Alpha virt. eigenvalues --    0.75114   0.75598   0.75918   0.76614   0.76778
 Alpha virt. eigenvalues --    0.76968   0.77734   0.78040   0.78128   0.78382
 Alpha virt. eigenvalues --    0.78871   0.79356   0.79493   0.79899   0.80332
 Alpha virt. eigenvalues --    0.80716   0.80959   0.81411   0.82261   0.82717
 Alpha virt. eigenvalues --    0.83475   0.84030   0.84542   0.84765   0.85348
 Alpha virt. eigenvalues --    0.85521   0.85792   0.86196   0.86462   0.87997
 Alpha virt. eigenvalues --    0.88194   0.88774   0.89204   0.89426   0.90183
 Alpha virt. eigenvalues --    0.90735   0.91305   0.91684   0.91940   0.92643
 Alpha virt. eigenvalues --    0.93244   0.93316   0.94212   0.94799   0.94919
 Alpha virt. eigenvalues --    0.95310   0.96103   0.96486   0.96841   0.97302
 Alpha virt. eigenvalues --    0.97775   0.98078   0.98621   0.99198   1.00045
 Alpha virt. eigenvalues --    1.00137   1.00609   1.01548   1.01972   1.02457
 Alpha virt. eigenvalues --    1.02703   1.03017   1.03483   1.03931   1.04352
 Alpha virt. eigenvalues --    1.04749   1.05585   1.05874   1.06185   1.06908
 Alpha virt. eigenvalues --    1.07119   1.07901   1.08543   1.09038   1.09548
 Alpha virt. eigenvalues --    1.09851   1.11024   1.11556   1.12239   1.12814
 Alpha virt. eigenvalues --    1.12922   1.13427   1.14064   1.14637   1.14773
 Alpha virt. eigenvalues --    1.15248   1.16217   1.16926   1.17181   1.18133
 Alpha virt. eigenvalues --    1.18341   1.19085   1.19303   1.19627   1.20374
 Alpha virt. eigenvalues --    1.20679   1.21184   1.21697   1.21961   1.22207
 Alpha virt. eigenvalues --    1.22459   1.23044   1.23497   1.23922   1.24125
 Alpha virt. eigenvalues --    1.24281   1.24988   1.25445   1.25973   1.26567
 Alpha virt. eigenvalues --    1.27062   1.27507   1.28069   1.28263   1.29148
 Alpha virt. eigenvalues --    1.29273   1.29703   1.30485   1.31009   1.31400
 Alpha virt. eigenvalues --    1.32019   1.32266   1.32994   1.33571   1.34184
 Alpha virt. eigenvalues --    1.34548   1.35354   1.35680   1.36016   1.36497
 Alpha virt. eigenvalues --    1.37003   1.37451   1.37844   1.38138   1.38694
 Alpha virt. eigenvalues --    1.39380   1.39736   1.40123   1.41374   1.41519
 Alpha virt. eigenvalues --    1.41655   1.42171   1.42687   1.42840   1.43617
 Alpha virt. eigenvalues --    1.43689   1.44157   1.44630   1.45292   1.45500
 Alpha virt. eigenvalues --    1.45811   1.46122   1.46939   1.47050   1.48192
 Alpha virt. eigenvalues --    1.48439   1.48751   1.48975   1.49232   1.49711
 Alpha virt. eigenvalues --    1.50382   1.50686   1.51181   1.51427   1.51804
 Alpha virt. eigenvalues --    1.52119   1.52632   1.52699   1.53178   1.53419
 Alpha virt. eigenvalues --    1.54134   1.54453   1.54510   1.54876   1.55402
 Alpha virt. eigenvalues --    1.55654   1.56198   1.56624   1.56787   1.56994
 Alpha virt. eigenvalues --    1.57245   1.57889   1.58091   1.58559   1.59045
 Alpha virt. eigenvalues --    1.59277   1.60280   1.60522   1.60717   1.61099
 Alpha virt. eigenvalues --    1.61337   1.61366   1.61759   1.62557   1.62699
 Alpha virt. eigenvalues --    1.63100   1.63471   1.63482   1.63948   1.64485
 Alpha virt. eigenvalues --    1.64885   1.65140   1.65718   1.65925   1.66347
 Alpha virt. eigenvalues --    1.67335   1.67934   1.68056   1.68522   1.68936
 Alpha virt. eigenvalues --    1.69481   1.70328   1.70479   1.70836   1.71089
 Alpha virt. eigenvalues --    1.72038   1.72710   1.72887   1.73101   1.73497
 Alpha virt. eigenvalues --    1.74290   1.75023   1.75397   1.75691   1.76522
 Alpha virt. eigenvalues --    1.77041   1.77467   1.77801   1.78091   1.78789
 Alpha virt. eigenvalues --    1.79482   1.79812   1.80072   1.80770   1.81020
 Alpha virt. eigenvalues --    1.81520   1.82075   1.82966   1.83184   1.83417
 Alpha virt. eigenvalues --    1.83627   1.84013   1.84829   1.85071   1.85362
 Alpha virt. eigenvalues --    1.85613   1.86261   1.86500   1.86903   1.87323
 Alpha virt. eigenvalues --    1.87687   1.88522   1.89034   1.89089   1.89787
 Alpha virt. eigenvalues --    1.90124   1.90472   1.90994   1.91474   1.92383
 Alpha virt. eigenvalues --    1.92792   1.93719   1.94610   1.95028   1.95174
 Alpha virt. eigenvalues --    1.95870   1.96301   1.96550   1.97713   1.97843
 Alpha virt. eigenvalues --    1.99210   1.99690   1.99942   2.00509   2.00929
 Alpha virt. eigenvalues --    2.01418   2.01714   2.02278   2.02489   2.02798
 Alpha virt. eigenvalues --    2.03215   2.03540   2.04337   2.04723   2.04996
 Alpha virt. eigenvalues --    2.05683   2.06071   2.07305   2.07588   2.08045
 Alpha virt. eigenvalues --    2.08508   2.09088   2.09267   2.09706   2.10648
 Alpha virt. eigenvalues --    2.11011   2.11856   2.12374   2.12762   2.13335
 Alpha virt. eigenvalues --    2.13662   2.14202   2.14771   2.15104   2.15300
 Alpha virt. eigenvalues --    2.15841   2.16577   2.16992   2.17764   2.18060
 Alpha virt. eigenvalues --    2.18152   2.18813   2.19235   2.19661   2.19861
 Alpha virt. eigenvalues --    2.20533   2.21198   2.21538   2.22023   2.22466
 Alpha virt. eigenvalues --    2.22982   2.23135   2.23670   2.24555   2.24773
 Alpha virt. eigenvalues --    2.25345   2.26197   2.26473   2.26685   2.27028
 Alpha virt. eigenvalues --    2.28028   2.29035   2.29391   2.30100   2.30416
 Alpha virt. eigenvalues --    2.31183   2.31361   2.32079   2.33050   2.33358
 Alpha virt. eigenvalues --    2.33959   2.34321   2.34695   2.35045   2.35764
 Alpha virt. eigenvalues --    2.36410   2.36850   2.37325   2.37783   2.38754
 Alpha virt. eigenvalues --    2.39460   2.39921   2.40626   2.40877   2.41141
 Alpha virt. eigenvalues --    2.42898   2.43194   2.43699   2.44049   2.44631
 Alpha virt. eigenvalues --    2.44797   2.45387   2.46278   2.46450   2.46878
 Alpha virt. eigenvalues --    2.47231   2.48164   2.49152   2.49299   2.50047
 Alpha virt. eigenvalues --    2.50356   2.50756   2.51712   2.51765   2.52312
 Alpha virt. eigenvalues --    2.53136   2.53769   2.54562   2.55039   2.55399
 Alpha virt. eigenvalues --    2.56182   2.56711   2.56987   2.57214   2.57284
 Alpha virt. eigenvalues --    2.57751   2.58209   2.58780   2.59200   2.59914
 Alpha virt. eigenvalues --    2.60126   2.60732   2.60934   2.61116   2.61757
 Alpha virt. eigenvalues --    2.62276   2.62620   2.62854   2.63899   2.64208
 Alpha virt. eigenvalues --    2.64669   2.64894   2.65249   2.65590   2.66137
 Alpha virt. eigenvalues --    2.66157   2.66573   2.67477   2.67958   2.68098
 Alpha virt. eigenvalues --    2.68544   2.68790   2.69404   2.69747   2.70303
 Alpha virt. eigenvalues --    2.71121   2.71814   2.72256   2.72617   2.73241
 Alpha virt. eigenvalues --    2.73721   2.73976   2.74079   2.74397   2.74641
 Alpha virt. eigenvalues --    2.75127   2.75799   2.76351   2.76550   2.76969
 Alpha virt. eigenvalues --    2.77614   2.78491   2.78751   2.78885   2.79320
 Alpha virt. eigenvalues --    2.79589   2.80512   2.80903   2.81465   2.81725
 Alpha virt. eigenvalues --    2.81875   2.82542   2.82806   2.83293   2.83477
 Alpha virt. eigenvalues --    2.83944   2.84220   2.84595   2.85276   2.85347
 Alpha virt. eigenvalues --    2.85844   2.86079   2.86709   2.87099   2.87597
 Alpha virt. eigenvalues --    2.88147   2.88280   2.88398   2.89186   2.89418
 Alpha virt. eigenvalues --    2.89861   2.90321   2.90765   2.91105   2.91250
 Alpha virt. eigenvalues --    2.91363   2.91678   2.92157   2.92486   2.92770
 Alpha virt. eigenvalues --    2.93239   2.93594   2.93915   2.94652   2.95428
 Alpha virt. eigenvalues --    2.95824   2.96244   2.96579   2.96988   2.97380
 Alpha virt. eigenvalues --    2.97598   2.97833   2.98144   2.98441   2.99108
 Alpha virt. eigenvalues --    2.99478   3.00053   3.00264   3.00548   3.00620
 Alpha virt. eigenvalues --    3.01006   3.02504   3.02822   3.03016   3.03693
 Alpha virt. eigenvalues --    3.03925   3.04566   3.04972   3.05049   3.05430
 Alpha virt. eigenvalues --    3.05586   3.06429   3.07081   3.07218   3.07409
 Alpha virt. eigenvalues --    3.07513   3.08283   3.08499   3.09228   3.09267
 Alpha virt. eigenvalues --    3.09687   3.10304   3.10837   3.11210   3.11352
 Alpha virt. eigenvalues --    3.11773   3.12089   3.12324   3.12559   3.12799
 Alpha virt. eigenvalues --    3.13115   3.13304   3.13579   3.14301   3.14784
 Alpha virt. eigenvalues --    3.14924   3.15484   3.15641   3.16272   3.16452
 Alpha virt. eigenvalues --    3.16730   3.17091   3.17476   3.17693   3.18116
 Alpha virt. eigenvalues --    3.18317   3.18859   3.19148   3.19503   3.20153
 Alpha virt. eigenvalues --    3.20540   3.20839   3.21582   3.21792   3.22069
 Alpha virt. eigenvalues --    3.22279   3.22759   3.23162   3.23563   3.23899
 Alpha virt. eigenvalues --    3.24653   3.25017   3.25354   3.25677   3.26352
 Alpha virt. eigenvalues --    3.26652   3.26794   3.27451   3.27575   3.28324
 Alpha virt. eigenvalues --    3.28550   3.28934   3.29329   3.29921   3.30632
 Alpha virt. eigenvalues --    3.31002   3.31576   3.31936   3.32181   3.32557
 Alpha virt. eigenvalues --    3.32669   3.32943   3.33444   3.33874   3.34289
 Alpha virt. eigenvalues --    3.34636   3.35585   3.35618   3.36168   3.36504
 Alpha virt. eigenvalues --    3.36663   3.37087   3.37775   3.38119   3.38691
 Alpha virt. eigenvalues --    3.39031   3.39539   3.39822   3.39893   3.40127
 Alpha virt. eigenvalues --    3.40485   3.40968   3.41243   3.41731   3.42379
 Alpha virt. eigenvalues --    3.42626   3.42920   3.43537   3.44206   3.44594
 Alpha virt. eigenvalues --    3.46364   3.46834   3.47195   3.47342   3.48390
 Alpha virt. eigenvalues --    3.49661   3.49792   3.50261   3.50910   3.51627
 Alpha virt. eigenvalues --    3.52456   3.53701   3.54237   3.54736   3.55092
 Alpha virt. eigenvalues --    3.55926   3.56165   3.56455   3.57123   3.57170
 Alpha virt. eigenvalues --    3.57427   3.58475   3.58716   3.60242   3.61691
 Alpha virt. eigenvalues --    3.62722   3.62957   3.63736   3.64584   3.64869
 Alpha virt. eigenvalues --    3.65605   3.65808   3.66391   3.66549   3.67848
 Alpha virt. eigenvalues --    3.68580   3.69395   3.70136   3.70851   3.71762
 Alpha virt. eigenvalues --    3.72826   3.73327   3.73624   3.74683   3.75396
 Alpha virt. eigenvalues --    3.75541   3.75864   3.76896   3.77249   3.77841
 Alpha virt. eigenvalues --    3.78058   3.78828   3.79491   3.80045   3.80729
 Alpha virt. eigenvalues --    3.81960   3.82507   3.83515   3.83676   3.84592
 Alpha virt. eigenvalues --    3.85373   3.86085   3.86803   3.87488   3.88400
 Alpha virt. eigenvalues --    3.88811   3.89772   3.90749   3.91536   3.92165
 Alpha virt. eigenvalues --    3.93297   3.93754   3.94674   3.95380   3.96293
 Alpha virt. eigenvalues --    3.96537   3.97715   3.98006   3.99460   3.99653
 Alpha virt. eigenvalues --    4.00750   4.00823   4.01632   4.02332   4.03418
 Alpha virt. eigenvalues --    4.03609   4.04648   4.05098   4.05363   4.05761
 Alpha virt. eigenvalues --    4.06154   4.07353   4.08274   4.08380   4.09101
 Alpha virt. eigenvalues --    4.09538   4.09688   4.10600   4.10958   4.11445
 Alpha virt. eigenvalues --    4.12458   4.12872   4.14081   4.15190   4.16446
 Alpha virt. eigenvalues --    4.16598   4.18703   4.18916   4.19440   4.19781
 Alpha virt. eigenvalues --    4.20635   4.21270   4.21979   4.23528   4.24452
 Alpha virt. eigenvalues --    4.24728   4.26088   4.27303   4.27636   4.28975
 Alpha virt. eigenvalues --    4.30679   4.31148   4.31900   4.33466   4.34012
 Alpha virt. eigenvalues --    4.34581   4.34789   4.35892   4.36849   4.37124
 Alpha virt. eigenvalues --    4.38500   4.40836   4.41810   4.42515   4.43415
 Alpha virt. eigenvalues --    4.44379   4.45570   4.45648   4.46588   4.47009
 Alpha virt. eigenvalues --    4.48036   4.49216   4.50345   4.50758   4.52221
 Alpha virt. eigenvalues --    4.52752   4.54882   4.56324   4.57119   4.57203
 Alpha virt. eigenvalues --    4.58526   4.58800   4.58990   4.59912   4.60097
 Alpha virt. eigenvalues --    4.60720   4.60892   4.61433   4.61716   4.63333
 Alpha virt. eigenvalues --    4.63477   4.65176   4.65415   4.66162   4.66752
 Alpha virt. eigenvalues --    4.67071   4.69018   4.69872   4.70636   4.71013
 Alpha virt. eigenvalues --    4.72423   4.72573   4.73338   4.73876   4.74500
 Alpha virt. eigenvalues --    4.74598   4.75466   4.75886   4.76619   4.77494
 Alpha virt. eigenvalues --    4.79184   4.80947   4.81061   4.82060   4.82707
 Alpha virt. eigenvalues --    4.82995   4.84104   4.84835   4.85104   4.86002
 Alpha virt. eigenvalues --    4.87443   4.87968   4.89064   4.90092   4.91017
 Alpha virt. eigenvalues --    4.92063   4.92867   4.93482   4.93939   4.94834
 Alpha virt. eigenvalues --    4.95105   4.96518   4.97707   4.98191   4.98791
 Alpha virt. eigenvalues --    4.99847   5.00353   5.00820   5.01133   5.01851
 Alpha virt. eigenvalues --    5.01964   5.02360   5.03418   5.03620   5.04920
 Alpha virt. eigenvalues --    5.05902   5.06339   5.06802   5.07365   5.08554
 Alpha virt. eigenvalues --    5.09701   5.09893   5.10197   5.10651   5.11569
 Alpha virt. eigenvalues --    5.12314   5.12948   5.13437   5.14229   5.15010
 Alpha virt. eigenvalues --    5.15369   5.16741   5.17241   5.18049   5.18844
 Alpha virt. eigenvalues --    5.19299   5.19455   5.19667   5.19773   5.21408
 Alpha virt. eigenvalues --    5.21789   5.22594   5.22774   5.23033   5.23568
 Alpha virt. eigenvalues --    5.25211   5.25390   5.27420   5.27835   5.28416
 Alpha virt. eigenvalues --    5.29766   5.30074   5.30490   5.32133   5.32463
 Alpha virt. eigenvalues --    5.33602   5.35067   5.35351   5.35913   5.38482
 Alpha virt. eigenvalues --    5.38684   5.39379   5.41757   5.41848   5.43100
 Alpha virt. eigenvalues --    5.43798   5.45506   5.47920   5.48268   5.50746
 Alpha virt. eigenvalues --    5.51812   5.52203   5.53578   5.55775   5.56903
 Alpha virt. eigenvalues --    5.58840   5.58970   5.61129   5.61481   5.63613
 Alpha virt. eigenvalues --    5.63894   5.64191   5.64463   5.66065   5.66235
 Alpha virt. eigenvalues --    5.68646   5.70124   5.70384   5.73316   5.74242
 Alpha virt. eigenvalues --    5.76338   5.76767   5.78274   5.78496   5.79074
 Alpha virt. eigenvalues --    5.81423   5.82749   5.83937   5.84211   5.86446
 Alpha virt. eigenvalues --    5.86647   5.89210   5.92062   5.93436   5.93472
 Alpha virt. eigenvalues --    5.95100   5.97979   5.99582   6.02829   6.13548
 Alpha virt. eigenvalues --    6.15726   6.16053   6.17294   6.17761   6.21749
 Alpha virt. eigenvalues --    6.29929   6.35146   6.36156   6.36240   6.42620
 Alpha virt. eigenvalues --    6.51294   6.51564   6.52431   6.55832   6.57799
 Alpha virt. eigenvalues --    6.59068   6.63979   6.66911   6.70191   6.70226
 Alpha virt. eigenvalues --    6.71704   6.71886   6.75325   6.76302   6.77030
 Alpha virt. eigenvalues --    6.80515   6.87319   6.89563   6.93081   6.96637
 Alpha virt. eigenvalues --    6.98767   7.02042   7.03051   7.04677   7.04883
 Alpha virt. eigenvalues --    7.07148   7.09678   7.17118  22.38574  22.44145
 Alpha virt. eigenvalues --   22.55576  22.60607  22.69372  22.70720  22.75890
 Alpha virt. eigenvalues --   22.76823  22.80709  22.82256  22.88829  22.91555
 Alpha virt. eigenvalues --   22.93629  22.95792  22.96355  23.06299  23.06837
 Alpha virt. eigenvalues --   23.10805  23.13306  23.13757  23.23503  23.33499
 Alpha virt. eigenvalues --   23.38535  23.48369  31.96597  32.06313  32.06427
 Alpha virt. eigenvalues --   32.36713  32.53968  32.57620  32.72671  32.87644
 Alpha virt. eigenvalues --   33.05027  44.01487  44.03087  44.04516  44.08000
 Alpha virt. eigenvalues --   44.10027  44.30999
          Condensed to atoms (all electrons):
 Mulliken charges:
               1
     1  C   -0.067162
     2  H    0.123647
     3  O   -0.309338
     4  C    0.009731
     5  H    0.163324
     6  O   -0.517805
     7  H    0.341342
     8  C   -0.002794
     9  H    0.162064
    10  O   -0.484590
    11  H    0.356069
    12  C    0.051696
    13  H    0.133474
    14  N   -0.044392
    15  C   -0.043872
    16  H    0.124856
    17  C    0.013268
    18  C   -0.200443
    19  H    0.207585
    20  H   -0.035919
    21  C   -0.271148
    22  H    0.165410
    23  C   -0.025056
    24  H    0.171971
    25  C    0.352426
    26  O   -0.443709
    27  N   -0.512366
    28  H    0.252495
    29  H    0.276159
    30  N   -0.368032
    31  C    0.484893
    32  N   -0.506551
    33  H    0.304672
    34  H    0.287664
    35  N   -0.319694
    36  H    0.281483
    37  C    0.284886
    38  O   -0.421573
    39  C   -0.060330
    40  N   -0.127015
    41  H    0.309027
    42  C    0.048507
    43  C   -0.189149
    44  H    0.217095
    45  H    0.186151
    46  N   -0.343609
    47  H    0.275279
    48  C    0.381133
    49  C   -0.236676
    50  H    0.231459
    51  H    0.234889
    52  N   -0.437394
    53  H    0.263130
    54  C    0.100681
    55  C   -0.175055
    56  H    0.182849
    57  C   -0.187496
    58  H    0.163154
    59  C    0.273490
    60  C   -0.205067
    61  H    0.119012
    62  C   -0.189849
    63  H    0.113896
    64  C    0.327995
    65  O   -0.422514
    66  N   -0.524439
    67  H    0.248502
    68  H    0.145029
    69  H    0.302646
 Sum of Mulliken charges =   1.00000
 Mulliken charges with hydrogens summed into heavy atoms:
               1
     1  C    0.201513
     3  O   -0.309338
     4  C    0.173055
     6  O   -0.176462
     8  C    0.159270
    10  O   -0.128521
    12  C    0.185170
    14  N   -0.044392
    15  C    0.080984
    17  C    0.013268
    18  C   -0.028777
    21  C   -0.105738
    23  C    0.146915
    25  C    0.352426
    26  O   -0.443709
    27  N    0.016287
    30  N   -0.368032
    31  C    0.484893
    32  N    0.085785
    35  N   -0.038211
    37  C    0.284886
    38  O   -0.421573
    39  C   -0.060330
    40  N    0.182012
    42  C    0.048507
    43  C    0.214097
    46  N   -0.068330
    48  C    0.381133
    49  C    0.229671
    52  N   -0.174264
    54  C    0.100681
    55  C    0.007794
    57  C   -0.024342
    59  C    0.273490
    60  C   -0.086054
    62  C   -0.075953
    64  C    0.327995
    65  O   -0.422514
    66  N    0.026709
 Electronic spatial extent (au):  <R**2>=          27403.4340
 Charge=              1.0000 electrons
 Dipole moment (field-independent basis, Debye):
    X=             -2.2163    Y=             -8.7888    Z=              4.4335  Tot=             10.0902
 Quadrupole moment (field-independent basis, Debye-Ang):
   XX=           -139.8592   YY=           -217.4469   ZZ=           -135.5344
   XY=            -12.9089   XZ=            -60.7698   YZ=             68.0426
 Traceless Quadrupole moment (field-independent basis, Debye-Ang):
   XX=             24.4210   YY=            -53.1668   ZZ=             28.7457
   XY=            -12.9089   XZ=            -60.7698   YZ=             68.0426
 Octapole moment (field-independent basis, Debye-Ang**2):
  XXX=            769.9714  YYY=           -135.4263  ZZZ=            486.7530  XYY=            267.4670
  XXY=           -136.8180  XXZ=            163.2822  XZZ=             73.4150  YZZ=           -101.7589
  YYZ=            103.1486  XYZ=            -67.5786
 Hexadecapole moment (field-independent basis, Debye-Ang**3):
 XXXX=          -6550.8388 YYYY=          -4850.8143 ZZZZ=         -16018.5639 XXXY=           1143.3962
 XXXZ=           -293.6139 YYYX=           1735.5668 YYYZ=           1392.3391 ZZZX=          -1088.8258
 ZZZY=           3429.3049 XXYY=          -1987.4275 XXZZ=          -3506.2445 YYZZ=          -5205.6308
 XXYZ=           1031.5516 YYXZ=            -42.1744 ZZXY=            489.3649
 N-N= 4.429305260967D+03 E-N=-1.320960044148D+04  KE= 1.867555362557D+03
 No NMR shielding tensors so no spin-rotation constants.
 Leave Link  601 at Sat Jun 22 17:38:50 2024, MaxMem=  2684354560 cpu:              10.0 elap:               0.8
 (Enter /storage/apps/GAUSSIAN/G16_RevA03/g16/l602.exe)

 **********************************************************************

            Electrostatic Properties Using The SCF Density

 **********************************************************************

       Atomic Center    1 is at  -4.150791  0.368846  6.738725
       Atomic Center    2 is at  -3.986876  0.439820  7.746393
       Atomic Center    3 is at  -2.962455 -0.217237  6.115577
       Atomic Center    4 is at  -4.292426  1.756437  6.108616
       Atomic Center    5 is at  -5.259453  2.100970  6.087117
       Atomic Center    6 is at  -3.468054  2.742107  6.783916
       Atomic Center    7 is at  -3.647745  2.790221  7.743993
       Atomic Center    8 is at  -3.670204  1.573099  4.715158
       Atomic Center    9 is at  -4.328172  1.149835  4.052784
       Atomic Center   10 is at  -3.224234  2.820864  4.173633
       Atomic Center   11 is at  -3.010693  3.384601  4.941461
       Atomic Center   12 is at  -2.480905  0.627837  5.027181
       Atomic Center   13 is at  -1.673991  1.170126  5.359016
       Atomic Center   14 is at  -2.031665 -0.220415  3.921764
       Atomic Center   15 is at  -0.680339 -0.303632  3.644873
       Atomic Center   16 is at  -0.089549  0.254525  4.257373
       Atomic Center   17 is at  -0.171672 -1.085024  2.675613
       Atomic Center   18 is at  -1.099151 -1.828609  1.747669
       Atomic Center   19 is at  -0.743441 -2.762865  1.538723
       Atomic Center   20 is at  -1.082276 -1.343031  0.841225
       Atomic Center   21 is at  -2.505712 -1.863378  2.261324
       Atomic Center   22 is at  -3.161157 -2.516340  1.835174
       Atomic Center   23 is at  -2.914936 -1.084877  3.261642
       Atomic Center   24 is at  -3.872092 -1.102287  3.610929
       Atomic Center   25 is at   1.275265 -1.300371  2.469709
       Atomic Center   26 is at   1.692446 -2.150628  1.634402
       Atomic Center   27 is at   2.194234 -0.573905  3.187212
       Atomic Center   28 is at   1.917529  0.063731  3.929899
       Atomic Center   29 is at   3.157350 -0.908546  3.199564
       Atomic Center   30 is at   2.164279 -3.140924 -1.924656
       Atomic Center   31 is at   3.287366 -2.446655 -2.253951
       Atomic Center   32 is at   4.407351 -3.109880 -2.615202
       Atomic Center   33 is at   4.446911 -4.124342 -2.560178
       Atomic Center   34 is at   5.259453 -2.587201 -2.884079
       Atomic Center   35 is at   3.334685 -1.068487 -2.265244
       Atomic Center   36 is at   4.260598 -0.607547 -2.403497
       Atomic Center   37 is at   2.244834 -0.275606 -1.928818
       Atomic Center   38 is at   2.360443  0.989440 -1.904255
       Atomic Center   39 is at   1.042340 -0.992366 -1.646669
       Atomic Center   40 is at  -0.123025 -0.317755 -1.273521
       Atomic Center   41 is at  -0.042195  0.700648 -1.182363
       Atomic Center   42 is at  -1.264685 -0.920307 -0.972961
       Atomic Center   43 is at  -1.394853 -2.394346 -1.319771
       Atomic Center   44 is at  -2.034395 -2.848094 -0.666750
       Atomic Center   45 is at  -1.814938 -2.473218 -2.254604
       Atomic Center   46 is at  -0.093612 -3.066831 -1.274334
       Atomic Center   47 is at  -0.077747 -4.082423 -1.220446
       Atomic Center   48 is at   1.052134 -2.413179 -1.621048
       Atomic Center   49 is at  -2.547550 -0.094859 -0.825328
       Atomic Center   50 is at  -2.840158 -0.043069  0.152996
       Atomic Center   51 is at  -3.286700 -0.592104 -1.331954
       Atomic Center   52 is at  -2.398051  1.272439 -1.325658
       Atomic Center   53 is at  -2.747210  1.999290 -0.698914
       Atomic Center   54 is at  -2.228714  2.132019 -5.432051
       Atomic Center   55 is at  -2.384911  3.161785 -4.473623
       Atomic Center   56 is at  -2.433426  4.124342 -4.802737
       Atomic Center   57 is at  -2.445999  2.887211 -3.145846
       Atomic Center   58 is at  -2.546920  3.642403 -2.469244
       Atomic Center   59 is at  -2.368672  1.548923 -2.688912
       Atomic Center   60 is at  -2.225147  0.520643 -3.645809
       Atomic Center   61 is at  -2.179732 -0.454565 -3.355115
       Atomic Center   62 is at  -2.155719  0.817090 -4.972581
       Atomic Center   63 is at  -2.059562  0.047697 -5.633632
       Atomic Center   64 is at  -2.136294  2.477690 -6.854684
       Atomic Center   65 is at  -2.406263  3.655739 -7.274538
       Atomic Center   66 is at  -1.736182  1.523229 -7.746393
       Atomic Center   67 is at  -1.576160  0.562990 -7.459900
       Atomic Center   68 is at  -5.009151 -0.277012  6.553829
       Atomic Center   69 is at  -1.653463  1.692139 -8.820045
 -----------------------------------------------------------------

              Electrostatic Properties (Atomic Units)

 -----------------------------------------------------------------
    Center     Electric         -------- Electric Field --------
               Potential          X             Y             Z
 -----------------------------------------------------------------
    1 Atom    -14.625091     -0.004743      0.007087     -0.005440
    2 Atom     -1.021545      0.012403      0.002652      0.072724
    3 Atom    -22.253471      0.016497     -0.029706      0.008373
    4 Atom    -14.610368      0.000386     -0.012143     -0.005601
    5 Atom     -1.019242     -0.067582      0.021811     -0.004187
    6 Atom    -22.242704      0.024854      0.017977     -0.023572
    7 Atom     -0.887284     -0.004998     -0.001236      0.007831
    8 Atom    -14.610150      0.004633     -0.003192      0.012237
    9 Atom     -1.007331     -0.047217     -0.029777     -0.045668
   10 Atom    -22.262334      0.000876      0.005198     -0.039136
   11 Atom     -0.912092      0.004563      0.010728      0.012136
   12 Atom    -14.576194     -0.008839      0.006360     -0.002556
   13 Atom     -1.009894      0.054915      0.038085      0.020575
   14 Atom    -18.229609     -0.000626      0.003570      0.000889
   15 Atom    -14.618275      0.000669     -0.010255     -0.009918
   16 Atom     -0.980314      0.041699      0.040151      0.045817
   17 Atom    -14.659108     -0.002682      0.001280      0.001513
   18 Atom    -14.666270     -0.001712      0.002315      0.010849
   19 Atom     -1.025659      0.028576     -0.071966     -0.012576
   20 Atom     -1.007014      0.002896      0.036015     -0.063860
   21 Atom    -14.671501      0.005180      0.009732      0.007301
   22 Atom     -1.005932     -0.048941     -0.047027     -0.028916
   23 Atom    -14.630473      0.007400     -0.007122     -0.010481
   24 Atom     -0.990997     -0.067481     -0.001434      0.026737
   25 Atom    -14.564123     -0.000088     -0.008623     -0.007692
   26 Atom    -22.304475      0.008178     -0.018896     -0.018515
   27 Atom    -18.274072     -0.003944      0.001497     -0.010716
   28 Atom     -0.922916     -0.001886      0.006718      0.008702
   29 Atom     -0.926740      0.010658     -0.004254     -0.002985
   30 Atom    -18.269812      0.000205     -0.027369     -0.000783
   31 Atom    -14.492371     -0.010104     -0.003574      0.003353
   32 Atom    -18.215605     -0.004481      0.002605     -0.000811
   33 Atom     -0.874227     -0.002071     -0.014122      0.001223
   34 Atom     -0.865490     -0.000951     -0.004137      0.000440
   35 Atom    -18.200202     -0.003684     -0.001798     -0.001071
   36 Atom     -0.857653     -0.007399      0.005686     -0.000040
   37 Atom    -14.532368     -0.008329      0.017738      0.003262
   38 Atom    -22.284764      0.002898      0.027177      0.000287
   39 Atom    -14.600511      0.009752     -0.009133     -0.002831
   40 Atom    -18.153685     -0.003776     -0.006500     -0.001930
   41 Atom     -0.846942     -0.001134      0.022515     -0.000473
   42 Atom    -14.531591     -0.002351      0.002398     -0.006335
   43 Atom    -14.575906      0.002471      0.006345      0.002092
   44 Atom     -0.957106     -0.047603     -0.034065      0.052009
   45 Atom     -0.963813     -0.030212     -0.002670     -0.069471
   46 Atom    -18.215635      0.004442      0.005295      0.005357
   47 Atom     -0.882609      0.003906     -0.015649      0.000290
   48 Atom    -14.534038      0.004625      0.008458     -0.001453
   49 Atom    -14.587074      0.004832      0.001352     -0.003018
   50 Atom     -0.961824     -0.019414      0.002000      0.074881
   51 Atom     -0.969594     -0.054752     -0.039064     -0.039300
   52 Atom    -18.238879      0.012250     -0.001000     -0.000820
   53 Atom     -0.906502     -0.003374      0.009336      0.004761
   54 Atom    -14.675731     -0.000192     -0.000985      0.007213
   55 Atom    -14.688032      0.001224     -0.011183     -0.000884
   56 Atom     -1.040762     -0.004236      0.069817     -0.025559
   57 Atom    -14.685036      0.001454     -0.010378     -0.007382
   58 Atom     -1.020057     -0.007170      0.054888      0.049071
   59 Atom    -14.612747     -0.000198      0.003151     -0.014718
   60 Atom    -14.676165     -0.000303      0.013241     -0.001076
   61 Atom     -1.003213      0.003183     -0.069539      0.020439
   62 Atom    -14.676942     -0.001250      0.013213      0.005009
   63 Atom     -1.013647      0.006313     -0.055694     -0.046389
   64 Atom    -14.589578     -0.004823      0.018252     -0.003960
   65 Atom    -22.338388     -0.005411      0.022968     -0.007455
   66 Atom    -18.285876      0.000850      0.006598     -0.000762
   67 Atom     -0.943717      0.003714     -0.012180      0.003955
   68 Atom     -1.016040     -0.015174     -0.010671     -0.005698
   69 Atom     -0.926234     -0.006883      0.003863      0.041459
 -----------------------------------------------------------------
 Leave Link  602 at Sat Jun 22 17:38:50 2024, MaxMem=  2684354560 cpu:               3.7 elap:               0.3
 (Enter /storage/apps/GAUSSIAN/G16_RevA03/g16/l701.exe)
 ... and contract with generalized density number  0.
 Compute integral first derivatives.
 R6Disp: Adding Grimme-D3 dispersion energy 1st derivatives to the gradient.
   1 Symmetry operations used in ECPInt.
 ECPInt:  NShTT=  150975 NPrTT=  462228 LenC2=  107098 LenP2D=  216611.
 LDataN:  DoStor=T MaxTD1= 7 Len=  274
 Leave Link  701 at Sat Jun 22 17:38:51 2024, MaxMem=  2684354560 cpu:              16.4 elap:               1.1
 (Enter /storage/apps/GAUSSIAN/G16_RevA03/g16/l702.exe)
 L702 exits ... SP integral derivatives will be done elsewhere.
 Leave Link  702 at Sat Jun 22 17:38:51 2024, MaxMem=  2684354560 cpu:               0.3 elap:               0.0
 (Enter /storage/apps/GAUSSIAN/G16_RevA03/g16/l703.exe)
 Integral derivatives from FoFJK, PRISM(SPDF).
 Compute integral first derivatives, UseDBF=F ICtDFT=           0.
 Calling FoFJK, ICntrl=      2127 FMM=T ISym2X=0 I1Cent= 0 IOpClX= 0 NMat=1 NMatS=1 NMatT=0.
 FoFJK:  IHMeth= 1 ICntrl=    2127 DoSepK=F KAlg= 0 I1Cent=           0 FoldK=F
 IRaf=         0 NMat=       1 IRICut=       1 DoRegI=T DoRafI=F ISym2E= 0 IDoP0=0 IntGTp=1.
 FoFCou: FMM=T IPFlag=           0 FMFlag=      100000 FMFlg1=        2001
         NFxFlg=           0 DoJE=F BraDBF=F KetDBF=F FulRan=T
         wScrn=  0.000000 ICntrl=      2127 IOpCl=  0 I1Cent=           0 NGrid=           0
         NMat0=    1 NMatS0=      1 NMatT0=    0 NMatD0=    1 NMtDS0=    0 NMtDT0=    0
 Symmetry not used in FoFCou.
 FMM levels:  10  Number of levels for PrismC:   9
 Leave Link  703 at Sat Jun 22 17:44:27 2024, MaxMem=  2684354560 cpu:            5358.5 elap:             335.4
 (Enter /storage/apps/GAUSSIAN/G16_RevA03/g16/l716.exe)
 Dipole        =-8.71972457D-01-3.45777954D+00 1.74427918D+00
 -------------------------------------------------------------------
 Center     Atomic                   Forces (Hartrees/Bohr)
 Number     Number              X              Y              Z
 -------------------------------------------------------------------
      1        6           0.013122303   -0.000983902   -0.063049435
      2        1           0.008792847    0.001715931    0.052035238
      3        8          -0.006684796    0.014075086   -0.009827106
      4        6           0.048456359   -0.012594178    0.014089053
      5        1          -0.047761519    0.014670993   -0.003639057
      6        8          -0.004620717   -0.011455128    0.000904837
      7        1          -0.001177764   -0.003294487   -0.017148050
[...]
     Eigenvalues ---    1.44683   1.49186   1.53327   1.55827   1.56033
     Eigenvalues ---    1.58213   1.63112   1.63660   1.67088   1.71519
     Eigenvalues ---    1.76802   1.77000   1.83391   1.89651   1.97134
     Eigenvalues ---    1.97311
 Quadratic step=9.235D+00 exceeds max=3.000D-01 adjusted using Lamda=-3.974D-01.
 Angle between NR and scaled steps=  84.67 degrees.
 Angle between quadratic step and forces=  22.97 degrees.
 Linear search not attempted -- first point.
 Variable       Old X    -DE/DX   Delta X   Delta X   Delta X     New X
                                 (Linear)    (Quad)   (Total)
    X1       -7.84386   0.01312   0.00000   0.01554   0.01554  -7.82832
    Y1        0.69702  -0.00098   0.00000  -0.00190  -0.00190   0.69512
    Z1       12.73435  -0.06305   0.00000  -0.03696  -0.03696  12.69738
    X2       -7.53410   0.00879   0.00000   0.01223   0.01223  -7.52187
    Y2        0.83114   0.00172   0.00000  -0.00229  -0.00229   0.82885
    Z2       14.63856   0.05204   0.00000   0.04401   0.04401  14.68257
    X3       -5.59823  -0.00668   0.00000  -0.01112  -0.01112  -5.60935
    Y3       -0.41052   0.01408   0.00000   0.00183   0.00183  -0.40868
    Z3       11.55677  -0.00983   0.00000  -0.01504  -0.01504  11.54173
    X4       -8.11151   0.04846   0.00000   0.02558   0.02558  -8.08593
    Y4        3.31919  -0.01259   0.00000  -0.00393  -0.00393   3.31526
    Z4       11.54361   0.01409   0.00000   0.01253   0.01253  11.55614
    X5       -9.93893  -0.04776   0.00000  -0.04548  -0.04548  -9.98441
    Y5        3.97026   0.01467   0.00000   0.01163   0.01163   3.98188
    Z5       11.50298  -0.00364   0.00000  -0.00537  -0.00537  11.49762
    X6       -6.55367  -0.00462   0.00000   0.00339   0.00339  -6.55028
    Y6        5.18183  -0.01146   0.00000  -0.01603  -0.01603   5.16580
    Z6       12.81974   0.00090   0.00000  -0.00173  -0.00173  12.81801
    X7       -6.89324  -0.00118   0.00000  -0.00659  -0.00659  -6.89983
    Y7        5.27275  -0.00329   0.00000  -0.00761  -0.00761   5.26514
    Z7       14.63403  -0.01715   0.00000  -0.02133  -0.02133  14.61270
    X8       -6.93568   0.05104   0.00000   0.03080   0.03080  -6.90488
    Y8        2.97273   0.04387   0.00000   0.02511   0.02511   2.99784
    Z8        8.91036   0.03856   0.00000   0.02830   0.02830   8.93866
    X9       -8.17906  -0.03350   0.00000  -0.02674  -0.02674  -8.20580
    Y9        2.17287  -0.02149   0.00000  -0.01292  -0.01292   2.15995
    Z9        7.65865  -0.03210   0.00000  -0.02108  -0.02108   7.63758
   X10       -6.09292  -0.00535   0.00000  -0.00153  -0.00153  -6.09444
   Y10        5.33066  -0.01388   0.00000  -0.01197  -0.01197   5.31869
   Z10        7.88702   0.00825   0.00000   0.00696   0.00696   7.89398
   X11       -5.68938  -0.00101   0.00000   0.00048   0.00048  -5.68891
   Y11        6.39597  -0.00456   0.00000  -0.00418  -0.00418   6.39179
   Z11        9.33801  -0.00752   0.00000  -0.01044  -0.01044   9.32757
   X12       -4.68823  -0.05538   0.00000  -0.03212  -0.03212  -4.72036
   Y12        1.18644  -0.04690   0.00000  -0.02857  -0.02857   1.15787
   Z12        9.50000  -0.00494   0.00000   0.00291   0.00291   9.50291
   X13       -3.16338   0.03867   0.00000   0.03179   0.03179  -3.13159
   Y13        2.21122   0.02707   0.00000   0.01897   0.01897   2.23019
   Z13       10.12707   0.01345   0.00000   0.01089   0.01089  10.13796
   X14       -3.83929   0.00137   0.00000  -0.00530  -0.00530  -3.84459
   Y14       -0.41652   0.01072   0.00000   0.01070   0.01070  -0.40583
   Z14        7.41106   0.00586   0.00000   0.00379   0.00379   7.41485
   X15       -1.28565  -0.03757   0.00000  -0.02110  -0.02110  -1.30676
   Y15       -0.57378  -0.03133   0.00000  -0.01433  -0.01433  -0.58811
   Z15        6.88781  -0.02966   0.00000  -0.00810  -0.00810   6.87971
   X16       -0.16922   0.02954   0.00000   0.02506   0.02506  -0.14417
   Y16        0.48098   0.02892   0.00000   0.02639   0.02639   0.50737
   Z16        8.04527   0.03363   0.00000   0.03446   0.03446   8.07973
   X17       -0.32441  -0.00183   0.00000   0.00009   0.00009  -0.32432
   Y17       -2.05040  -0.00209   0.00000  -0.00547  -0.00547  -2.05586
   Z17        5.05618  -0.00082   0.00000   0.00225   0.00225   5.05843
   X18       -2.07709  -0.01568   0.00000  -0.00034  -0.00034  -2.07743
   Y18       -3.45557   0.02350   0.00000   0.00850   0.00850  -3.44707
   Z18        3.30262   0.05922   0.00000   0.03036   0.03036   3.33298
   X19       -1.40490   0.02108   0.00000   0.02325   0.02325  -1.38165
   Y19       -5.22106  -0.05243   0.00000  -0.05706  -0.05706  -5.27812
   Z19        2.90777  -0.00851   0.00000  -0.00096  -0.00096   2.90681
   X20       -2.04521   0.00216   0.00000   0.00331   0.00331  -2.04190
   Y20       -2.53796   0.02606   0.00000   0.03080   0.03080  -2.50716
   Z20        1.58969  -0.04564   0.00000  -0.04239  -0.04239   1.54729
   X21       -4.73511   0.03335   0.00000   0.01865   0.01865  -4.71646
   Y21       -3.52127   0.03339   0.00000   0.01748   0.01748  -3.50380
   Z21        4.27328   0.02321   0.00000   0.01448   0.01448   4.28776
   X22       -5.97372  -0.03544   0.00000  -0.03366  -0.03366  -6.00738
   Y22       -4.75519  -0.03355   0.00000  -0.02933  -0.02933  -4.78453
   Z22        3.46798  -0.02041   0.00000  -0.01622  -0.01622   3.45175
   X23       -5.50843   0.05419   0.00000   0.02607   0.02607  -5.48236
   Y23       -2.05012   0.00641   0.00000   0.01381   0.01381  -2.03631
   Z23        6.16361  -0.01480   0.00000   0.00003   0.00003   6.16364
   X24       -7.31719  -0.04767   0.00000  -0.04345  -0.04345  -7.36064
   Y24       -2.08302  -0.00037   0.00000   0.00171   0.00171  -2.08131
   Z24        6.82367   0.01999   0.00000   0.02165   0.02165   6.84531
   X25        2.40990   0.03261   0.00000   0.01262   0.01262   2.42252
   Y25       -2.45735  -0.02791   0.00000  -0.00825  -0.00825  -2.46560
   Z25        4.66707  -0.02624   0.00000  -0.00410  -0.00410   4.66298
   X26        3.19826  -0.02437   0.00000  -0.02699  -0.02699   3.17127
   Y26       -4.06410   0.03543   0.00000   0.02486   0.02486  -4.03923
   Z26        3.08857   0.03080   0.00000   0.01556   0.01556   3.10414
   X27        4.14650  -0.00775   0.00000  -0.01027  -0.01027   4.13623
   Y27       -1.08452   0.00005   0.00000  -0.00529  -0.00529  -1.08981
   Z27        6.02296   0.00531   0.00000   0.00210   0.00210   6.02506
   X28        3.62361   0.00397   0.00000   0.00231   0.00231   3.62591
   Y28        0.12043  -0.00829   0.00000  -0.01147  -0.01147   0.10897
   Z28        7.42643  -0.00808   0.00000  -0.00837  -0.00837   7.41807
   X29        5.96653  -0.01158   0.00000  -0.01786  -0.01786   5.94867
   Y29       -1.71690   0.00326   0.00000   0.00478   0.00478  -1.71212
   Z29        6.04630  -0.00326   0.00000  -0.00717  -0.00717   6.03913
   X30        4.08989   0.01538   0.00000   0.00733   0.00733   4.09722
   Y30       -5.93549   0.02588   0.00000   0.02313   0.02313  -5.91236
   Z30       -3.63707  -0.00569   0.00000  -0.00587  -0.00587  -3.64294
   X31        6.21222  -0.02698   0.00000  -0.02069  -0.02069   6.19153
   Y31       -4.62351  -0.00926   0.00000  -0.00203  -0.00203  -4.62554
   Z31       -4.25935   0.00817   0.00000   0.00703   0.00703  -4.25232
   X32        8.32869   0.00549   0.00000  -0.01349  -0.01349   8.31519
   Y32       -5.87682   0.01528   0.00000   0.01353   0.01353  -5.86329
   Z32       -4.94202   0.00011   0.00000   0.00606   0.00606  -4.93595
   X33        8.40344  -0.00331   0.00000  -0.00988  -0.00988   8.39357
   Y33       -7.79388   0.00939   0.00000   0.01812   0.01812  -7.77575
   Z33       -4.83803   0.00014   0.00000   0.00132   0.00132  -4.83671
   X34        9.93893  -0.01958   0.00000  -0.02764  -0.02764   9.91128
   Y34       -4.88910  -0.01480   0.00000  -0.01731  -0.01731  -4.90641
   Z34       -5.45012   0.00646   0.00000   0.00966   0.00966  -5.44046
   X35        6.30164   0.02193   0.00000  -0.00071  -0.00071   6.30093
   Y35       -2.01915  -0.01969   0.00000  -0.01472  -0.01472  -2.03387
   Z35       -4.28069  -0.00082   0.00000   0.00666   0.00666  -4.27403
   X36        8.05136  -0.02665   0.00000  -0.03747  -0.03747   8.01389
   Y36       -1.14810  -0.00441   0.00000  -0.00594  -0.00594  -1.15403
   Z36       -4.54195   0.00282   0.00000   0.00350   0.00350  -4.53846
   X37        4.24212  -0.00242   0.00000  -0.00693  -0.00693   4.23519
   Y37       -0.52082   0.07757   0.00000   0.02086   0.02086  -0.49996
   Z37       -3.64494   0.00247   0.00000   0.00103   0.00103  -3.64391
   X38        4.46059  -0.00843   0.00000  -0.01377  -0.01377   4.44682
   Y38        1.86977  -0.07000   0.00000  -0.04709  -0.04709   1.82268
   Z38       -3.59852   0.00041   0.00000   0.00355   0.00355  -3.59497
   X39        1.96974   0.00226   0.00000   0.00296   0.00296   1.97270
   Y39       -1.87530  -0.02446   0.00000  -0.01614  -0.01614  -1.89144
   Z39       -3.11175  -0.00016   0.00000   0.00186   0.00186  -3.10990
   X40       -0.23248  -0.02065   0.00000  -0.00104  -0.00104  -0.23352
   Y40       -0.60047  -0.02086   0.00000  -0.01495  -0.01495  -0.61542
   Z40       -2.40661   0.01119   0.00000   0.00326   0.00326  -2.40335
   X41       -0.07974  -0.00300   0.00000  -0.00573  -0.00573  -0.08547
   Y41        1.32403  -0.00057   0.00000  -0.00803  -0.00803   1.31600
   Z41       -2.23434  -0.00246   0.00000  -0.00475  -0.00475  -2.23909
   X42       -2.38991   0.02264   0.00000   0.01800   0.01800  -2.37191
   Y42       -1.73913   0.02126   0.00000   0.02196   0.02196  -1.71717
   Z42       -1.83863  -0.03205   0.00000  -0.04595  -0.04595  -1.88458
   X43       -2.63589   0.06492   0.00000   0.03921   0.03921  -2.59668
   Y43       -4.52466   0.02886   0.00000   0.01957   0.01957  -4.50508
   Z43       -2.49401   0.01604   0.00000   0.00780   0.00780  -2.48620
   X44       -3.84445  -0.03406   0.00000  -0.02532  -0.02532  -3.86977
   Y44       -5.38212  -0.02407   0.00000  -0.01747  -0.01747  -5.39959
   Z44       -1.25998   0.03873   0.00000   0.04564   0.04564  -1.21433
   X45       -3.42974  -0.02178   0.00000  -0.01540  -0.01540  -3.44513
   Y45       -4.67371  -0.00044   0.00000   0.00452   0.00452  -4.66919
   Z45       -4.26058  -0.05035   0.00000  -0.05183  -0.05183  -4.31242
   X46       -0.17690   0.00795   0.00000   0.02045   0.02045  -0.15645
   Y46       -5.79547   0.00582   0.00000   0.01156   0.01156  -5.78391
   Z46       -2.40814  -0.00249   0.00000  -0.00249  -0.00249  -2.41064
   X47       -0.14692   0.00346   0.00000   0.00969   0.00969  -0.13723
   Y47       -7.71466   0.00783   0.00000   0.01531   0.01531  -7.69935
   Z47       -2.30631  -0.00133   0.00000  -0.00288  -0.00288  -2.30918
   X48        1.98824   0.01055   0.00000   0.01502   0.01502   2.00326
   Y48       -4.56025   0.00561   0.00000   0.00659   0.00659  -4.55366
   Z48       -3.06334  -0.00256   0.00000  -0.00388  -0.00388  -3.06722
   X49       -4.81417   0.06046   0.00000   0.03622   0.03622  -4.77795
   Y49       -0.17926   0.03745   0.00000   0.02312   0.02312  -0.15614
   Z49       -1.55964  -0.02934   0.00000  -0.01809  -0.01809  -1.57773
   X50       -5.36712  -0.01292   0.00000  -0.00074  -0.00074  -5.36786
   Y50       -0.08139   0.00061   0.00000   0.00040   0.00040  -0.08098
   Z50        0.28912   0.05486   0.00000   0.05557   0.05557   0.34469
   X51       -6.21096  -0.03873   0.00000  -0.03123  -0.03123  -6.24220
   Y51       -1.11892  -0.02900   0.00000  -0.02692  -0.02692  -1.14584
   Z51       -2.51703  -0.02918   0.00000  -0.03469  -0.03469  -2.55172
   X52       -4.53166   0.00080   0.00000   0.00865   0.00865  -4.52301
   Y52        2.40456  -0.00810   0.00000  -0.00114  -0.00114   2.40342
   Z52       -2.50513   0.01649   0.00000   0.00829   0.00829  -2.49684
   X53       -5.19147   0.00421   0.00000   0.00508   0.00508  -5.18640
   Y53        3.77811  -0.00738   0.00000  -0.00858  -0.00858   3.76953
   Z53       -1.32076  -0.00978   0.00000  -0.01061  -0.01061  -1.33137
   X54       -4.21166  -0.00017   0.00000  -0.00096  -0.00096  -4.21262
   Y54        4.02893  -0.00328   0.00000   0.00405   0.00405   4.03298
   Z54      -10.26509   0.02107   0.00000  -0.00599  -0.00599 -10.27108
   X55       -4.50683   0.00579   0.00000   0.00226   0.00226  -4.50457
   Y55        5.97491  -0.05365   0.00000  -0.03110  -0.03110   5.94381
   Z55       -8.45392  -0.01377   0.00000  -0.01591  -0.01591  -8.46983
   X56       -4.59851  -0.00318   0.00000  -0.00359  -0.00359  -4.60210
   Y56        7.79388   0.04979   0.00000   0.04531   0.04531   7.83919
   Z56       -9.07586  -0.01877   0.00000  -0.02243  -0.02243  -9.09829
   X57       -4.62227   0.00475   0.00000  -0.00034  -0.00034  -4.62261
   Y57        5.45604  -0.05629   0.00000  -0.03662  -0.03662   5.41942
   Z57       -5.94479  -0.01114   0.00000  -0.00083  -0.00083  -5.94562
   X58       -4.81298  -0.00518   0.00000  -0.00474  -0.00474  -4.81772
   Y58        6.88314   0.03917   0.00000   0.03309   0.03309   6.91623
   Z58       -4.66619   0.03566   0.00000   0.03561   0.03561  -4.63059
   X59       -4.47614  -0.00044   0.00000  -0.00387  -0.00387  -4.48001
   Y59        2.92704   0.00156   0.00000  -0.00147  -0.00147   2.92557
   Z59       -5.08131  -0.01452   0.00000   0.00247   0.00247  -5.07884
   X60       -4.20492  -0.00546   0.00000  -0.00709  -0.00709  -4.21201
   Y60        0.98387   0.05325   0.00000   0.02986   0.02986   1.01373
   Z60       -6.88958   0.01938   0.00000   0.01982   0.01982  -6.86976
   X61       -4.11910   0.00227   0.00000   0.00138   0.00138  -4.11772
   Y61       -0.85900  -0.05011   0.00000  -0.04631  -0.04631  -0.90531
   Z61       -6.34025   0.01525   0.00000   0.01951   0.01951  -6.32074
   X62       -4.07372  -0.00386   0.00000  -0.00459  -0.00459  -4.07831
   Y62        1.54408   0.05081   0.00000   0.03127   0.03127   1.57535
   Z62       -9.39682   0.00877   0.00000   0.00051   0.00051  -9.39631
   X63       -3.89201   0.00432   0.00000   0.00291   0.00291  -3.88909
   Y63        0.09013  -0.04006   0.00000  -0.03698  -0.03698   0.05315
   Z63      -10.64602  -0.03321   0.00000  -0.03209  -0.03209 -10.67811
   X64       -4.03701  -0.01386   0.00000  -0.00539  -0.00539  -4.04240
   Y64        4.68216   0.07674   0.00000   0.02631   0.02631   4.70846
   Z64      -12.95347  -0.05863   0.00000  -0.04308  -0.04308 -12.99656
   X65       -4.54718   0.01712   0.00000   0.00825   0.00825  -4.53893
   Y65        6.90835  -0.07208   0.00000  -0.03964  -0.03964   6.86871
   Z65      -13.74688   0.03189   0.00000   0.02114   0.02114 -13.72574
   X66       -3.28091   0.00495   0.00000  -0.00330  -0.00330  -3.28421
   Y66        2.87849  -0.00787   0.00000   0.00099   0.00099   2.87948
   Z66      -14.63856  -0.03909   0.00000  -0.02245  -0.02245 -14.66101
   X67       -2.97851   0.00000   0.00000   0.00095   0.00095  -2.97756
   Y67        1.06390   0.01014   0.00000   0.01531   0.01531   1.07921
   Z67      -14.09717  -0.00232   0.00000  -0.00631  -0.00631 -14.10348
   X68       -9.46592  -0.00108   0.00000   0.00092   0.00092  -9.46500
   Y68       -0.52348   0.00039   0.00000   0.00362   0.00362  -0.51985
   Z68       12.38494  -0.00271   0.00000  -0.01304  -0.01304  12.37190
   X69       -3.12459  -0.00848   0.00000  -0.01377  -0.01377  -3.13837
   Y69        3.19768   0.00094   0.00000   0.00678   0.00678   3.20445
   Z69      -16.66747   0.06081   0.00000   0.07197   0.07197 -16.59550
         Item               Value     Threshold  Converged?
 Maximum Force            0.077571     0.000450     NO 
 RMS     Force            0.027169     0.000300     NO 
 Maximum Displacement     0.071967     0.001800     NO 
 RMS     Displacement     0.020855     0.001200     NO 
 Predicted change in Energy=-7.188223D-02
 GradGradGradGradGradGradGradGradGradGradGradGradGradGradGradGradGradGrad

 Leave Link  103 at Sat Jun 22 17:44:27 2024, MaxMem=  2684354560 cpu:               6.2 elap:               0.4
 (Enter /storage/apps/GAUSSIAN/G16_RevA03/g16/l9999.exe)

 Test job not archived.
 1\1\GINC-T083\Force\RM062X\def2TZVP\C24H30N9O6(1+)\LV87696\22-Jun-2024
 \0\\#P M062X/Def2TZVP scf=(direct,conver=8) EmpiricalDispersion=GD3 No
 Symm force Charge Prop=(Field,Read)\\Gaussian run using SANDER externa
 l interface, route from template gau_job.tpl\\1,1\C,-4.1507913883,0.36
 88455933,6.7387253329\H,-3.9868758005,0.4398204511,7.7463934591\O,-2.9
 624553784,-0.2172365248,6.1155774037\C,-4.2924259453,1.7564373357,6.10
 86155434\H,-5.2594531683,2.1009695358,6.0871168901\O,-3.4680535131,2.7
 421069788,6.783916028\H,-3.647745499,2.7902209594,7.7439927123\C,-3.67
 02041132,1.5730994801,4.7151578352\H,-4.3281724731,1.1498348056,4.0527
 842146\O,-3.2242337449,2.8208641038,4.1736325167\H,-3.0106928213,3.384
 6014499,4.9414606804\C,-2.4809053512,0.6278373546,5.0271812539\H,-1.67
 39909312,1.1701262324,5.35901554\N,-2.0316653338,-0.2204148328,3.92176
 36179\C,-0.6803389447,-0.3036316468,3.6448727433\H,-0.089548526,0.2545
 24927,4.2573732561\C,-0.1716719684,-1.0850240311,2.6756128627\C,-1.099
 1507838,-1.8286089978,1.7476692635\H,-0.7434412984,-2.7628645602,1.538
 7234257\H,-1.0822764945,-1.3430307649,0.841225394\C,-2.5057119136,-1.8
 633784489,2.2613241198\H,-3.1611572353,-2.5163396576,1.8351735891\C,-2
 .9149356634,-1.0848772514,3.2616422128\H,-3.8720923984,-1.1022871324,3
 .6109288275\C,1.2752651888,-1.3003710376,2.4697090009\O,1.6924455356,-
 2.1506277414,1.6344017934\N,2.194233502,-0.5739054026,3.1872115738\H,1
 .9175294215,0.0637311676,3.9298991782\H,3.1573495544,-0.9085463874,3.1
 995637391\N,2.1642785115,-3.1409242748,-1.9246560094\C,3.2873655005,-2
 .4466549681,-2.2539506323\N,4.4073508985,-3.1098798336,-2.6152019547\H
 ,4.4469113216,-4.1243420152,-2.5601777428\H,5.2594531683,-2.5872005679
 ,-2.8840790961\N,3.3346845733,-1.0684865991,-2.2652443742\H,4.26059792
 06,-0.6075472686,-2.4034972847\C,2.2448341099,-0.2756055515,-1.9288179
 676\O,2.3604430568,0.9894401513,-1.9042549742\C,1.0423404296,-0.992366
 2993,-1.6466686738\N,-0.1230245372,-0.3177551565,-1.2735205884\H,-0.04
 21950306,0.7006478788,-1.1823631552\C,-1.2646854619,-0.9203066536,-0.9
 729608472\C,-1.3948533674,-2.3943459802,-1.3197714816\H,-2.0343949341,
 -2.8480936597,-0.6667500914\H,-1.8149380149,-2.4732183371,-2.254603899
 6\N,-0.0936118867,-3.0668310304,-1.2743339263\H,-0.0777467966,-4.08242
 31801,-1.2204462206\C,1.0521335848,-2.4131791219,-1.6210483628\C,-2.54
 75495189,-0.0948590738,-0.8253277616\H,-2.840157688,-0.0430691251,0.15
 29959303\H,-3.2867001724,-0.5921043203,-1.3319542874\N,-2.3980509213,1
 .2724388635,-1.3256581511\H,-2.7472102094,1.9992899842,-0.6989140422\C
 ,-2.228713617,2.1320185143,-5.4320505186\C,-2.384911032,3.1617851693,-
 4.4736226556\H,-2.4334258054,4.1243420152,-4.8027368514\C,-2.44599935,
 2.887210515,-3.1458461039\H,-2.5469204499,3.642403104,-2.4692437743\C,
 -2.3686715381,1.5489228693,-2.6889122451\C,-2.2251467293,0.5206426663,
 -3.645808652\H,-2.1797315037,-0.4545654274,-3.3551145181\C,-2.15571891
 12,0.8170896813,-4.9725809286\H,-2.059561677,0.0476973312,-5.633632412
 4\C,-2.1362936632,2.4776902215,-6.8546835046\O,-2.4062628379,3.6557394
 52,-7.2745378496\N,-1.736182194,1.5232291202,-7.7463934591\H,-1.576159
 5076,0.5629896814,-7.4598997912\H,-5.0091512888,-0.2770116216,6.553828
 7697\H,-1.6534625149,1.6921386875,-8.820044712\\Version=ES64L-G16RevA.
 03\HF=-1876.4423583\RMSD=2.728e-09\RMSF=2.717e-02\Dipole=0.9279396,-3.
 4870571,1.7951001\Quadrupole=18.1564312,-39.5281824,21.3717512,-9.5974
 463,-45.1808411,50.5879808\PG=C01 [X(C24H30N9O6)]\\@


 Other things may change us, but we start and end with family.
 -- Anthony Brandt
 Job cpu time:       0 days  7 hours 21 minutes 56.1 seconds.
 Elapsed time:       0 days  0 hours 27 minutes 41.2 seconds.
 File lengths (MBytes):  RWF=   1039 Int=      0 D2E=      0 Chk=    113 Scr=      1
 Normal termination of Gaussian 16 at Sat Jun 22 17:44:28 2024.
