 Entering Gaussian System, Link 0=g16
 Initial command:
 /storage/apps/GAUSSIAN/G16_RevA03/g16/l1.exe "/scratch/tmp/1267144/Gau-226895.inp" -scrdir="/scratch/tmp/1267144/"
 Entering Link 1 = /storage/apps/GAUSSIAN/G16_RevA03/g16/l1.exe PID=    226896.
  
 Copyright (c) 1988,1990,1992,1993,1995,1998,2003,2009,2016,
            Gaussian, Inc.  All Rights Reserved.
  
 This is part of the Gaussian(R) 16 program.  It is based on
 the Gaussian(R) 09 system (copyright 2009, Gaussian, Inc.),
 the Gaussian(R) 03 system (copyright 2003, Gaussian, Inc.),
 the Gaussian(R) 98 system (copyright 1998, Gaussian, Inc.),
 the Gaussian(R) 94 system (copyright 1995, Gaussian, Inc.),
 the Gaussian 92(TM) system (copyright 1992, Gaussian, Inc.),
 the Gaussian 90(TM) system (copyright 1990, Gaussian, Inc.),
 the Gaussian 88(TM) system (copyright 1988, Gaussian, Inc.),
 the Gaussian 86(TM) system (copyright 1986, Carnegie Mellon
 University), and the Gaussian 82(TM) system (copyright 1983,
 Carnegie Mellon University). Gaussian is a federally registered
 trademark of Gaussian, Inc.
  
 This software contains proprietary and confidential information,
 including trade secrets, belonging to Gaussian, Inc.
  
 This software is provided under written license and may be
 used, copied, transmitted, or stored only in accord with that
 written license.
  
 The following legend is applicable only to US Government
 contracts under FAR:
  
                    RESTRICTED RIGHTS LEGEND
  
 Use, reproduction and disclosure by the US Government is
 subject to restrictions as set forth in subparagraphs (a)
 and (c) of the Commercial Computer Software - Restricted
 Rights clause in FAR 52.227-19.
  
 Gaussian, Inc.
 340 Quinnipiac St., Bldg. 40, Wallingford CT 06492
  
  
 ---------------------------------------------------------------
 Warning -- This program may not be used in any manner that
 competes with the business of Gaussian, Inc. or will provide
 assistance to any competitor of Gaussian, Inc.  The licensee
 of this program is prohibited from giving any competitor of
 Gaussian, Inc. access to this program.  By using this program,
 the user acknowledges that Gaussian, Inc. is engaged in the
 business of creating and licensing software in the field of
 computational chemistry and represents and warrants to the
 licensee that it is not a competitor of Gaussian, Inc. and that
 it will not use this program in any manner prohibited above.
 ---------------------------------------------------------------
  

 Cite this work as:
 Gaussian 16, Revision A.03,
 M. J. Frisch, G. W. Trucks, H. B. Schlegel, G. E. Scuseria, 
 M. A. Robb, J. R. Cheeseman, G. Scalmani, V. Barone, 
 G. A. Petersson, H. Nakatsuji, X. Li, M. Caricato, A. V. Marenich, 
 J. Bloino, B. G. Janesko, R. Gomperts, B. Mennucci, H. P. Hratchian, 
 J. V. Ortiz, A. F. Izmaylov, J. L. Sonnenberg, D. Williams-Young, 
 F. Ding, F. Lipparini, F. Egidi, J. Goings, B. Peng, A. Petrone, 
 T. Henderson, D. Ranasinghe, V. G. Zakrzewski, J. Gao, N. Rega, 
 G. Zheng, W. Liang, M. Hada, M. Ehara, K. Toyota, R. Fukuda, 
 J. Hasegawa, M. Ishida, T. Nakajima, Y. Honda, O. Kitao, H. Nakai, 
 T. Vreven, K. Throssell, J. A. Montgomery, Jr., J. E. Peralta, 
 F. Ogliaro, M. J. Bearpark, J. J. Heyd, E. N. Brothers, K. N. Kudin, 
 V. N. Staroverov, T. A. Keith, R. Kobayashi, J. Normand, 
 K. Raghavachari, A. P. Rendell, J. C. Burant, S. S. Iyengar, 
 J. Tomasi, M. Cossi, J. M. Millam, M. Klene, C. Adamo, R. Cammi, 
 J. W. Ochterski, R. L. Martin, K. Morokuma, O. Farkas, 
 J. B. Foresman, and D. J. Fox, Gaussian, Inc., Wallingford CT, 2016.
 
 ******************************************
 Gaussian 16:  ES64L-G16RevA.03 25-Dec-2016
                19-Feb-2023 
 ******************************************
 %chk=gau_job.chk
 %NProcShared=16
 Will use up to   16 processors via shared memory.
 %mem=20GB
 ----------------------------------------------------------------------
 #P M062X/Def2TZVP scf=(direct,conver=8) EmpiricalDispersion=GD3 NoSymm
  Force pop=(NBORead) Charge Prop=(Field,Read)
 ----------------------------------------------------------------------
 1/10=7,18=10,28=-2,30=1,38=1,125=101/1,3;
 2/12=2,15=1,17=6,18=5,29=2,40=1/2;
 3/5=44,7=101,11=2,25=1,30=1,71=1,74=-55,124=31/1,2,3;
 4//1;
 5/5=2,6=8,38=5/2;
 6/7=2,8=2,9=2,10=2,14=2,15=1,28=1,40=2/1,2,7;
 7/7=1,16=-2,29=1,30=1/1,2,3,16;
 1/10=7,18=10,28=-2,30=1/3;
 99/12=1/99;
 Leave Link    1 at Sun Feb 19 03:49:33 2023, MaxMem=  2684354560 cpu:               0.6 elap:               0.0
 (Enter /storage/apps/GAUSSIAN/G16_RevA03/g16/l101.exe)
 ----------------------------------------------------------------------
 Gaussian run using SANDER external interface, route from template gau_
 job.tpl
 ----------------------------------------------------------------------
 Symbolic Z-matrix:
 Charge =  0 Multiplicity = 1
 C                     3.40086  -3.84184  -0.76664 
 H                     3.45618  -3.97187  -1.85478 
 H                     4.3094   -4.24635  -0.3013 
 C                     1.59251  -1.55707   0.98633 
 H                     0.96792  -2.46202   0.86415 
 O                     1.12669  -0.79458   2.06183 
 H                     0.51932  -0.11297   1.72518 
 C                     3.04829  -2.02464   1.05979 
 H                     3.16554  -2.92287   1.69115 
 O                     3.84994  -0.97759   1.53047 
 H                     4.788    -1.1727    1.28734 
 C                     1.60106  -0.82793  -0.35239 
 H                     2.14637   0.1198   -0.21821 
 C                     3.3248   -2.35768  -0.43598 
 H                     4.29218  -1.91212  -0.72005 
 O                     2.29323  -1.72554  -1.1849 
 N                     0.32081  -0.51968  -0.89457 
 C                    -0.58815  -1.55852  -1.11686 
 H                    -0.272    -2.54005  -0.76488 
 C                    -1.74325  -1.37306  -1.7592 
 H                    -2.38459  -2.23858  -1.92436 
 C                    -2.16215  -0.04131  -2.32025 
 H                    -2.46014  -0.18313  -3.37026 
 H                    -3.06399   0.35586  -1.80472 
 C                    -1.03148   0.95479  -2.21352 
 C                     0.09789   0.68607  -1.5362 
 H                     0.89572   1.4318   -1.47494 
 C                    -1.17509   2.3136   -2.79726 
 O                    -0.46677   3.2581   -2.45713 
 N                    -2.18749   2.46676  -3.6926 
 H                    -2.16623   3.35232  -4.19266 
 H                    -2.53218   1.66681  -4.22679 
 C                     0.50783   2.09651   3.69786 
 C                    -1.05123   2.21303   1.44045 
 C                    -1.77862   2.9744    0.40824 
 C                    -3.87682   3.38794  -0.8912 
 C                    -3.01244   2.60777   0.04264 
 O                    -1.1132    1.0053    1.60669 
 S                    -0.13971   3.27969   2.498 
 H                    -0.33068   1.61986   4.22679 
 H                     1.08483   1.32525   3.17005 
 H                    -4.19616   2.76275  -1.7367 
 H                    -3.33556   4.24635  -1.31124 
 H                    -4.788     3.7343   -0.37517 
 H                    -3.42726   1.69911   0.4962 
 H                    -1.31005   3.88474   0.01908 
 H                     2.51069  -4.33729  -0.37906 
 H                     1.14528   2.61211   4.41613 
 
 ITRead=  0  0  0  0  0  0  0  0  0  0  0  0  0  0  0  0  0  0  0  0
 ITRead=  0  0  0  0  0  0  0  0  0  0  0  0  0  0  0  0  0  0  0  0
 ITRead=  0  0  0  0  0  0  0  0
 MicOpt= -1 -1 -1 -1 -1 -1 -1 -1 -1 -1 -1 -1 -1 -1 -1 -1 -1 -1 -1 -1
 MicOpt= -1 -1 -1 -1 -1 -1 -1 -1 -1 -1 -1 -1 -1 -1 -1 -1 -1 -1 -1 -1
 MicOpt= -1 -1 -1 -1 -1 -1 -1 -1
 NAtoms=     48 NQM=       48 NQMF=       0 NMMI=      0 NMMIF=      0
                NMic=       0 NMicF=      0.
                    Isotopes and Nuclear Properties:
 (Nuclear quadrupole moments (NQMom) in fm**2, nuclear magnetic moments (NMagM)
  in nuclear magnetons)

  Atom         1           2           3           4           5           6           7           8           9          10
 IAtWgt=          12           1           1          12           1          16           1          12           1          16
 AtmWgt=  12.0000000   1.0078250   1.0078250  12.0000000   1.0078250  15.9949146   1.0078250  12.0000000   1.0078250  15.9949146
 NucSpn=           0           1           1           0           1           0           1           0           1           0
 AtZEff=  -0.0000000  -0.0000000  -0.0000000  -0.0000000  -0.0000000  -0.0000000  -0.0000000  -0.0000000  -0.0000000  -0.0000000
 NQMom=    0.0000000   0.0000000   0.0000000   0.0000000   0.0000000   0.0000000   0.0000000   0.0000000   0.0000000   0.0000000
 NMagM=    0.0000000   2.7928460   2.7928460   0.0000000   2.7928460   0.0000000   2.7928460   0.0000000   2.7928460   0.0000000
 AtZNuc=   6.0000000   1.0000000   1.0000000   6.0000000   1.0000000   8.0000000   1.0000000   6.0000000   1.0000000   8.0000000

  Atom        11          12          13          14          15          16          17          18          19          20
 IAtWgt=           1          12           1          12           1          16          14          12           1          12
 AtmWgt=   1.0078250  12.0000000   1.0078250  12.0000000   1.0078250  15.9949146  14.0030740  12.0000000   1.0078250  12.0000000
 NucSpn=           1           0           1           0           1           0           2           0           1           0
 AtZEff=  -0.0000000  -0.0000000  -0.0000000  -0.0000000  -0.0000000  -0.0000000  -0.0000000  -0.0000000  -0.0000000  -0.0000000
 NQMom=    0.0000000   0.0000000   0.0000000   0.0000000   0.0000000   0.0000000   2.0440000   0.0000000   0.0000000   0.0000000
 NMagM=    2.7928460   0.0000000   2.7928460   0.0000000   2.7928460   0.0000000   0.4037610   0.0000000   2.7928460   0.0000000
 AtZNuc=   1.0000000   6.0000000   1.0000000   6.0000000   1.0000000   8.0000000   7.0000000   6.0000000   1.0000000   6.0000000

  Atom        21          22          23          24          25          26          27          28          29          30
 IAtWgt=           1          12           1           1          12          12           1          12          16          14
 AtmWgt=   1.0078250  12.0000000   1.0078250   1.0078250  12.0000000  12.0000000   1.0078250  12.0000000  15.9949146  14.0030740
 NucSpn=           1           0           1           1           0           0           1           0           0           2
 AtZEff=  -0.0000000  -0.0000000  -0.0000000  -0.0000000  -0.0000000  -0.0000000  -0.0000000  -0.0000000  -0.0000000  -0.0000000
 NQMom=    0.0000000   0.0000000   0.0000000   0.0000000   0.0000000   0.0000000   0.0000000   0.0000000   0.0000000   2.0440000
 NMagM=    2.7928460   0.0000000   2.7928460   2.7928460   0.0000000   0.0000000   2.7928460   0.0000000   0.0000000   0.4037610
 AtZNuc=   1.0000000   6.0000000   1.0000000   1.0000000   6.0000000   6.0000000   1.0000000   6.0000000   8.0000000   7.0000000

  Atom        31          32          33          34          35          36          37          38          39          40
 IAtWgt=           1           1          12          12          12          12          12          16          32           1
 AtmWgt=   1.0078250   1.0078250  12.0000000  12.0000000  12.0000000  12.0000000  12.0000000  15.9949146  31.9720718   1.0078250
 NucSpn=           1           1           0           0           0           0           0           0           0           1
 AtZEff=  -0.0000000  -0.0000000  -0.0000000  -0.0000000  -0.0000000  -0.0000000  -0.0000000  -0.0000000  -0.0000000  -0.0000000
 NQMom=    0.0000000   0.0000000   0.0000000   0.0000000   0.0000000   0.0000000   0.0000000   0.0000000   0.0000000   0.0000000
 NMagM=    2.7928460   2.7928460   0.0000000   0.0000000   0.0000000   0.0000000   0.0000000   0.0000000   0.0000000   2.7928460
 AtZNuc=   1.0000000   1.0000000   6.0000000   6.0000000   6.0000000   6.0000000   6.0000000   8.0000000  16.0000000   1.0000000

  Atom        41          42          43          44          45          46          47          48
 IAtWgt=           1           1           1           1           1           1           1           1
 AtmWgt=   1.0078250   1.0078250   1.0078250   1.0078250   1.0078250   1.0078250   1.0078250   1.0078250
 NucSpn=           1           1           1           1           1           1           1           1
 AtZEff=  -0.0000000  -0.0000000  -0.0000000  -0.0000000  -0.0000000  -0.0000000  -0.0000000  -0.0000000
 NQMom=    0.0000000   0.0000000   0.0000000   0.0000000   0.0000000   0.0000000   0.0000000   0.0000000
 NMagM=    2.7928460   2.7928460   2.7928460   2.7928460   2.7928460   2.7928460   2.7928460   2.7928460
 AtZNuc=   1.0000000   1.0000000   1.0000000   1.0000000   1.0000000   1.0000000   1.0000000   1.0000000
 Background charge distribution read from input stream:
 Leave Link  101 at Sun Feb 19 03:49:33 2023, MaxMem=  2684354560 cpu:               1.4 elap:               0.1
 (Enter /storage/apps/GAUSSIAN/G16_RevA03/g16/l103.exe)

 GradGradGradGradGradGradGradGradGradGradGradGradGradGradGradGradGradGrad
 Berny optimization.
 Initialization pass.
 Trust Radius=3.00D-01 FncErr=1.00D-07 GrdErr=1.00D-07 EigMax=2.50D+02 EigMin=1.00D-04
 Number of steps in this run=      2 maximum allowed number of steps=      2.
 GradGradGradGradGradGradGradGradGradGradGradGradGradGradGradGradGradGrad

 Leave Link  103 at Sun Feb 19 03:49:33 2023, MaxMem=  2684354560 cpu:               0.3 elap:               0.0
 (Enter /storage/apps/GAUSSIAN/G16_RevA03/g16/l202.exe)
 ---------------------------------------------------------------------------------------------------
                            Z-MATRIX (ANGSTROMS AND DEGREES)
   CD    Cent   Atom    N1       Length/X        N2       Alpha/Y        N3        Beta/Z          J
 ---------------------------------------------------------------------------------------------------
      1      1  C        0   3.400864         -3.841843         -0.766640
      2      2  H        0   3.456178         -3.971872         -1.854777
      3      3  H        0   4.309403         -4.246347         -0.301299
      4      4  C        0   1.592513         -1.557073          0.986334
      5      5  H        0   0.967923         -2.462024          0.864154
      6      6  O        0   1.126690         -0.794584          2.061832
      7      7  H        0   0.519320         -0.112972          1.725181
      8      8  C        0   3.048288         -2.024642          1.059788
      9      9  H        0   3.165542         -2.922870          1.691149
     10     10  O        0   3.849942         -0.977593          1.530471
     11     11  H        0   4.788002         -1.172700          1.287342
     12     12  C        0   1.601065         -0.827932         -0.352388
     13     13  H        0   2.146371          0.119797         -0.218210
     14     14  C        0   3.324800         -2.357683         -0.435982
     15     15  H        0   4.292176         -1.912123         -0.720053
     16     16  O        0   2.293226         -1.725536         -1.184899
     17     17  N        0   0.320814         -0.519678         -0.894571
     18     18  C        0  -0.588146         -1.558517         -1.116857
     19     19  H        0  -0.272003         -2.540050         -0.764880
     20     20  C        0  -1.743250         -1.373061         -1.759203
     21     21  H        0  -2.384593         -2.238584         -1.924364
     22     22  C        0  -2.162152         -0.041313         -2.320249
     23     23  H        0  -2.460135         -0.183127         -3.370261
     24     24  H        0  -3.063986          0.355858         -1.804718
     25     25  C        0  -1.031482          0.954791         -2.213523
     26     26  C        0   0.097885          0.686072         -1.536203
     27     27  H        0   0.895719          1.431796         -1.474945
     28     28  C        0  -1.175088          2.313598         -2.797260
     29     29  O        0  -0.466766          3.258098         -2.457125
     30     30  N        0  -2.187486          2.466761         -3.692601
     31     31  H        0  -2.166232          3.352321         -4.192663
     32     32  H        0  -2.532185          1.666811         -4.226788
     33     33  C        0   0.507833          2.096508          3.697864
     34     34  C        0  -1.051230          2.213035          1.440451
     35     35  C        0  -1.778620          2.974397          0.408239
     36     36  C        0  -3.876823          3.387941         -0.891195
     37     37  C        0  -3.012438          2.607774          0.042639
     38     38  O        0  -1.113203          1.005302          1.606687
     39     39  S        0  -0.139708          3.279691          2.498004
     40     40  H        0  -0.330682          1.619863          4.226788
     41     41  H        0   1.084829          1.325252          3.170047
     42     42  H        0  -4.196157          2.762747         -1.736704
     43     43  H        0  -3.335558          4.246347         -1.311242
     44     44  H        0  -4.788002          3.734298         -0.375167
     45     45  H        0  -3.427261          1.699114          0.496202
     46     46  H        0  -1.310051          3.884736          0.019079
     47     47  H        0   2.510690         -4.337294         -0.379060
     48     48  H        0   1.145284          2.612112          4.416132
 ---------------------------------------------------------------------------------------------------
                         Z-Matrix orientation:                         
 ---------------------------------------------------------------------
 Center     Atomic      Atomic             Coordinates (Angstroms)
 Number     Number       Type             X           Y           Z
 ---------------------------------------------------------------------
      1          6           0        3.400864   -3.841843   -0.766640
      2          1           0        3.456178   -3.971872   -1.854777
      3          1           0        4.309403   -4.246347   -0.301299
      4          6           0        1.592513   -1.557073    0.986334
      5          1           0        0.967923   -2.462024    0.864154
      6          8           0        1.126690   -0.794584    2.061832
      7          1           0        0.519320   -0.112972    1.725181
      8          6           0        3.048288   -2.024642    1.059788
      9          1           0        3.165542   -2.922870    1.691149
     10          8           0        3.849942   -0.977593    1.530471
     11          1           0        4.788002   -1.172700    1.287342
     12          6           0        1.601065   -0.827932   -0.352388
     13          1           0        2.146371    0.119797   -0.218210
     14          6           0        3.324800   -2.357683   -0.435982
     15          1           0        4.292176   -1.912123   -0.720053
     16          8           0        2.293226   -1.725536   -1.184899
     17          7           0        0.320814   -0.519678   -0.894571
     18          6           0       -0.588146   -1.558517   -1.116857
     19          1           0       -0.272003   -2.540050   -0.764880
     20          6           0       -1.743250   -1.373061   -1.759203
     21          1           0       -2.384593   -2.238584   -1.924364
     22          6           0       -2.162152   -0.041313   -2.320249
     23          1           0       -2.460135   -0.183127   -3.370261
     24          1           0       -3.063986    0.355858   -1.804718
     25          6           0       -1.031482    0.954791   -2.213523
     26          6           0        0.097885    0.686072   -1.536203
     27          1           0        0.895719    1.431796   -1.474945
     28          6           0       -1.175088    2.313598   -2.797260
     29          8           0       -0.466766    3.258098   -2.457125
     30          7           0       -2.187486    2.466761   -3.692601
     31          1           0       -2.166232    3.352321   -4.192663
     32          1           0       -2.532185    1.666811   -4.226788
     33          6           0        0.507833    2.096508    3.697864
     34          6           0       -1.051230    2.213035    1.440451
     35          6           0       -1.778620    2.974397    0.408239
     36          6           0       -3.876823    3.387941   -0.891195
     37          6           0       -3.012438    2.607774    0.042639
     38          8           0       -1.113203    1.005302    1.606687
     39         16           0       -0.139708    3.279691    2.498004
     40          1           0       -0.330682    1.619863    4.226788
     41          1           0        1.084829    1.325252    3.170047
     42          1           0       -4.196157    2.762747   -1.736704
     43          1           0       -3.335558    4.246347   -1.311242
     44          1           0       -4.788002    3.734298   -0.375167
     45          1           0       -3.427261    1.699114    0.496202
     46          1           0       -1.310051    3.884736    0.019079
     47          1           0        2.510690   -4.337294   -0.379060
     48          1           0        1.145284    2.612112    4.416132
 ---------------------------------------------------------------------
                    Distance matrix (angstroms):
                    1          2          3          4          5
     1  C    0.000000
     2  H    1.097274   0.000000
     3  H    1.098003   1.793495   0.000000
     4  C    3.400474   4.168502   4.033818   0.000000
     5  H    3.237683   3.982919   3.963280   1.106335   0.000000
     6  O    4.738977   5.555313   5.256303   1.398241   2.059125
     7  H    5.330755   6.027632   5.962898   1.945011   2.541782
     8  C    2.600456   3.528848   2.894641   1.530783   2.134829
     9  H    2.634504   3.709240   2.651388   2.199223   2.392871
    10  O    3.698962   4.536591   3.775082   2.393296   3.309614
    11  H    3.642433   4.413845   3.492870   3.232569   4.053943
    12  C    3.534762   3.947528   4.361567   1.524433   2.133331
    13  H    4.191553   4.597358   4.873277   2.137657   3.037441
    14  C    1.522449   2.153102   2.134159   2.380079   2.693717
    15  H    2.126129   2.495808   2.371551   3.213409   3.723273
    16  O    2.424986   2.616719   3.346671   2.287713   2.549012
    17  N    4.532091   4.761317   5.490799   2.496239   2.698994
    18  C    4.609602   4.767113   5.645844   3.029635   2.676206
    19  H    3.896745   4.139725   4.910768   2.740331   2.048721
    20  C    5.791543   5.813519   6.856812   4.324251   3.926614
    21  H    6.114105   6.092925   7.174611   4.975339   4.366363
    22  C    6.914106   6.872524   7.977437   5.227669   5.079136
    23  H    7.383519   7.187074   8.470828   6.106685   5.905524
    24  H    7.777697   7.825872   8.820852   5.756062   5.596393
    25  C    6.689309   6.673815   7.696330   4.840857   5.014413
    26  C    5.657199   5.751179   6.602320   3.691721   4.053293
    27  H    5.881217   5.991649   6.728447   3.934051   4.542954
    28  C    7.934242   7.864097   8.907432   6.079251   6.387880
    29  O    8.259870   8.247713   9.152927   6.267688   6.768236
    30  N    8.921288   8.756970   9.938628   7.236855   7.417111
    31  H    9.720400   9.524757  10.715238   8.065502   8.318709
    32  H    8.804485   8.560471   9.858105   7.388044   7.430728
    33  C    7.972794   8.737837   8.406965   4.677348   5.387189
    34  C    7.832875   8.332366   8.572846   4.627020   5.124965
    35  C    8.641095   8.987491   9.471358   5.677407   6.107866
    36  C   10.259143  10.433994  11.209132   7.608674   7.795826
    37  C    9.131425   9.419921  10.035269   6.280293   6.497769
    38  O    7.035929   7.591656   7.786199   3.777765   4.111543
    39  S    8.597080   9.190335   9.179975   5.355373   6.071540
    40  H    8.287882   9.088082   8.743362   4.928706   5.445685
    41  H    6.896405   7.676697   7.313744   3.651595   4.435569
    42  H   10.113177  10.194472  11.114511   7.719099   7.792972
    43  H   10.540151  10.675309  11.471324   7.952637   8.261630
    44  H   11.162826  11.381599  12.102022   8.400194   8.547572
    45  H    8.883708   9.223281   9.789816   6.003425   6.063670
    46  H    9.083506   9.378409   9.889157   6.242895   6.795930
    47  H    1.090000   1.790314   1.802689   3.230631   2.728067
    48  H    8.579178   9.381544   8.905295   5.417161   6.196358
                    6          7          8          9         10
     6  O    0.000000
     7  H    0.973051   0.000000
     8  C    2.491921   3.239276   0.000000
     9  H    2.970509   3.859945   1.104164   0.000000
    10  O    2.780636   3.446523   1.400179   2.068411   0.000000
    11  H    3.761384   4.419997   1.950434   2.420440   0.988502
    12  C    2.460610   2.449007   2.349641   3.318493   2.936836
    13  H    2.659780   2.545239   2.654308   3.733923   2.676622
    14  C    3.676144   4.192860   1.557146   2.206690   2.459137
    15  H    4.359825   4.842578   2.174340   2.846894   2.476646
    16  O    3.573337   3.770368   2.387091   3.235150   3.218077
    17  N    3.076577   2.658556   3.677438   4.533625   4.306421
    18  C    3.691655   3.375390   4.263650   4.882267   5.200235
    19  H    3.604622   3.566133   3.823532   4.242092   4.969944
    20  C    4.813678   4.341426   5.597330   6.197021   6.500934
    21  H    5.504908   5.125439   6.202188   6.659143   7.238468
    22  C    5.530509   4.853960   6.519734   7.264916   7.200690
    23  H    6.538106   5.903017   7.304741   8.048124   8.029036
    24  H    5.816828   5.051739   7.157658   7.859908   7.791275
    25  C    5.098694   4.365604   6.019644   6.920818   6.448248
    26  C    4.024505   3.384185   4.774099   5.731560   5.123495
    27  H    4.185559   3.573345   4.796394   5.842890   4.854391
    28  C    6.210455   5.404788   7.178722   8.149078   7.403521
    29  O    6.275692   5.461517   7.254766   8.282886   7.244030
    30  N    7.398218   6.582871   8.376827   9.310628   8.694515
    31  H    8.195051   7.364871   9.148289  10.120527   9.364655
    32  H    7.680662   6.921362   8.527391   9.410167   8.992800
    33  C    3.379053   2.961994   5.513369   6.023660   5.031638
    34  C    3.764999   2.820994   5.908371   6.649927   5.848905
    35  C    5.037898   4.067765   6.979538   7.801817   6.968381
    36  C    7.158843   6.199023   9.003308   9.802537   9.199199
    37  C    5.725868   4.765157   7.695860   8.454173   7.884209
    38  O    2.909273   1.982349   5.176646   5.809073   5.345137
    39  S    4.288790   3.541431   6.353560   7.074422   5.914211
    40  H    3.555351   3.159629   5.893194   6.268131   5.611998
    41  H    2.392404   2.115639   4.419294   4.956112   3.954384
    42  H    7.444205   6.518446   9.122579   9.913174   9.455384
    43  H    7.529959   6.563811   9.257461  10.132933   9.327181
    44  H    7.837941   6.883358   9.830154  10.575746  10.022347
    45  H    5.422933   4.513263   7.491109   8.139759   7.822541
    46  H    5.657436   4.715830   7.416127   8.316865   7.249281
    47  H    4.519314   5.122332   2.776266   2.591368   4.089926
    48  H    4.141093   3.880609   6.032077   6.491764   5.341179
                   11         12         13         14         15
    11  H    0.000000
    12  C    3.600576   0.000000
    13  H    3.303854   1.101613   0.000000
    14  C    2.552447   2.306163   2.752095   0.000000
    15  H    2.195957   2.924504   2.997503   1.102286   0.000000
    16  O    3.555490   1.406362   2.088375   1.422896   2.060751
    17  N    5.014275   1.424087   2.049159   3.551408   4.212015
    18  C    5.901864   2.431216   3.331949   4.051346   4.909178
    19  H    5.628936   2.570969   3.636229   3.616411   4.607388
    20  C    7.209635   3.668887   4.442120   5.329683   6.147909
    21  H    7.930781   4.510712   5.385402   5.901410   6.792362
    22  C    7.911978   4.318917   4.796654   6.246813   6.907887
    23  H    8.672255   5.100654   5.589909   6.841357   7.456992
    24  H    8.576190   5.027257   5.451655   7.074838   7.773889
    25  C    7.116788   3.684051   3.844118   5.754071   6.228241
    26  C    5.781404   2.439913   2.500813   4.570329   5.000879
    27  H    5.437233   2.619927   2.205642   4.619527   4.825721
    28  C    8.024755   4.853208   4.743032   6.902571   7.215433
    29  O    7.827234   5.039988   4.657269   7.070925   7.238517
    30  N    9.311442   6.030352   6.030087   8.016616   8.366402
    31  H    9.943221   6.812837   6.696569   8.767453   9.026872
    32  H    9.594456   6.190191   6.352231   8.054256   8.466278
    33  C    5.900694   5.113908   4.682716   6.698045   7.064586
    34  C    6.751539   4.415475   4.166227   6.600159   7.087784
    35  C    7.816122   5.143785   4.893540   7.428908   7.874369
    36  C   10.031185   6.933337   6.885676   9.224033   9.739225
    37  C    8.757176   5.765807   5.733356   8.065074   8.623720
    38  O    6.298405   3.816540   3.839165   5.931107   6.568349
    39  S    6.750690   5.294109   4.752778   7.238167   7.546683
    40  H    6.529907   5.540054   5.305091   7.136164   7.636555
    41  H    4.847457   4.160559   3.749704   5.620047   5.991707
    42  H   10.263904   6.958239   7.036950   9.191054   9.743705
    43  H   10.104996   7.144086   6.947999   9.420174   9.821333
    44  H   10.887719   7.850773   7.821431  10.145614  10.698161
    45  H    8.738637   5.691232   5.836951   7.932017   8.608717
    46  H    8.023241   5.551740   5.116436   7.788242   8.095359
    47  H    4.240012   3.625431   4.474848   2.141233   3.028435
    48  H    6.114207   5.897493   5.356392   7.279571   7.533395
                   16         17         18         19         20
    16  O    0.000000
    17  N    2.329977   0.000000
    18  C    2.887011   1.398143   0.000000
    19  H    2.724013   2.109538   1.089606   0.000000
    20  C    4.092334   2.395038   1.334641   2.124878   0.000000
    21  H    4.763614   3.366651   2.083694   2.428646   1.089831
    22  C    4.896531   2.902845   2.495507   3.497930   1.504594
    23  H    5.454289   3.738447   3.236336   4.138962   2.127293
    24  H    5.780665   3.612727   3.204335   4.154841   2.176137
    25  C    4.392711   2.396330   2.777758   3.858664   2.476270
    26  C    3.280059   1.383915   2.384254   3.337606   2.771197
    27  H    3.464953   2.115562   3.357388   4.200396   3.861629
    28  C    5.562689   3.726312   4.261634   5.338916   3.871927
    29  O    5.837184   4.163346   5.001083   6.043190   4.854291
    30  N    6.628778   4.799933   5.039366   6.108091   4.321991
    31  H    7.397164   5.661730   6.005603   7.075156   5.331967
    32  H    6.636693   4.901429   4.884025   5.898381   3.994023
    33  C    6.452676   5.288655   6.143445   6.482430   6.847252
    34  C    5.795704   3.847408   4.580269   5.297404   4.855590
    35  C    6.419298   4.279427   4.928534   5.835685   4.857925
    36  C    8.018941   5.734951   5.944221   6.939147   5.288923
    37  C    6.959489   4.665821   4.957781   5.887457   4.550221
    38  O    5.182103   3.261635   3.777107   4.347582   4.169266
    39  S    6.673473   5.114377   6.056118   6.673327   6.507169
    40  H    6.882074   5.588417   6.222774   6.498082   6.839958
    41  H    5.452806   4.528643   5.430701   5.680247   6.290980
    42  H    7.909568   5.646816   5.663504   6.668064   4.808551
    43  H    8.207470   6.021434   6.425146   7.465860   5.857803
    44  H    8.978265   6.668290   6.797263   7.740385   6.105013
    45  H    6.875922   4.572237   4.612449   5.432908   4.166653
    46  H    6.775568   4.784699   5.607182   6.555151   5.567259
    47  H    2.741888   4.431196   4.227143   3.335015   5.365397
    48  H    7.176664   6.220244   7.142331   7.442873   7.896834
                   21         22         23         24         25
    21  H    0.000000
    22  C    2.243704   0.000000
    23  H    2.514205   1.100650   0.000000
    24  H    2.684589   1.112125   1.762403   0.000000
    25  C    3.480254   1.510638   2.161932   2.157988   0.000000
    26  C    3.855773   2.500317   3.265386   3.190387   1.344040
    27  H    4.943088   3.497880   4.178751   4.116510   2.118286
    28  C    4.790325   2.597584   2.865888   2.895829   1.485842
    29  O    5.845974   3.712032   4.080364   3.948948   2.384003
    30  N    5.030486   2.859096   2.683310   2.964501   2.410408
    31  H    6.037473   3.875913   3.641719   3.935357   3.309502
    32  H    4.535973   2.586408   2.039878   2.804967   2.610041
    33  C    7.666069   6.922195   7.997748   6.787206   6.214299
    34  C    5.737312   4.523173   5.556038   4.246341   3.864594
    35  C    5.743119   4.084880   4.971064   3.661432   3.392735
    36  C    5.912020   4.091708   4.572231   3.269367   3.970483
    37  C    5.267872   3.650190   4.443203   2.913161   3.427361
    38  O    4.960600   4.197204   5.291181   3.983091   3.821418
    39  S    7.419448   6.191519   7.198057   5.967715   5.329063
    40  H    7.546048   6.998391   8.093238   6.741492   6.512376
    41  H    7.119751   6.523322   7.590626   6.549860   5.796451
    42  H    5.322621   3.512898   3.789519   2.660743   3.675762
    43  H    6.582901   4.558400   4.962476   3.931053   4.117914
    44  H    6.622062   4.993363   5.453051   4.053357   5.021618
    45  H    4.738329   3.544289   4.407686   2.688966   3.692747
    46  H    6.513575   4.648913   5.418287   4.342293   3.694142
    47  H    5.545841   6.637704   7.135369   7.425307   6.627097
    48  H    8.728756   7.959813   9.024429   7.842679   7.171984
                   26         27         28         29         30
    26  C    0.000000
    27  H    1.093799   0.000000
    28  C    2.420654   2.610427   0.000000
    29  O    2.789668   2.481213   1.228614   0.000000
    30  N    3.611624   3.936407   1.360163   2.261304   0.000000
    31  H    4.392254   4.522162   2.002114   2.430876   1.017217
    32  H    3.888234   4.402090   2.074510   3.151167   1.021808
    33  C    5.436253   5.229747   6.713121   6.339009   7.875329
    34  C    3.537308   3.591723   4.240713   4.077358   5.263428
    35  C    3.540983   3.616363   3.328082   3.164136   4.152319
    36  C    4.849169   5.190802   3.476589   3.754662   3.398574
    37  C    3.982435   4.354270   3.395206   3.626594   3.827851
    38  O    3.383254   3.703258   4.594586   4.691220   5.601107
    39  S    4.801889   4.502349   5.481348   4.965958   6.570985
    40  H    5.853862   5.835168   7.108554   6.883097   8.178122
    41  H    4.850918   4.650061   6.456997   6.148854   7.688109
    42  H    4.774053   5.269454   3.233168   3.830501   2.819202
    43  H    4.951233   5.084506   3.257515   3.243402   3.186827
    44  H    5.874656   6.230225   4.575814   4.820208   4.401670
    45  H    4.193278   4.758679   4.036925   4.462858   4.435357
    46  H    3.825263   3.621386   3.227764   2.689868   4.069043
    47  H    5.691644   6.090279   7.979161   8.418645   8.907726
    48  H    6.343262   6.013337   7.583289   7.089265   8.768126
                   31         32         33         34         35
    31  H    0.000000
    32  H    1.725117   0.000000
    33  C    8.425445   8.498615   0.000000
    34  C    5.854330   5.882957   2.745937   0.000000
    35  C    4.632642   4.874537   4.101243   1.474527   0.000000
    36  C    3.718478   3.987044   6.477073   3.847201   2.502400
    37  C    4.382716   4.398188   5.100429   2.440499   1.338052
    38  O    6.344276   6.039912   2.862082   1.220695   2.399249
    39  S    6.991217   7.317661   1.805241   1.756999   2.673268
    40  H    8.789643   8.735660   1.100026   2.938489   4.302628
    41  H    8.299874   8.240911   1.098340   2.888323   4.306577
    42  H    3.240359   3.189106   7.218444   4.504117   3.238836
    43  H    3.235613   3.974899   6.669679   4.113919   2.645473
    44  H    4.646812   4.919166   6.878794   4.424271   3.201180
    45  H    5.129205   4.807165   5.088568   2.607920   2.086169
    46  H    4.330737   4.943702   4.476150   2.209495   1.095317
    47  H    9.774833   8.734122   7.875694   7.674940   8.513451
    48  H    9.253400   9.440203   1.090000   3.720029   4.974302
                   36         37         38         39         40
    36  C    0.000000
    37  C    1.492605   0.000000
    38  O    4.421989   2.936198   0.000000
    39  S    5.046229   3.838342   2.629636   0.000000
    40  H    6.472632   5.067039   2.802669   2.404203   0.000000
    41  H    6.735456   5.311604   2.716212   2.402282   1.790857
    42  H    1.098966   2.142725   4.875601   5.886830   7.198008
    43  H    1.098302   2.149959   4.894645   5.065397   6.826235
    44  H    1.102948   2.143886   4.987917   5.483468   6.746594
    45  H    2.231393   1.097023   2.658837   4.160942   4.848954
    46  H    2.768343   2.128217   3.293993   2.807286   4.877871
    47  H   10.037025   8.883509   6.754193   8.562743   8.048289
    48  H    7.347870   6.034411   3.946592   2.403348   1.788543
                   41         42         43         44         45
    41  H    0.000000
    42  H    7.350606   0.000000
    43  H    6.939350   1.767121   0.000000
    44  H    7.270639   1.774253   1.802228   0.000000
    45  H    5.258153   2.590055   3.124686   2.598629   0.000000
    46  H    4.713280   3.559669   2.450143   3.503457   3.080125
    47  H    6.833277   9.860810  10.427199  10.882165   8.512554
    48  H    1.792314   8.149299   7.453288   7.708420   6.091600
                   46         47         48
    46  H    0.000000
    47  H    9.075150   0.000000
    48  H    5.194451   8.552920   0.000000
 Symmetry turned off by external request.
 Stoichiometry    C16H24N2O5S
 Framework group  C1[X(C16H24N2O5S)]
 Deg. of freedom   138
 Full point group                 C1      NOp   1
 Rotational constants (GHZ):           0.2866960           0.1637451           0.1205703
 Leave Link  202 at Sun Feb 19 03:49:33 2023, MaxMem=  2684354560 cpu:               0.2 elap:               0.0
 (Enter /storage/apps/GAUSSIAN/G16_RevA03/g16/l301.exe)
 Standard basis: def2TZVP (5D, 7F)
 Ernie: Thresh=  0.10000D-02 Tol=  0.10000D-05 Strict=F.
   894 basis functions,  1434 primitive gaussians,  1014 cartesian basis functions
    95 alpha electrons       95 beta electrons
       nuclear repulsion energy      2415.4839175521 Hartrees.
 IExCor= 4336 DFT=T Ex+Corr=M062X ExCW=0 ScaHFX=  0.540000
 ScaDFX=  1.000000  1.000000  1.000000  1.000000 ScalE2=  1.000000  1.000000
 IRadAn=      5 IRanWt=     -1 IRanGd=            0 ICorTp=0 IEmpDi=131
 NAtoms=   48 NActive=   48 NUniq=   48 SFac= 1.00D+00 NAtFMM=   60 NAOKFM=F Big=F
 Integral buffers will be    131072 words long.
 Raffenetti 2 integral format.
 Two-electron integral symmetry is turned off.
 R6Disp:  Grimme-D3 Dispersion energy=       -0.0041402799 Hartrees.
 Nuclear repulsion after empirical dispersion term =     2415.4797772722 Hartrees.
 Leave Link  301 at Sun Feb 19 03:49:33 2023, MaxMem=  2684354560 cpu:               0.8 elap:               0.1
 (Enter /storage/apps/GAUSSIAN/G16_RevA03/g16/l302.exe)
 NPDir=0 NMtPBC=     1 NCelOv=     1 NCel=       1 NClECP=     1 NCelD=      1
         NCelK=      1 NCelE2=     1 NClLst=     1 CellRange=     0.0.
 One-electron integrals computed using PRISM.
   1 Symmetry operations used in ECPInt.
 ECPInt:  NShTT=   65703 NPrTT=  200010 LenC2=   55723 LenP2D=  117761.
 LDataN:  DoStor=T MaxTD1= 6 Len=  172
 NBasis=   894 RedAO= T EigKep=  3.14D-05  NBF=   894
 NBsUse=   894 1.00D-06 EigRej= -1.00D+00 NBFU=   894
 Precomputing XC quadrature grid using
 IXCGrd= 4 IRadAn=           5 IRanWt=          -1 IRanGd=           0 AccXCQ= 0.00D+00.
 Generated NRdTot=       0 NPtTot=           0 NUsed=           0 NTot=          32
 NSgBfM=   999   999   999   999   999 MxSgAt=    48 MxSgA2=    48.
 Leave Link  302 at Sun Feb 19 03:49:34 2023, MaxMem=  2684354560 cpu:              18.1 elap:               1.2
 (Enter /storage/apps/GAUSSIAN/G16_RevA03/g16/l303.exe)
 DipDrv:  MaxL=1.
 Leave Link  303 at Sun Feb 19 03:49:35 2023, MaxMem=  2684354560 cpu:               2.0 elap:               0.2
 (Enter /storage/apps/GAUSSIAN/G16_RevA03/g16/l401.exe)
 ExpMin= 9.52D-02 ExpMax= 6.07D+04 ExpMxC= 2.07D+03 IAcc=3 IRadAn=         5 AccDes= 0.00D+00
 Harris functional with IExCor= 1009 and IRadAn=       5 diagonalized for initial guess.
 HarFok:  IExCor= 1009 AccDes= 0.00D+00 IRadAn=         5 IDoV= 1 UseB2=F ITyADJ=14
 ICtDFT=  3500011 ScaDFX=  1.000000  1.000000  1.000000  1.000000
 FoFCou: FMM=F IPFlag=           0 FMFlag=      100000 FMFlg1=           0
         NFxFlg=           0 DoJE=T BraDBF=F KetDBF=T FulRan=T
         wScrn=  0.000000 ICntrl=       500 IOpCl=  0 I1Cent=   200000004 NGrid=           0
         NMat0=    1 NMatS0=      1 NMatT0=    0 NMatD0=    1 NMtDS0=    0 NMtDT0=    0
 Symmetry not used in FoFCou.
 Harris En= -1507.23197485012    
 JPrj=0 DoOrth=F DoCkMO=F.
 Leave Link  401 at Sun Feb 19 03:49:38 2023, MaxMem=  2684354560 cpu:              57.7 elap:               3.6
 (Enter /storage/apps/GAUSSIAN/G16_RevA03/g16/l502.exe)
 Two-electron integral symmetry not used.
 Closed shell SCF:
 Using DIIS extrapolation, IDIIS=  1040.
 NGot=  2684354560 LenX=  2682275214 LenY=  2681246004
 Requested convergence on RMS density matrix=1.00D-08 within 128 cycles.
 Requested convergence on MAX density matrix=1.00D-06.
 Requested convergence on             energy=1.00D-06.
 No special actions if energy rises.
 Fock matrices will be formed incrementally for  20 cycles.
 Integral accuracy reduced to 1.0D-05 until final iterations.

 Cycle   1  Pass 0  IDiag  1:
 FoFJK:  IHMeth= 1 ICntrl=       0 DoSepK=F KAlg= 0 I1Cent=           0 FoldK=F
 IRaf= 770000000 NMat=       1 IRICut=       1 DoRegI=T DoRafI=F ISym2E= 0 IDoP0=0 IntGTp=1.
 FoFCou: FMM=F IPFlag=           0 FMFlag=      100000 FMFlg1=           0
         NFxFlg=           0 DoJE=F BraDBF=F KetDBF=F FulRan=T
         wScrn=  0.000000 ICntrl=         0 IOpCl=  0 I1Cent=           0 NGrid=           0
         NMat0=    1 NMatS0=      1 NMatT0=    0 NMatD0=    1 NMtDS0=    0 NMtDT0=    0
 Symmetry not used in FoFCou.
 E= -1507.16659435948    
 DIIS: error= 1.79D-02 at cycle   1 NSaved=   1.
 NSaved= 1 IEnMin= 1 EnMin= -1507.16659435948     IErMin= 1 ErrMin= 1.79D-02
 ErrMax= 1.79D-02  0.00D+00 EMaxC= 1.00D-01 BMatC= 9.93D-01 BMatP= 9.93D-01
 IDIUse=3 WtCom= 8.21D-01 WtEn= 1.79D-01
 Coeff-Com:  0.100D+01
 Coeff-En:   0.100D+01
 Coeff:      0.100D+01
 Gap=     0.392 Goal=   None    Shift=    0.000
 GapD=    0.392 DampG=1.000 DampE=0.500 DampFc=0.5000 IDamp=-1.
 Damping current iteration by 5.00D-01
 RMSDP=4.58D-03 MaxDP=1.67D+00              OVMax= 2.17D-01

 Cycle   2  Pass 0  IDiag  1:
 RMSU=  2.29D-03    CP:  1.03D+00
 E= -1507.50108134593     Delta-E=       -0.334486986446 Rises=F Damp=T
 DIIS: error= 3.62D-03 at cycle   2 NSaved=   2.
 NSaved= 2 IEnMin= 2 EnMin= -1507.50108134593     IErMin= 2 ErrMin= 3.62D-03
 ErrMax= 3.62D-03  0.00D+00 EMaxC= 1.00D-01 BMatC= 8.98D-02 BMatP= 9.93D-01
 IDIUse=3 WtCom= 9.64D-01 WtEn= 3.62D-02
 Coeff-Com:  0.207D-02 0.998D+00
 Coeff-En:   0.521D-01 0.948D+00
 Coeff:      0.388D-02 0.996D+00
 Gap=     0.351 Goal=   None    Shift=    0.000
 RMSDP=1.41D-03 MaxDP=5.45D-01 DE=-3.34D-01 OVMax= 1.67D-01

 Cycle   3  Pass 0  IDiag  1:
 RMSU=  1.03D-03    CP:  1.01D+00  5.83D-01
 E= -1507.86282812490     Delta-E=       -0.361746778977 Rises=F Damp=F
 DIIS: error= 5.03D-03 at cycle   3 NSaved=   3.
 NSaved= 3 IEnMin= 3 EnMin= -1507.86282812490     IErMin= 2 ErrMin= 3.62D-03
 ErrMax= 5.03D-03  0.00D+00 EMaxC= 1.00D-01 BMatC= 5.80D-02 BMatP= 8.98D-02
 IDIUse=3 WtCom= 9.50D-01 WtEn= 5.03D-02
 Coeff-Com: -0.789D-01 0.465D+00 0.614D+00
 Coeff-En:   0.000D+00 0.000D+00 0.100D+01
 Coeff:     -0.749D-01 0.442D+00 0.633D+00
 Gap=     0.226 Goal=   None    Shift=    0.000
 RMSDP=3.74D-04 MaxDP=7.22D-02 DE=-3.62D-01 OVMax= 6.81D-02

 Cycle   4  Pass 0  IDiag  1:
 RMSU=  3.05D-04    CP:  1.01D+00  6.70D-01  9.20D-01
 E= -1507.90026610382     Delta-E=       -0.037437978917 Rises=F Damp=F
 DIIS: error= 2.62D-03 at cycle   4 NSaved=   4.
 NSaved= 4 IEnMin= 4 EnMin= -1507.90026610382     IErMin= 4 ErrMin= 2.62D-03
 ErrMax= 2.62D-03  0.00D+00 EMaxC= 1.00D-01 BMatC= 1.10D-02 BMatP= 5.80D-02
 IDIUse=3 WtCom= 9.74D-01 WtEn= 2.62D-02
 Coeff-Com: -0.365D-01 0.985D-01 0.341D+00 0.597D+00
 Coeff-En:   0.000D+00 0.000D+00 0.130D+00 0.870D+00
 Coeff:     -0.355D-01 0.959D-01 0.335D+00 0.605D+00
 Gap=     0.227 Goal=   None    Shift=    0.000
 RMSDP=1.16D-04 MaxDP=1.22D-02 DE=-3.74D-02 OVMax= 1.74D-02

 Cycle   5  Pass 0  IDiag  1:
 RMSU=  7.79D-05    CP:  1.01D+00  6.64D-01  9.48D-01  7.37D-01
 E= -1507.90832524497     Delta-E=       -0.008059141146 Rises=F Damp=F
 DIIS: error= 4.45D-04 at cycle   5 NSaved=   5.
 NSaved= 5 IEnMin= 5 EnMin= -1507.90832524497     IErMin= 5 ErrMin= 4.45D-04
 ErrMax= 4.45D-04  0.00D+00 EMaxC= 1.00D-01 BMatC= 4.38D-04 BMatP= 1.10D-02
 IDIUse=3 WtCom= 9.96D-01 WtEn= 4.45D-03
 Coeff-Com: -0.106D-01 0.181D-01 0.117D+00 0.269D+00 0.606D+00
 Coeff-En:   0.000D+00 0.000D+00 0.000D+00 0.000D+00 0.100D+01
 Coeff:     -0.105D-01 0.180D-01 0.117D+00 0.268D+00 0.608D+00
 Gap=     0.226 Goal=   None    Shift=    0.000
 RMSDP=5.39D-05 MaxDP=1.85D-02 DE=-8.06D-03 OVMax= 4.10D-03

 Cycle   6  Pass 0  IDiag  1:
 RMSU=  3.19D-05    CP:  1.01D+00  6.47D-01  9.59D-01  7.61D-01  8.73D-01
 E= -1507.90866592350     Delta-E=       -0.000340678530 Rises=F Damp=F
 DIIS: error= 1.26D-04 at cycle   6 NSaved=   6.
 NSaved= 6 IEnMin= 6 EnMin= -1507.90866592350     IErMin= 6 ErrMin= 1.26D-04
 ErrMax= 1.26D-04  0.00D+00 EMaxC= 1.00D-01 BMatC= 5.69D-05 BMatP= 4.38D-04
 IDIUse=3 WtCom= 9.99D-01 WtEn= 1.26D-03
 Coeff-Com:  0.150D-03-0.427D-02 0.110D-01 0.429D-01 0.277D+00 0.673D+00
 Coeff-En:   0.000D+00 0.000D+00 0.000D+00 0.000D+00 0.000D+00 0.100D+01
 Coeff:      0.150D-03-0.427D-02 0.110D-01 0.429D-01 0.277D+00 0.673D+00
 Gap=     0.227 Goal=   None    Shift=    0.000
 RMSDP=1.87D-05 MaxDP=1.42D-03 DE=-3.41D-04 OVMax= 2.69D-03

 Cycle   7  Pass 0  IDiag  1:
 RMSU=  1.70D-05    CP:  1.01D+00  6.47D-01  9.64D-01  7.68D-01  9.51D-01
                    CP:  9.75D-01
 E= -1507.90873623170     Delta-E=       -0.000070308198 Rises=F Damp=F
 DIIS: error= 4.86D-05 at cycle   7 NSaved=   7.
 NSaved= 7 IEnMin= 7 EnMin= -1507.90873623170     IErMin= 7 ErrMin= 4.86D-05
 ErrMax= 4.86D-05  0.00D+00 EMaxC= 1.00D-01 BMatC= 8.28D-06 BMatP= 5.69D-05
 IDIUse=1 WtCom= 1.00D+00 WtEn= 0.00D+00
 Coeff-Com:  0.174D-02-0.478D-02-0.116D-01-0.239D-01 0.164D-01 0.272D+00
 Coeff-Com:  0.750D+00
 Coeff:      0.174D-02-0.478D-02-0.116D-01-0.239D-01 0.164D-01 0.272D+00
 Coeff:      0.750D+00
 Gap=     0.227 Goal=   None    Shift=    0.000
 RMSDP=1.80D-05 MaxDP=5.81D-03 DE=-7.03D-05 OVMax= 2.00D-03

 Cycle   8  Pass 0  IDiag  1:
 RMSU=  1.02D-05    CP:  1.01D+00  6.42D-01  9.67D-01  7.75D-01  1.02D+00
                    CP:  1.17D+00  1.26D+00
 E= -1507.90875019025     Delta-E=       -0.000013958552 Rises=F Damp=F
 DIIS: error= 3.54D-05 at cycle   8 NSaved=   8.
 NSaved= 8 IEnMin= 8 EnMin= -1507.90875019025     IErMin= 8 ErrMin= 3.54D-05
 ErrMax= 3.54D-05  0.00D+00 EMaxC= 1.00D-01 BMatC= 1.88D-06 BMatP= 8.28D-06
 IDIUse=1 WtCom= 1.00D+00 WtEn= 0.00D+00
 Coeff-Com:  0.871D-03-0.157D-02-0.713D-02-0.209D-01-0.432D-01 0.122D-03
 Coeff-Com:  0.351D+00 0.721D+00
 Coeff:      0.871D-03-0.157D-02-0.713D-02-0.209D-01-0.432D-01 0.122D-03
 Coeff:      0.351D+00 0.721D+00
 Gap=     0.227 Goal=   None    Shift=    0.000
 RMSDP=1.53D-05 MaxDP=2.43D-03 DE=-1.40D-05 OVMax= 6.57D-04

 Cycle   9  Pass 0  IDiag  1:
 RMSU=  9.73D-06    CP:  1.01D+00  6.41D-01  9.68D-01  7.79D-01  1.07D+00
                    CP:  1.27D+00  1.75D+00  1.56D+00
 E= -1507.90874300832     Delta-E=        0.000007181927 Rises=F Damp=F
 DIIS: error= 1.90D-05 at cycle   9 NSaved=   9.
 NSaved= 9 IEnMin= 8 EnMin= -1507.90875019025     IErMin= 9 ErrMin= 1.90D-05
 ErrMax= 1.90D-05  0.00D+00 EMaxC= 1.00D-01 BMatC= 3.34D-07 BMatP= 1.88D-06
 IDIUse=1 WtCom= 1.00D+00 WtEn= 0.00D+00
 Coeff-Com:  0.181D-03-0.183D-03-0.136D-02-0.633D-02-0.185D-01-0.295D-01
 Coeff-Com:  0.674D-01 0.297D+00 0.691D+00
 Coeff:      0.181D-03-0.183D-03-0.136D-02-0.633D-02-0.185D-01-0.295D-01
 Coeff:      0.674D-01 0.297D+00 0.691D+00
 Gap=     0.227 Goal=   None    Shift=    0.000
 RMSDP=1.92D-05 MaxDP=3.38D-03 DE= 7.18D-06 OVMax= 2.24D-04

 Cycle  10  Pass 0  IDiag  1:
 RMSU=  4.75D-06    CP:  1.01D+00  6.41D-01  9.71D-01  7.84D-01  1.12D+00
                    CP:  1.36D+00  2.26D+00  2.37D+00  2.35D+00
 E= -1507.90873525020     Delta-E=        0.000007758118 Rises=F Damp=F
 DIIS: error= 2.69D-05 at cycle  10 NSaved=  10.
 NSaved=10 IEnMin= 8 EnMin= -1507.90875019025     IErMin= 9 ErrMin= 1.90D-05
 ErrMax= 2.69D-05  0.00D+00 EMaxC= 1.00D-01 BMatC= 3.80D-07 BMatP= 3.34D-07
 IDIUse=1 WtCom= 1.00D+00 WtEn= 0.00D+00
 Coeff-Com:  0.198D-03-0.186D-03-0.152D-02-0.709D-02-0.211D-01-0.344D-01
 Coeff-Com:  0.740D-01 0.339D+00 0.808D+00-0.157D+00
 Coeff:      0.198D-03-0.186D-03-0.152D-02-0.709D-02-0.211D-01-0.344D-01
 Coeff:      0.740D-01 0.339D+00 0.808D+00-0.157D+00
 Gap=     0.227 Goal=   None    Shift=    0.000
 RMSDP=6.27D-06 MaxDP=1.18D-03 DE= 7.76D-06 OVMax= 1.24D-05

 Cycle  11  Pass 0  IDiag  1:
 RMSU=  9.48D-07    CP:  1.01D+00  6.40D-01  9.70D-01  7.82D-01  1.11D+00
                    CP:  1.34D+00  2.11D+00  2.16D+00  1.88D+00  5.88D-01
 E= -1507.90873212157     Delta-E=        0.000003128627 Rises=F Damp=F
 DIIS: error= 2.42D-05 at cycle  11 NSaved=  11.
 NSaved=11 IEnMin= 8 EnMin= -1507.90875019025     IErMin= 9 ErrMin= 1.90D-05
 ErrMax= 2.42D-05  0.00D+00 EMaxC= 1.00D-01 BMatC= 2.95D-07 BMatP= 3.34D-07
 IDIUse=1 WtCom= 1.00D+00 WtEn= 0.00D+00
 Coeff-Com: -0.465D-04 0.226D-03 0.623D-03-0.804D-03-0.694D-02-0.296D-01
 Coeff-Com: -0.246D-01 0.102D+00 0.682D+00-0.311D+01 0.339D+01
 Coeff:     -0.465D-04 0.226D-03 0.623D-03-0.804D-03-0.694D-02-0.296D-01
 Coeff:     -0.246D-01 0.102D+00 0.682D+00-0.311D+01 0.339D+01
 Gap=     0.227 Goal=   None    Shift=    0.000
 RMSDP=2.08D-05 MaxDP=3.28D-03 DE= 3.13D-06 OVMax= 8.75D-05

 Cycle  12  Pass 0  IDiag  1:
 RMSU=  9.01D-06    CP:  1.01D+00  6.38D-01  9.69D-01  7.75D-01  1.08D+00
                    CP:  1.32D+00  1.72D+00  1.86D+00  5.08D-01 -9.98D-01
                    CP:  3.00D+00
 E= -1507.90871359379     Delta-E=        0.000018527782 Rises=F Damp=F
 DIIS: error= 1.74D-05 at cycle  12 NSaved=  12.
 NSaved=12 IEnMin= 8 EnMin= -1507.90875019025     IErMin=12 ErrMin= 1.74D-05
 ErrMax= 1.74D-05  0.00D+00 EMaxC= 1.00D-01 BMatC= 1.42D-07 BMatP= 2.95D-07
 IDIUse=1 WtCom= 1.00D+00 WtEn= 0.00D+00
 Coeff-Com: -0.385D-04 0.196D-03 0.548D-03-0.775D-03-0.630D-02-0.266D-01
 Coeff-Com: -0.212D-01 0.927D-01 0.612D+00-0.282D+01 0.304D+01 0.125D+00
 Coeff:     -0.385D-04 0.196D-03 0.548D-03-0.775D-03-0.630D-02-0.266D-01
 Coeff:     -0.212D-01 0.927D-01 0.612D+00-0.282D+01 0.304D+01 0.125D+00
 Gap=     0.227 Goal=   None    Shift=    0.000
 RMSDP=2.13D-06 MaxDP=2.87D-04 DE= 1.85D-05 OVMax= 7.33D-06

 Initial convergence to 1.0D-05 achieved.  Increase integral accuracy.
 Cycle  13  Pass 1  IDiag  1:
 E= -1507.90866949660     Delta-E=        0.000044097188 Rises=F Damp=F
 DIIS: error= 3.50D-04 at cycle   1 NSaved=   1.
 NSaved= 1 IEnMin= 1 EnMin= -1507.90866949660     IErMin= 1 ErrMin= 3.50D-04
 ErrMax= 3.50D-04  0.00D+00 EMaxC= 1.00D-01 BMatC= 8.38D-05 BMatP= 8.38D-05
 IDIUse=3 WtCom= 9.97D-01 WtEn= 3.50D-03
 Coeff-Com:  0.100D+01
 Coeff-En:   0.100D+01
 Coeff:      0.100D+01
 Gap=     0.227 Goal=   None    Shift=    0.000
 RMSDP=2.13D-06 MaxDP=2.87D-04 DE= 4.41D-05 OVMax= 9.41D-04

 Cycle  14  Pass 1  IDiag  1:
 RMSU=  4.43D-04    CP:  9.94D-01
 E= -1507.90872608117     Delta-E=       -0.000056584563 Rises=F Damp=F
 DIIS: error= 6.80D-06 at cycle   2 NSaved=   2.
 NSaved= 2 IEnMin= 2 EnMin= -1507.90872608117     IErMin= 2 ErrMin= 6.80D-06
 ErrMax= 6.80D-06  0.00D+00 EMaxC= 1.00D-01 BMatC= 6.62D-08 BMatP= 8.38D-05
 IDIUse=1 WtCom= 1.00D+00 WtEn= 0.00D+00
 Coeff-Com: -0.171D-01 0.102D+01
 Coeff:     -0.171D-01 0.102D+01
 Gap=     0.227 Goal=   None    Shift=    0.000
 RMSDP=1.60D-05 MaxDP=1.52D-03 DE=-5.66D-05 OVMax= 7.47D-05

 Cycle  15  Pass 1  IDiag  1:
 RMSU=  5.05D-06    CP:  9.94D-01  1.03D+00
 E= -1507.90872615700     Delta-E=       -0.000000075838 Rises=F Damp=F
 DIIS: error= 3.90D-06 at cycle   3 NSaved=   3.
 NSaved= 3 IEnMin= 3 EnMin= -1507.90872615700     IErMin= 3 ErrMin= 3.90D-06
 ErrMax= 3.90D-06  0.00D+00 EMaxC= 1.00D-01 BMatC= 1.91D-08 BMatP= 6.62D-08
 IDIUse=1 WtCom= 1.00D+00 WtEn= 0.00D+00
 Coeff-Com: -0.675D-02 0.378D+00 0.629D+00
 Coeff:     -0.675D-02 0.378D+00 0.629D+00
 Gap=     0.227 Goal=   None    Shift=    0.000
 RMSDP=4.84D-07 MaxDP=4.65D-05 DE=-7.58D-08 OVMax= 4.58D-05

 Cycle  16  Pass 1  IDiag  1:
 RMSU=  3.14D-07    CP:  9.94D-01  1.03D+00  1.04D+00
 E= -1507.90872617142     Delta-E=       -0.000000014416 Rises=F Damp=F
 DIIS: error= 1.71D-06 at cycle   4 NSaved=   4.
 NSaved= 4 IEnMin= 4 EnMin= -1507.90872617142     IErMin= 4 ErrMin= 1.71D-06
 ErrMax= 1.71D-06  0.00D+00 EMaxC= 1.00D-01 BMatC= 4.05D-09 BMatP= 1.91D-08
 IDIUse=1 WtCom= 1.00D+00 WtEn= 0.00D+00
 Coeff-Com: -0.187D-03 0.523D-03 0.305D+00 0.695D+00
 Coeff:     -0.187D-03 0.523D-03 0.305D+00 0.695D+00
 Gap=     0.227 Goal=   None    Shift=    0.000
 RMSDP=2.69D-07 MaxDP=2.94D-05 DE=-1.44D-08 OVMax= 1.57D-05

 Cycle  17  Pass 1  IDiag  1:
 RMSU=  1.33D-07    CP:  9.94D-01  1.04D+00  1.07D+00  9.57D-01
 E= -1507.90872617503     Delta-E=       -0.000000003605 Rises=F Damp=F
 DIIS: error= 5.56D-07 at cycle   5 NSaved=   5.
 NSaved= 5 IEnMin= 5 EnMin= -1507.90872617503     IErMin= 5 ErrMin= 5.56D-07
 ErrMax= 5.56D-07  0.00D+00 EMaxC= 1.00D-01 BMatC= 4.13D-10 BMatP= 4.05D-09
 IDIUse=1 WtCom= 1.00D+00 WtEn= 0.00D+00
 Coeff-Com:  0.407D-03-0.278D-01 0.109D+00 0.353D+00 0.565D+00
 Coeff:      0.407D-03-0.278D-01 0.109D+00 0.353D+00 0.565D+00
 Gap=     0.227 Goal=   None    Shift=    0.000
 RMSDP=4.55D-08 MaxDP=3.51D-06 DE=-3.61D-09 OVMax= 4.61D-06

 Cycle  18  Pass 1  IDiag  1:
 RMSU=  2.93D-08    CP:  9.94D-01  1.04D+00  1.08D+00  1.00D+00  1.07D+00
 E= -1507.90872617538     Delta-E=       -0.000000000358 Rises=F Damp=F
 DIIS: error= 1.24D-07 at cycle   6 NSaved=   6.
 NSaved= 6 IEnMin= 6 EnMin= -1507.90872617538     IErMin= 6 ErrMin= 1.24D-07
 ErrMax= 1.24D-07  0.00D+00 EMaxC= 1.00D-01 BMatC= 2.75D-11 BMatP= 4.13D-10
 IDIUse=1 WtCom= 1.00D+00 WtEn= 0.00D+00
 Coeff-Com:  0.162D-03-0.987D-02 0.661D-02 0.509D-01 0.212D+00 0.740D+00
 Coeff:      0.162D-03-0.987D-02 0.661D-02 0.509D-01 0.212D+00 0.740D+00
 Gap=     0.227 Goal=   None    Shift=    0.000
 RMSDP=1.69D-08 MaxDP=3.37D-06 DE=-3.58D-10 OVMax= 2.81D-06

 Cycle  19  Pass 1  IDiag  1:
 RMSU=  1.15D-08    CP:  9.94D-01  1.04D+00  1.08D+00  1.02D+00  1.15D+00
                    CP:  1.05D+00
 E= -1507.90872617543     Delta-E=       -0.000000000047 Rises=F Damp=F
 DIIS: error= 8.27D-08 at cycle   7 NSaved=   7.
 NSaved= 7 IEnMin= 7 EnMin= -1507.90872617543     IErMin= 7 ErrMin= 8.27D-08
 ErrMax= 8.27D-08  0.00D+00 EMaxC= 1.00D-01 BMatC= 1.02D-11 BMatP= 2.75D-11
 IDIUse=1 WtCom= 1.00D+00 WtEn= 0.00D+00
 Coeff-Com: -0.155D-06 0.741D-03-0.210D-01-0.538D-01-0.116D-01 0.421D+00
 Coeff-Com:  0.665D+00
 Coeff:     -0.155D-06 0.741D-03-0.210D-01-0.538D-01-0.116D-01 0.421D+00
 Coeff:      0.665D+00
 Gap=     0.227 Goal=   None    Shift=    0.000
 RMSDP=8.13D-09 MaxDP=8.76D-07 DE=-4.68D-11 OVMax= 1.52D-06

 SCF Done:  E(RM062X) =  -1507.90872618     A.U. after   19 cycles
            NFock= 19  Conv=0.81D-08     -V/T= 2.0040
 KE= 1.501875558344D+03 PE=-8.369862847285D+03 EE= 2.944598785493D+03
 Leave Link  502 at Sun Feb 19 03:57:12 2023, MaxMem=  2684354560 cpu:            7255.8 elap:             454.2
 (Enter /storage/apps/GAUSSIAN/G16_RevA03/g16/l601.exe)
 Copying SCF densities to generalized density rwf, IOpCl= 0 IROHF=0.

 **********************************************************************

            Population analysis using the SCF density.

 **********************************************************************

 Alpha  occ. eigenvalues --  -89.90844 -19.63882 -19.63597 -19.62290 -19.61756
 Alpha  occ. eigenvalues --  -19.58279 -14.78912 -14.76813 -10.65022 -10.63921
 Alpha  occ. eigenvalues --  -10.62836 -10.60073 -10.59813 -10.59295 -10.58437
 Alpha  occ. eigenvalues --  -10.57430 -10.55835 -10.55764 -10.55294 -10.54312
 Alpha  occ. eigenvalues --  -10.53958 -10.53682 -10.53655 -10.53602  -8.26787
 Alpha  occ. eigenvalues --   -6.18725  -6.18495  -6.18298  -1.19793  -1.17167
 Alpha  occ. eigenvalues --   -1.15703  -1.15021  -1.13895  -1.08086  -1.01250
 Alpha  occ. eigenvalues --   -0.91788  -0.91197  -0.88580  -0.88246  -0.87035
 Alpha  occ. eigenvalues --   -0.85940  -0.81257  -0.78916  -0.75102  -0.74922
 Alpha  occ. eigenvalues --   -0.72852  -0.70269  -0.68309  -0.66370  -0.65934
 Alpha  occ. eigenvalues --   -0.63311  -0.62627  -0.61086  -0.60371  -0.59666
 Alpha  occ. eigenvalues --   -0.57456  -0.56093  -0.55463  -0.54604  -0.53609
 Alpha  occ. eigenvalues --   -0.53010  -0.52705  -0.51868  -0.51057  -0.50562
 Alpha  occ. eigenvalues --   -0.50299  -0.49553  -0.48974  -0.48920  -0.48623
 Alpha  occ. eigenvalues --   -0.48145  -0.47280  -0.47040  -0.46842  -0.46735
 Alpha  occ. eigenvalues --   -0.46239  -0.44803  -0.44265  -0.43824  -0.43098
 Alpha  occ. eigenvalues --   -0.42340  -0.42179  -0.41192  -0.40059  -0.37840
 Alpha  occ. eigenvalues --   -0.35512  -0.34881  -0.34713  -0.33973  -0.33598
 Alpha  occ. eigenvalues --   -0.32814  -0.32173  -0.32138  -0.29879  -0.24581
 Alpha virt. eigenvalues --   -0.01846   0.00909   0.04750   0.04987   0.05536
 Alpha virt. eigenvalues --    0.06458   0.06765   0.07552   0.08654   0.08747
 Alpha virt. eigenvalues --    0.08927   0.09657   0.10268   0.11110   0.11478
 Alpha virt. eigenvalues --    0.11816   0.12513   0.12745   0.12914   0.13238
 Alpha virt. eigenvalues --    0.13694   0.14158   0.14324   0.14787   0.15174
 Alpha virt. eigenvalues --    0.15562   0.15987   0.16591   0.16808   0.17602
 Alpha virt. eigenvalues --    0.18118   0.18802   0.19216   0.19622   0.20236
 Alpha virt. eigenvalues --    0.21073   0.21371   0.21745   0.21921   0.22473
 Alpha virt. eigenvalues --    0.22676   0.22931   0.23710   0.24263   0.24800
 Alpha virt. eigenvalues --    0.25071   0.25295   0.25543   0.26480   0.26737
 Alpha virt. eigenvalues --    0.27059   0.27197   0.27475   0.28539   0.28792
 Alpha virt. eigenvalues --    0.29175   0.29478   0.29906   0.30891   0.31030
 Alpha virt. eigenvalues --    0.31575   0.32125   0.32339   0.32887   0.33815
 Alpha virt. eigenvalues --    0.33827   0.34433   0.34736   0.35212   0.35839
 Alpha virt. eigenvalues --    0.36832   0.37079   0.37669   0.37976   0.38434
 Alpha virt. eigenvalues --    0.38787   0.38981   0.39745   0.40012   0.40401
 Alpha virt. eigenvalues --    0.40835   0.41051   0.41424   0.41768   0.42019
 Alpha virt. eigenvalues --    0.42481   0.43112   0.43235   0.43589   0.43986
 Alpha virt. eigenvalues --    0.44139   0.44586   0.44776   0.45014   0.45182
 Alpha virt. eigenvalues --    0.45507   0.46092   0.46710   0.46945   0.47784
 Alpha virt. eigenvalues --    0.47908   0.48615   0.48920   0.48997   0.49358
 Alpha virt. eigenvalues --    0.49764   0.50054   0.50321   0.50727   0.50952
 Alpha virt. eigenvalues --    0.51165   0.51302   0.51563   0.51951   0.52213
 Alpha virt. eigenvalues --    0.52948   0.53465   0.53905   0.54286   0.54634
 Alpha virt. eigenvalues --    0.55088   0.55371   0.56107   0.56442   0.57359
 Alpha virt. eigenvalues --    0.57805   0.57992   0.58488   0.58692   0.59023
 Alpha virt. eigenvalues --    0.59610   0.60130   0.60822   0.61298   0.61696
 Alpha virt. eigenvalues --    0.62329   0.62689   0.63151   0.63974   0.64298
 Alpha virt. eigenvalues --    0.64599   0.65807   0.66263   0.66445   0.67181
 Alpha virt. eigenvalues --    0.67972   0.68386   0.68751   0.69441   0.70507
 Alpha virt. eigenvalues --    0.70936   0.71413   0.72239   0.73167   0.73862
 Alpha virt. eigenvalues --    0.74598   0.75126   0.76004   0.76528   0.76560
 Alpha virt. eigenvalues --    0.77762   0.78324   0.78632   0.79878   0.80522
 Alpha virt. eigenvalues --    0.81193   0.81510   0.82123   0.82282   0.82920
 Alpha virt. eigenvalues --    0.84370   0.84498   0.85143   0.85583   0.86382
 Alpha virt. eigenvalues --    0.86990   0.88066   0.88883   0.89554   0.90440
 Alpha virt. eigenvalues --    0.90688   0.91027   0.91642   0.92241   0.93326
 Alpha virt. eigenvalues --    0.93734   0.94548   0.95322   0.95667   0.96606
 Alpha virt. eigenvalues --    0.97352   0.97878   0.98415   0.98949   0.99400
 Alpha virt. eigenvalues --    1.00532   1.01612   1.02031   1.02759   1.03406
 Alpha virt. eigenvalues --    1.04329   1.05334   1.05597   1.06002   1.06182
 Alpha virt. eigenvalues --    1.07169   1.07765   1.08111   1.09194   1.09499
 Alpha virt. eigenvalues --    1.10316   1.11144   1.11269   1.12209   1.12702
 Alpha virt. eigenvalues --    1.12920   1.13533   1.14042   1.14493   1.15687
 Alpha virt. eigenvalues --    1.16509   1.16610   1.17395   1.18697   1.19358
 Alpha virt. eigenvalues --    1.20072   1.20427   1.21780   1.22431   1.24230
 Alpha virt. eigenvalues --    1.25033   1.25629   1.26477   1.26896   1.27274
 Alpha virt. eigenvalues --    1.29137   1.29472   1.30339   1.31088   1.32160
 Alpha virt. eigenvalues --    1.32396   1.33121   1.34113   1.34841   1.35706
 Alpha virt. eigenvalues --    1.35759   1.37274   1.38359   1.38493   1.38874
 Alpha virt. eigenvalues --    1.40758   1.41430   1.42799   1.43610   1.44597
 Alpha virt. eigenvalues --    1.45258   1.46640   1.47085   1.47820   1.48763
 Alpha virt. eigenvalues --    1.50093   1.51413   1.51848   1.52383   1.53293
 Alpha virt. eigenvalues --    1.53423   1.53767   1.54610   1.55493   1.55898
 Alpha virt. eigenvalues --    1.56363   1.56563   1.56610   1.57342   1.57570
 Alpha virt. eigenvalues --    1.58140   1.58636   1.58952   1.59501   1.59828
 Alpha virt. eigenvalues --    1.60786   1.61332   1.61520   1.62203   1.62428
 Alpha virt. eigenvalues --    1.62991   1.64079   1.64180   1.64928   1.65039
 Alpha virt. eigenvalues --    1.65600   1.66111   1.66689   1.67326   1.67593
 Alpha virt. eigenvalues --    1.68541   1.68776   1.69287   1.69504   1.70087
 Alpha virt. eigenvalues --    1.71390   1.71944   1.72504   1.73273   1.73875
 Alpha virt. eigenvalues --    1.74187   1.74347   1.75190   1.76164   1.77352
 Alpha virt. eigenvalues --    1.77807   1.78573   1.79221   1.79833   1.80375
 Alpha virt. eigenvalues --    1.80951   1.81270   1.81719   1.82684   1.83731
 Alpha virt. eigenvalues --    1.83854   1.84350   1.85270   1.85360   1.86219
 Alpha virt. eigenvalues --    1.86971   1.87410   1.88696   1.89832   1.90780
 Alpha virt. eigenvalues --    1.91008   1.91606   1.92058   1.93738   1.94666
 Alpha virt. eigenvalues --    1.94823   1.95802   1.95945   1.96912   1.97239
 Alpha virt. eigenvalues --    1.97821   1.97903   1.99308   1.99729   2.00256
 Alpha virt. eigenvalues --    2.00457   2.01718   2.02787   2.03112   2.03433
 Alpha virt. eigenvalues --    2.04382   2.05165   2.06695   2.07301   2.08880
 Alpha virt. eigenvalues --    2.09154   2.09855   2.10323   2.11458   2.11892
 Alpha virt. eigenvalues --    2.12775   2.13086   2.14636   2.15563   2.15836
 Alpha virt. eigenvalues --    2.16233   2.17591   2.18101   2.18292   2.19354
 Alpha virt. eigenvalues --    2.20078   2.21160   2.21955   2.22278   2.22664
 Alpha virt. eigenvalues --    2.23461   2.24008   2.24501   2.26067   2.27302
 Alpha virt. eigenvalues --    2.27609   2.28134   2.28389   2.28871   2.29570
 Alpha virt. eigenvalues --    2.30421   2.31077   2.31417   2.32293   2.32493
 Alpha virt. eigenvalues --    2.32942   2.33413   2.34694   2.35452   2.35533
 Alpha virt. eigenvalues --    2.35777   2.36427   2.37440   2.38200   2.38971
 Alpha virt. eigenvalues --    2.39690   2.40557   2.41475   2.42491   2.43116
 Alpha virt. eigenvalues --    2.43587   2.43941   2.44759   2.45100   2.45429
 Alpha virt. eigenvalues --    2.46836   2.47425   2.47971   2.49573   2.49813
 Alpha virt. eigenvalues --    2.50957   2.51118   2.51197   2.52437   2.53415
 Alpha virt. eigenvalues --    2.54860   2.55074   2.55669   2.56693   2.57681
 Alpha virt. eigenvalues --    2.58229   2.58822   2.59089   2.59790   2.60458
 Alpha virt. eigenvalues --    2.60524   2.61505   2.61970   2.62591   2.63506
 Alpha virt. eigenvalues --    2.63689   2.64715   2.64867   2.65784   2.66576
 Alpha virt. eigenvalues --    2.66735   2.67620   2.68239   2.68585   2.69617
 Alpha virt. eigenvalues --    2.70139   2.70527   2.71084   2.72242   2.72858
 Alpha virt. eigenvalues --    2.73348   2.74063   2.75110   2.75923   2.76434
 Alpha virt. eigenvalues --    2.77092   2.78068   2.79114   2.80161   2.81288
 Alpha virt. eigenvalues --    2.81475   2.82751   2.83602   2.84569   2.85614
 Alpha virt. eigenvalues --    2.85962   2.86150   2.86789   2.88415   2.88849
 Alpha virt. eigenvalues --    2.89336   2.89768   2.91268   2.91941   2.92492
 Alpha virt. eigenvalues --    2.93450   2.94917   2.95151   2.96191   2.96803
 Alpha virt. eigenvalues --    2.97503   2.98194   2.99347   3.00381   3.00564
 Alpha virt. eigenvalues --    3.01428   3.02070   3.02750   3.03250   3.03401
 Alpha virt. eigenvalues --    3.04471   3.04859   3.05265   3.05840   3.06481
 Alpha virt. eigenvalues --    3.07476   3.07682   3.08182   3.09456   3.09663
 Alpha virt. eigenvalues --    3.10461   3.10977   3.11317   3.11871   3.12378
 Alpha virt. eigenvalues --    3.12612   3.13269   3.13923   3.14382   3.15421
 Alpha virt. eigenvalues --    3.16164   3.16429   3.17022   3.17432   3.18790
 Alpha virt. eigenvalues --    3.18949   3.19105   3.19995   3.20434   3.20729
 Alpha virt. eigenvalues --    3.21116   3.21545   3.21676   3.22434   3.23935
 Alpha virt. eigenvalues --    3.24239   3.25923   3.26508   3.26643   3.27300
 Alpha virt. eigenvalues --    3.27530   3.28304   3.28512   3.29169   3.29246
 Alpha virt. eigenvalues --    3.30932   3.31306   3.31808   3.32540   3.33577
 Alpha virt. eigenvalues --    3.34271   3.34920   3.35966   3.36385   3.36734
 Alpha virt. eigenvalues --    3.36952   3.37718   3.38609   3.38698   3.38960
 Alpha virt. eigenvalues --    3.39312   3.40243   3.40429   3.41717   3.42197
 Alpha virt. eigenvalues --    3.43062   3.43259   3.43931   3.45004   3.45186
 Alpha virt. eigenvalues --    3.45375   3.46323   3.47187   3.48234   3.49302
 Alpha virt. eigenvalues --    3.49672   3.49894   3.51129   3.52022   3.52549
 Alpha virt. eigenvalues --    3.53008   3.53534   3.53895   3.54545   3.56233
 Alpha virt. eigenvalues --    3.56356   3.57797   3.58547   3.58735   3.59435
 Alpha virt. eigenvalues --    3.60678   3.62240   3.62667   3.63433   3.64716
 Alpha virt. eigenvalues --    3.65394   3.66319   3.67162   3.67300   3.68834
 Alpha virt. eigenvalues --    3.68925   3.71466   3.71627   3.72747   3.73222
 Alpha virt. eigenvalues --    3.74028   3.74487   3.75214   3.76264   3.77170
 Alpha virt. eigenvalues --    3.78188   3.78527   3.78827   3.79823   3.80866
 Alpha virt. eigenvalues --    3.82103   3.83337   3.85541   3.86686   3.87881
 Alpha virt. eigenvalues --    3.88393   3.90017   3.90812   3.92209   3.92507
 Alpha virt. eigenvalues --    3.93419   3.94502   3.95630   3.95931   3.97993
 Alpha virt. eigenvalues --    4.00528   4.00874   4.02280   4.03831   4.07315
 Alpha virt. eigenvalues --    4.08512   4.08689   4.10255   4.10732   4.11638
 Alpha virt. eigenvalues --    4.12899   4.13164   4.13997   4.14914   4.16267
 Alpha virt. eigenvalues --    4.19038   4.19349   4.20384   4.21134   4.21838
 Alpha virt. eigenvalues --    4.24980   4.26332   4.27623   4.28638   4.29542
 Alpha virt. eigenvalues --    4.33008   4.33584   4.35961   4.36551   4.37839
 Alpha virt. eigenvalues --    4.39573   4.40073   4.40602   4.40998   4.41668
 Alpha virt. eigenvalues --    4.42994   4.44932   4.47227   4.48236   4.49456
 Alpha virt. eigenvalues --    4.50490   4.52508   4.54061   4.56668   4.57610
 Alpha virt. eigenvalues --    4.59438   4.61528   4.63837   4.64792   4.67043
 Alpha virt. eigenvalues --    4.68193   4.69847   4.70199   4.71858   4.74267
 Alpha virt. eigenvalues --    4.75355   4.76785   4.78283   4.79386   4.80685
 Alpha virt. eigenvalues --    4.83131   4.85947   4.87721   4.91131   4.92030
 Alpha virt. eigenvalues --    4.93318   4.95767   4.96827   4.98031   4.99463
 Alpha virt. eigenvalues --    5.01033   5.01636   5.03300   5.05515   5.08123
 Alpha virt. eigenvalues --    5.10993   5.14810   5.16974   5.18246   5.21347
 Alpha virt. eigenvalues --    5.21821   5.22728   5.24101   5.26753   5.27935
 Alpha virt. eigenvalues --    5.29428   5.30669   5.31249   5.35485   5.35937
 Alpha virt. eigenvalues --    5.38525   5.41895   5.43607   5.44286   5.47177
 Alpha virt. eigenvalues --    5.48306   5.49753   5.53837   5.57610   5.58282
 Alpha virt. eigenvalues --    5.62068   5.66249   5.75193   5.75757   5.77384
 Alpha virt. eigenvalues --    5.79878   5.80325   5.83998   5.84741   5.86675
 Alpha virt. eigenvalues --    5.88350   5.90339   5.91287   5.92810   5.96103
 Alpha virt. eigenvalues --    5.99930   6.02973   6.08214   6.15071   6.20495
 Alpha virt. eigenvalues --    6.22981   6.25362   6.29072   6.30823   6.34274
 Alpha virt. eigenvalues --    6.38345   6.44922   6.45537   6.47719   6.52357
 Alpha virt. eigenvalues --    6.53709   6.60031   6.69480   6.74429   6.74601
 Alpha virt. eigenvalues --    6.78388   6.81433   6.82825   6.85861   6.86623
 Alpha virt. eigenvalues --    6.87420   6.93826   6.98603   6.98837   7.06673
 Alpha virt. eigenvalues --    7.08542   7.09211   7.12592   7.15815   7.24435
 Alpha virt. eigenvalues --    7.26152   7.35127   8.98747   9.38219   9.51043
 Alpha virt. eigenvalues --   19.87789  22.27683  22.42751  22.47766  22.48111
 Alpha virt. eigenvalues --   22.51657  22.64255  22.67011  22.72634  22.82255
 Alpha virt. eigenvalues --   22.86160  22.94474  22.99492  23.02772  23.05591
 Alpha virt. eigenvalues --   23.21841  23.48628  32.18710  33.18270  44.13750
 Alpha virt. eigenvalues --   44.17669  44.22884  44.27063  44.58073
          Condensed to atoms (all electrons):
               1          2          3          4          5          6
     1  C    5.119189   0.421485   0.413099  -0.018340  -0.000416  -0.000095
     2  H    0.421485   0.508820  -0.022549  -0.001516   0.000453  -0.000005
     3  H    0.413099  -0.022549   0.541778   0.001356  -0.000051  -0.000006
     4  C   -0.018340  -0.001516   0.001356   5.620688   0.473997   0.249803
     5  H   -0.000416   0.000453  -0.000051   0.473997   0.555818  -0.030181
     6  O   -0.000095  -0.000005  -0.000006   0.249803  -0.030181   8.013561
     7  H   -0.000004  -0.000008   0.000004  -0.060891  -0.003943   0.295547
     8  C    0.007973   0.013295  -0.008760  -0.168312  -0.087793  -0.058255
     9  H    0.009945  -0.000004  -0.001920  -0.131055   0.003566   0.002109
    10  O    0.007593  -0.000365   0.000259  -0.043441   0.002078   0.001259
    11  H   -0.000734  -0.000188   0.000462   0.012094  -0.000913  -0.000557
    12  C   -0.000534  -0.000009   0.001089  -0.054651  -0.052991  -0.000496
    13  H   -0.000374   0.000051   0.000114  -0.111506   0.006131  -0.000374
    14  C    0.187307  -0.048527  -0.041390   0.163410   0.020463   0.009659
    15  H   -0.077127  -0.006434  -0.003016  -0.012882  -0.000167   0.000032
    16  O   -0.037715   0.000894   0.005528  -0.087667  -0.003490   0.005789
    17  N    0.000608  -0.000105  -0.000053   0.038280  -0.015586  -0.006432
    18  C   -0.001400  -0.000005   0.000020  -0.006131  -0.004022   0.002311
    19  H    0.000033  -0.000074   0.000048  -0.016001  -0.002482   0.001001
    20  C   -0.000053   0.000005  -0.000003   0.004780   0.005721  -0.001842
    21  H    0.000006   0.000001  -0.000000   0.000017   0.000140  -0.000020
    22  C   -0.000009  -0.000002   0.000000   0.000173  -0.000374   0.000188
    23  H   -0.000000   0.000000   0.000000   0.000037   0.000009   0.000000
    24  H    0.000000  -0.000000  -0.000000  -0.000080  -0.000018  -0.000003
    25  C   -0.000069  -0.000007   0.000001  -0.002643  -0.000708  -0.000508
    26  C   -0.000286   0.000036  -0.000005   0.023933  -0.000414  -0.003641
    27  H   -0.000024   0.000000   0.000000   0.001102  -0.000108   0.000098
    28  C    0.000001   0.000000  -0.000000   0.000127   0.000000  -0.000022
    29  O   -0.000000   0.000000   0.000000  -0.000001   0.000000  -0.000000
    30  N   -0.000000   0.000000   0.000000   0.000001  -0.000000  -0.000000
    31  H   -0.000000   0.000000   0.000000   0.000000   0.000000  -0.000000
    32  H   -0.000000   0.000000  -0.000000   0.000001   0.000000  -0.000000
    33  C    0.000000  -0.000000   0.000000   0.000151  -0.000367  -0.013604
    34  C    0.000000  -0.000000  -0.000000  -0.000021   0.000013  -0.000361
    35  C    0.000000   0.000000  -0.000000  -0.000349   0.000032  -0.000079
    36  C   -0.000000   0.000000  -0.000000   0.000000   0.000000   0.000000
    37  C   -0.000000   0.000000   0.000000   0.000143   0.000003   0.000041
    38  O    0.000000   0.000000  -0.000000  -0.001032  -0.000030  -0.018323
    39  S   -0.000000  -0.000000   0.000000   0.000832   0.000019   0.000995
    40  H   -0.000000   0.000000  -0.000000   0.000195   0.000021   0.000210
    41  H   -0.000001   0.000000  -0.000000  -0.004824   0.000571   0.015760
    42  H    0.000000  -0.000000  -0.000000  -0.000000  -0.000000  -0.000000
    43  H    0.000000  -0.000000  -0.000000  -0.000000  -0.000000  -0.000000
    44  H   -0.000000  -0.000000  -0.000000   0.000000  -0.000000   0.000000
    45  H   -0.000000  -0.000000   0.000000   0.000011   0.000002   0.000007
    46  H   -0.000000  -0.000000   0.000000  -0.000007  -0.000000   0.000004
    47  H    0.378638  -0.022343  -0.025056   0.003373  -0.001121   0.000044
    48  H    0.000000   0.000000  -0.000000   0.000052   0.000002   0.000433
               7          8          9         10         11         12
     1  C   -0.000004   0.007973   0.009945   0.007593  -0.000734  -0.000534
     2  H   -0.000008   0.013295  -0.000004  -0.000365  -0.000188  -0.000009
     3  H    0.000004  -0.008760  -0.001920   0.000259   0.000462   0.001089
     4  C   -0.060891  -0.168312  -0.131055  -0.043441   0.012094  -0.054651
     5  H   -0.003943  -0.087793   0.003566   0.002078  -0.000913  -0.052991
     6  O    0.295547  -0.058255   0.002109   0.001259  -0.000557  -0.000496
     7  H    0.423936   0.003858  -0.000938  -0.001302   0.000280   0.001559
     8  C    0.003858   5.594844   0.529443   0.259355  -0.040913   0.028146
     9  H   -0.000938   0.529443   0.575215  -0.056925  -0.002061   0.017911
    10  O   -0.001302   0.259355  -0.056925   8.033854   0.289609  -0.010905
    11  H    0.000280  -0.040913  -0.002061   0.289609   0.429033  -0.001311
    12  C    0.001559   0.028146   0.017911  -0.010905  -0.001311   5.561586
    13  H   -0.003224   0.019620   0.002768   0.015042  -0.001415   0.482583
    14  C   -0.000320   0.033678  -0.111222  -0.046230  -0.005527  -0.118902
    15  H    0.000115  -0.036382   0.011718  -0.007095   0.005607   0.000059
    16  O    0.001365  -0.041958   0.004922   0.007290   0.000388   0.283795
    17  N    0.015031   0.003309  -0.001114  -0.000488   0.000045   0.119775
    18  C    0.000842  -0.004811  -0.000416  -0.000404   0.000023  -0.080866
    19  H    0.000466   0.000839   0.000067  -0.000001   0.000004   0.022983
    20  C   -0.001155  -0.001982   0.000020   0.000012  -0.000001   0.011415
    21  H   -0.000015  -0.000005   0.000000   0.000000  -0.000000   0.000316
    22  C    0.000359   0.000052  -0.000003  -0.000002   0.000000  -0.007018
    23  H   -0.000010   0.000000   0.000000  -0.000000  -0.000000   0.000239
    24  H    0.000090   0.000001  -0.000000   0.000000   0.000000   0.000043
    25  C   -0.000927   0.000040  -0.000003  -0.000051   0.000002  -0.021564
    26  C   -0.003829  -0.003531  -0.000145  -0.000703  -0.000042  -0.079984
    27  H    0.000074  -0.000039  -0.000011  -0.000163   0.000008  -0.003803
    28  C    0.000056   0.000008   0.000000   0.000000  -0.000000  -0.001438
    29  O    0.000024   0.000000   0.000000  -0.000000  -0.000000   0.000446
    30  N    0.000000  -0.000000  -0.000000  -0.000000  -0.000000   0.000013
    31  H   -0.000000  -0.000000   0.000000  -0.000000  -0.000000  -0.000003
    32  H   -0.000000  -0.000000   0.000000  -0.000000  -0.000000  -0.000001
    33  C    0.004746   0.000884   0.000003  -0.000513   0.000039  -0.001116
    34  C   -0.001995  -0.000075  -0.000002   0.000019  -0.000001  -0.001427
    35  C    0.002550  -0.000050  -0.000000   0.000001  -0.000000   0.001270
    36  C   -0.000002  -0.000000  -0.000000  -0.000000  -0.000000   0.000022
    37  C   -0.000705   0.000001  -0.000000  -0.000000  -0.000000  -0.000418
    38  O    0.027949   0.000015   0.000004   0.000005  -0.000000   0.000444
    39  S   -0.003366  -0.000004  -0.000000  -0.000003  -0.000000  -0.000854
    40  H   -0.001636  -0.000011   0.000000   0.000007  -0.000000  -0.000005
    41  H    0.000318  -0.002146   0.000036   0.001767  -0.000134   0.002471
    42  H    0.000001   0.000000  -0.000000   0.000000   0.000000   0.000002
    43  H    0.000001   0.000000  -0.000000   0.000000   0.000000  -0.000000
    44  H   -0.000000  -0.000000  -0.000000   0.000000   0.000000  -0.000000
    45  H   -0.000059   0.000000   0.000000  -0.000000  -0.000000  -0.000017
    46  H   -0.000027   0.000000  -0.000000  -0.000000   0.000000   0.000049
    47  H    0.000035  -0.016822   0.001651   0.000108   0.000143  -0.000993
    48  H   -0.000128  -0.000007   0.000001   0.000007  -0.000001  -0.000011
              13         14         15         16         17         18
     1  C   -0.000374   0.187307  -0.077127  -0.037715   0.000608  -0.001400
     2  H    0.000051  -0.048527  -0.006434   0.000894  -0.000105  -0.000005
     3  H    0.000114  -0.041390  -0.003016   0.005528  -0.000053   0.000020
     4  C   -0.111506   0.163410  -0.012882  -0.087667   0.038280  -0.006131
     5  H    0.006131   0.020463  -0.000167  -0.003490  -0.015586  -0.004022
     6  O   -0.000374   0.009659   0.000032   0.005789  -0.006432   0.002311
     7  H   -0.003224  -0.000320   0.000115   0.001365   0.015031   0.000842
     8  C    0.019620   0.033678  -0.036382  -0.041958   0.003309  -0.004811
     9  H    0.002768  -0.111222   0.011718   0.004922  -0.001114  -0.000416
    10  O    0.015042  -0.046230  -0.007095   0.007290  -0.000488  -0.000404
    11  H   -0.001415  -0.005527   0.005607   0.000388   0.000045   0.000023
    12  C    0.482583  -0.118902   0.000059   0.283795   0.119775  -0.080866
    13  H    0.522922  -0.009014   0.005963  -0.037495  -0.076140   0.012147
    14  C   -0.009014   5.325102   0.410725   0.212106   0.011442  -0.000497
    15  H    0.005963   0.410725   0.636348  -0.036798  -0.001862   0.000224
    16  O   -0.037495   0.212106  -0.036798   8.071264  -0.076386   0.010504
    17  N   -0.076140   0.011442  -0.001862  -0.076386   6.623821   0.305388
    18  C    0.012147  -0.000497   0.000224   0.010504   0.305388   5.007961
    19  H    0.000915  -0.003644   0.000134   0.006224  -0.049641   0.408729
    20  C   -0.000505   0.001333   0.000002  -0.000271  -0.077595   0.510238
    21  H    0.000014   0.000004  -0.000000  -0.000050   0.004264  -0.028792
    22  C   -0.000036  -0.000108   0.000001   0.000314  -0.006479   0.000004
    23  H    0.000004   0.000001   0.000000  -0.000019  -0.000284  -0.002638
[...]
      5        1           0.004229123    0.003532114    0.001582073
      6        8           0.008321464    0.000734208   -0.005561676
      7        1          -0.004465406   -0.005254720    0.002918420
      8        6          -0.003280009   -0.010902325   -0.000722062
      9        1          -0.001141016    0.004957339   -0.002950074
     10        8           0.024936745    0.000965409   -0.005391999
     11        1          -0.023489274    0.005371070    0.007410691
     12        6           0.003876838    0.005173770    0.005672752
     13        1          -0.001183865   -0.002237402   -0.002401380
     14        6           0.007971613   -0.000948985    0.001507878
     15        1          -0.003417320    0.002652612    0.001932821
     16        8           0.003822326   -0.003319165   -0.008264460
     17        7          -0.000560633    0.004596752   -0.005038199
     18        6          -0.007326992   -0.001454692   -0.003353383
     19        1          -0.002655970    0.006791507   -0.002125536
     20        6           0.004128361   -0.005683548    0.001231273
     21        1           0.002738984    0.004988091    0.001671603
     22        6          -0.004147795    0.001886331    0.001675570
     23        1          -0.000589240   -0.000087773    0.002164777
     24        1           0.005937602   -0.003742164   -0.003476141
     25        6           0.001274303    0.001556388   -0.000054542
     26        6          -0.000910470   -0.002294253    0.000715142
     27        1          -0.006016757   -0.004793501    0.001410300
     28        6           0.018756779    0.000640841    0.015877922
     29        8          -0.009417866   -0.007969268   -0.007012916
     30        7          -0.008425230    0.001553698   -0.018913384
     31        1          -0.001106571   -0.006062075    0.003722569
     32        1           0.004474152    0.009441794    0.009165995
     33        6          -0.004774176   -0.012071787   -0.002216960
     34        6          -0.000650059   -0.012139456    0.004225726
     35        6          -0.009721424    0.002639188   -0.005586906
     36        6          -0.002166360    0.001080341   -0.004527564
     37        6           0.006813304   -0.000842281    0.006175695
     38        8           0.001208928    0.012508831   -0.003802063
     39       16           0.006450056    0.003576681    0.004301836
     40        1           0.006190334    0.002948821   -0.003983028
     41        1          -0.002093393    0.005138681    0.005725167
     42        1           0.000287544    0.001762323    0.004239682
     43        1          -0.002997297   -0.003603789    0.003637098
     44        1           0.005924769   -0.001403131   -0.003322238
     45        1           0.002377743    0.004998678   -0.003675147
     46        1          -0.003232848   -0.006152101    0.002983174
     47        1           0.001253419   -0.004323944   -0.000991968
     48        1          -0.001698414    0.002409648   -0.003976549
 -------------------------------------------------------------------
 Cartesian Forces:  Max     0.024936745 RMS     0.006049886
 Leave Link  716 at Sun Feb 19 04:00:09 2023, MaxMem=  2684354560 cpu:               0.4 elap:               0.0
 (Enter /storage/apps/GAUSSIAN/G16_RevA03/g16/l103.exe)

 GradGradGradGradGradGradGradGradGradGradGradGradGradGradGradGradGradGrad
 Berny optimization.
 Search for a local minimum.
 Step number   1 out of a maximum of    2
 All quantities printed in internal units (Hartrees-Bohrs-Radians)
 Second derivative matrix not updated -- first step.
 ITU=  0
     Eigenvalues ---    0.00018   0.00072   0.00081   0.00118   0.00177
     Eigenvalues ---    0.00207   0.00321   0.00365   0.00379   0.00446
     Eigenvalues ---    0.00519   0.00721   0.00809   0.00898   0.00917
     Eigenvalues ---    0.01013   0.01098   0.01225   0.01380   0.01414
     Eigenvalues ---    0.01732   0.01753   0.01980   0.02147   0.02633
     Eigenvalues ---    0.02883   0.03165   0.03319   0.03393   0.03548
     Eigenvalues ---    0.03908   0.04534   0.04840   0.04968   0.05102
     Eigenvalues ---    0.05260   0.05411   0.05485   0.05752   0.05850
     Eigenvalues ---    0.05974   0.06167   0.06252   0.06431   0.06827
     Eigenvalues ---    0.06951   0.07048   0.07453   0.07569   0.07918
     Eigenvalues ---    0.08567   0.08992   0.09161   0.09776   0.10237
     Eigenvalues ---    0.10423   0.11284   0.12025   0.12302   0.12344
     Eigenvalues ---    0.12507   0.12831   0.12871   0.12998   0.13767
     Eigenvalues ---    0.13786   0.14234   0.14913   0.15503   0.16546
     Eigenvalues ---    0.16993   0.17363   0.18120   0.18806   0.19297
     Eigenvalues ---    0.19721   0.19898   0.21238   0.21515   0.21927
     Eigenvalues ---    0.24468   0.26889   0.27270   0.27473   0.30743
     Eigenvalues ---    0.32738   0.33170   0.33952   0.34911   0.36982
     Eigenvalues ---    0.37388   0.37388   0.37388   0.37388   0.39905
     Eigenvalues ---    0.42955   0.43837   0.48060   0.54371   0.55800
     Eigenvalues ---    0.60496   0.64940   0.67894   0.68836   0.72179
     Eigenvalues ---    0.78099   0.81373   0.86771   0.87438   0.87919
     Eigenvalues ---    0.89328   0.90039   0.92016   0.92265   0.92419
     Eigenvalues ---    0.93025   0.95515   0.97346   0.98464   1.00292
     Eigenvalues ---    1.02215   1.06040   1.08155   1.10436   1.12195
     Eigenvalues ---    1.17571   1.17634   1.20951   1.26349   1.30149
     Eigenvalues ---    1.36556   1.41937   1.48943   1.58129   1.65125
     Eigenvalues ---    1.76205   2.13987   2.19269
 Quadratic step=2.913D+00 exceeds max=3.000D-01 adjusted using Lamda=-1.825D-02.
 Angle between NR and scaled steps=  61.86 degrees.
 Angle between quadratic step and forces=  63.48 degrees.
 Linear search not attempted -- first point.
 Variable       Old X    -DE/DX   Delta X   Delta X   Delta X     New X
                                 (Linear)    (Quad)   (Total)
    X1        6.42670  -0.00074   0.00000  -0.01439  -0.01439   6.41231
    Y1       -7.26003   0.00904   0.00000   0.01972   0.01972  -7.24031
    Z1       -1.44874   0.00034   0.00000   0.00950   0.00950  -1.43924
    X2        6.53123  -0.00051   0.00000  -0.00309  -0.00309   6.52814
    Y2       -7.50575  -0.00075   0.00000   0.01313   0.01313  -7.49262
    Z2       -3.50502   0.00575   0.00000   0.02493   0.02493  -3.48009
    X3        8.14359  -0.00597   0.00000  -0.04310  -0.04310   8.10049
    Y3       -8.02443  -0.00204   0.00000  -0.03067  -0.03067  -8.05510
    Z3       -0.56937  -0.00234   0.00000  -0.00937  -0.00937  -0.57875
    X4        3.00941  -0.00829   0.00000   0.00513   0.00513   3.01454
    Y4       -2.94244  -0.00287   0.00000  -0.00525  -0.00525  -2.94770
    Z4        1.86390   0.00365   0.00000  -0.00172  -0.00172   1.86218
    X5        1.82911   0.00423   0.00000   0.03632   0.03632   1.86543
    Y5       -4.65255   0.00353   0.00000  -0.01055  -0.01055  -4.66310
    Z5        1.63301   0.00158   0.00000   0.03542   0.03542   1.66844
    X6        2.12914   0.00832   0.00000   0.06124   0.06124   2.19037
    Y6       -1.50155   0.00073   0.00000   0.00283   0.00283  -1.49871
    Z6        3.89630  -0.00556   0.00000   0.00154   0.00154   3.89784
    X7        0.98137  -0.00447   0.00000  -0.10084  -0.10084   0.88053
    Y7       -0.21349  -0.00525   0.00000  -0.11681  -0.11681  -0.33029
    Z7        3.26012   0.00292   0.00000   0.05914   0.05914   3.31926
    X8        5.76043  -0.00328   0.00000   0.00194   0.00194   5.76237
    Y8       -3.82602  -0.01090   0.00000   0.00574   0.00574  -3.82028
    Z8        2.00271  -0.00072   0.00000  -0.00898  -0.00898   1.99373
    X9        5.98201  -0.00114   0.00000   0.01054   0.01054   5.99255
    Y9       -5.52342   0.00496   0.00000   0.02644   0.02644  -5.49698
    Z9        3.19581  -0.00295   0.00000  -0.01128  -0.01128   3.18453
   X10        7.27534   0.02494   0.00000  -0.01552  -0.01552   7.25982
   Y10       -1.84738   0.00097   0.00000   0.03393   0.03393  -1.81345
   Z10        2.89217  -0.00539   0.00000  -0.00712  -0.00712   2.88505
   X11        9.04801  -0.02349   0.00000  -0.04935  -0.04935   8.99867
   Y11       -2.21608   0.00537   0.00000   0.05420   0.05420  -2.16188
   Z11        2.43272   0.00741   0.00000   0.03572   0.03572   2.46845
   X12        3.02557   0.00388   0.00000   0.00197   0.00197   3.02754
   Y12       -1.56456   0.00517   0.00000  -0.01161  -0.01161  -1.57617
   Z12       -0.66592   0.00567   0.00000  -0.01334  -0.01334  -0.67926
   X13        4.05605  -0.00118   0.00000   0.00003   0.00003   4.05608
   Y13        0.22638  -0.00224   0.00000  -0.01332  -0.01332   0.21306
   Z13       -0.41236  -0.00240   0.00000  -0.04300  -0.04300  -0.45536
   X14        6.28296   0.00797   0.00000   0.01902   0.01902   6.30198
   Y14       -4.45537  -0.00095   0.00000   0.01274   0.01274  -4.44263
   Z14       -0.82389   0.00151   0.00000   0.00221   0.00221  -0.82168
   X15        8.11104  -0.00342   0.00000   0.00039   0.00039   8.11143
   Y15       -3.61339   0.00265   0.00000   0.04747   0.04747  -3.56592
   Z15       -1.36070   0.00193   0.00000   0.01636   0.01636  -1.34434
   X16        4.33357   0.00382   0.00000   0.01902   0.01902   4.35259
   Y16       -3.26079  -0.00332   0.00000  -0.00980  -0.00980  -3.27059
   Z16       -2.23913  -0.00826   0.00000  -0.02221  -0.02221  -2.26135
   X17        0.60625  -0.00056   0.00000  -0.00745  -0.00745   0.59880
   Y17       -0.98205   0.00460   0.00000  -0.01264  -0.01264  -0.99469
   Z17       -1.69049  -0.00504   0.00000  -0.01485  -0.01485  -1.70534
   X18       -1.11144  -0.00733   0.00000  -0.02249  -0.02249  -1.13393
   Y18       -2.94517  -0.00145   0.00000   0.00356   0.00356  -2.94161
   Z18       -2.11055  -0.00335   0.00000  -0.01521  -0.01521  -2.12576
   X19       -0.51401  -0.00266   0.00000  -0.03031  -0.03031  -0.54433
   Y19       -4.80000   0.00679   0.00000   0.02330   0.02330  -4.77670
   Z19       -1.44541  -0.00213   0.00000  -0.01596  -0.01596  -1.46138
   X20       -3.29426   0.00413   0.00000  -0.00937  -0.00937  -3.30364
   Y20       -2.59471  -0.00568   0.00000  -0.00003  -0.00003  -2.59474
   Z20       -3.32441   0.00123   0.00000  -0.00826  -0.00826  -3.33267
   X21       -4.50623   0.00274   0.00000  -0.00825  -0.00825  -4.51448
   Y21       -4.23031   0.00499   0.00000   0.01759   0.01759  -4.21272
   Z21       -3.63652   0.00167   0.00000   0.01090   0.01090  -3.62562
   X22       -4.08587  -0.00415   0.00000  -0.00497  -0.00497  -4.09084
   Y22       -0.07807   0.00189   0.00000  -0.00351  -0.00351  -0.08158
   Z22       -4.38463   0.00168   0.00000  -0.00458  -0.00458  -4.38922
   X23       -4.64898  -0.00059   0.00000  -0.01245  -0.01245  -4.66144
   Y23       -0.34606  -0.00009   0.00000   0.00143   0.00143  -0.34463
   Z23       -6.36887   0.00216   0.00000   0.00302   0.00302  -6.36585
   X24       -5.79009   0.00594   0.00000   0.01605   0.01605  -5.77404
   Y24        0.67247  -0.00374   0.00000  -0.01843  -0.01843   0.65405
   Z24       -3.41042  -0.00348   0.00000  -0.00746  -0.00746  -3.41789
   X25       -1.94922   0.00127   0.00000  -0.00501  -0.00501  -1.95423
   Y25        1.80429   0.00156   0.00000  -0.01035  -0.01035   1.79395
   Z25       -4.18295  -0.00005   0.00000   0.00742   0.00742  -4.17553
   X26        0.18498  -0.00091   0.00000  -0.01954  -0.01954   0.16544
   Y26        1.29649  -0.00229   0.00000  -0.01951  -0.01951   1.27697
   Z26       -2.90300   0.00072   0.00000   0.00954   0.00954  -2.89347
   X27        1.69266  -0.00602   0.00000  -0.04039  -0.04039   1.65227
   Y27        2.70570  -0.00479   0.00000  -0.02578  -0.02578   2.67992
   Z27       -2.78724   0.00141   0.00000   0.03485   0.03485  -2.75239
   X28       -2.22059   0.01876   0.00000   0.02681   0.02681  -2.19378
   Y28        4.37207   0.00064   0.00000  -0.01656  -0.01656   4.35551
   Z28       -5.28606   0.01588   0.00000   0.01221   0.01221  -5.27385
   X29       -0.88206  -0.00942   0.00000   0.02037   0.02037  -0.86169
   Y29        6.15691  -0.00797   0.00000  -0.01853  -0.01853   6.13838
   Z29       -4.64329  -0.00701   0.00000  -0.02305  -0.02305  -4.66635
   X30       -4.13375  -0.00843   0.00000   0.02540   0.02540  -4.10835
   Y30        4.66150   0.00155   0.00000   0.01103   0.01103   4.67253
   Z30       -6.97800  -0.01891   0.00000  -0.00757  -0.00757  -6.98557
   X31       -4.09359  -0.00111   0.00000   0.02144   0.02144  -4.07215
   Y31        6.33497  -0.00606   0.00000  -0.00499  -0.00499   6.32997
   Z31       -7.92299   0.00372   0.00000  -0.00511  -0.00511  -7.92809
   X32       -4.78514   0.00447   0.00000   0.01120   0.01120  -4.77393
   Y32        3.14982   0.00944   0.00000   0.02506   0.02506   3.17488
   Z32       -7.98747   0.00917   0.00000   0.03774   0.03774  -7.94973
   X33        0.95966  -0.00477   0.00000  -0.00512  -0.00512   0.95454
   Y33        3.96183  -0.01207   0.00000  -0.02980  -0.02980   3.93203
   Z33        6.98795  -0.00222   0.00000  -0.01799  -0.01799   6.96996
   X34       -1.98654  -0.00065   0.00000  -0.02673  -0.02673  -2.01327
   Y34        4.18203  -0.01214   0.00000   0.02078   0.02078   4.20281
   Z34        2.72206   0.00423   0.00000   0.03079   0.03079   2.75284
   X35       -3.36110  -0.00972   0.00000  -0.03750  -0.03750  -3.39860
   Y35        5.62080   0.00264   0.00000   0.01605   0.01605   5.63685
   Z35        0.77146  -0.00559   0.00000   0.03014   0.03014   0.80160
   X36       -7.32613  -0.00217   0.00000   0.00813   0.00813  -7.31800
   Y36        6.40228   0.00108   0.00000  -0.01000  -0.01000   6.39228
   Z36       -1.68412  -0.00453   0.00000  -0.01223  -0.01223  -1.69634
   X37       -5.69268   0.00681   0.00000  -0.01002  -0.01002  -5.70270
   Y37        4.92798  -0.00084   0.00000   0.00738   0.00738   4.93536
   Z37        0.08058   0.00618   0.00000   0.01362   0.01362   0.09419
   X38       -2.10365   0.00121   0.00000  -0.01505  -0.01505  -2.11870
   Y38        1.89974   0.01251   0.00000   0.02865   0.02865   1.92840
   Z38        3.03620  -0.00380   0.00000  -0.00220  -0.00220   3.03400
   X39       -0.26401   0.00645   0.00000   0.04052   0.04052  -0.22349
   Y39        6.19772   0.00358   0.00000   0.00450   0.00450   6.20222
   Z39        4.72054   0.00430   0.00000   0.00479   0.00479   4.72534
   X40       -0.62490   0.00619   0.00000   0.01226   0.01226  -0.61264
   Y40        3.06110   0.00295   0.00000  -0.02064  -0.02064   3.04046
   Z40        7.98747  -0.00398   0.00000  -0.03049  -0.03049   7.95698
   X41        2.05003  -0.00209   0.00000   0.02834   0.02834   2.07837
   Y41        2.50436   0.00514   0.00000  -0.00681  -0.00681   2.49755
   Z41        5.99052   0.00573   0.00000   0.02980   0.02980   6.02032
   X42       -7.92959   0.00029   0.00000   0.00634   0.00634  -7.92324
   Y42        5.22084   0.00176   0.00000  -0.01388  -0.01388   5.20695
   Z42       -3.28190   0.00424   0.00000   0.00811   0.00811  -3.27379
   X43       -6.30329  -0.00300   0.00000   0.00762   0.00762  -6.29567
   Y43        8.02443  -0.00360   0.00000  -0.02062  -0.02062   8.00381
   Z43       -2.47789   0.00364   0.00000   0.00540   0.00540  -2.47249
   X44       -9.04801   0.00592   0.00000   0.02695   0.02695  -9.02106
   Y44        7.05680  -0.00140   0.00000   0.00345   0.00345   7.06025
   Z44       -0.70896  -0.00332   0.00000  -0.03002  -0.03002  -0.73899
   X45       -6.47658   0.00238   0.00000   0.00045   0.00045  -6.47613
   Y45        3.21086   0.00500   0.00000   0.01135   0.01135   3.22221
   Z45        0.93769  -0.00368   0.00000  -0.01454  -0.01454   0.92314
   X46       -2.47564  -0.00323   0.00000  -0.03863  -0.03863  -2.51427
   Y46        7.34109  -0.00615   0.00000  -0.00646  -0.00646   7.33463
   Z46        0.03605   0.00298   0.00000   0.03240   0.03240   0.06845
   X47        4.74452   0.00125   0.00000  -0.00361  -0.00361   4.74090
   Y47       -8.19630  -0.00432   0.00000  -0.02068  -0.02068  -8.21698
   Z47       -0.71632  -0.00099   0.00000  -0.01908  -0.01908  -0.73540
   X48        2.16427  -0.00170   0.00000  -0.02992  -0.02992   2.13436
   Y48        4.93618   0.00241   0.00000   0.01816   0.01816   4.95434
   Z48        8.34528  -0.00398   0.00000  -0.03841  -0.03841   8.30688
         Item               Value     Threshold  Converged?
 Maximum Force            0.024937     0.000450     NO 
 RMS     Force            0.006050     0.000300     NO 
 Maximum Displacement     0.116808     0.001800     NO 
 RMS     Displacement     0.025004     0.001200     NO 
 Predicted change in Energy=-5.684017D-03
 GradGradGradGradGradGradGradGradGradGradGradGradGradGradGradGradGradGrad

 Leave Link  103 at Sun Feb 19 04:00:09 2023, MaxMem=  2684354560 cpu:               3.7 elap:               0.3
 (Enter /storage/apps/GAUSSIAN/G16_RevA03/g16/l9999.exe)

 Test job not archived.
 1\1\GINC-T044\Force\RM062X\def2TZVP\C16H24N2O5S1\LV87696\19-Feb-2023\0
 \\#P M062X/Def2TZVP scf=(direct,conver=8) EmpiricalDispersion=GD3 NoSy
 mm Force pop=(NBORead) Charge Prop=(Field,Read)\\Gaussian run using SA
 NDER external interface, route from template gau_job.tpl\\0,1\C,3.4008
 637198,-3.8418428196,-0.7666401553\H,3.4561775181,-3.9718718608,-1.854
 7772617\H,4.3094032063,-4.2463472565,-0.30129918\C,1.5925130421,-1.557
 0731241,0.986333699\H,0.9679225055,-2.4620236201,0.8641538157\O,1.1266
 902823,-0.7945838824,2.0618319033\H,0.5193198471,-0.1129718123,1.72518
 12592\C,3.0482877969,-2.0246420477,1.0597884634\H,3.1655416957,-2.9228
 69834,1.6911486273\O,3.8499416849,-0.9775931365,1.530471147\H,4.788002
 2569,-1.1727001959,1.2873418475\C,1.6010648366,-0.8279319461,-0.352388
 3804\H,2.1463705975,0.1197968467,-0.2182095622\C,3.3248001828,-2.35768
 26509,-0.4359816136\H,4.2921755576,-1.9121233013,-0.7200532637\O,2.293
 2258665,-1.7255360429,-1.1848991519\N,0.3208137962,-0.5196783077,-0.89
 4571167\C,-0.5881462872,-1.5585166461,-1.1168566317\H,-0.2720031889,-2
 .5400496013,-0.7648804709\C,-1.7432498992,-1.3730605499,-1.7592026189\
 H,-2.3845932831,-2.2385842904,-1.924364491\C,-2.1621517885,-0.04131301
 89,-2.3202488836\H,-2.4601353434,-0.1831274705,-3.3702607324\H,-3.0639
 85844,0.3558576467,-1.804717522\C,-1.0314822798,0.9547914791,-2.213522
 959\C,0.0978853852,0.6860717634,-1.5362032285\H,0.8957186393,1.4317964
 217,-1.4749447907\C,-1.1750878045,2.3135977606,-2.7972604043\O,-0.4667
 6574,3.2580980722,-2.4571250987\N,-2.1874861149,2.466761057,-3.6926010
 211\H,-2.16623215,3.3523208047,-4.1926633921\H,-2.5321846623,1.6668114
 359,-4.226787991\C,0.5078327379,2.0965077498,3.6978644922\C,-1.0512296
 36,2.213034955,1.4404507092\C,-1.7786201132,2.9743967929,0.4082385664\
 C,-3.8768231775,3.387941168,-0.8911953611\C,-3.012437814,2.6077738739,
 0.0426386\O,-1.1132034742,1.0053015976,1.6066873655\S,-0.1397078304,3.
 2796905822,2.4980044433\H,-0.3306823293,1.6198628081,4.226787991\H,1.0
 848287867,1.3252523997,3.170047075\H,-4.1961572682,2.7627469437,-1.736
 704083\H,-3.3355584285,4.2463472565,-1.3112423614\H,-4.7880022569,3.73
 42977337,-0.3751670779\H,-3.4272608933,1.6991141262,0.4962018086\H,-1.
 3100506333,3.8847359801,0.0190789604\H,2.5106899879,-4.3372942205,-0.3
 790596652\H,1.1452837529,2.6121115627,4.4161324864\\Version=ES64L-G16R
 evA.03\HF=-1507.9087262\RMSD=8.131e-09\RMSF=6.050e-03\Dipole=-0.170694
 7,-0.9647511,-0.8117\Quadrupole=10.2324336,-7.1044122,-3.1280214,-9.99
 85608,9.3621511,0.7353093\PG=C01 [X(C16H24N2O5S1)]\\@


 ERWIN WITH HIS PSI CAN DO
 CALCULATIONS QUITE A FEW.
 BUT ONE THING HAS NOT BEEN SEEN
 JUST WHAT DOES PSI REALLY MEAN.
 -- WALTER HUCKEL, TRANS. BY FELIX BLOCH
 Job cpu time:       0 days  2 hours 49 minutes 18.0 seconds.
 Elapsed time:       0 days  0 hours 10 minutes 36.3 seconds.
 File lengths (MBytes):  RWF=    435 Int=      0 D2E=      0 Chk=     48 Scr=      1
 Normal termination of Gaussian 16 at Sun Feb 19 04:00:09 2023.
