 Entering Gaussian System, Link 0=g16
 Initial command:
 /storage/apps/GAUSSIAN/G16_RevA03/g16/l1.exe "/scratch/tmp/1267154/Gau-201420.inp" -scrdir="/scratch/tmp/1267154/"
 Entering Link 1 = /storage/apps/GAUSSIAN/G16_RevA03/g16/l1.exe PID=    201421.
  
 Copyright (c) 1988,1990,1992,1993,1995,1998,2003,2009,2016,
            Gaussian, Inc.  All Rights Reserved.
  
 This is part of the Gaussian(R) 16 program.  It is based on
 the Gaussian(R) 09 system (copyright 2009, Gaussian, Inc.),
 the Gaussian(R) 03 system (copyright 2003, Gaussian, Inc.),
 the Gaussian(R) 98 system (copyright 1998, Gaussian, Inc.),
 the Gaussian(R) 94 system (copyright 1995, Gaussian, Inc.),
 the Gaussian 92(TM) system (copyright 1992, Gaussian, Inc.),
 the Gaussian 90(TM) system (copyright 1990, Gaussian, Inc.),
 the Gaussian 88(TM) system (copyright 1988, Gaussian, Inc.),
 the Gaussian 86(TM) system (copyright 1986, Carnegie Mellon
 University), and the Gaussian 82(TM) system (copyright 1983,
 Carnegie Mellon University). Gaussian is a federally registered
 trademark of Gaussian, Inc.
  
 This software contains proprietary and confidential information,
 including trade secrets, belonging to Gaussian, Inc.
  
 This software is provided under written license and may be
 used, copied, transmitted, or stored only in accord with that
 written license.
  
 The following legend is applicable only to US Government
 contracts under FAR:
  
                    RESTRICTED RIGHTS LEGEND
  
 Use, reproduction and disclosure by the US Government is
 subject to restrictions as set forth in subparagraphs (a)
 and (c) of the Commercial Computer Software - Restricted
 Rights clause in FAR 52.227-19.
  
 Gaussian, Inc.
 340 Quinnipiac St., Bldg. 40, Wallingford CT 06492
  
  
 ---------------------------------------------------------------
 Warning -- This program may not be used in any manner that
 competes with the business of Gaussian, Inc. or will provide
 assistance to any competitor of Gaussian, Inc.  The licensee
 of this program is prohibited from giving any competitor of
 Gaussian, Inc. access to this program.  By using this program,
 the user acknowledges that Gaussian, Inc. is engaged in the
 business of creating and licensing software in the field of
 computational chemistry and represents and warrants to the
 licensee that it is not a competitor of Gaussian, Inc. and that
 it will not use this program in any manner prohibited above.
 ---------------------------------------------------------------
  

 Cite this work as:
 Gaussian 16, Revision A.03,
 M. J. Frisch, G. W. Trucks, H. B. Schlegel, G. E. Scuseria, 
 M. A. Robb, J. R. Cheeseman, G. Scalmani, V. Barone, 
 G. A. Petersson, H. Nakatsuji, X. Li, M. Caricato, A. V. Marenich, 
 J. Bloino, B. G. Janesko, R. Gomperts, B. Mennucci, H. P. Hratchian, 
 J. V. Ortiz, A. F. Izmaylov, J. L. Sonnenberg, D. Williams-Young, 
 F. Ding, F. Lipparini, F. Egidi, J. Goings, B. Peng, A. Petrone, 
 T. Henderson, D. Ranasinghe, V. G. Zakrzewski, J. Gao, N. Rega, 
 G. Zheng, W. Liang, M. Hada, M. Ehara, K. Toyota, R. Fukuda, 
 J. Hasegawa, M. Ishida, T. Nakajima, Y. Honda, O. Kitao, H. Nakai, 
 T. Vreven, K. Throssell, J. A. Montgomery, Jr., J. E. Peralta, 
 F. Ogliaro, M. J. Bearpark, J. J. Heyd, E. N. Brothers, K. N. Kudin, 
 V. N. Staroverov, T. A. Keith, R. Kobayashi, J. Normand, 
 K. Raghavachari, A. P. Rendell, J. C. Burant, S. S. Iyengar, 
 J. Tomasi, M. Cossi, J. M. Millam, M. Klene, C. Adamo, R. Cammi, 
 J. W. Ochterski, R. L. Martin, K. Morokuma, O. Farkas, 
 J. B. Foresman, and D. J. Fox, Gaussian, Inc., Wallingford CT, 2016.
 
 ******************************************
 Gaussian 16:  ES64L-G16RevA.03 25-Dec-2016
                19-Feb-2023 
 ******************************************
 %chk=gau_job.chk
 %NProcShared=16
 Will use up to   16 processors via shared memory.
 %mem=20GB
 ----------------------------------------------------------------------
 #P M062X/Def2TZVP scf=(direct,conver=8) EmpiricalDispersion=GD3 NoSymm
  Force pop=(NBORead) Charge Prop=(Field,Read)
 ----------------------------------------------------------------------
 1/10=7,18=10,28=-2,30=1,38=1,125=101/1,3;
 2/12=2,15=1,17=6,18=5,29=2,40=1/2;
 3/5=44,7=101,11=2,25=1,30=1,71=1,74=-55,124=31/1,2,3;
 4//1;
 5/5=2,6=8,38=5/2;
 6/7=2,8=2,9=2,10=2,14=2,15=1,28=1,40=2/1,2,7;
 7/7=1,16=-2,29=1,30=1/1,2,3,16;
 1/10=7,18=10,28=-2,30=1/3;
 99/12=1/99;
 Leave Link    1 at Sun Feb 19 04:11:34 2023, MaxMem=  2684354560 cpu:               0.6 elap:               0.0
 (Enter /storage/apps/GAUSSIAN/G16_RevA03/g16/l101.exe)
 ----------------------------------------------------------------------
 Gaussian run using SANDER external interface, route from template gau_
 job.tpl
 ----------------------------------------------------------------------
 Symbolic Z-matrix:
 Charge =  0 Multiplicity = 1
 C                     3.44898  -3.76285  -0.62779 
 H                     3.53547  -3.91653  -1.7121 
 H                     4.34771  -4.14674  -0.12373 
 C                     1.59813  -1.46829   1.06185 
 H                     0.98257  -2.37873   0.92922 
 O                     1.11402  -0.70403   2.12532 
 H                     0.51285  -0.02656   1.77084 
 C                     3.05514  -1.92158   1.16022 
 H                     3.17606  -2.80688   1.81164 
 O                     3.83712  -0.85537   1.61822 
 H                     4.78054  -1.02828   1.37628 
 C                     1.62995  -0.74472  -0.28184 
 H                     2.20999   0.18234  -0.14871 
 C                     3.34392  -2.2737   -0.33006 
 H                     4.30689  -1.818    -0.61105 
 O                     2.30708  -1.66964  -1.10099 
 N                     0.35398  -0.38216  -0.80633 
 C                    -0.6334   -1.35955  -0.96496 
 H                    -0.33426  -2.37929  -0.72237 
 C                    -1.8476   -1.06815  -1.44523 
 H                    -2.55708  -1.88437  -1.58489 
 C                    -2.22884   0.34069  -1.81244 
 H                    -2.89973   0.34709  -2.68524 
 H                    -2.80765   0.87875  -0.96879 
 C                    -0.99142   1.16264  -2.04449 
 C                     0.18535   0.81964  -1.48669 
 H                     1.06322   1.46376  -1.58434 
 C                    -1.07572   2.455    -2.78215 
 O                    -0.35135   3.4027   -2.5081 
 N                    -2.03056   2.54456  -3.7458 
 H                    -1.90542   3.35905  -4.34569 
 H                    -2.37017   1.70645  -4.22636 
 C                     0.52941   2.17388   3.80207 
 C                    -1.10889   2.24032   1.58493 
 C                    -1.81344   2.9321    0.49438 
 C                    -3.81525   3.27411  -0.9457 
 C                    -3.02498   2.52246   0.07844 
 O                    -1.2003    1.04675   1.81963 
 S                    -0.14817   3.32959   2.58521 
 H                    -0.30018   1.7014    4.34569 
 H                     1.10225   1.39135   3.28576 
 H                    -4.0251    2.65769  -1.82878 
 H                    -3.25553   4.14674  -1.30778 
 H                    -4.78054   3.60287  -0.53001 
 H                    -3.49429   1.68382   0.6033 
 H                    -1.32964   3.80773   0.05121 
 H                     2.55334  -4.25771  -0.25222 
 H                     1.17298   2.69992   4.5072 
 
 ITRead=  0  0  0  0  0  0  0  0  0  0  0  0  0  0  0  0  0  0  0  0
 ITRead=  0  0  0  0  0  0  0  0  0  0  0  0  0  0  0  0  0  0  0  0
 ITRead=  0  0  0  0  0  0  0  0
 MicOpt= -1 -1 -1 -1 -1 -1 -1 -1 -1 -1 -1 -1 -1 -1 -1 -1 -1 -1 -1 -1
 MicOpt= -1 -1 -1 -1 -1 -1 -1 -1 -1 -1 -1 -1 -1 -1 -1 -1 -1 -1 -1 -1
 MicOpt= -1 -1 -1 -1 -1 -1 -1 -1
 NAtoms=     48 NQM=       48 NQMF=       0 NMMI=      0 NMMIF=      0
                NMic=       0 NMicF=      0.
                    Isotopes and Nuclear Properties:
 (Nuclear quadrupole moments (NQMom) in fm**2, nuclear magnetic moments (NMagM)
  in nuclear magnetons)

  Atom         1           2           3           4           5           6           7           8           9          10
 IAtWgt=          12           1           1          12           1          16           1          12           1          16
 AtmWgt=  12.0000000   1.0078250   1.0078250  12.0000000   1.0078250  15.9949146   1.0078250  12.0000000   1.0078250  15.9949146
 NucSpn=           0           1           1           0           1           0           1           0           1           0
 AtZEff=  -0.0000000  -0.0000000  -0.0000000  -0.0000000  -0.0000000  -0.0000000  -0.0000000  -0.0000000  -0.0000000  -0.0000000
 NQMom=    0.0000000   0.0000000   0.0000000   0.0000000   0.0000000   0.0000000   0.0000000   0.0000000   0.0000000   0.0000000
 NMagM=    0.0000000   2.7928460   2.7928460   0.0000000   2.7928460   0.0000000   2.7928460   0.0000000   2.7928460   0.0000000
 AtZNuc=   6.0000000   1.0000000   1.0000000   6.0000000   1.0000000   8.0000000   1.0000000   6.0000000   1.0000000   8.0000000

  Atom        11          12          13          14          15          16          17          18          19          20
 IAtWgt=           1          12           1          12           1          16          14          12           1          12
 AtmWgt=   1.0078250  12.0000000   1.0078250  12.0000000   1.0078250  15.9949146  14.0030740  12.0000000   1.0078250  12.0000000
 NucSpn=           1           0           1           0           1           0           2           0           1           0
 AtZEff=  -0.0000000  -0.0000000  -0.0000000  -0.0000000  -0.0000000  -0.0000000  -0.0000000  -0.0000000  -0.0000000  -0.0000000
 NQMom=    0.0000000   0.0000000   0.0000000   0.0000000   0.0000000   0.0000000   2.0440000   0.0000000   0.0000000   0.0000000
 NMagM=    2.7928460   0.0000000   2.7928460   0.0000000   2.7928460   0.0000000   0.4037610   0.0000000   2.7928460   0.0000000
 AtZNuc=   1.0000000   6.0000000   1.0000000   6.0000000   1.0000000   8.0000000   7.0000000   6.0000000   1.0000000   6.0000000

  Atom        21          22          23          24          25          26          27          28          29          30
 IAtWgt=           1          12           1           1          12          12           1          12          16          14
 AtmWgt=   1.0078250  12.0000000   1.0078250   1.0078250  12.0000000  12.0000000   1.0078250  12.0000000  15.9949146  14.0030740
 NucSpn=           1           0           1           1           0           0           1           0           0           2
 AtZEff=  -0.0000000  -0.0000000  -0.0000000  -0.0000000  -0.0000000  -0.0000000  -0.0000000  -0.0000000  -0.0000000  -0.0000000
 NQMom=    0.0000000   0.0000000   0.0000000   0.0000000   0.0000000   0.0000000   0.0000000   0.0000000   0.0000000   2.0440000
 NMagM=    2.7928460   0.0000000   2.7928460   2.7928460   0.0000000   0.0000000   2.7928460   0.0000000   0.0000000   0.4037610
 AtZNuc=   1.0000000   6.0000000   1.0000000   1.0000000   6.0000000   6.0000000   1.0000000   6.0000000   8.0000000   7.0000000

  Atom        31          32          33          34          35          36          37          38          39          40
 IAtWgt=           1           1          12          12          12          12          12          16          32           1
 AtmWgt=   1.0078250   1.0078250  12.0000000  12.0000000  12.0000000  12.0000000  12.0000000  15.9949146  31.9720718   1.0078250
 NucSpn=           1           1           0           0           0           0           0           0           0           1
 AtZEff=  -0.0000000  -0.0000000  -0.0000000  -0.0000000  -0.0000000  -0.0000000  -0.0000000  -0.0000000  -0.0000000  -0.0000000
 NQMom=    0.0000000   0.0000000   0.0000000   0.0000000   0.0000000   0.0000000   0.0000000   0.0000000   0.0000000   0.0000000
 NMagM=    2.7928460   2.7928460   0.0000000   0.0000000   0.0000000   0.0000000   0.0000000   0.0000000   0.0000000   2.7928460
 AtZNuc=   1.0000000   1.0000000   6.0000000   6.0000000   6.0000000   6.0000000   6.0000000   8.0000000  16.0000000   1.0000000

  Atom        41          42          43          44          45          46          47          48
 IAtWgt=           1           1           1           1           1           1           1           1
 AtmWgt=   1.0078250   1.0078250   1.0078250   1.0078250   1.0078250   1.0078250   1.0078250   1.0078250
 NucSpn=           1           1           1           1           1           1           1           1
 AtZEff=  -0.0000000  -0.0000000  -0.0000000  -0.0000000  -0.0000000  -0.0000000  -0.0000000  -0.0000000
 NQMom=    0.0000000   0.0000000   0.0000000   0.0000000   0.0000000   0.0000000   0.0000000   0.0000000
 NMagM=    2.7928460   2.7928460   2.7928460   2.7928460   2.7928460   2.7928460   2.7928460   2.7928460
 AtZNuc=   1.0000000   1.0000000   1.0000000   1.0000000   1.0000000   1.0000000   1.0000000   1.0000000
 Background charge distribution read from input stream:
 Leave Link  101 at Sun Feb 19 04:11:34 2023, MaxMem=  2684354560 cpu:               1.5 elap:               0.1
 (Enter /storage/apps/GAUSSIAN/G16_RevA03/g16/l103.exe)

 GradGradGradGradGradGradGradGradGradGradGradGradGradGradGradGradGradGrad
 Berny optimization.
 Initialization pass.
 Trust Radius=3.00D-01 FncErr=1.00D-07 GrdErr=1.00D-07 EigMax=2.50D+02 EigMin=1.00D-04
 Number of steps in this run=      2 maximum allowed number of steps=      2.
 GradGradGradGradGradGradGradGradGradGradGradGradGradGradGradGradGradGrad

 Leave Link  103 at Sun Feb 19 04:11:34 2023, MaxMem=  2684354560 cpu:               0.3 elap:               0.0
 (Enter /storage/apps/GAUSSIAN/G16_RevA03/g16/l202.exe)
 ---------------------------------------------------------------------------------------------------
                            Z-MATRIX (ANGSTROMS AND DEGREES)
   CD    Cent   Atom    N1       Length/X        N2       Alpha/Y        N3        Beta/Z          J
 ---------------------------------------------------------------------------------------------------
      1      1  C        0   3.448977         -3.762854         -0.627793
      2      2  H        0   3.535465         -3.916526         -1.712100
      3      3  H        0   4.347705         -4.146735         -0.123734
      4      4  C        0   1.598133         -1.468287          1.061850
      5      5  H        0   0.982574         -2.378727          0.929220
      6      6  O        0   1.114022         -0.704032          2.125321
      7      7  H        0   0.512849         -0.026556          1.770843
      8      8  C        0   3.055136         -1.921579          1.160221
      9      9  H        0   3.176065         -2.806884          1.811640
     10     10  O        0   3.837116         -0.855372          1.618218
     11     11  H        0   4.780542         -1.028275          1.376278
     12     12  C        0   1.629948         -0.744725         -0.281844
     13     13  H        0   2.209991          0.182339         -0.148707
     14     14  C        0   3.343922         -2.273701         -0.330056
     15     15  H        0   4.306888         -1.818003         -0.611053
     16     16  O        0   2.307078         -1.669643         -1.100994
     17     17  N        0   0.353980         -0.382160         -0.806330
     18     18  C        0  -0.633396         -1.359547         -0.964958
     19     19  H        0  -0.334263         -2.379291         -0.722367
     20     20  C        0  -1.847600         -1.068153         -1.445225
     21     21  H        0  -2.557083         -1.884373         -1.584891
     22     22  C        0  -2.228841          0.340686         -1.812445
     23     23  H        0  -2.899726          0.347086         -2.685242
     24     24  H        0  -2.807646          0.878746         -0.968790
     25     25  C        0  -0.991421          1.162642         -2.044490
     26     26  C        0   0.185351          0.819641         -1.486692
     27     27  H        0   1.063221          1.463764         -1.584336
     28     28  C        0  -1.075717          2.454995         -2.782148
     29     29  O        0  -0.351354          3.402700         -2.508095
     30     30  N        0  -2.030557          2.544555         -3.745801
     31     31  H        0  -1.905419          3.359050         -4.345685
     32     32  H        0  -2.370169          1.706448         -4.226357
     33     33  C        0   0.529410          2.173884          3.802068
     34     34  C        0  -1.108890          2.240319          1.584927
     35     35  C        0  -1.813436          2.932104          0.494377
     36     36  C        0  -3.815247          3.274115         -0.945698
     37     37  C        0  -3.024982          2.522456          0.078442
     38     38  O        0  -1.200295          1.046751          1.819629
     39     39  S        0  -0.148169          3.329594          2.585209
     40     40  H        0  -0.300177          1.701399          4.345685
     41     41  H        0   1.102253          1.391347          3.285758
     42     42  H        0  -4.025100          2.657690         -1.828778
     43     43  H        0  -3.255535          4.146735         -1.307777
     44     44  H        0  -4.780542          3.602870         -0.530010
     45     45  H        0  -3.494290          1.683821          0.603303
     46     46  H        0  -1.329635          3.807726          0.051206
     47     47  H        0   2.553343         -4.257713         -0.252221
     48     48  H        0   1.172976          2.699915          4.507202
 ---------------------------------------------------------------------------------------------------
                         Z-Matrix orientation:                         
 ---------------------------------------------------------------------
 Center     Atomic      Atomic             Coordinates (Angstroms)
 Number     Number       Type             X           Y           Z
 ---------------------------------------------------------------------
      1          6           0        3.448977   -3.762854   -0.627793
      2          1           0        3.535465   -3.916526   -1.712100
      3          1           0        4.347705   -4.146735   -0.123734
      4          6           0        1.598133   -1.468287    1.061850
      5          1           0        0.982574   -2.378727    0.929220
      6          8           0        1.114022   -0.704032    2.125321
      7          1           0        0.512849   -0.026556    1.770843
      8          6           0        3.055136   -1.921579    1.160221
      9          1           0        3.176065   -2.806884    1.811640
     10          8           0        3.837116   -0.855372    1.618218
     11          1           0        4.780542   -1.028275    1.376278
     12          6           0        1.629948   -0.744725   -0.281844
     13          1           0        2.209991    0.182339   -0.148707
     14          6           0        3.343922   -2.273701   -0.330056
     15          1           0        4.306888   -1.818003   -0.611053
     16          8           0        2.307078   -1.669643   -1.100994
     17          7           0        0.353980   -0.382160   -0.806330
     18          6           0       -0.633396   -1.359547   -0.964958
     19          1           0       -0.334263   -2.379291   -0.722367
     20          6           0       -1.847600   -1.068153   -1.445225
     21          1           0       -2.557083   -1.884373   -1.584891
     22          6           0       -2.228841    0.340686   -1.812445
     23          1           0       -2.899726    0.347086   -2.685242
     24          1           0       -2.807646    0.878746   -0.968790
     25          6           0       -0.991421    1.162642   -2.044490
     26          6           0        0.185351    0.819641   -1.486692
     27          1           0        1.063221    1.463764   -1.584336
     28          6           0       -1.075717    2.454995   -2.782148
     29          8           0       -0.351354    3.402700   -2.508095
     30          7           0       -2.030557    2.544555   -3.745801
     31          1           0       -1.905419    3.359050   -4.345685
     32          1           0       -2.370169    1.706448   -4.226357
     33          6           0        0.529410    2.173884    3.802068
     34          6           0       -1.108890    2.240319    1.584927
     35          6           0       -1.813436    2.932104    0.494377
     36          6           0       -3.815247    3.274115   -0.945698
     37          6           0       -3.024982    2.522456    0.078442
     38          8           0       -1.200295    1.046751    1.819629
     39         16           0       -0.148169    3.329594    2.585209
     40          1           0       -0.300177    1.701399    4.345685
     41          1           0        1.102253    1.391347    3.285758
     42          1           0       -4.025100    2.657690   -1.828778
     43          1           0       -3.255535    4.146735   -1.307777
     44          1           0       -4.780542    3.602870   -0.530010
     45          1           0       -3.494290    1.683821    0.603303
     46          1           0       -1.329635    3.807726    0.051206
     47          1           0        2.553343   -4.257713   -0.252221
     48          1           0        1.172976    2.699915    4.507202
 ---------------------------------------------------------------------
                    Distance matrix (angstroms):
                    1          2          3          4          5
     1  C    0.000000
     2  H    1.098552   0.000000
     3  H    1.099615   1.798787   0.000000
     4  C    3.397875   4.176354   4.017442   0.000000
     5  H    3.228504   3.982292   3.944448   1.106980   0.000000
     6  O    4.731600   5.559613   5.231363   1.396216   2.062169
     7  H    5.322990   6.033155   5.938975   1.938840   2.541983
     8  C    2.596612   3.529979   2.875864   1.529055   2.134914
     9  H    2.634234   3.711767   2.629376   2.200885   2.402786
    10  O    3.694410   4.533505   3.758746   2.387102   3.308132
    11  H    3.642429   4.407980   3.487432   3.228033   4.055631
    12  C    3.540854   3.966983   4.357164   1.526456   2.134417
    13  H    4.162830   4.582769   4.828180   2.136442   3.037686
    14  C    1.522255   2.155367   2.135043   2.373579   2.678203
    15  H    2.125732   2.492227   2.379526   3.202852   3.706469
    16  O    2.430923   2.632655   3.354875   2.284960   2.525645
    17  N    4.586935   4.840869   5.530624   2.493529   2.719108
    18  C    4.749245   4.947299   5.769527   3.016537   2.690353
    19  H    4.029404   4.279891   5.040144   2.783436   2.112298
    20  C    5.998611   6.096052   7.043140   4.280025   3.919883
    21  H    6.365335   6.423782   7.411435   4.944107   4.369704
    22  C    7.104933   7.166670   8.138775   5.116610   5.022462
    23  H    7.837776   7.780558   8.903988   6.129194   5.963778
    24  H    7.797824   7.986377   8.784568   5.389152   5.345965
    25  C    6.781200   6.811837   7.770782   4.824617   5.028012
    26  C    5.691065   5.805631   6.621763   3.704813   4.086779
    27  H    5.824460   5.922485   6.663249   3.985643   4.592298
    28  C    7.985972   7.937524   8.947822   6.108841   6.432394
    29  O    8.326057   8.325386   9.206537   6.345986   6.857070
    30  N    8.917997   8.767104   9.928492   7.237665   7.427886
    31  H    9.654729   9.459017  10.642521   8.051056   8.311872
    32  H    8.759303   8.533220   9.809236   7.334269   7.383056
    33  C    7.961934   8.748458   8.363105   4.681493   5.402304
    34  C    7.855467   8.387322   8.572539   4.621184   5.112706
    35  C    8.589221   8.965657   9.404876   5.596809   6.017615
    36  C   10.118742  10.311434  11.062479   7.471634   7.647812
    37  C    9.050747   9.365148   9.943616   6.185977   6.387952
    38  O    7.123054   7.715870   7.844059   3.838078   4.158323
    39  S    8.577042   9.194688   9.134920   5.328213   6.050274
    40  H    8.285511   9.108786   8.705125   4.943082   5.474040
    41  H    6.883951   7.685871   7.268284   3.656388   4.447590
    42  H    9.926105  10.019784  10.922968   7.549845   7.618979
    43  H   10.391076  10.549756  11.313394   7.791130   8.096134
    44  H   11.044837  11.273626  11.981083   8.302900   8.433408
    45  H    8.910153   9.281295   9.799023   6.006565   6.054158
    46  H    8.978299   9.297447   9.774265   6.117969   6.662539
    47  H    1.090000   1.792266   1.802377   3.228018   2.719136
    48  H    8.562461   9.382876   8.854439   5.424492   6.215369
                    6          7          8          9         10
     6  O    0.000000
     7  H    0.972645   0.000000
     8  C    2.486315   3.229117   0.000000
     9  H    2.961824   3.850274   1.105774   0.000000
    10  O    2.774040   3.429429   1.399304   2.069493   0.000000
    11  H    3.756270   4.401400   1.954916   2.434612   0.989183
    12  C    2.462169   2.444831   2.344290   3.320490   2.914458
    13  H    2.675445   2.570720   2.618020   3.702933   2.616563
    14  C    3.669495   4.180719   1.558305   2.213442   2.459811
    15  H    4.350065   4.824670   2.171410   2.850630   2.473255
    16  O    3.572799   3.763833   2.395027   3.245288   3.224619
    17  N    3.045627   2.606437   3.678774   4.549419   4.270199
    18  C    3.610124   3.251976   4.293895   4.931153   5.187722
    19  H    3.607402   3.531155   3.904058   4.350452   5.020067
    20  C    4.653234   4.123073   5.617251   6.234386   6.461111
    21  H    5.351251   4.912933   6.247722   6.727290   7.225270
    22  C    5.269931   4.526774   6.471090   7.228707   7.070774
    23  H    6.352680   5.625119   7.442769   8.190525   8.083979
    24  H    5.240056   4.398959   6.837157   7.557741   7.338436
    25  C    5.030377   4.270104   6.013087   6.927829   6.387690
    26  C    4.028728   3.381544   4.770336   5.742391   5.077551
    27  H    4.296914   3.712302   4.791749   5.851085   4.830035
    28  C    6.233592   5.423224   7.194486   8.177280   7.379545
    29  O    6.362478   5.551212   7.308124   8.346361   7.259540
    30  N    7.410247   6.596429   8.359406   9.307629   8.646490
    31  H    8.215813   7.397450   9.099843  10.087263   9.290113
    32  H    7.635039   6.876154   8.462372   9.358861   8.902380
    33  C    3.381665   2.994677   5.489214   5.981190   4.988638
    34  C    3.728615   2.793443   5.902617   6.624688   5.835014
    35  C    4.944843   3.974246   6.906850   7.717919   6.894688
    36  C    7.039497   6.083292   8.867485   9.667466   9.065594
    37  C    5.633054   4.677385   7.608385   8.358159   7.801860
    38  O    2.918005   2.022184   5.230153   5.831217   5.388335
    39  S    4.251443   3.516231   6.313998   7.021773   5.859309
    40  H    3.565961   3.205722   5.876332   6.231393   5.576141
    41  H    2.395280   2.157039   4.393989   4.909059   3.912533
    42  H    7.303879   6.383997   8.946147   9.745305   9.275657
    43  H    7.376255   6.410537   9.096154   9.972415   9.159052
    44  H    7.768274   6.818111   9.735208  10.482169   9.937547
    45  H    5.408782   4.510621   7.496936   8.131429   7.824773
    46  H    5.534381   4.588422   7.299388   8.194725   7.134096
    47  H    4.511429   5.114595   2.775664   2.598501   4.089320
    48  H    4.154960   3.918811   6.008579   6.450059   5.299428
                   11         12         13         14         15
    11  H    0.000000
    12  C    3.571556   0.000000
    13  H    3.224732   1.101645   0.000000
    14  C    2.554709   2.297346   2.711239   0.000000
    15  H    2.190321   2.902810   2.934638   1.101781   0.000000
    16  O    3.558968   1.408895   2.084733   1.426281   2.064290
    17  N    4.977519   1.426406   2.048391   3.569947   4.210137
    18  C    5.907779   2.442822   3.335945   4.130113   4.974116
    19  H    5.691291   2.593067   3.655717   3.700555   4.676293
    20  C    7.203800   3.681223   4.439452   5.445076   6.255864
    21  H    7.958779   4.530780   5.390633   6.045499   6.933027
    22  C    7.821347   4.290818   4.743030   6.331524   6.987062
    23  H    8.796254   5.242740   5.707045   7.169279   7.805456
    24  H    8.168027   4.774913   5.131687   6.941736   7.616891
    25  C    7.058139   3.690060   3.847601   5.791626   6.245883
    26  C    5.720767   2.446582   2.509090   4.569808   4.971013
    27  H    5.366001   2.625849   2.240126   4.554498   4.715786
    28  C    7.982572   4.879585   4.784962   6.921455   7.207260
    29  O    7.813979   5.107141   4.743199   7.114805   7.249395
    30  N    9.240772   6.018111   6.041639   7.985482   8.307933
    31  H    9.833187   6.771602   6.681521   8.683821   8.907419
    32  H    9.486880   6.129304   6.318861   7.979573   8.371097
    33  C    5.848966   5.138852   4.732782   6.691558   7.048414
    34  C    6.738890   4.460556   4.272674   6.623524   7.114981
    35  C    7.742279   5.096909   4.915560   7.374174   7.825845
    36  C    9.888869   6.800142   6.818928   9.078050   9.592222
    37  C    8.672846   5.698478   5.738701   7.983291   8.548175
    38  O    6.346078   3.954219   4.031329   6.024654   6.666640
    39  S    6.689150   5.289779   4.789617   7.217367   7.520729
    40  H    6.487080   5.578793   5.367313   7.137467   7.627614
    41  H    4.799009   4.191545   3.805829   5.615316   5.979527
    42  H   10.069659   6.778569   6.915661   8.992623   9.536073
    43  H    9.927911   6.989053   6.850684   9.259092   9.656799
    44  H   10.793320   7.749681   7.791854  10.029007  10.581768
    45  H    8.742185   5.739263   5.946326   7.955771   8.636886
    46  H    7.904238   5.440116   5.070735   7.679274   7.991107
    47  H    4.247551   3.632440   4.454510   2.137142   3.025866
    48  H    6.059424   5.916868   5.393615   7.269727   7.511958
                   16         17         18         19         20
    16  O    0.000000
    17  N    2.357759   0.000000
    18  C    2.959907   1.398342   0.000000
    19  H    2.761095   2.114063   1.090050   0.000000
    20  C    4.212082   2.392850   1.337856   2.128801   0.000000
    21  H    4.892886   3.367060   2.088141   2.435122   1.090453
    22  C    5.012200   2.864567   2.480821   3.489409   1.505000
    23  H    5.804123   3.827364   3.317865   4.227009   2.155809
    24  H    5.715957   3.407662   3.120471   4.097945   2.222408
    25  C    4.448833   2.393649   2.766769   3.837337   2.463454
    26  C    3.293482   1.391278   2.385668   3.329768   2.774594
    27  H    3.405735   2.125029   3.351600   4.179117   3.860419
    28  C    5.593051   3.741302   4.248360   5.306861   3.846523
    29  O    5.897106   4.209355   5.013963   6.051491   4.832905
    30  N    6.600723   4.784576   4.992711   6.021862   4.286931
    31  H    7.318531   5.623929   5.942434   6.966026   5.293027
    32  H    6.560680   4.845602   4.801399   5.754661   3.963103
    33  C    6.478643   5.272710   6.046634   6.476716   6.610224
    34  C    5.845580   3.838684   4.437009   5.221537   4.546813
    35  C    6.379648   4.168198   4.684060   5.646178   4.445816
    36  C    7.870687   5.547092   5.620976   6.642900   4.793376
    37  C    6.884448   4.542796   4.677426   5.648751   4.074342
    38  O    5.311356   3.369454   3.723650   4.353104   3.943488
    39  S    6.678974   5.052901   5.901455   6.600459   6.202632
    40  H    6.915780   5.595748   6.138677   6.506792   6.602998
    41  H    5.483143   4.522214   5.352428   5.687386   6.093683
    42  H    7.704021   5.427930   5.328042   6.341734   4.332496
    43  H    8.050818   5.812998   6.108378   7.173950   5.403354
    44  H    8.852105   6.505393   6.481789   7.456048   5.590906
    45  H    6.914204   4.589610   4.461642   5.315266   3.805446
    46  H    6.674939   4.596202   5.312066   6.314139   5.126577
    47  H    2.734807   4.490450   4.366080   3.476748   5.564607
    48  H    7.199381   6.197061   7.048883   7.444360   7.665090
                   21         22         23         24         25
    21  H    0.000000
    22  C    2.260622   0.000000
    23  H    2.511491   1.100864   0.000000
    24  H    2.842040   1.155975   1.799264   0.000000
    25  C    3.456419   1.503551   2.171940   2.129884   0.000000
    26  C    3.852568   2.482707   3.343281   3.038050   1.346692
    27  H    4.931189   3.485830   4.261914   3.962923   2.126963
    28  C    4.738986   2.596213   2.789208   2.961825   1.490443
    29  O    5.802645   3.658527   3.982758   3.843589   2.375390
    30  N    4.956023   2.938404   2.590195   3.330252   2.425684
    31  H    5.961554   3.953786   3.580174   4.285947   3.309849
    32  H    4.461645   2.777094   2.122106   3.389428   2.637653
    33  C    7.417224   6.518537   7.561836   5.964428   6.125176
    34  C    5.399824   4.050313   5.002577   3.355760   3.787857
    35  C    5.298567   3.494200   4.239378   2.710274   3.201961
    36  C    5.348041   3.445712   3.525860   2.598766   3.693191
    37  C    4.733471   2.994898   3.519357   1.961048   3.239029
    38  O    4.692879   3.840364   4.865333   3.222899   3.871496
    39  S    7.097750   5.709827   6.651623   5.070541   5.180818
    40  H    7.288561   6.594987   7.617464   5.933616   6.449994
    41  H    6.916958   6.179947   7.263550   5.800969   5.731258
    42  H    4.779632   2.931777   2.709038   2.320865   3.388939
    43  H    6.077738   3.974267   4.057259   3.315912   3.817561
    44  H    6.013849   4.335627   4.333893   3.392005   4.754556
    45  H    4.289354   3.039935   3.599291   1.895019   3.680596
    46  H    6.048424   4.037589   4.682880   3.435670   3.391578
    47  H    5.790095   6.815340   7.540538   7.459013   6.719957
    48  H    8.487793   7.554883   8.593833   7.010599   7.069123
                   26         27         28         29         30
    26  C    0.000000
    27  H    1.093199   0.000000
    28  C    2.437803   2.644306   0.000000
    29  O    2.829048   2.571737   1.223908   0.000000
    30  N    3.604046   3.925749   1.359546   2.255670   0.000000
    31  H    4.358183   4.475487   1.987553   2.407023   1.019275
    32  H    3.850048   4.339048   2.078862   3.147270   1.024057
    33  C    5.470223   5.459173   6.782872   6.488751   7.978793
    34  C    3.623290   3.919864   4.372475   4.321785   5.418366
    35  C    3.518847   3.840863   3.392267   3.372534   4.263384
    36  C    4.724606   5.242584   3.398312   3.802127   3.399699
    37  C    3.956698   4.538619   3.462247   3.822733   3.951481
    38  O    3.592124   4.109061   4.814044   5.000040   5.822951
    39  S    4.794943   4.725875   5.516683   5.097880   6.651418
    40  H    5.918603   6.089374   7.209395   7.061965   8.317287
    41  H    4.893244   4.870789   6.534094   6.302956   7.783778
    42  H    4.606879   5.232229   3.106261   3.809582   2.768750
    43  H    4.789704   5.091805   3.128475   3.229337   3.164097
    44  H    5.772495   6.311652   4.485027   4.854955   4.361623
    45  H    4.319102   5.060148   4.231486   4.744827   4.668841
    46  H    3.686321   3.727589   3.149960   2.769675   4.062530
    47  H    5.736796   6.060551   8.039344   8.497539   8.915609
    48  H    6.359057   6.216667   7.632250   7.213313   8.854311
                   31         32         33         34         35
    31  H    0.000000
    32  H    1.720849   0.000000
    33  C    8.585971   8.548781   0.000000
    34  C    6.087543   5.970500   2.757562   0.000000
    35  C    4.859727   4.908922   4.123669   1.471140   0.000000
    36  C    3.900585   3.912614   6.529000   3.846709   2.489586
    37  C    4.639635   4.430118   5.159515   2.453672   1.344863
    38  O    6.622313   6.193364   2.862232   1.219855   2.384699
    39  S    7.150251   7.346382   1.809840   1.763539   2.702350
    40  H    8.992471   8.818435   1.098625   2.926813   4.317078
    41  H    8.435453   8.281840   1.098676   2.915944   4.320530
    42  H    3.364487   3.064644   7.258378   4.509087   3.219287
    43  H    3.416452   3.906019   6.657963   4.075568   2.608206
    44  H    4.783843   4.803051   7.000320   4.450903   3.209831
    45  H    5.461079   4.958808   5.163567   2.638828   2.096507
    46  H    4.457072   4.878076   4.493824   2.204040   1.094156
    47  H    9.728930   8.695167   7.867592   7.681893   8.445094
    48  H    9.395988   9.477126   1.090000   3.736018   5.007528
                   36         37         38         39         40
    36  C    0.000000
    37  C    1.496120   0.000000
    38  O    4.409780   2.922143   0.000000
    39  S    5.090958   3.900180   2.627634   0.000000
    40  H    6.544302   5.129138   2.760387   2.402790   0.000000
    41  H    6.755135   5.347929   2.751365   2.410627   1.785046
    42  H    1.097200   2.157779   4.887281   5.913149   7.274169
    43  H    1.098110   2.147799   4.859484   5.047652   6.831943
    44  H    1.101213   2.149302   4.987255   5.589110   6.889242
    45  H    2.243090   1.095006   2.673522   4.222920   4.920172
    46  H    2.730719   2.127642   3.281316   2.836485   4.892745
    47  H    9.887784   8.786224   6.820534   8.539110   8.049492
    48  H    7.412570   6.104773   3.948217   2.415776   1.786982
                   41         42         43         44         45
    41  H    0.000000
    42  H    7.351996   0.000000
    43  H    6.905291   1.755257   0.000000
    44  H    7.352428   1.775065   1.796206   0.000000
    45  H    5.330039   2.673049   3.126528   2.573245   0.000000
    46  H    4.713310   3.481731   2.381355   3.505500   3.082452
    47  H    6.821644   9.673894  10.270930  10.754152   8.521010
    48  H    1.791446   8.195512   7.451106   7.850682   6.168975
                   46         47         48
    46  H    0.000000
    47  H    8.956611   0.000000
    48  H    5.229360   8.542020   0.000000
 Symmetry turned off by external request.
 Stoichiometry    C16H24N2O5S
 Framework group  C1[X(C16H24N2O5S)]
 Deg. of freedom   138
 Full point group                 C1      NOp   1
 Rotational constants (GHZ):           0.2887070           0.1639330           0.1229143
 Leave Link  202 at Sun Feb 19 04:11:34 2023, MaxMem=  2684354560 cpu:               0.2 elap:               0.0
 (Enter /storage/apps/GAUSSIAN/G16_RevA03/g16/l301.exe)
 Standard basis: def2TZVP (5D, 7F)
 Ernie: Thresh=  0.10000D-02 Tol=  0.10000D-05 Strict=F.
   894 basis functions,  1434 primitive gaussians,  1014 cartesian basis functions
    95 alpha electrons       95 beta electrons
       nuclear repulsion energy      2424.7016577824 Hartrees.
 IExCor= 4336 DFT=T Ex+Corr=M062X ExCW=0 ScaHFX=  0.540000
 ScaDFX=  1.000000  1.000000  1.000000  1.000000 ScalE2=  1.000000  1.000000
 IRadAn=      5 IRanWt=     -1 IRanGd=            0 ICorTp=0 IEmpDi=131
 NAtoms=   48 NActive=   48 NUniq=   48 SFac= 1.00D+00 NAtFMM=   60 NAOKFM=F Big=F
 Integral buffers will be    131072 words long.
 Raffenetti 2 integral format.
 Two-electron integral symmetry is turned off.
 R6Disp:  Grimme-D3 Dispersion energy=       -0.0041360379 Hartrees.
 Nuclear repulsion after empirical dispersion term =     2424.6975217445 Hartrees.
 Leave Link  301 at Sun Feb 19 04:11:34 2023, MaxMem=  2684354560 cpu:               0.8 elap:               0.1
 (Enter /storage/apps/GAUSSIAN/G16_RevA03/g16/l302.exe)
 NPDir=0 NMtPBC=     1 NCelOv=     1 NCel=       1 NClECP=     1 NCelD=      1
         NCelK=      1 NCelE2=     1 NClLst=     1 CellRange=     0.0.
 One-electron integrals computed using PRISM.
   1 Symmetry operations used in ECPInt.
 ECPInt:  NShTT=   65703 NPrTT=  200010 LenC2=   55850 LenP2D=  118271.
 LDataN:  DoStor=T MaxTD1= 6 Len=  172
 NBasis=   894 RedAO= T EigKep=  3.14D-05  NBF=   894
 NBsUse=   894 1.00D-06 EigRej= -1.00D+00 NBFU=   894
 Precomputing XC quadrature grid using
 IXCGrd= 4 IRadAn=           5 IRanWt=          -1 IRanGd=           0 AccXCQ= 0.00D+00.
 Generated NRdTot=       0 NPtTot=           0 NUsed=           0 NTot=          32
 NSgBfM=  1000   999  1000  1000  1000 MxSgAt=    48 MxSgA2=    48.
 Leave Link  302 at Sun Feb 19 04:11:36 2023, MaxMem=  2684354560 cpu:              18.5 elap:               1.2
 (Enter /storage/apps/GAUSSIAN/G16_RevA03/g16/l303.exe)
 DipDrv:  MaxL=1.
 Leave Link  303 at Sun Feb 19 04:11:36 2023, MaxMem=  2684354560 cpu:               2.0 elap:               0.2
 (Enter /storage/apps/GAUSSIAN/G16_RevA03/g16/l401.exe)
 ExpMin= 9.52D-02 ExpMax= 6.07D+04 ExpMxC= 2.07D+03 IAcc=3 IRadAn=         5 AccDes= 0.00D+00
 Harris functional with IExCor= 1009 and IRadAn=       5 diagonalized for initial guess.
 HarFok:  IExCor= 1009 AccDes= 0.00D+00 IRadAn=         5 IDoV= 1 UseB2=F ITyADJ=14
 ICtDFT=  3500011 ScaDFX=  1.000000  1.000000  1.000000  1.000000
 FoFCou: FMM=F IPFlag=           0 FMFlag=      100000 FMFlg1=           0
         NFxFlg=           0 DoJE=T BraDBF=F KetDBF=T FulRan=T
         wScrn=  0.000000 ICntrl=       500 IOpCl=  0 I1Cent=   200000004 NGrid=           0
         NMat0=    1 NMatS0=      1 NMatT0=    0 NMatD0=    1 NMtDS0=    0 NMtDT0=    0
 Symmetry not used in FoFCou.
 Harris En= -1507.21496973552    
 JPrj=0 DoOrth=F DoCkMO=F.
 Leave Link  401 at Sun Feb 19 04:11:39 2023, MaxMem=  2684354560 cpu:              58.0 elap:               3.7
 (Enter /storage/apps/GAUSSIAN/G16_RevA03/g16/l502.exe)
 Two-electron integral symmetry not used.
 Closed shell SCF:
 Using DIIS extrapolation, IDIIS=  1040.
 NGot=  2684354560 LenX=  2682275214 LenY=  2681246004
 Requested convergence on RMS density matrix=1.00D-08 within 128 cycles.
 Requested convergence on MAX density matrix=1.00D-06.
 Requested convergence on             energy=1.00D-06.
 No special actions if energy rises.
 Fock matrices will be formed incrementally for  20 cycles.
 Integral accuracy reduced to 1.0D-05 until final iterations.

 Cycle   1  Pass 0  IDiag  1:
 FoFJK:  IHMeth= 1 ICntrl=       0 DoSepK=F KAlg= 0 I1Cent=           0 FoldK=F
 IRaf= 770000000 NMat=       1 IRICut=       1 DoRegI=T DoRafI=F ISym2E= 0 IDoP0=0 IntGTp=1.
 FoFCou: FMM=F IPFlag=           0 FMFlag=      100000 FMFlg1=           0
         NFxFlg=           0 DoJE=F BraDBF=F KetDBF=F FulRan=T
         wScrn=  0.000000 ICntrl=         0 IOpCl=  0 I1Cent=           0 NGrid=           0
         NMat0=    1 NMatS0=      1 NMatT0=    0 NMatD0=    1 NMtDS0=    0 NMtDT0=    0
 Symmetry not used in FoFCou.
 E= -1507.15867927433    
 DIIS: error= 1.44D-02 at cycle   1 NSaved=   1.
 NSaved= 1 IEnMin= 1 EnMin= -1507.15867927433     IErMin= 1 ErrMin= 1.44D-02
 ErrMax= 1.44D-02  0.00D+00 EMaxC= 1.00D-01 BMatC= 9.90D-01 BMatP= 9.90D-01
 IDIUse=3 WtCom= 8.56D-01 WtEn= 1.44D-01
 Coeff-Com:  0.100D+01
 Coeff-En:   0.100D+01
 Coeff:      0.100D+01
 Gap=     0.362 Goal=   None    Shift=    0.000
 GapD=    0.362 DampG=1.000 DampE=0.500 DampFc=0.5000 IDamp=-1.
 Damping current iteration by 5.00D-01
 RMSDP=4.32D-03 MaxDP=1.36D+00              OVMax= 2.48D-01

 Cycle   2  Pass 0  IDiag  1:
 RMSU=  2.15D-03    CP:  1.02D+00
 E= -1507.48798177607     Delta-E=       -0.329302501741 Rises=F Damp=T
 DIIS: error= 4.98D-03 at cycle   2 NSaved=   2.
 NSaved= 2 IEnMin= 2 EnMin= -1507.48798177607     IErMin= 2 ErrMin= 4.98D-03
 ErrMax= 4.98D-03  0.00D+00 EMaxC= 1.00D-01 BMatC= 9.14D-02 BMatP= 9.90D-01
 IDIUse=3 WtCom= 9.50D-01 WtEn= 4.98D-02
 Coeff-Com:  0.715D-02 0.993D+00
 Coeff-En:   0.635D-01 0.936D+00
 Coeff:      0.996D-02 0.990D+00
 Gap=     0.337 Goal=   None    Shift=    0.000
 RMSDP=1.36D-03 MaxDP=4.50D-01 DE=-3.29D-01 OVMax= 1.67D-01

 Cycle   3  Pass 0  IDiag  1:
 RMSU=  1.03D-03    CP:  1.00D+00  5.94D-01
 E= -1507.84828576361     Delta-E=       -0.360303987535 Rises=F Damp=F
 DIIS: error= 4.65D-03 at cycle   3 NSaved=   3.
 NSaved= 3 IEnMin= 3 EnMin= -1507.84828576361     IErMin= 3 ErrMin= 4.65D-03
 ErrMax= 4.65D-03  0.00D+00 EMaxC= 1.00D-01 BMatC= 6.00D-02 BMatP= 9.14D-02
 IDIUse=3 WtCom= 9.53D-01 WtEn= 4.65D-02
 Coeff-Com: -0.775D-01 0.467D+00 0.611D+00
 Coeff-En:   0.000D+00 0.000D+00 0.100D+01
 Coeff:     -0.739D-01 0.445D+00 0.629D+00
 Gap=     0.227 Goal=   None    Shift=    0.000
 RMSDP=3.67D-04 MaxDP=3.77D-02 DE=-3.60D-01 OVMax= 6.89D-02

 Cycle   4  Pass 0  IDiag  1:
 RMSU=  3.25D-04    CP:  1.01D+00  6.68D-01  9.39D-01
 E= -1507.88797506659     Delta-E=       -0.039689302988 Rises=F Damp=F
 DIIS: error= 2.24D-03 at cycle   4 NSaved=   4.
 NSaved= 4 IEnMin= 4 EnMin= -1507.88797506659     IErMin= 4 ErrMin= 2.24D-03
 ErrMax= 2.24D-03  0.00D+00 EMaxC= 1.00D-01 BMatC= 1.09D-02 BMatP= 6.00D-02
 IDIUse=3 WtCom= 9.78D-01 WtEn= 2.24D-02
 Coeff-Com: -0.364D-01 0.986D-01 0.336D+00 0.602D+00
 Coeff-En:   0.000D+00 0.000D+00 0.121D+00 0.879D+00
 Coeff:     -0.356D-01 0.964D-01 0.331D+00 0.608D+00
 Gap=     0.227 Goal=   None    Shift=    0.000
 RMSDP=1.17D-04 MaxDP=1.03D-02 DE=-3.97D-02 OVMax= 1.74D-02

 Cycle   5  Pass 0  IDiag  1:
 RMSU=  7.94D-05    CP:  1.00D+00  6.65D-01  9.63D-01  7.46D-01
 E= -1507.89603417018     Delta-E=       -0.008059103583 Rises=F Damp=F
 DIIS: error= 2.93D-04 at cycle   5 NSaved=   5.
 NSaved= 5 IEnMin= 5 EnMin= -1507.89603417018     IErMin= 5 ErrMin= 2.93D-04
 ErrMax= 2.93D-04  0.00D+00 EMaxC= 1.00D-01 BMatC= 4.39D-04 BMatP= 1.09D-02
 IDIUse=3 WtCom= 9.97D-01 WtEn= 2.93D-03
 Coeff-Com: -0.106D-01 0.179D-01 0.115D+00 0.269D+00 0.608D+00
 Coeff-En:   0.000D+00 0.000D+00 0.000D+00 0.000D+00 0.100D+01
 Coeff:     -0.106D-01 0.178D-01 0.115D+00 0.269D+00 0.609D+00
 Gap=     0.227 Goal=   None    Shift=    0.000
 RMSDP=5.22D-05 MaxDP=1.50D-02 DE=-8.06D-03 OVMax= 4.48D-03

 Cycle   6  Pass 0  IDiag  1:
 RMSU=  3.33D-05    CP:  1.00D+00  6.49D-01  9.76D-01  7.72D-01  8.89D-01
 E= -1507.89638409255     Delta-E=       -0.000349922376 Rises=F Damp=F
 DIIS: error= 1.66D-04 at cycle   6 NSaved=   6.
 NSaved= 6 IEnMin= 6 EnMin= -1507.89638409255     IErMin= 6 ErrMin= 1.66D-04
 ErrMax= 1.66D-04  0.00D+00 EMaxC= 1.00D-01 BMatC= 5.72D-05 BMatP= 4.39D-04
 IDIUse=3 WtCom= 9.98D-01 WtEn= 1.66D-03
 Coeff-Com:  0.217D-03-0.454D-02 0.102D-01 0.409D-01 0.275D+00 0.678D+00
 Coeff-En:   0.000D+00 0.000D+00 0.000D+00 0.000D+00 0.000D+00 0.100D+01
 Coeff:      0.217D-03-0.453D-02 0.102D-01 0.408D-01 0.274D+00 0.679D+00
 Gap=     0.228 Goal=   None    Shift=    0.000
 RMSDP=1.94D-05 MaxDP=1.65D-03 DE=-3.50D-04 OVMax= 2.28D-03

 Cycle   7  Pass 0  IDiag  1:
 RMSU=  1.76D-05    CP:  1.00D+00  6.48D-01  9.81D-01  7.79D-01  9.67D-01
                    CP:  1.00D+00
 E= -1507.89645836908     Delta-E=       -0.000074276524 Rises=F Damp=F
 DIIS: error= 5.73D-05 at cycle   7 NSaved=   7.
 NSaved= 7 IEnMin= 7 EnMin= -1507.89645836908     IErMin= 7 ErrMin= 5.73D-05
 ErrMax= 5.73D-05  0.00D+00 EMaxC= 1.00D-01 BMatC= 8.55D-06 BMatP= 5.72D-05
 IDIUse=1 WtCom= 1.00D+00 WtEn= 0.00D+00
 Coeff-Com:  0.180D-02-0.490D-02-0.119D-01-0.256D-01 0.128D-01 0.272D+00
 Coeff-Com:  0.756D+00
 Coeff:      0.180D-02-0.490D-02-0.119D-01-0.256D-01 0.128D-01 0.272D+00
 Coeff:      0.756D+00
 Gap=     0.228 Goal=   None    Shift=    0.000
 RMSDP=1.83D-05 MaxDP=4.03D-03 DE=-7.43D-05 OVMax= 2.01D-03

 Cycle   8  Pass 0  IDiag  1:
 RMSU=  1.16D-05    CP:  1.00D+00  6.44D-01  9.83D-01  7.85D-01  1.05D+00
                    CP:  1.17D+00  1.34D+00
 E= -1507.89647697588     Delta-E=       -0.000018606801 Rises=F Damp=F
 DIIS: error= 3.82D-05 at cycle   8 NSaved=   8.
 NSaved= 8 IEnMin= 8 EnMin= -1507.89647697588     IErMin= 8 ErrMin= 3.82D-05
 ErrMax= 3.82D-05  0.00D+00 EMaxC= 1.00D-01 BMatC= 2.00D-06 BMatP= 8.55D-06
 IDIUse=1 WtCom= 1.00D+00 WtEn= 0.00D+00
 Coeff-Com:  0.882D-03-0.158D-02-0.702D-02-0.211D-01-0.434D-01 0.193D-02
 Coeff-Com:  0.358D+00 0.712D+00
 Coeff:      0.882D-03-0.158D-02-0.702D-02-0.211D-01-0.434D-01 0.193D-02
 Coeff:      0.358D+00 0.712D+00
 Gap=     0.228 Goal=   None    Shift=    0.000
 RMSDP=1.78D-05 MaxDP=2.61D-03 DE=-1.86D-05 OVMax= 6.48D-04

 Cycle   9  Pass 0  IDiag  1:
 RMSU=  9.34D-06    CP:  1.00D+00  6.43D-01  9.85D-01  7.86D-01  1.10D+00
                    CP:  1.26D+00  1.96D+00  1.77D+00
 E= -1507.89647575387     Delta-E=        0.000001222006 Rises=F Damp=F
 DIIS: error= 2.19D-05 at cycle   9 NSaved=   9.
 NSaved= 9 IEnMin= 8 EnMin= -1507.89647697588     IErMin= 9 ErrMin= 2.19D-05
 ErrMax= 2.19D-05  0.00D+00 EMaxC= 1.00D-01 BMatC= 4.25D-07 BMatP= 2.00D-06
 IDIUse=1 WtCom= 1.00D+00 WtEn= 0.00D+00
 Coeff-Com:  0.245D-03-0.318D-03-0.181D-02-0.753D-02-0.201D-01-0.249D-01
 Coeff-Com:  0.972D-01 0.326D+00 0.631D+00
 Coeff:      0.245D-03-0.318D-03-0.181D-02-0.753D-02-0.201D-01-0.249D-01
 Coeff:      0.972D-01 0.326D+00 0.631D+00
 Gap=     0.228 Goal=   None    Shift=    0.000
 RMSDP=2.13D-05 MaxDP=3.48D-03 DE= 1.22D-06 OVMax= 2.03D-04

 Cycle  10  Pass 0  IDiag  1:
 RMSU=  5.09D-06    CP:  1.00D+00  6.43D-01  9.87D-01  7.88D-01  1.14D+00
                    CP:  1.33D+00  2.59D+00  2.83D+00  2.21D+00
 E= -1507.89647660837     Delta-E=       -0.000000854501 Rises=F Damp=F
 DIIS: error= 3.07D-05 at cycle  10 NSaved=  10.
 NSaved=10 IEnMin= 8 EnMin= -1507.89647697588     IErMin= 9 ErrMin= 2.19D-05
 ErrMax= 3.07D-05  0.00D+00 EMaxC= 1.00D-01 BMatC= 6.13D-07 BMatP= 4.25D-07
 IDIUse=1 WtCom= 1.00D+00 WtEn= 0.00D+00
 Coeff-Com:  0.263D-03-0.272D-03-0.198D-02-0.892D-02-0.259D-01-0.384D-01
 Coeff-Com:  0.105D+00 0.419D+00 0.969D+00-0.417D+00
 Coeff:      0.263D-03-0.272D-03-0.198D-02-0.892D-02-0.259D-01-0.384D-01
 Coeff:      0.105D+00 0.419D+00 0.969D+00-0.417D+00
 Gap=     0.228 Goal=   None    Shift=    0.000
 RMSDP=1.84D-05 MaxDP=3.11D-03 DE=-8.55D-07 OVMax= 3.46D-05

 Cycle  11  Pass 0  IDiag  1:
 RMSU=  2.84D-06    CP:  1.00D+00  6.42D-01  9.86D-01  7.86D-01  1.11D+00
                    CP:  1.29D+00  2.08D+00  2.04D+00  1.03D+00 -1.32D-01
 E= -1507.89646643701     Delta-E=        0.000010171364 Rises=F Damp=F
 DIIS: error= 2.55D-05 at cycle  11 NSaved=  11.
 NSaved=11 IEnMin= 8 EnMin= -1507.89647697588     IErMin= 9 ErrMin= 2.19D-05
 ErrMax= 2.55D-05  0.00D+00 EMaxC= 1.00D-01 BMatC= 3.20D-07 BMatP= 4.25D-07
 IDIUse=1 WtCom= 1.00D+00 WtEn= 0.00D+00
 Coeff-Com: -0.204D-04 0.189D-03 0.400D-03-0.153D-02-0.887D-02-0.315D-01
 Coeff-Com: -0.115D-01 0.137D+00 0.770D+00-0.124D+01 0.139D+01
 Coeff:     -0.204D-04 0.189D-03 0.400D-03-0.153D-02-0.887D-02-0.315D-01
 Coeff:     -0.115D-01 0.137D+00 0.770D+00-0.124D+01 0.139D+01
 Gap=     0.228 Goal=   None    Shift=    0.000
 RMSDP=2.06D-05 MaxDP=3.30D-03 DE= 1.02D-05 OVMax= 9.92D-05

 Cycle  12  Pass 0  IDiag  1:
 RMSU=  6.25D-06    CP:  1.00D+00  6.40D-01  9.85D-01  7.84D-01  1.11D+00
                    CP:  1.27D+00  1.74D+00  1.69D+00 -1.19D-01 -2.19D+00
                    CP:  3.00D+00
 E= -1507.89643245801     Delta-E=        0.000033978996 Rises=F Damp=F
 DIIS: error= 2.13D-05 at cycle  12 NSaved=  12.
 NSaved=12 IEnMin= 8 EnMin= -1507.89647697588     IErMin=12 ErrMin= 2.13D-05
 ErrMax= 2.13D-05  0.00D+00 EMaxC= 1.00D-01 BMatC= 2.34D-07 BMatP= 3.20D-07
 IDIUse=1 WtCom= 1.00D+00 WtEn= 0.00D+00
 Coeff-Com: -0.537D-04 0.295D-03 0.693D-03-0.140D-02-0.104D-01-0.410D-01
 Coeff-Com: -0.252D-01 0.160D+00 0.100D+01-0.171D+01 0.197D+01-0.342D+00
 Coeff:     -0.537D-04 0.295D-03 0.693D-03-0.140D-02-0.104D-01-0.410D-01
 Coeff:     -0.252D-01 0.160D+00 0.100D+01-0.171D+01 0.197D+01-0.342D+00
 Gap=     0.228 Goal=   None    Shift=    0.000
 RMSDP=8.63D-06 MaxDP=1.23D-03 DE= 3.40D-05 OVMax= 1.76D-05

 Cycle  13  Pass 0  IDiag  1:
 RMSU=  2.64D-06    CP:  1.00D+00  6.41D-01  9.84D-01  7.83D-01  1.09D+00
                    CP:  1.24D+00  1.52D+00  1.30D+00 -3.46D-01 -1.95D+00
                    CP:  2.97D+00  3.75D-01
 E= -1507.89645158433     Delta-E=       -0.000019126315 Rises=F Damp=F
 DIIS: error= 1.83D-05 at cycle  13 NSaved=  13.
 NSaved=13 IEnMin= 8 EnMin= -1507.89647697588     IErMin=13 ErrMin= 1.83D-05
 ErrMax= 1.83D-05  0.00D+00 EMaxC= 1.00D-01 BMatC= 1.66D-07 BMatP= 2.34D-07
 IDIUse=1 WtCom= 1.00D+00 WtEn= 0.00D+00
 Coeff-Com: -0.139D-03 0.389D-03 0.147D-02 0.154D-02-0.223D-02-0.303D-01
 Coeff-Com: -0.593D-01 0.246D-01 0.727D+00-0.163D+01 0.206D+01-0.197D+01
 Coeff-Com:  0.188D+01
 Coeff:     -0.139D-03 0.389D-03 0.147D-02 0.154D-02-0.223D-02-0.303D-01
 Coeff:     -0.593D-01 0.246D-01 0.727D+00-0.163D+01 0.206D+01-0.197D+01
 Coeff:      0.188D+01
 Gap=     0.228 Goal=   None    Shift=    0.000
 RMSDP=2.21D-05 MaxDP=2.82D-03 DE=-1.91D-05 OVMax= 5.51D-05

 Cycle  14  Pass 0  IDiag  1:
 RMSU=  1.18D-05    CP:  1.00D+00  6.44D-01  9.83D-01  7.78D-01  1.06D+00
                    CP:  1.11D+00  1.05D+00  5.16D-01 -1.18D+00 -2.01D+00
                    CP:  1.63D+00 -7.05D-02  3.00D+00
 E= -1507.89648990992     Delta-E=       -0.000038325588 Rises=F Damp=F
 DIIS: error= 9.95D-06 at cycle  14 NSaved=  14.
 NSaved=14 IEnMin=14 EnMin= -1507.89648990992     IErMin=14 ErrMin= 9.95D-06
 ErrMax= 9.95D-06  0.00D+00 EMaxC= 1.00D-01 BMatC= 5.19D-08 BMatP= 1.66D-07
 IDIUse=1 WtCom= 1.00D+00 WtEn= 0.00D+00
 Coeff-Com: -0.770D-04 0.194D-03 0.882D-03 0.128D-02 0.544D-03-0.128D-01
 Coeff-Com: -0.345D-01-0.192D-01 0.284D+00-0.743D+00 0.977D+00-0.120D+01
 Coeff-Com:  0.110D+01 0.642D+00
 Coeff:     -0.770D-04 0.194D-03 0.882D-03 0.128D-02 0.544D-03-0.128D-01
 Coeff:     -0.345D-01-0.192D-01 0.284D+00-0.743D+00 0.977D+00-0.120D+01
 Coeff:      0.110D+01 0.642D+00
 Gap=     0.228 Goal=   None    Shift=    0.000
 RMSDP=1.14D-05 MaxDP=1.48D-03 DE=-3.83D-05 OVMax= 3.00D-05

 Cycle  15  Pass 0  IDiag  1:
 RMSU=  7.29D-06    CP:  1.00D+00  6.44D-01  9.84D-01  7.79D-01  1.06D+00
                    CP:  1.11D+00  9.53D-01  3.46D-01 -1.52D+00 -2.33D+00
                    CP:  2.52D+00 -4.75D-01  3.00D+00  1.56D+00
 E= -1507.89648447252     Delta-E=        0.000005437400 Rises=F Damp=F
 DIIS: error= 1.10D-05 at cycle  15 NSaved=  15.
 NSaved=15 IEnMin=14 EnMin= -1507.89648990992     IErMin=14 ErrMin= 9.95D-06
 ErrMax= 1.10D-05  0.00D+00 EMaxC= 1.00D-01 BMatC= 4.37D-08 BMatP= 5.19D-08
 IDIUse=1 WtCom= 1.00D+00 WtEn= 0.00D+00
 Coeff-Com: -0.614D-04 0.160D-03 0.724D-03 0.972D-03 0.168D-03-0.114D-01
 Coeff-Com: -0.279D-01-0.111D-01 0.252D+00-0.625D+00 0.822D+00-0.954D+00
 Coeff-Com:  0.847D+00 0.499D+00 0.208D+00
 Coeff:     -0.614D-04 0.160D-03 0.724D-03 0.972D-03 0.168D-03-0.114D-01
 Coeff:     -0.279D-01-0.111D-01 0.252D+00-0.625D+00 0.822D+00-0.954D+00
 Coeff:      0.847D+00 0.499D+00 0.208D+00
 Gap=     0.228 Goal=   None    Shift=    0.000
 RMSDP=3.06D-06 MaxDP=4.34D-04 DE= 5.44D-06 OVMax= 4.92D-06

 Initial convergence to 1.0D-05 achieved.  Increase integral accuracy.
 Cycle  16  Pass 1  IDiag  1:
 E= -1507.89632948728     Delta-E=        0.000154985234 Rises=F Damp=F
 DIIS: error= 2.77D-04 at cycle   1 NSaved=   1.
 NSaved= 1 IEnMin= 1 EnMin= -1507.89632948728     IErMin= 1 ErrMin= 2.77D-04
 ErrMax= 2.77D-04  0.00D+00 EMaxC= 1.00D-01 BMatC= 8.68D-05 BMatP= 8.68D-05
 IDIUse=3 WtCom= 9.97D-01 WtEn= 2.77D-03
 Coeff-Com:  0.100D+01
 Coeff-En:   0.100D+01
 Coeff:      0.100D+01
 Gap=     0.228 Goal=   None    Shift=    0.000
 RMSDP=3.06D-06 MaxDP=4.34D-04 DE= 1.55D-04 OVMax= 1.06D-03

 Cycle  17  Pass 1  IDiag  1:
 RMSU=  4.48D-04    CP:  9.94D-01
 E= -1507.89638881301     Delta-E=       -0.000059325731 Rises=F Damp=F
 DIIS: error= 7.59D-06 at cycle   2 NSaved=   2.
 NSaved= 2 IEnMin= 2 EnMin= -1507.89638881301     IErMin= 2 ErrMin= 7.59D-06
 ErrMax= 7.59D-06  0.00D+00 EMaxC= 1.00D-01 BMatC= 6.67D-08 BMatP= 8.68D-05
 IDIUse=1 WtCom= 1.00D+00 WtEn= 0.00D+00
 Coeff-Com: -0.170D-01 0.102D+01
 Coeff:     -0.170D-01 0.102D+01
 Gap=     0.228 Goal=   None    Shift=    0.000
 RMSDP=1.59D-05 MaxDP=1.27D-03 DE=-5.93D-05 OVMax= 6.60D-05

 Cycle  18  Pass 1  IDiag  1:
 RMSU=  4.93D-06    CP:  9.94D-01  1.03D+00
 E= -1507.89638889404     Delta-E=       -0.000000081029 Rises=F Damp=F
 DIIS: error= 2.41D-06 at cycle   3 NSaved=   3.
 NSaved= 3 IEnMin= 3 EnMin= -1507.89638889404     IErMin= 3 ErrMin= 2.41D-06
 ErrMax= 2.41D-06  0.00D+00 EMaxC= 1.00D-01 BMatC= 1.50D-08 BMatP= 6.67D-08
 IDIUse=1 WtCom= 1.00D+00 WtEn= 0.00D+00
 Coeff-Com: -0.608D-02 0.341D+00 0.665D+00
 Coeff:     -0.608D-02 0.341D+00 0.665D+00
 Gap=     0.228 Goal=   None    Shift=    0.000
 RMSDP=5.37D-07 MaxDP=6.71D-05 DE=-8.10D-08 OVMax= 2.73D-05

 Cycle  19  Pass 1  IDiag  1:
 RMSU=  3.55D-07    CP:  9.94D-01  1.03D+00  1.05D+00
 E= -1507.89638890511     Delta-E=       -0.000000011071 Rises=F Damp=F
 DIIS: error= 8.40D-07 at cycle   4 NSaved=   4.
 NSaved= 4 IEnMin= 4 EnMin= -1507.89638890511     IErMin= 4 ErrMin= 8.40D-07
 ErrMax= 8.40D-07  0.00D+00 EMaxC= 1.00D-01 BMatC= 3.26D-09 BMatP= 1.50D-08
 IDIUse=1 WtCom= 1.00D+00 WtEn= 0.00D+00
 Coeff-Com: -0.371D-03 0.121D-01 0.307D+00 0.681D+00
 Coeff:     -0.371D-03 0.121D-01 0.307D+00 0.681D+00
 Gap=     0.228 Goal=   None    Shift=    0.000
 RMSDP=2.52D-07 MaxDP=4.71D-05 DE=-1.11D-08 OVMax= 1.22D-05

 Cycle  20  Pass 1  IDiag  1:
 RMSU=  1.34D-07    CP:  9.94D-01  1.03D+00  1.08D+00  1.02D+00
 E= -1507.89638890759     Delta-E=       -0.000000002473 Rises=F Damp=F
 DIIS: error= 3.26D-07 at cycle   5 NSaved=   5.
 NSaved= 5 IEnMin= 5 EnMin= -1507.89638890759     IErMin= 5 ErrMin= 3.26D-07
 ErrMax= 3.26D-07  0.00D+00 EMaxC= 1.00D-01 BMatC= 5.15D-10 BMatP= 3.26D-09
 IDIUse=1 WtCom= 1.00D+00 WtEn= 0.00D+00
 Coeff-Com:  0.355D-03-0.248D-01 0.110D+00 0.373D+00 0.541D+00
 Coeff:      0.355D-03-0.248D-01 0.110D+00 0.373D+00 0.541D+00
 Gap=     0.228 Goal=   None    Shift=    0.000
 RMSDP=5.50D-08 MaxDP=7.08D-06 DE=-2.47D-09 OVMax= 6.09D-06

 Cycle  21  Pass 1  IDiag  1:
 RMSU=  3.62D-08    CP:  9.94D-01  1.03D+00  1.08D+00  1.08D+00  9.33D-01
 E= -1507.89638890796     Delta-E=       -0.000000000373 Rises=F Damp=F
 DIIS: error= 7.01D-08 at cycle   6 NSaved=   6.
 NSaved= 6 IEnMin= 6 EnMin= -1507.89638890796     IErMin= 6 ErrMin= 7.01D-08
 ErrMax= 7.01D-08  0.00D+00 EMaxC= 1.00D-01 BMatC= 2.30D-11 BMatP= 5.15D-10
 IDIUse=1 WtCom= 1.00D+00 WtEn= 0.00D+00
 Coeff-Com:  0.168D-03-0.105D-01 0.149D-01 0.825D-01 0.205D+00 0.708D+00
 Coeff:      0.168D-03-0.105D-01 0.149D-01 0.825D-01 0.205D+00 0.708D+00
 Gap=     0.228 Goal=   None    Shift=    0.000
 RMSDP=2.04D-08 MaxDP=4.35D-06 DE=-3.73D-10 OVMax= 2.52D-06

 Cycle  22  Pass 1  IDiag  1:
 RMSU=  1.07D-08    CP:  9.94D-01  1.03D+00  1.08D+00  1.11D+00  1.03D+00
                    CP:  9.49D-01
 E= -1507.89638890801     Delta-E=       -0.000000000045 Rises=F Damp=F
 DIIS: error= 4.73D-08 at cycle   7 NSaved=   7.
 NSaved= 7 IEnMin= 7 EnMin= -1507.89638890801     IErMin= 7 ErrMin= 4.73D-08
 ErrMax= 4.73D-08  0.00D+00 EMaxC= 1.00D-01 BMatC= 6.15D-12 BMatP= 2.30D-11
 IDIUse=1 WtCom= 1.00D+00 WtEn= 0.00D+00
 Coeff-Com: -0.406D-05 0.867D-03-0.189D-01-0.496D-01-0.299D-01 0.354D+00
 Coeff-Com:  0.744D+00
 Coeff:     -0.406D-05 0.867D-03-0.189D-01-0.496D-01-0.299D-01 0.354D+00
 Coeff:      0.744D+00
 Gap=     0.228 Goal=   None    Shift=    0.000
 RMSDP=9.80D-09 MaxDP=2.02D-06 DE=-4.55D-11 OVMax= 1.09D-06

 Cycle  23  Pass 1  IDiag  1:
 RMSU=  6.17D-09    CP:  9.94D-01  1.03D+00  1.09D+00  1.12D+00  1.08D+00
                    CP:  9.91D-01  1.05D+00
 E= -1507.89638890801     Delta-E=       -0.000000000008 Rises=F Damp=F
 DIIS: error= 1.34D-08 at cycle   8 NSaved=   8.
 NSaved= 8 IEnMin= 8 EnMin= -1507.89638890801     IErMin= 8 ErrMin= 1.34D-08
 ErrMax= 1.34D-08  0.00D+00 EMaxC= 1.00D-01 BMatC= 6.04D-13 BMatP= 6.15D-12
 IDIUse=1 WtCom= 1.00D+00 WtEn= 0.00D+00
 Coeff-Com: -0.191D-04 0.146D-02-0.916D-02-0.294D-01-0.328D-01 0.871D-01
 Coeff-Com:  0.322D+00 0.660D+00
 Coeff:     -0.191D-04 0.146D-02-0.916D-02-0.294D-01-0.328D-01 0.871D-01
 Coeff:      0.322D+00 0.660D+00
 Gap=     0.228 Goal=   None    Shift=    0.000
 RMSDP=1.86D-09 MaxDP=2.36D-07 DE=-7.73D-12 OVMax= 5.20D-07

 SCF Done:  E(RM062X) =  -1507.89638891     A.U. after   23 cycles
            NFock= 23  Conv=0.19D-08     -V/T= 2.0040
 KE= 1.501818681991D+03 PE=-8.388094258634D+03 EE= 2.953681665990D+03
 Leave Link  502 at Sun Feb 19 04:20:38 2023, MaxMem=  2684354560 cpu:            8610.2 elap:             539.0
 (Enter /storage/apps/GAUSSIAN/G16_RevA03/g16/l601.exe)
 Copying SCF densities to generalized density rwf, IOpCl= 0 IROHF=0.

 **********************************************************************

            Population analysis using the SCF density.

 **********************************************************************

 Alpha  occ. eigenvalues --  -89.90776 -19.64017 -19.63649 -19.62135 -19.61855
 Alpha  occ. eigenvalues --  -19.58805 -14.79195 -14.77002 -10.64939 -10.64306
 Alpha  occ. eigenvalues --  -10.62929 -10.60175 -10.59853 -10.59312 -10.58610
 Alpha  occ. eigenvalues --  -10.57388 -10.56241 -10.55742 -10.55158 -10.54444
 Alpha  occ. eigenvalues --  -10.54047 -10.54024 -10.53833 -10.53617  -8.26696
 Alpha  occ. eigenvalues --   -6.18635  -6.18409  -6.18208  -1.19738  -1.17133
 Alpha  occ. eigenvalues --   -1.15765  -1.15699  -1.14025  -1.08107  -1.01476
 Alpha  occ. eigenvalues --   -0.92067  -0.91116  -0.88487  -0.88315  -0.86974
 Alpha  occ. eigenvalues --   -0.85900  -0.81297  -0.78765  -0.74968  -0.74843
 Alpha  occ. eigenvalues --   -0.72810  -0.70344  -0.68306  -0.66486  -0.66402
 Alpha  occ. eigenvalues --   -0.63393  -0.62703  -0.61251  -0.60415  -0.59725
 Alpha  occ. eigenvalues --   -0.57718  -0.56244  -0.55486  -0.54673  -0.53833
 Alpha  occ. eigenvalues --   -0.53068  -0.52956  -0.51878  -0.50894  -0.50629
 Alpha  occ. eigenvalues --   -0.50236  -0.49683  -0.49232  -0.48851  -0.48278
 Alpha  occ. eigenvalues --   -0.48129  -0.47857  -0.47081  -0.46997  -0.46275
 Alpha  occ. eigenvalues --   -0.46131  -0.44850  -0.44433  -0.43914  -0.42956
 Alpha  occ. eigenvalues --   -0.42388  -0.42144  -0.41421  -0.39947  -0.37935
 Alpha  occ. eigenvalues --   -0.35608  -0.34987  -0.34765  -0.34248  -0.34025
 Alpha  occ. eigenvalues --   -0.32783  -0.32281  -0.31386  -0.29843  -0.24814
 Alpha virt. eigenvalues --   -0.02012   0.01013   0.04787   0.04950   0.05536
 Alpha virt. eigenvalues --    0.06328   0.06626   0.07534   0.08644   0.08774
 Alpha virt. eigenvalues --    0.09007   0.09339   0.10004   0.10685   0.11329
 Alpha virt. eigenvalues --    0.11693   0.12378   0.12647   0.12790   0.13342
 Alpha virt. eigenvalues --    0.13703   0.14063   0.14286   0.14586   0.15101
 Alpha virt. eigenvalues --    0.15798   0.16241   0.16451   0.16971   0.17990
 Alpha virt. eigenvalues --    0.18460   0.18944   0.19438   0.19601   0.20137
 Alpha virt. eigenvalues --    0.20809   0.21058   0.21632   0.22094   0.22134
 Alpha virt. eigenvalues --    0.22843   0.23365   0.23859   0.23982   0.24881
 Alpha virt. eigenvalues --    0.25226   0.25533   0.25952   0.26176   0.26777
 Alpha virt. eigenvalues --    0.27326   0.27537   0.28048   0.28414   0.28882
 Alpha virt. eigenvalues --    0.29219   0.29906   0.29976   0.31032   0.31592
 Alpha virt. eigenvalues --    0.31909   0.32083   0.32300   0.32844   0.33210
 Alpha virt. eigenvalues --    0.33770   0.34337   0.34622   0.35371   0.35994
 Alpha virt. eigenvalues --    0.36690   0.37482   0.37649   0.38091   0.38438
 Alpha virt. eigenvalues --    0.38623   0.39202   0.39475   0.40030   0.40513
 Alpha virt. eigenvalues --    0.40642   0.41133   0.41185   0.41406   0.42051
 Alpha virt. eigenvalues --    0.42269   0.42695   0.43129   0.43329   0.43476
 Alpha virt. eigenvalues --    0.43773   0.43918   0.44586   0.45567   0.45610
 Alpha virt. eigenvalues --    0.46127   0.46351   0.46568   0.46992   0.47719
 Alpha virt. eigenvalues --    0.48044   0.48413   0.48856   0.49068   0.49125
 Alpha virt. eigenvalues --    0.49391   0.49782   0.50411   0.50638   0.50784
 Alpha virt. eigenvalues --    0.51184   0.51269   0.51363   0.52160   0.52565
 Alpha virt. eigenvalues --    0.53056   0.53498   0.53754   0.53966   0.54746
 Alpha virt. eigenvalues --    0.54950   0.56045   0.56052   0.56535   0.57667
 Alpha virt. eigenvalues --    0.57703   0.58281   0.58435   0.58612   0.59238
 Alpha virt. eigenvalues --    0.59291   0.60394   0.60828   0.60940   0.62083
 Alpha virt. eigenvalues --    0.62506   0.62958   0.63310   0.63491   0.63998
 Alpha virt. eigenvalues --    0.64584   0.65330   0.66164   0.66700   0.67175
 Alpha virt. eigenvalues --    0.67570   0.67996   0.68579   0.69823   0.70143
 Alpha virt. eigenvalues --    0.71111   0.71946   0.72183   0.72744   0.73544
 Alpha virt. eigenvalues --    0.74593   0.75130   0.75844   0.76755   0.77024
 Alpha virt. eigenvalues --    0.77817   0.78706   0.78790   0.80066   0.80286
 Alpha virt. eigenvalues --    0.81280   0.81682   0.82324   0.83095   0.83274
 Alpha virt. eigenvalues --    0.83926   0.84591   0.85257   0.86350   0.87130
 Alpha virt. eigenvalues --    0.87818   0.88855   0.88968   0.89630   0.90591
 Alpha virt. eigenvalues --    0.90935   0.91931   0.92586   0.92724   0.93782
 Alpha virt. eigenvalues --    0.94416   0.94726   0.95517   0.95830   0.96690
 Alpha virt. eigenvalues --    0.97219   0.97747   0.98344   0.98673   0.99281
 Alpha virt. eigenvalues --    0.99729   1.01382   1.02135   1.03439   1.03797
 Alpha virt. eigenvalues --    1.04715   1.05067   1.06006   1.06268   1.06831
 Alpha virt. eigenvalues --    1.07204   1.08687   1.08997   1.09511   1.09973
 Alpha virt. eigenvalues --    1.11011   1.11221   1.12102   1.12615   1.13112
 Alpha virt. eigenvalues --    1.13239   1.13876   1.14464   1.15336   1.16100
 Alpha virt. eigenvalues --    1.16691   1.17059   1.17648   1.18429   1.19664
 Alpha virt. eigenvalues --    1.20603   1.20941   1.22049   1.22954   1.23379
 Alpha virt. eigenvalues --    1.24287   1.25724   1.26127   1.26716   1.27771
 Alpha virt. eigenvalues --    1.28179   1.29782   1.30765   1.31463   1.32376
 Alpha virt. eigenvalues --    1.33153   1.33568   1.34022   1.35013   1.35526
 Alpha virt. eigenvalues --    1.36345   1.36861   1.38434   1.39081   1.40464
 Alpha virt. eigenvalues --    1.41125   1.41373   1.42004   1.43279   1.44000
 Alpha virt. eigenvalues --    1.44970   1.46408   1.47355   1.47745   1.49453
 Alpha virt. eigenvalues --    1.50526   1.51159   1.51812   1.52216   1.52602
 Alpha virt. eigenvalues --    1.53406   1.53741   1.54008   1.55487   1.56057
 Alpha virt. eigenvalues --    1.56490   1.56782   1.56938   1.57481   1.57793
 Alpha virt. eigenvalues --    1.58091   1.58688   1.58805   1.59205   1.60221
 Alpha virt. eigenvalues --    1.60317   1.60947   1.61629   1.61922   1.62438
 Alpha virt. eigenvalues --    1.63059   1.63262   1.63488   1.64428   1.64905
 Alpha virt. eigenvalues --    1.65770   1.65883   1.66833   1.67227   1.68025
 Alpha virt. eigenvalues --    1.68557   1.69065   1.70027   1.70528   1.70748
 Alpha virt. eigenvalues --    1.71152   1.72028   1.72406   1.73065   1.73331
 Alpha virt. eigenvalues --    1.73819   1.74334   1.75816   1.76708   1.77502
 Alpha virt. eigenvalues --    1.78058   1.78609   1.78915   1.80106   1.80277
 Alpha virt. eigenvalues --    1.81223   1.82121   1.82542   1.83419   1.83624
 Alpha virt. eigenvalues --    1.84584   1.84840   1.85033   1.85790   1.86902
 Alpha virt. eigenvalues --    1.87737   1.88482   1.88845   1.89124   1.90211
 Alpha virt. eigenvalues --    1.91409   1.91892   1.92428   1.93523   1.94718
 Alpha virt. eigenvalues --    1.94808   1.95628   1.95845   1.96759   1.97260
 Alpha virt. eigenvalues --    1.98028   1.98297   1.99484   1.99904   2.00571
 Alpha virt. eigenvalues --    2.01925   2.02366   2.02562   2.03288   2.04501
 Alpha virt. eigenvalues --    2.05145   2.05916   2.06660   2.07599   2.08071
 Alpha virt. eigenvalues --    2.09076   2.09629   2.10657   2.11237   2.12392
 Alpha virt. eigenvalues --    2.12884   2.13307   2.14199   2.15446   2.15894
 Alpha virt. eigenvalues --    2.16671   2.17595   2.17917   2.18104   2.20044
 Alpha virt. eigenvalues --    2.20499   2.21386   2.21932   2.22688   2.23223
 Alpha virt. eigenvalues --    2.23843   2.24044   2.24447   2.26576   2.27283
 Alpha virt. eigenvalues --    2.27353   2.28086   2.28341   2.28746   2.29537
 Alpha virt. eigenvalues --    2.30717   2.31672   2.31816   2.32090   2.33153
 Alpha virt. eigenvalues --    2.33418   2.33702   2.34892   2.35434   2.35721
 Alpha virt. eigenvalues --    2.35975   2.36756   2.37908   2.38438   2.39460
 Alpha virt. eigenvalues --    2.40209   2.40655   2.40765   2.42399   2.43119
 Alpha virt. eigenvalues --    2.43852   2.44570   2.44888   2.46471   2.47092
 Alpha virt. eigenvalues --    2.47586   2.48122   2.49036   2.50317   2.50526
 Alpha virt. eigenvalues --    2.51068   2.52601   2.52716   2.53163   2.54222
 Alpha virt. eigenvalues --    2.55094   2.55602   2.56162   2.57121   2.57553
 Alpha virt. eigenvalues --    2.57976   2.58269   2.59071   2.59485   2.59959
 Alpha virt. eigenvalues --    2.60567   2.60887   2.62553   2.63073   2.63809
 Alpha virt. eigenvalues --    2.64072   2.64452   2.65600   2.65824   2.66426
 Alpha virt. eigenvalues --    2.66671   2.67829   2.68006   2.69314   2.69991
 Alpha virt. eigenvalues --    2.70327   2.70785   2.71447   2.72339   2.72731
 Alpha virt. eigenvalues --    2.73610   2.74012   2.75535   2.76436   2.76835
 Alpha virt. eigenvalues --    2.77129   2.77952   2.78630   2.79288   2.81053
 Alpha virt. eigenvalues --    2.81652   2.82471   2.83320   2.83739   2.84461
 Alpha virt. eigenvalues --    2.85544   2.86268   2.87399   2.88212   2.88470
 Alpha virt. eigenvalues --    2.89628   2.90347   2.91237   2.92525   2.92678
 Alpha virt. eigenvalues --    2.93871   2.95007   2.95623   2.96262   2.96652
 Alpha virt. eigenvalues --    2.98059   2.98777   2.99543   2.99808   3.00081
 Alpha virt. eigenvalues --    3.01815   3.02280   3.02732   3.03092   3.03373
 Alpha virt. eigenvalues --    3.04822   3.05034   3.05907   3.06565   3.06872
 Alpha virt. eigenvalues --    3.08111   3.08462   3.08840   3.09239   3.09798
 Alpha virt. eigenvalues --    3.09871   3.10618   3.10960   3.11992   3.12819
 Alpha virt. eigenvalues --    3.13149   3.13441   3.15062   3.15107   3.16138
 Alpha virt. eigenvalues --    3.16444   3.17168   3.17932   3.18519   3.18597
 Alpha virt. eigenvalues --    3.19213   3.19741   3.20731   3.20980   3.21708
 Alpha virt. eigenvalues --    3.22041   3.22724   3.23618   3.24223   3.24984
 Alpha virt. eigenvalues --    3.25729   3.26444   3.26716   3.27288   3.27976
 Alpha virt. eigenvalues --    3.28989   3.29141   3.29789   3.30619   3.30813
 Alpha virt. eigenvalues --    3.31515   3.32042   3.32823   3.33651   3.34246
 Alpha virt. eigenvalues --    3.34552   3.35467   3.35886   3.36410   3.36967
 Alpha virt. eigenvalues --    3.37743   3.37952   3.38200   3.38772   3.39509
 Alpha virt. eigenvalues --    3.40014   3.40813   3.41854   3.42375   3.42432
 Alpha virt. eigenvalues --    3.43063   3.43908   3.44259   3.45286   3.46108
 Alpha virt. eigenvalues --    3.46370   3.46734   3.47831   3.48150   3.48824
 Alpha virt. eigenvalues --    3.50082   3.50268   3.51624   3.52187   3.52585
 Alpha virt. eigenvalues --    3.53522   3.53985   3.54311   3.55217   3.56396
 Alpha virt. eigenvalues --    3.57484   3.57971   3.58208   3.58548   3.59574
 Alpha virt. eigenvalues --    3.60788   3.61905   3.62726   3.64197   3.64536
 Alpha virt. eigenvalues --    3.65515   3.65939   3.66895   3.67285   3.68163
 Alpha virt. eigenvalues --    3.69298   3.71285   3.72171   3.72864   3.73467
 Alpha virt. eigenvalues --    3.74414   3.75097   3.76132   3.76475   3.77165
 Alpha virt. eigenvalues --    3.77816   3.78718   3.79169   3.79747   3.80369
 Alpha virt. eigenvalues --    3.82168   3.84107   3.85052   3.86661   3.87455
 Alpha virt. eigenvalues --    3.89508   3.90755   3.91452   3.92414   3.93201
 Alpha virt. eigenvalues --    3.93729   3.94376   3.96685   3.98329   3.98562
 Alpha virt. eigenvalues --    4.00089   4.01365   4.03427   4.03593   4.06017
 Alpha virt. eigenvalues --    4.07783   4.09308   4.09736   4.10277   4.11415
 Alpha virt. eigenvalues --    4.12047   4.12413   4.13367   4.14170   4.16652
 Alpha virt. eigenvalues --    4.18209   4.19989   4.20494   4.21564   4.22607
 Alpha virt. eigenvalues --    4.24031   4.26248   4.27194   4.27927   4.29113
 Alpha virt. eigenvalues --    4.30968   4.33083   4.34766   4.36075   4.38469
 Alpha virt. eigenvalues --    4.38961   4.39954   4.40313   4.41888   4.42176
 Alpha virt. eigenvalues --    4.42792   4.44254   4.47125   4.48944   4.49467
 Alpha virt. eigenvalues --    4.50481   4.51622   4.53685   4.56256   4.56755
 Alpha virt. eigenvalues --    4.58914   4.59532   4.64956   4.65957   4.66353
 Alpha virt. eigenvalues --    4.68245   4.70394   4.71539   4.73738   4.74836
 Alpha virt. eigenvalues --    4.75460   4.75613   4.77713   4.79114   4.80221
 Alpha virt. eigenvalues --    4.83890   4.86637   4.87730   4.89615   4.92245
 Alpha virt. eigenvalues --    4.93736   4.94126   4.96999   4.98393   4.98882
 Alpha virt. eigenvalues --    4.99098   5.00480   5.01462   5.04959   5.06134
 Alpha virt. eigenvalues --    5.09089   5.13333   5.13644   5.17593   5.20497
 Alpha virt. eigenvalues --    5.22204   5.22895   5.23343   5.25361   5.28137
 Alpha virt. eigenvalues --    5.29526   5.31226   5.31519   5.34663   5.35710
 Alpha virt. eigenvalues --    5.37251   5.41266   5.43002   5.44346   5.46794
 Alpha virt. eigenvalues --    5.47267   5.49494   5.53774   5.57691   5.57969
 Alpha virt. eigenvalues --    5.62907   5.66064   5.74537   5.75934   5.77492
 Alpha virt. eigenvalues --    5.78951   5.79946   5.83204   5.84040   5.86029
 Alpha virt. eigenvalues --    5.87767   5.88811   5.90415   5.92481   5.93984
 Alpha virt. eigenvalues --    5.97671   6.02356   6.08135   6.16586   6.20483
 Alpha virt. eigenvalues --    6.22736   6.25371   6.29371   6.31221   6.33803
 Alpha virt. eigenvalues --    6.38111   6.44010   6.44904   6.47557   6.52377
 Alpha virt. eigenvalues --    6.55425   6.59059   6.69539   6.73163   6.74751
 Alpha virt. eigenvalues --    6.78872   6.81214   6.82582   6.85913   6.86415
 Alpha virt. eigenvalues --    6.87324   6.92686   6.98838   7.00381   7.06996
 Alpha virt. eigenvalues --    7.08110   7.08875   7.10162   7.15892   7.24352
 Alpha virt. eigenvalues --    7.25780   7.33654   8.98914   9.38318   9.51236
 Alpha virt. eigenvalues --   19.85574  22.27973  22.42278  22.47596  22.48673
 Alpha virt. eigenvalues --   22.60111  22.65396  22.66737  22.72357  22.79255
 Alpha virt. eigenvalues --   22.86000  22.93416  22.99493  23.02350  23.05432
 Alpha virt. eigenvalues --   23.19342  23.47430  32.15586  33.17872  44.12270
 Alpha virt. eigenvalues --   44.18118  44.23364  44.27353  44.57422
          Condensed to atoms (all electrons):
               1          2          3          4          5          6
     1  C    5.118455   0.421016   0.413121  -0.017127  -0.000016  -0.000110
     2  H    0.421016   0.509835  -0.022537  -0.001498   0.000432  -0.000005
     3  H    0.413121  -0.022537   0.541744   0.001403  -0.000028  -0.000008
     4  C   -0.017127  -0.001498   0.001403   5.635894   0.472440   0.240414
     5  H   -0.000016   0.000432  -0.000028   0.472440   0.548346  -0.030585
     6  O   -0.000110  -0.000005  -0.000008   0.240414  -0.030585   8.016131
     7  H    0.000004  -0.000009   0.000004  -0.064131  -0.002890   0.294671
     8  C    0.008212   0.013533  -0.009691  -0.169429  -0.083265  -0.054194
     9  H    0.010259   0.000022  -0.002078  -0.134153   0.003467   0.002152
    10  O    0.007654  -0.000367   0.000297  -0.044565   0.002171   0.000826
    11  H   -0.000632  -0.000194   0.000473   0.011823  -0.000893  -0.000567
    12  C   -0.001768  -0.000117   0.001136  -0.042055  -0.051857  -0.001865
    13  H   -0.000329   0.000047   0.000125  -0.111722   0.005904   0.000228
    14  C    0.183897  -0.048458  -0.040489   0.155328   0.018213   0.009441
    15  H   -0.075087  -0.006732  -0.002943  -0.014511  -0.000184   0.000040
    16  O   -0.035909   0.000853   0.005355  -0.086141  -0.003417   0.005716
    17  N    0.000273  -0.000104  -0.000039   0.035693  -0.015744  -0.007471
    18  C   -0.001085   0.000005   0.000004   0.001578  -0.003632   0.003573
    19  H   -0.000050  -0.000073   0.000050  -0.016401  -0.003474   0.001372
    20  C   -0.000040   0.000005  -0.000002   0.005136   0.005484  -0.002512
    21  H    0.000005   0.000000  -0.000000   0.000026   0.000138  -0.000039
    22  C   -0.000009  -0.000001   0.000000   0.000314  -0.000222   0.000172
    23  H   -0.000000   0.000000   0.000000   0.000030   0.000006   0.000000
    24  H    0.000000  -0.000000  -0.000000  -0.000252  -0.000045  -0.000006
    25  C   -0.000066  -0.000006   0.000001  -0.001643  -0.000649  -0.000383
    26  C   -0.000257   0.000025  -0.000004   0.023703  -0.000551  -0.003059
    27  H   -0.000012   0.000001  -0.000000   0.000747  -0.000057   0.000112
    28  C    0.000000  -0.000000  -0.000000   0.000145  -0.000004  -0.000023
    29  O   -0.000000   0.000000  -0.000000   0.000002   0.000000  -0.000000
    30  N   -0.000000  -0.000000   0.000000   0.000002  -0.000000  -0.000000
    31  H   -0.000000   0.000000   0.000000   0.000000   0.000000  -0.000000
    32  H    0.000000   0.000000  -0.000000   0.000000   0.000000   0.000000
    33  C    0.000000  -0.000000   0.000000  -0.000230  -0.000347  -0.012907
    34  C    0.000000  -0.000000  -0.000000   0.000207   0.000012  -0.000990
    35  C    0.000000   0.000000  -0.000000  -0.000275   0.000059  -0.000014
    36  C   -0.000000   0.000000   0.000000  -0.000002   0.000000   0.000001
    37  C   -0.000000   0.000000   0.000000   0.000211  -0.000002   0.000056
    38  O    0.000000   0.000000  -0.000000  -0.000119  -0.000062  -0.016195
    39  S   -0.000000  -0.000000   0.000000   0.000676   0.000018   0.000878
    40  H   -0.000000   0.000000  -0.000000   0.000190   0.000021   0.000217
    41  H   -0.000001   0.000000  -0.000000  -0.004403   0.000533   0.014978
    42  H    0.000000   0.000000  -0.000000  -0.000000   0.000000  -0.000000
    43  H    0.000000  -0.000000  -0.000000   0.000000  -0.000000  -0.000000
    44  H   -0.000000  -0.000000  -0.000000  -0.000000  -0.000000   0.000000
    45  H   -0.000000  -0.000000   0.000000   0.000016   0.000002   0.000010
    46  H    0.000000  -0.000000  -0.000000  -0.000017   0.000000   0.000007
    47  H    0.380160  -0.022097  -0.025200   0.003178  -0.001202   0.000052
    48  H    0.000000   0.000000  -0.000000   0.000060   0.000002   0.000425
               7          8          9         10         11         12
     1  C    0.000004   0.008212   0.010259   0.007654  -0.000632  -0.001768
     2  H   -0.000009   0.013533   0.000022  -0.000367  -0.000194  -0.000117
     3  H    0.000004  -0.009691  -0.002078   0.000297   0.000473   0.001136
     4  C   -0.064131  -0.169429  -0.134153  -0.044565   0.011823  -0.042055
     5  H   -0.002890  -0.083265   0.003467   0.002171  -0.000893  -0.051857
     6  O    0.294671  -0.054194   0.002152   0.000826  -0.000567  -0.001865
     7  H    0.438328   0.002984  -0.000968  -0.001283   0.000292  -0.003358
     8  C    0.002984   5.594011   0.533141   0.260004  -0.040081   0.021972
     9  H   -0.000968   0.533141   0.572927  -0.057045  -0.001659   0.017083
    10  O   -0.001283   0.260004  -0.057045   8.039128   0.289016  -0.012820
    11  H    0.000292  -0.040081  -0.001659   0.289016   0.428035  -0.001510
    12  C   -0.003358   0.021972   0.017083  -0.012820  -0.001510   5.574384
    13  H   -0.003244   0.019571   0.002866   0.015971  -0.001540   0.482489
    14  C   -0.000131   0.039395  -0.109956  -0.047489  -0.005548  -0.109485
    15  H    0.000132  -0.036881   0.011477  -0.007524   0.005912   0.000340
    16  O    0.001631  -0.042615   0.004863   0.007605   0.000368   0.280405
    17  N    0.019214   0.001462  -0.001098  -0.000627   0.000045   0.116316
    18  C   -0.001529  -0.005164  -0.000486  -0.000509   0.000020  -0.101137
    19  H    0.000593   0.001449   0.000053  -0.000007   0.000005   0.020383
    20  C   -0.001010  -0.002033   0.000008   0.000009  -0.000001   0.015514
    21  H    0.000004  -0.000007   0.000000   0.000000  -0.000000   0.000430
    22  C    0.000274   0.000019  -0.000003  -0.000003   0.000000  -0.010535
[...]
      6        8           0.007453106    0.001509055   -0.005567119
      7        1          -0.004614772   -0.005211064    0.004131626
      8        6          -0.003904334   -0.011373306   -0.001341770
      9        1          -0.001159440    0.005516866   -0.004120588
     10        8           0.026232064    0.001948665   -0.004947213
     11        1          -0.024349777    0.004414568    0.007392963
     12        6           0.003313200    0.005504576    0.006495040
     13        1          -0.001544877   -0.002134616   -0.002638095
     14        6           0.008558890   -0.001669987    0.001534408
     15        1          -0.003369460    0.002926604    0.001231950
     16        8           0.002528818   -0.003170768   -0.006756855
     17        7           0.000560844    0.005369393   -0.005650015
     18        6          -0.009391415   -0.001930443   -0.002683999
     19        1          -0.001597818    0.007158802   -0.000855379
     20        6           0.005160572   -0.004946671    0.001675108
     21        1           0.003453123    0.005689440    0.000796593
     22        6          -0.012732495    0.008517930    0.013984734
     23        1           0.002581402   -0.000825411    0.004582176
     24        1           0.013691688   -0.025102537   -0.025999728
     25        6           0.003432801    0.001172374   -0.000622058
     26        6          -0.003262496   -0.002409334   -0.001160077
     27        1          -0.005780194   -0.004460988    0.002321456
     28        6           0.018864638   -0.002051276    0.017981375
     29        8          -0.006479119   -0.004442474   -0.005966286
     30        7          -0.007831439    0.000591589   -0.023021456
     31        1          -0.003319591   -0.005990239    0.005041026
     32        1           0.005807380    0.010245702    0.009730081
     33        6          -0.006128666   -0.012952545   -0.002925530
     34        6           0.000344143   -0.012224210    0.006249638
     35        6          -0.010205192    0.001020542   -0.007637869
     36        6          -0.001822249    0.001826207   -0.004575297
     37        6           0.006923452    0.014840891    0.016558951
     38        8           0.001286965    0.009285111   -0.004200141
     39       16           0.005898929    0.003364780    0.002362816
     40        1           0.005440252    0.002719756   -0.003359509
     41        1          -0.002182664    0.005580937    0.004847461
     42        1          -0.001133533    0.000171428    0.004112556
     43        1          -0.002899812   -0.003623828    0.003332877
     44        1           0.005668704   -0.001626494   -0.002172079
     45        1           0.002266740    0.005026066   -0.002783489
     46        1          -0.003072803   -0.004905762    0.002919658
     47        1           0.001374073   -0.004599048   -0.001067063
     48        1          -0.002097134    0.003367998   -0.004593395
 -------------------------------------------------------------------
 Cartesian Forces:  Max     0.026232064 RMS     0.007428160
 Leave Link  716 at Sun Feb 19 04:23:39 2023, MaxMem=  2684354560 cpu:               0.4 elap:               0.0
 (Enter /storage/apps/GAUSSIAN/G16_RevA03/g16/l103.exe)

 GradGradGradGradGradGradGradGradGradGradGradGradGradGradGradGradGradGrad
 Berny optimization.
 Search for a local minimum.
 Step number   1 out of a maximum of    2
 All quantities printed in internal units (Hartrees-Bohrs-Radians)
 Second derivative matrix not updated -- first step.
 ITU=  0
     Eigenvalues ---    0.00050   0.00067   0.00112   0.00136   0.00184
     Eigenvalues ---    0.00259   0.00331   0.00384   0.00452   0.00494
     Eigenvalues ---    0.00566   0.00800   0.00829   0.00903   0.01017
     Eigenvalues ---    0.01044   0.01164   0.01371   0.01416   0.01685
     Eigenvalues ---    0.01728   0.01923   0.01935   0.02498   0.02787
     Eigenvalues ---    0.02979   0.03193   0.03245   0.03510   0.04026
     Eigenvalues ---    0.04242   0.04550   0.04901   0.04954   0.05095
     Eigenvalues ---    0.05260   0.05402   0.05571   0.05779   0.05917
     Eigenvalues ---    0.06076   0.06174   0.06362   0.06546   0.06887
     Eigenvalues ---    0.07031   0.07356   0.07509   0.07859   0.08314
     Eigenvalues ---    0.08704   0.09025   0.09714   0.09988   0.10347
     Eigenvalues ---    0.10701   0.11419   0.12259   0.12321   0.12568
     Eigenvalues ---    0.12741   0.12814   0.12973   0.13407   0.13742
     Eigenvalues ---    0.13814   0.14291   0.15283   0.15773   0.16790
     Eigenvalues ---    0.17048   0.17491   0.18662   0.18975   0.19509
     Eigenvalues ---    0.19858   0.21082   0.21381   0.21890   0.24582
     Eigenvalues ---    0.26854   0.26929   0.27518   0.30752   0.32219
     Eigenvalues ---    0.32548   0.34181   0.34713   0.36833   0.37223
     Eigenvalues ---    0.37223   0.37223   0.37223   0.37223   0.39612
     Eigenvalues ---    0.42230   0.43323   0.47637   0.54045   0.55144
     Eigenvalues ---    0.60343   0.64835   0.67512   0.68872   0.72369
     Eigenvalues ---    0.76652   0.81210   0.81899   0.87264   0.87601
     Eigenvalues ---    0.89042   0.89991   0.91979   0.92177   0.92320
     Eigenvalues ---    0.92878   0.95706   0.97103   0.98873   1.00071
     Eigenvalues ---    1.01935   1.05910   1.08106   1.10521   1.12099
     Eigenvalues ---    1.16366   1.17588   1.19959   1.26569   1.29865
     Eigenvalues ---    1.36551   1.41156   1.48045   1.55413   1.62890
     Eigenvalues ---    1.74133   2.14337   2.21865
 Quadratic step=5.513D+00 exceeds max=3.000D-01 adjusted using Lamda=-4.723D-02.
 Angle between NR and scaled steps=  64.62 degrees.
 Angle between quadratic step and forces=  54.08 degrees.
 Linear search not attempted -- first point.
 Variable       Old X    -DE/DX   Delta X   Delta X   Delta X     New X
                                 (Linear)    (Quad)   (Total)
    X1        6.51762  -0.00103   0.00000  -0.02806  -0.02806   6.48956
    Y1       -7.11076   0.00889   0.00000   0.01538   0.01538  -7.09538
    Z1       -1.18636  -0.00022   0.00000   0.00644   0.00644  -1.17992
    X2        6.68106  -0.00061   0.00000  -0.02745  -0.02745   6.65361
    Y2       -7.40116  -0.00072   0.00000  -0.00009  -0.00009  -7.40125
    Z2       -3.23540   0.00665   0.00000   0.02372   0.02372  -3.21168
    X3        8.21597  -0.00645   0.00000  -0.04774  -0.04774   8.16823
    Y3       -7.83619  -0.00156   0.00000  -0.02335  -0.02335  -7.85954
    Z3       -0.23382  -0.00336   0.00000  -0.01925  -0.01925  -0.25308
    X4        3.02003  -0.00766   0.00000   0.00140   0.00140   3.02143
    Y4       -2.77466  -0.00272   0.00000   0.01086   0.01086  -2.76380
    Z4        2.00661   0.00272   0.00000   0.00291   0.00291   2.00952
    X5        1.85680   0.00380   0.00000   0.01305   0.01305   1.86984
    Y5       -4.49514   0.00399   0.00000   0.01815   0.01815  -4.47699
    Z5        1.75597   0.00158   0.00000   0.02914   0.02914   1.78511
    X6        2.10520   0.00745   0.00000   0.05511   0.05511   2.16031
    Y6       -1.33043   0.00151   0.00000   0.02578   0.02578  -1.30465
    Z6        4.01627  -0.00557   0.00000   0.00363   0.00363   4.01990
    X7        0.96914  -0.00461   0.00000  -0.05096  -0.05096   0.91819
    Y7       -0.05018  -0.00521   0.00000  -0.04679  -0.04679  -0.09697
    Z7        3.34641   0.00413   0.00000   0.05214   0.05214   3.39855
    X8        5.77337  -0.00390   0.00000  -0.00182  -0.00182   5.77155
    Y8       -3.63126  -0.01137   0.00000   0.00352   0.00352  -3.62774
    Z8        2.19250  -0.00134   0.00000  -0.01035  -0.01035   2.18215
    X9        6.00189  -0.00116   0.00000  -0.00221  -0.00221   5.99968
    Y9       -5.30424   0.00552   0.00000   0.01991   0.01991  -5.28433
    Z9        3.42350  -0.00412   0.00000  -0.01913  -0.01913   3.40438
   X10        7.25110   0.02623   0.00000   0.00870   0.00870   7.25980
   Y10       -1.61642   0.00195   0.00000   0.01395   0.01395  -1.60247
   Z10        3.05799  -0.00495   0.00000  -0.01010  -0.01010   3.04788
   X11        9.03391  -0.02435   0.00000  -0.03475  -0.03475   8.99917
   Y11       -1.94316   0.00441   0.00000   0.01046   0.01046  -1.93270
   Z11        2.60079   0.00739   0.00000   0.01263   0.01263   2.61342
   X12        3.08016   0.00331   0.00000   0.00259   0.00259   3.08275
   Y12       -1.40733   0.00550   0.00000   0.00497   0.00497  -1.40236
   Z12       -0.53261   0.00650   0.00000  -0.00214  -0.00214  -0.53475
   X13        4.17628  -0.00154   0.00000   0.00219   0.00219   4.17847
   Y13        0.34457  -0.00213   0.00000   0.00095   0.00095   0.34552
   Z13       -0.28101  -0.00264   0.00000  -0.03001  -0.03001  -0.31103
   X14        6.31910   0.00856   0.00000   0.00824   0.00824   6.32734
   Y14       -4.29667  -0.00167   0.00000   0.00779   0.00779  -4.28888
   Z14       -0.62372   0.00153   0.00000  -0.00038  -0.00038  -0.62410
   X15        8.13884  -0.00337   0.00000  -0.00956  -0.00956   8.12928
   Y15       -3.43553   0.00293   0.00000   0.02974   0.02974  -3.40578
   Z15       -1.15472   0.00123   0.00000  -0.00108  -0.00108  -1.15581
   X16        4.35975   0.00253   0.00000   0.00521   0.00521   4.36496
   Y16       -3.15517  -0.00317   0.00000  -0.00332  -0.00332  -3.15849
   Z16       -2.08058  -0.00676   0.00000  -0.01003  -0.01003  -2.09061
   X17        0.66893   0.00056   0.00000  -0.00254  -0.00254   0.66639
   Y17       -0.72218   0.00537   0.00000   0.00055   0.00055  -0.72163
   Z17       -1.52374  -0.00565   0.00000  -0.00955  -0.00955  -1.53329
   X18       -1.19694  -0.00939   0.00000  -0.01164  -0.01164  -1.20859
   Y18       -2.56917  -0.00193   0.00000   0.00694   0.00694  -2.56224
   Z18       -1.82351  -0.00268   0.00000   0.00247   0.00247  -1.82104
   X19       -0.63167  -0.00160   0.00000  -0.01280  -0.01280  -0.64447
   Y19       -4.49621   0.00716   0.00000   0.03125   0.03125  -4.46496
   Z19       -1.36508  -0.00086   0.00000   0.02042   0.02042  -1.34466
   X20       -3.49146   0.00516   0.00000   0.00718   0.00718  -3.48428
   Y20       -2.01852  -0.00495   0.00000  -0.00759  -0.00759  -2.02610
   Z20       -2.73108   0.00168   0.00000  -0.00580  -0.00580  -2.73688
   X21       -4.83219   0.00345   0.00000   0.00255   0.00255  -4.82964
   Y21       -3.56095   0.00569   0.00000   0.01820   0.01820  -3.54275
   Z21       -2.99501   0.00080   0.00000   0.01673   0.01673  -2.97828
   X22       -4.21190  -0.01273   0.00000   0.00949   0.00949  -4.20241
   Y22        0.64380   0.00852   0.00000  -0.02728  -0.02728   0.61652
   Z22       -3.42502   0.01398   0.00000  -0.02090  -0.02090  -3.44592
   X23       -5.47969   0.00258   0.00000   0.00833   0.00833  -5.47136
   Y23        0.65590  -0.00083   0.00000  -0.01622  -0.01622   0.63967
   Z23       -5.07437   0.00458   0.00000   0.00124   0.00124  -5.07313
   X24       -5.30568   0.01369   0.00000   0.02420   0.02420  -5.28148
   Y24        1.66059  -0.02510   0.00000  -0.14230  -0.14230   1.51829
   Z24       -1.83075  -0.02600   0.00000  -0.08330  -0.08330  -1.91404
   X25       -1.87351   0.00343   0.00000   0.00304   0.00304  -1.87048
   Y25        2.19707   0.00117   0.00000  -0.00756  -0.00756   2.18952
   Z25       -3.86353  -0.00062   0.00000   0.00358   0.00358  -3.85995
   X26        0.35026  -0.00326   0.00000  -0.01136  -0.01136   0.33890
   Y26        1.54890  -0.00241   0.00000  -0.01187  -0.01187   1.53703
   Z26       -2.80944  -0.00116   0.00000   0.00082   0.00082  -2.80862
   X27        2.00920  -0.00578   0.00000  -0.02463  -0.02463   1.98457
   Y27        2.76611  -0.00446   0.00000  -0.01700  -0.01700   2.74911
   Z27       -2.99396   0.00232   0.00000   0.02054   0.02054  -2.97342
   X28       -2.03281   0.01886   0.00000   0.02740   0.02740  -2.00542
   Y28        4.63927  -0.00205   0.00000  -0.00864  -0.00864   4.63063
   Z28       -5.25750   0.01798   0.00000   0.01801   0.01801  -5.23948
   X29       -0.66396  -0.00648   0.00000   0.01348   0.01348  -0.65049
   Y29        6.43017  -0.00444   0.00000  -0.00222  -0.00222   6.42795
   Z29       -4.73961  -0.00597   0.00000  -0.01099  -0.01099  -4.75061
   X30       -3.83720  -0.00783   0.00000   0.02020   0.02020  -3.81700
   Y30        4.80851   0.00059   0.00000   0.01045   0.01045   4.81896
   Z30       -7.07854  -0.02302   0.00000  -0.00378  -0.00378  -7.08232
   X31       -3.60072  -0.00332   0.00000  -0.01599  -0.01599  -3.61671
   Y31        6.34768  -0.00599   0.00000   0.00505   0.00505   6.35274
   Z31       -8.21215   0.00504   0.00000   0.01021   0.01021  -8.20194
   X32       -4.47897   0.00581   0.00000   0.01905   0.01905  -4.45992
   Y32        3.22472   0.01025   0.00000   0.02443   0.02443   3.24915
   Z32       -7.98666   0.00973   0.00000   0.03948   0.03948  -7.94718
   X33        1.00044  -0.00613   0.00000  -0.02354  -0.02354   0.97690
   Y33        4.10805  -0.01295   0.00000  -0.02878  -0.02878   4.07927
   Z33        7.18487  -0.00293   0.00000  -0.01754  -0.01754   7.16733
   X34       -2.09550   0.00034   0.00000  -0.00985  -0.00985  -2.10535
   Y34        4.23359  -0.01222   0.00000  -0.00996  -0.00996   4.22363
   Z34        2.99508   0.00625   0.00000   0.00846   0.00846   3.00354
   X35       -3.42690  -0.01021   0.00000  -0.01632  -0.01632  -3.44321
   Y35        5.54087   0.00102   0.00000   0.01734   0.01734   5.55821
   Z35        0.93424  -0.00764   0.00000   0.02106   0.02106   0.95530
   X36       -7.20977  -0.00182   0.00000   0.00440   0.00440  -7.20537
   Y36        6.18718   0.00183   0.00000  -0.00460  -0.00460   6.18258
   Z36       -1.78711  -0.00458   0.00000  -0.00492  -0.00492  -1.79203
   X37       -5.71639   0.00692   0.00000  -0.01985  -0.01985  -5.73624
   Y37        4.76675   0.01484   0.00000   0.06958   0.06958   4.83633
   Z37        0.14823   0.01656   0.00000   0.06322   0.06322   0.21146
   X38       -2.26823   0.00129   0.00000  -0.00176  -0.00176  -2.26999
   Y38        1.97807   0.00929   0.00000  -0.00779  -0.00779   1.97029
   Z38        3.43860  -0.00420   0.00000  -0.02672  -0.02672   3.41188
   X39       -0.28000   0.00590   0.00000   0.01019   0.01019  -0.26981
   Y39        6.29202   0.00336   0.00000  -0.01192  -0.01192   6.28010
   Z39        4.88534   0.00236   0.00000  -0.00378  -0.00378   4.88156
   X40       -0.56725   0.00544   0.00000   0.00076   0.00076  -0.56650
   Y40        3.21518   0.00272   0.00000  -0.01650  -0.01650   3.19868
   Z40        8.21215  -0.00336   0.00000  -0.01291  -0.01291   8.19924
   X41        2.08296  -0.00218   0.00000   0.00770   0.00770   2.09065
   Y41        2.62926   0.00558   0.00000  -0.00003  -0.00003   2.62924
   Z41        6.20918   0.00485   0.00000   0.01723   0.01723   6.22641
   X42       -7.60634  -0.00113   0.00000   0.01496   0.01496  -7.59138
   Y42        5.02231   0.00017   0.00000  -0.04316  -0.04316   4.97915
   Z42       -3.45589   0.00411   0.00000   0.02743   0.02743  -3.42846
   X43       -6.15207  -0.00290   0.00000  -0.00036  -0.00036  -6.15243
   Y43        7.83619  -0.00362   0.00000  -0.02152  -0.02152   7.81468
   Z43       -2.47134   0.00333   0.00000  -0.01037  -0.01037  -2.48171
   X44       -9.03391   0.00567   0.00000   0.01395   0.01395  -9.01996
   Y44        6.80844  -0.00163   0.00000  -0.00347  -0.00347   6.80497
   Z44       -1.00157  -0.00217   0.00000  -0.03398  -0.03398  -1.03555
   X45       -6.60325   0.00227   0.00000  -0.00142  -0.00142  -6.60467
   Y45        3.18196   0.00503   0.00000   0.05685   0.05685   3.23881
   Z45        1.14008  -0.00278   0.00000   0.02945   0.02945   1.16953
   X46       -2.51265  -0.00307   0.00000  -0.00042  -0.00042  -2.51306
   Y46        7.19556  -0.00491   0.00000  -0.01837  -0.01837   7.17718
   Z46        0.09677   0.00292   0.00000   0.00769   0.00769   0.10446
   X47        4.82512   0.00137   0.00000  -0.01296  -0.01296   4.81216
   Y47       -8.04591  -0.00460   0.00000  -0.02112  -0.02112  -8.06703
   Z47       -0.47663  -0.00107   0.00000  -0.00593  -0.00593  -0.48256
   X48        2.21660  -0.00210   0.00000  -0.03755  -0.03755   2.17905
   Y48        5.10210   0.00337   0.00000   0.02507   0.02507   5.12717
   Z48        8.51738  -0.00459   0.00000  -0.04750  -0.04750   8.46988
         Item               Value     Threshold  Converged?
 Maximum Force            0.026232     0.000450     NO 
 RMS     Force            0.007428     0.000300     NO 
 Maximum Displacement     0.142296     0.001800     NO 
 RMS     Displacement     0.025007     0.001200     NO 
 Predicted change in Energy=-9.972829D-03
 GradGradGradGradGradGradGradGradGradGradGradGradGradGradGradGradGradGrad

 Leave Link  103 at Sun Feb 19 04:23:39 2023, MaxMem=  2684354560 cpu:               1.4 elap:               0.1
 (Enter /storage/apps/GAUSSIAN/G16_RevA03/g16/l9999.exe)

 Test job not archived.
 1\1\GINC-T044\Force\RM062X\def2TZVP\C16H24N2O5S1\LV87696\19-Feb-2023\0
 \\#P M062X/Def2TZVP scf=(direct,conver=8) EmpiricalDispersion=GD3 NoSy
 mm Force pop=(NBORead) Charge Prop=(Field,Read)\\Gaussian run using SA
 NDER external interface, route from template gau_job.tpl\\0,1\C,3.4489
 770549,-3.7628538449,-0.627792562\H,3.5354654715,-3.9165261223,-1.7120
 995583\H,4.3477053482,-4.1467353581,-0.1237339321\C,1.5981331564,-1.46
 82871366,1.0618503812\H,0.9825742406,-2.3787273474,0.9292202073\O,1.11
 40222742,-0.7040322921,2.1253209871\H,0.5128486977,-0.0265562688,1.770
 8425997\C,3.0551360665,-1.9215789581,1.1602207233\H,3.1760645416,-2.80
 68841665,1.8116401729\O,3.837115988,-0.8553720807,1.6182179232\H,4.780
 5417479,-1.0282750299,1.3762784925\C,1.6299484148,-0.7447245973,-0.281
 8439072\H,2.2099914376,0.182338524,-0.1487067022\C,3.343922462,-2.2737
 009144,-0.3300564798\H,4.3068877273,-1.8180025609,-0.6110530968\O,2.30
 70779464,-1.6696425543,-1.1009940353\N,0.3539801406,-0.3821600213,-0.8
 063299194\C,-0.6333956992,-1.3595470471,-0.9649578822\H,-0.3342634116,
 -2.3792910522,-0.7223670042\C,-1.8476000239,-1.0681530407,-1.445225271
 7\H,-2.5570832319,-1.8843729029,-1.5848908893\C,-2.2288414154,0.340686
 4335,-1.8124449113\H,-2.899725782,0.3470856724,-2.6852423469\H,-2.8076
 46204,0.8787462051,-0.9687895472\C,-0.9914207188,1.1626418025,-2.04449
 04414\C,0.1853507195,0.8196409634,-1.4866924335\H,1.0632211664,1.46376
 35332,-1.5843359413\C,-1.0757174624,2.4549951579,-2.7821478982\O,-0.35
 13543188,3.4027004285,-2.5080953994\N,-2.0305567721,2.5445550361,-3.74
 58006822\H,-1.9054194318,3.3590496746,-4.3456851593\H,-2.3701686562,1.
 7064482693,-4.2263571109\C,0.5294100008,2.1738842925,3.8020678131\C,-1
 .1088896945,2.2403191242,1.5849274942\C,-1.8134359611,2.9321035992,0.4
 943769363\C,-3.8152472584,3.2741146761,-0.9456983287\C,-3.0249815095,2
 .5224562233,0.0784419835\O,-1.200295319,1.0467505246,1.8196290565\S,-0
 .148168606,3.3295940085,2.5852092437\H,-0.3001773693,1.7013986999,4.34
 56851593\H,1.1022531254,1.3913470751,3.2857579202\H,-4.0250996023,2.65
 76896336,-1.8287777994\H,-3.2555349362,4.1467353581,-1.3077774534\H,-4
 .7805417479,3.6028702658,-0.5300099274\H,-3.4942898133,1.6838212323,0.
 6033025388\H,-1.3296352109,3.8077258018,0.0512058513\H,2.5533426894,-4
 .2577125418,-0.2522210596\H,1.17297597,2.6999150029,4.5072022223\\Vers
 ion=ES64L-G16RevA.03\HF=-1507.8963889\RMSD=1.857e-09\RMSF=7.428e-03\Di
 pole=-0.0952048,-1.0179557,-0.8942795\Quadrupole=11.1580365,-8.5571931
 ,-2.6008435,-9.6090182,9.3238461,0.1917746\PG=C01 [X(C16H24N2O5S1)]\\@


 WHAT, THEN, IS TIME?  IF NO ONE ASKS ME, I KNOW WHAT IT IS.
 IF I WISH TO EXPLAIN WHAT IT IS TO HIM WHO ASKS ME, I DO NOT KNOW.
                                   -- ST. AUGUSTINE (FIFTH CENTURY)
 Job cpu time:       0 days  3 hours 12 minutes 53.5 seconds.
 Elapsed time:       0 days  0 hours 12 minutes  4.9 seconds.
 File lengths (MBytes):  RWF=    435 Int=      0 D2E=      0 Chk=     48 Scr=      1
 Normal termination of Gaussian 16 at Sun Feb 19 04:23:39 2023.
