 Entering Gaussian System, Link 0=g16
 Initial command:
 /storage/apps/GAUSSIAN/G16_RevA03/g16/l1.exe "/scratch/tmp/1267155/Gau-124826.inp" -scrdir="/scratch/tmp/1267155/"
 Entering Link 1 = /storage/apps/GAUSSIAN/G16_RevA03/g16/l1.exe PID=    124827.
  
 Copyright (c) 1988,1990,1992,1993,1995,1998,2003,2009,2016,
            Gaussian, Inc.  All Rights Reserved.
  
 This is part of the Gaussian(R) 16 program.  It is based on
 the Gaussian(R) 09 system (copyright 2009, Gaussian, Inc.),
 the Gaussian(R) 03 system (copyright 2003, Gaussian, Inc.),
 the Gaussian(R) 98 system (copyright 1998, Gaussian, Inc.),
 the Gaussian(R) 94 system (copyright 1995, Gaussian, Inc.),
 the Gaussian 92(TM) system (copyright 1992, Gaussian, Inc.),
 the Gaussian 90(TM) system (copyright 1990, Gaussian, Inc.),
 the Gaussian 88(TM) system (copyright 1988, Gaussian, Inc.),
 the Gaussian 86(TM) system (copyright 1986, Carnegie Mellon
 University), and the Gaussian 82(TM) system (copyright 1983,
 Carnegie Mellon University). Gaussian is a federally registered
 trademark of Gaussian, Inc.
  
 This software contains proprietary and confidential information,
 including trade secrets, belonging to Gaussian, Inc.
  
 This software is provided under written license and may be
 used, copied, transmitted, or stored only in accord with that
 written license.
  
 The following legend is applicable only to US Government
 contracts under FAR:
  
                    RESTRICTED RIGHTS LEGEND
  
 Use, reproduction and disclosure by the US Government is
 subject to restrictions as set forth in subparagraphs (a)
 and (c) of the Commercial Computer Software - Restricted
 Rights clause in FAR 52.227-19.
  
 Gaussian, Inc.
 340 Quinnipiac St., Bldg. 40, Wallingford CT 06492
  
  
 ---------------------------------------------------------------
 Warning -- This program may not be used in any manner that
 competes with the business of Gaussian, Inc. or will provide
 assistance to any competitor of Gaussian, Inc.  The licensee
 of this program is prohibited from giving any competitor of
 Gaussian, Inc. access to this program.  By using this program,
 the user acknowledges that Gaussian, Inc. is engaged in the
 business of creating and licensing software in the field of
 computational chemistry and represents and warrants to the
 licensee that it is not a competitor of Gaussian, Inc. and that
 it will not use this program in any manner prohibited above.
 ---------------------------------------------------------------
  

 Cite this work as:
 Gaussian 16, Revision A.03,
 M. J. Frisch, G. W. Trucks, H. B. Schlegel, G. E. Scuseria, 
 M. A. Robb, J. R. Cheeseman, G. Scalmani, V. Barone, 
 G. A. Petersson, H. Nakatsuji, X. Li, M. Caricato, A. V. Marenich, 
 J. Bloino, B. G. Janesko, R. Gomperts, B. Mennucci, H. P. Hratchian, 
 J. V. Ortiz, A. F. Izmaylov, J. L. Sonnenberg, D. Williams-Young, 
 F. Ding, F. Lipparini, F. Egidi, J. Goings, B. Peng, A. Petrone, 
 T. Henderson, D. Ranasinghe, V. G. Zakrzewski, J. Gao, N. Rega, 
 G. Zheng, W. Liang, M. Hada, M. Ehara, K. Toyota, R. Fukuda, 
 J. Hasegawa, M. Ishida, T. Nakajima, Y. Honda, O. Kitao, H. Nakai, 
 T. Vreven, K. Throssell, J. A. Montgomery, Jr., J. E. Peralta, 
 F. Ogliaro, M. J. Bearpark, J. J. Heyd, E. N. Brothers, K. N. Kudin, 
 V. N. Staroverov, T. A. Keith, R. Kobayashi, J. Normand, 
 K. Raghavachari, A. P. Rendell, J. C. Burant, S. S. Iyengar, 
 J. Tomasi, M. Cossi, J. M. Millam, M. Klene, C. Adamo, R. Cammi, 
 J. W. Ochterski, R. L. Martin, K. Morokuma, O. Farkas, 
 J. B. Foresman, and D. J. Fox, Gaussian, Inc., Wallingford CT, 2016.
 
 ******************************************
 Gaussian 16:  ES64L-G16RevA.03 25-Dec-2016
                19-Feb-2023 
 ******************************************
 %chk=gau_job.chk
 %NProcShared=16
 Will use up to   16 processors via shared memory.
 %mem=20GB
 ----------------------------------------------------------------------
 #P M062X/Def2TZVP scf=(direct,conver=8) EmpiricalDispersion=GD3 NoSymm
  Force pop=(NBORead) Charge Prop=(Field,Read)
 ----------------------------------------------------------------------
 1/10=7,18=10,28=-2,30=1,38=1,125=101/1,3;
 2/12=2,15=1,17=6,18=5,29=2,40=1/2;
 3/5=44,7=101,11=2,25=1,30=1,71=1,74=-55,124=31/1,2,3;
 4//1;
 5/5=2,6=8,38=5/2;
 6/7=2,8=2,9=2,10=2,14=2,15=1,28=1,40=2/1,2,7;
 7/7=1,16=-2,29=1,30=1/1,2,3,16;
 1/10=7,18=10,28=-2,30=1/3;
 99/12=1/99;
 Leave Link    1 at Sun Feb 19 04:12:34 2023, MaxMem=  2684354560 cpu:               0.7 elap:               0.0
 (Enter /storage/apps/GAUSSIAN/G16_RevA03/g16/l101.exe)
 ----------------------------------------------------------------------
 Gaussian run using SANDER external interface, route from template gau_
 job.tpl
 ----------------------------------------------------------------------
 Symbolic Z-matrix:
 Charge =  0 Multiplicity = 1
 C                     3.44242  -3.7569   -0.62238 
 H                     3.52885  -3.91119  -1.70672 
 H                     4.34149  -4.14042  -0.11831 
 C                     1.5906   -1.46291   1.06746 
 H                     0.97558  -2.37417   0.93611 
 O                     1.10727  -0.69814   2.1303 
 H                     0.50613  -0.01978   1.77701 
 C                     3.04746  -1.91498   1.16493 
 H                     3.16926  -2.79999   1.81623 
 O                     3.82943  -0.84876   1.62283 
 H                     4.77295  -1.02122   1.3805 
 C                     1.62265  -0.74034  -0.27616 
 H                     2.20152   0.18677  -0.14456 
 C                     3.33599  -2.26752  -0.32573 
 H                     4.29931  -1.81247  -0.60605 
 O                     2.2986   -1.66516  -1.09636 
 N                     0.34733  -0.37391  -0.7982 
 C                    -0.64671  -1.34472  -0.94694 
 H                    -0.34758  -2.36988  -0.72289 
 C                    -1.86391  -1.04504  -1.41713 
 H                    -2.56913  -1.86268  -1.57301 
 C                    -2.23652   0.36376  -1.78928 
 H                    -2.92252   0.37411  -2.64907 
 H                    -2.79296   0.93878  -0.94321 
 C                    -0.99587   1.17069  -2.03787 
 C                     0.18004   0.82873  -1.47719 
 H                     1.05929   1.47142  -1.57688 
 C                    -1.07817   2.46133  -2.77808 
 O                    -0.35414   3.40941  -2.50422 
 N                    -2.02873   2.54451  -3.74638 
 H                    -1.89928   3.35553  -4.35003 
 H                    -2.37237   1.70408  -4.22256 
 C                     0.52235   2.18      3.80612 
 C                    -1.11738   2.23671   1.58862 
 C                    -1.8192    2.92124   0.49176 
 C                    -3.81461   3.26619  -0.95302 
 C                    -3.02372   2.4983    0.06263 
 O                    -1.21186   1.04551   1.83673 
 S                    -0.15571   3.33088   2.58415 
 H                    -0.30748   1.70882   4.35003 
 H                     1.09463   1.39592   3.292 
 H                    -4.03964   2.67143  -1.8476 
 H                    -3.25018   4.14042  -1.30274 
 H                    -4.77295   3.59448  -0.52028 
 H                    -3.50502   1.67606   0.6026 
 H                    -1.34009   3.79942   0.04667 
 H                     2.54722  -4.25236  -0.24655 
 H                     1.16636   2.70571   4.51109 
 
 ITRead=  0  0  0  0  0  0  0  0  0  0  0  0  0  0  0  0  0  0  0  0
 ITRead=  0  0  0  0  0  0  0  0  0  0  0  0  0  0  0  0  0  0  0  0
 ITRead=  0  0  0  0  0  0  0  0
 MicOpt= -1 -1 -1 -1 -1 -1 -1 -1 -1 -1 -1 -1 -1 -1 -1 -1 -1 -1 -1 -1
 MicOpt= -1 -1 -1 -1 -1 -1 -1 -1 -1 -1 -1 -1 -1 -1 -1 -1 -1 -1 -1 -1
 MicOpt= -1 -1 -1 -1 -1 -1 -1 -1
 NAtoms=     48 NQM=       48 NQMF=       0 NMMI=      0 NMMIF=      0
                NMic=       0 NMicF=      0.
                    Isotopes and Nuclear Properties:
 (Nuclear quadrupole moments (NQMom) in fm**2, nuclear magnetic moments (NMagM)
  in nuclear magnetons)

  Atom         1           2           3           4           5           6           7           8           9          10
 IAtWgt=          12           1           1          12           1          16           1          12           1          16
 AtmWgt=  12.0000000   1.0078250   1.0078250  12.0000000   1.0078250  15.9949146   1.0078250  12.0000000   1.0078250  15.9949146
 NucSpn=           0           1           1           0           1           0           1           0           1           0
 AtZEff=  -0.0000000  -0.0000000  -0.0000000  -0.0000000  -0.0000000  -0.0000000  -0.0000000  -0.0000000  -0.0000000  -0.0000000
 NQMom=    0.0000000   0.0000000   0.0000000   0.0000000   0.0000000   0.0000000   0.0000000   0.0000000   0.0000000   0.0000000
 NMagM=    0.0000000   2.7928460   2.7928460   0.0000000   2.7928460   0.0000000   2.7928460   0.0000000   2.7928460   0.0000000
 AtZNuc=   6.0000000   1.0000000   1.0000000   6.0000000   1.0000000   8.0000000   1.0000000   6.0000000   1.0000000   8.0000000

  Atom        11          12          13          14          15          16          17          18          19          20
 IAtWgt=           1          12           1          12           1          16          14          12           1          12
 AtmWgt=   1.0078250  12.0000000   1.0078250  12.0000000   1.0078250  15.9949146  14.0030740  12.0000000   1.0078250  12.0000000
 NucSpn=           1           0           1           0           1           0           2           0           1           0
 AtZEff=  -0.0000000  -0.0000000  -0.0000000  -0.0000000  -0.0000000  -0.0000000  -0.0000000  -0.0000000  -0.0000000  -0.0000000
 NQMom=    0.0000000   0.0000000   0.0000000   0.0000000   0.0000000   0.0000000   2.0440000   0.0000000   0.0000000   0.0000000
 NMagM=    2.7928460   0.0000000   2.7928460   0.0000000   2.7928460   0.0000000   0.4037610   0.0000000   2.7928460   0.0000000
 AtZNuc=   1.0000000   6.0000000   1.0000000   6.0000000   1.0000000   8.0000000   7.0000000   6.0000000   1.0000000   6.0000000

  Atom        21          22          23          24          25          26          27          28          29          30
 IAtWgt=           1          12           1           1          12          12           1          12          16          14
 AtmWgt=   1.0078250  12.0000000   1.0078250   1.0078250  12.0000000  12.0000000   1.0078250  12.0000000  15.9949146  14.0030740
 NucSpn=           1           0           1           1           0           0           1           0           0           2
 AtZEff=  -0.0000000  -0.0000000  -0.0000000  -0.0000000  -0.0000000  -0.0000000  -0.0000000  -0.0000000  -0.0000000  -0.0000000
 NQMom=    0.0000000   0.0000000   0.0000000   0.0000000   0.0000000   0.0000000   0.0000000   0.0000000   0.0000000   2.0440000
 NMagM=    2.7928460   0.0000000   2.7928460   2.7928460   0.0000000   0.0000000   2.7928460   0.0000000   0.0000000   0.4037610
 AtZNuc=   1.0000000   6.0000000   1.0000000   1.0000000   6.0000000   6.0000000   1.0000000   6.0000000   8.0000000   7.0000000

  Atom        31          32          33          34          35          36          37          38          39          40
 IAtWgt=           1           1          12          12          12          12          12          16          32           1
 AtmWgt=   1.0078250   1.0078250  12.0000000  12.0000000  12.0000000  12.0000000  12.0000000  15.9949146  31.9720718   1.0078250
 NucSpn=           1           1           0           0           0           0           0           0           0           1
 AtZEff=  -0.0000000  -0.0000000  -0.0000000  -0.0000000  -0.0000000  -0.0000000  -0.0000000  -0.0000000  -0.0000000  -0.0000000
 NQMom=    0.0000000   0.0000000   0.0000000   0.0000000   0.0000000   0.0000000   0.0000000   0.0000000   0.0000000   0.0000000
 NMagM=    2.7928460   2.7928460   0.0000000   0.0000000   0.0000000   0.0000000   0.0000000   0.0000000   0.0000000   2.7928460
 AtZNuc=   1.0000000   1.0000000   6.0000000   6.0000000   6.0000000   6.0000000   6.0000000   8.0000000  16.0000000   1.0000000

  Atom        41          42          43          44          45          46          47          48
 IAtWgt=           1           1           1           1           1           1           1           1
 AtmWgt=   1.0078250   1.0078250   1.0078250   1.0078250   1.0078250   1.0078250   1.0078250   1.0078250
 NucSpn=           1           1           1           1           1           1           1           1
 AtZEff=  -0.0000000  -0.0000000  -0.0000000  -0.0000000  -0.0000000  -0.0000000  -0.0000000  -0.0000000
 NQMom=    0.0000000   0.0000000   0.0000000   0.0000000   0.0000000   0.0000000   0.0000000   0.0000000
 NMagM=    2.7928460   2.7928460   2.7928460   2.7928460   2.7928460   2.7928460   2.7928460   2.7928460
 AtZNuc=   1.0000000   1.0000000   1.0000000   1.0000000   1.0000000   1.0000000   1.0000000   1.0000000
 Background charge distribution read from input stream:
 Leave Link  101 at Sun Feb 19 04:12:34 2023, MaxMem=  2684354560 cpu:               1.5 elap:               0.1
 (Enter /storage/apps/GAUSSIAN/G16_RevA03/g16/l103.exe)

 GradGradGradGradGradGradGradGradGradGradGradGradGradGradGradGradGradGrad
 Berny optimization.
 Initialization pass.
 Trust Radius=3.00D-01 FncErr=1.00D-07 GrdErr=1.00D-07 EigMax=2.50D+02 EigMin=1.00D-04
 Number of steps in this run=      2 maximum allowed number of steps=      2.
 GradGradGradGradGradGradGradGradGradGradGradGradGradGradGradGradGradGrad

 Leave Link  103 at Sun Feb 19 04:12:34 2023, MaxMem=  2684354560 cpu:               0.3 elap:               0.0
 (Enter /storage/apps/GAUSSIAN/G16_RevA03/g16/l202.exe)
 ---------------------------------------------------------------------------------------------------
                            Z-MATRIX (ANGSTROMS AND DEGREES)
   CD    Cent   Atom    N1       Length/X        N2       Alpha/Y        N3        Beta/Z          J
 ---------------------------------------------------------------------------------------------------
      1      1  C        0   3.442419         -3.756901         -0.622376
      2      2  H        0   3.528848         -3.911189         -1.706721
      3      3  H        0   4.341492         -4.140415         -0.118315
      4      4  C        0   1.590598         -1.462913          1.067459
      5      5  H        0   0.975577         -2.374168          0.936112
      6      6  O        0   1.107271         -0.698142          2.130299
      7      7  H        0   0.506131         -0.019780          1.777007
      8      8  C        0   3.047463         -1.914975          1.164935
      9      9  H        0   3.169262         -2.799993          1.816233
     10     10  O        0   3.829428         -0.848759          1.622828
     11     11  H        0   4.772952         -1.021219          1.380499
     12     12  C        0   1.622649         -0.740345         -0.276157
     13     13  H        0   2.201522          0.186768         -0.144560
     14     14  C        0   3.335994         -2.267525         -0.325731
     15     15  H        0   4.299310         -1.812473         -0.606055
     16     16  O        0   2.298602         -1.665164         -1.096361
     17     17  N        0   0.347325         -0.373914         -0.798203
     18     18  C        0  -0.646710         -1.344715         -0.946944
     19     19  H        0  -0.347585         -2.369882         -0.722886
     20     20  C        0  -1.863914         -1.045042         -1.417132
     21     21  H        0  -2.569133         -1.862677         -1.573011
     22     22  C        0  -2.236520          0.363762         -1.789277
     23     23  H        0  -2.922517          0.374105         -2.649070
     24     24  H        0  -2.792965          0.938784         -0.943213
     25     25  C        0  -0.995872          1.170691         -2.037868
     26     26  C        0   0.180040          0.828726         -1.477195
     27     27  H        0   1.059289          1.471419         -1.576883
     28     28  C        0  -1.078169          2.461331         -2.778079
     29     29  O        0  -0.354142          3.409407         -2.504223
     30     30  N        0  -2.028733          2.544510         -3.746376
     31     31  H        0  -1.899278          3.355532         -4.350030
     32     32  H        0  -2.372369          1.704084         -4.222557
     33     33  C        0   0.522349          2.179997          3.806120
     34     34  C        0  -1.117382          2.236709          1.588624
     35     35  C        0  -1.819199          2.921238          0.491756
     36     36  C        0  -3.814613          3.266194         -0.953016
     37     37  C        0  -3.023723          2.498297          0.062632
     38     38  O        0  -1.211864          1.045506          1.836732
     39     39  S        0  -0.155707          3.330877          2.584155
     40     40  H        0  -0.307480          1.708820          4.350030
     41     41  H        0   1.094634          1.395917          3.292003
     42     42  H        0  -4.039642          2.671432         -1.847596
     43     43  H        0  -3.250179          4.140415         -1.302742
     44     44  H        0  -4.772952          3.594481         -0.520283
     45     45  H        0  -3.505022          1.676059          0.602603
     46     46  H        0  -1.340089          3.799420          0.046670
     47     47  H        0   2.547222         -4.252362         -0.246555
     48     48  H        0   1.166355          2.705706          4.511093
 ---------------------------------------------------------------------------------------------------
                         Z-Matrix orientation:                         
 ---------------------------------------------------------------------
 Center     Atomic      Atomic             Coordinates (Angstroms)
 Number     Number       Type             X           Y           Z
 ---------------------------------------------------------------------
      1          6           0        3.442419   -3.756901   -0.622376
      2          1           0        3.528848   -3.911189   -1.706721
      3          1           0        4.341492   -4.140415   -0.118315
      4          6           0        1.590598   -1.462913    1.067459
      5          1           0        0.975577   -2.374168    0.936112
      6          8           0        1.107271   -0.698142    2.130299
      7          1           0        0.506131   -0.019780    1.777007
      8          6           0        3.047463   -1.914975    1.164935
      9          1           0        3.169262   -2.799993    1.816233
     10          8           0        3.829428   -0.848759    1.622828
     11          1           0        4.772952   -1.021219    1.380499
     12          6           0        1.622649   -0.740345   -0.276157
     13          1           0        2.201522    0.186768   -0.144560
     14          6           0        3.335994   -2.267525   -0.325731
     15          1           0        4.299310   -1.812473   -0.606055
     16          8           0        2.298602   -1.665164   -1.096361
     17          7           0        0.347325   -0.373914   -0.798203
     18          6           0       -0.646710   -1.344715   -0.946944
     19          1           0       -0.347585   -2.369882   -0.722886
     20          6           0       -1.863914   -1.045042   -1.417132
     21          1           0       -2.569133   -1.862677   -1.573011
     22          6           0       -2.236520    0.363762   -1.789277
     23          1           0       -2.922517    0.374105   -2.649070
     24          1           0       -2.792965    0.938784   -0.943213
     25          6           0       -0.995872    1.170691   -2.037868
     26          6           0        0.180040    0.828726   -1.477195
     27          1           0        1.059289    1.471419   -1.576883
     28          6           0       -1.078169    2.461331   -2.778079
     29          8           0       -0.354142    3.409407   -2.504223
     30          7           0       -2.028733    2.544510   -3.746376
     31          1           0       -1.899278    3.355532   -4.350030
     32          1           0       -2.372369    1.704084   -4.222557
     33          6           0        0.522349    2.179997    3.806120
     34          6           0       -1.117382    2.236709    1.588624
     35          6           0       -1.819199    2.921238    0.491756
     36          6           0       -3.814613    3.266194   -0.953016
     37          6           0       -3.023723    2.498297    0.062632
     38          8           0       -1.211864    1.045506    1.836732
     39         16           0       -0.155707    3.330877    2.584155
     40          1           0       -0.307480    1.708820    4.350030
     41          1           0        1.094634    1.395917    3.292003
     42          1           0       -4.039642    2.671432   -1.847596
     43          1           0       -3.250179    4.140415   -1.302742
     44          1           0       -4.772952    3.594481   -0.520283
     45          1           0       -3.505022    1.676059    0.602603
     46          1           0       -1.340089    3.799420    0.046670
     47          1           0        2.547222   -4.252362   -0.246555
     48          1           0        1.166355    2.705706    4.511093
 ---------------------------------------------------------------------
                    Distance matrix (angstroms):
                    1          2          3          4          5
     1  C    0.000000
     2  H    1.098671   0.000000
     3  H    1.099770   1.798881   0.000000
     4  C    3.398112   4.176954   4.017772   0.000000
     5  H    3.228954   3.983239   3.944722   1.107199   0.000000
     6  O    4.731400   5.559715   5.231223   1.395747   2.062157
     7  H    5.323993   6.034588   5.939855   1.939629   2.543743
     8  C    2.596760   3.530299   2.876426   1.528501   2.134462
     9  H    2.633838   3.711505   2.629321   2.200142   2.401707
    10  O    3.694322   4.533733   3.758828   2.387044   3.308009
    11  H    3.642223   4.408022   3.487404   3.228075   4.055615
    12  C    3.539921   3.966656   4.356317   1.525922   2.134872
    13  H    4.161810   4.582074   4.827492   2.136273   3.037957
    14  C    1.522356   2.155449   2.135829   2.373770   2.678654
    15  H    2.124931   2.491925   2.378862   3.203117   3.706882
    16  O    2.430708   2.632617   3.355121   2.285671   2.526663
    17  N    4.588586   4.843533   5.531921   2.492457   2.720949
    18  C    4.758672   4.959772   5.777952   3.012862   2.690257
    19  H    4.037084   4.286057   5.048538   2.790068   2.122038
    20  C    6.011904   6.113963   7.055163   4.275683   3.920081
    21  H    6.374209   6.434255   7.420307   4.943203   4.372903
    22  C    7.112796   7.177847   8.145549   5.113171   5.024099
    23  H    7.853987   7.802043   8.919161   6.128249   5.966713
    24  H    7.812324   8.004405   8.796544   5.387632   5.358117
    25  C    6.781092   6.812360   7.770456   4.823769   5.029631
    26  C    5.692259   5.808098   6.622432   3.703586   4.088454
    27  H    5.824579   5.923517   6.662804   3.985617   4.594637
    28  C    7.984308   7.936084   8.945956   6.108205   6.433905
    29  O    8.325335   8.324947   9.205506   6.346529   6.859577
    30  N    8.910704   8.759163   9.921230   7.234086   7.425965
    31  H    9.644472   9.447585  10.632208   8.046480   8.308884
    32  H    8.751881   8.525554   9.801985   7.329342   7.379210
    33  C    7.961480   8.748315   8.362694   4.681049   5.402109
    34  C    7.848801   8.381134   8.566251   4.614323   5.105530
    35  C    8.574582   8.950808   9.391126   5.583810   6.004128
    36  C   10.104341  10.296083  11.048830   7.460770   7.637304
    37  C    9.022623   9.335326   9.917239   6.163832   6.363826
    38  O    7.125495   7.720054   7.845747   3.838977   4.158147
    39  S    8.571170   9.188857   9.129532   5.322629   6.045113
    40  H    8.286174   9.109674   8.705894   4.943467   5.474657
    41  H    6.883749   7.686223   7.267966   3.656158   4.447240
    42  H    9.940114  10.031589  10.937782   7.569013   7.639340
    43  H   10.374072  10.533126  11.296392   7.774848   8.081415
    44  H   11.024771  11.254449  11.960907   8.282085   8.413765
    45  H    8.904188   9.275001   9.793818   6.002881   6.049077
    46  H    8.967608   9.286249   9.764659   6.109262   6.653315
    47  H    1.090000   1.792226   1.802327   3.228434   2.719629
    48  H    8.561441   9.382211   8.853377   5.423650   6.214661
                    6          7          8          9         10
     6  O    0.000000
     7  H    0.972810   0.000000
     8  C    2.485348   3.228740   0.000000
     9  H    2.961118   3.850116   1.105568   0.000000
    10  O    2.773148   3.428597   1.399269   2.068947   0.000000
    11  H    3.755503   4.400666   1.955143   2.434281   0.989295
    12  C    2.461387   2.445672   2.342348   3.318472   2.913378
    13  H    2.674964   2.570881   2.616814   3.701617   2.616497
    14  C    3.669094   4.181147   1.558726   2.213443   2.460337
    15  H    4.349537   4.825032   2.171182   2.849505   2.473349
    16  O    3.572917   3.765168   2.395132   3.244856   3.225513
    17  N    3.042821   2.604292   3.676890   4.548017   4.267541
    18  C    3.600545   3.241050   4.293267   4.930986   5.185125
    19  H    3.612753   3.535714   3.911157   4.358937   5.026294
    20  C    4.640317   4.107408   5.616535   6.234369   6.457091
    21  H    5.346643   4.906744   6.248618   6.730134   7.223780
    22  C    5.260385   4.515266   6.468422   7.227138   7.064588
    23  H    6.342812   5.612569   7.444943   8.192899   8.082900
    24  H    5.228560   4.382063   6.833653   7.559176   7.323658
    25  C    5.028852   4.269251   6.010643   6.925949   6.384543
    26  C    4.025555   3.378776   4.767689   5.740185   5.073671
    27  H    4.295637   3.711905   4.789370   5.848947   4.826495
    28  C    6.233024   5.423534   7.191679   8.174956   7.376258
    29  O    6.362899   5.552326   7.306345   8.344900   7.257189
    30  N    7.408415   6.596126   8.353187   9.301907   8.640641
    31  H    8.213785   7.397250   9.091937  10.079851   9.282735
    32  H    7.631341   6.874027   8.455604   9.352185   8.896506
    33  C    3.381449   2.992755   5.488247   5.980477   4.987675
    34  C    3.722344   2.786220   5.895924   6.617816   5.830284
    35  C    4.934466   3.963409   6.893948   7.705288   6.884707
    36  C    7.031908   6.076140   8.855412   9.656184   9.055340
    37  C    5.617613   4.662581   7.586260   8.336669   7.784772
    38  O    2.916312   2.022352   5.230451   5.829455   5.389677
    39  S    4.246657   3.509476   6.308205   7.016601   5.854469
    40  H    3.566818   3.204757   5.876424   6.231954   5.576096
    41  H    2.394744   2.155399   4.393173   4.907916   3.912009
    42  H    7.325871   6.406592   8.963120   9.763628   9.292892
    43  H    7.361030   6.395462   9.078407   9.955224   9.141753
    44  H    7.747853   6.797731   9.713545  10.460754   9.916464
    45  H    5.407766   4.510481   7.493117   8.127361   7.823664
    46  H    5.528032   4.581362   7.290777   8.186443   7.128376
    47  H    4.511693   5.116210   2.775954   2.598346   4.089396
    48  H    4.154257   3.916554   6.007165   6.448769   5.297948
                   11         12         13         14         15
    11  H    0.000000
    12  C    3.570408   0.000000
    13  H    3.224483   1.100885   0.000000
    14  C    2.555259   2.295711   2.709872   0.000000
    15  H    2.190164   2.902206   2.934392   1.101649   0.000000
    16  O    3.559763   1.408878   2.084467   1.425795   2.065171
    17  N    4.975130   1.425922   2.044421   3.569472   4.210054
    18  C    5.907147   2.442378   3.331919   4.135144   4.979771
    19  H    5.697633   2.595531   3.656345   3.706341   4.681664
    20  C    7.202451   3.681139   4.434474   5.452033   6.263555
    21  H    7.958485   4.529072   5.385150   6.048978   6.936355
    22  C    7.816544   4.289729   4.736311   6.333921   6.989498
    23  H    8.797989   5.247023   5.706438   7.179490   7.817276
    24  H    8.153794   4.770963   5.113538   6.944483   7.614686
    25  C    7.054717   3.689490   3.843962   5.789456   6.244061
    26  C    5.716954   2.446548   2.504878   4.568664   4.970232
    27  H    5.361963   2.627006   2.237538   4.552853   4.714254
    28  C    7.978568   4.879012   4.781781   6.918159   7.204191
    29  O    7.810801   5.108074   4.741817   7.112699   7.247460
    30  N    9.233752   6.013757   6.035485   7.977267   8.299942
    31  H    9.824132   6.765842   6.674100   8.673052   8.896523
    32  H    9.480355   6.124498   6.312906   7.971470   8.364004
    33  C    5.847996   5.138487   4.732912   6.690982   7.047875
    34  C    6.734497   4.455113   4.268642   6.617056   7.110066
    35  C    7.732353   5.083620   4.903918   7.359861   7.813408
    36  C    9.877929   6.787806   6.806640   9.063483   9.578569
    37  C    8.655167   5.673831   5.717454   7.956751   8.523889
    38  O    6.348033   3.960812   4.039078   6.027888   6.671453
    39  S    6.684401   5.283823   4.784123   7.211208   7.515229
    40  H    6.487066   5.579016   5.367781   7.137854   7.627896
    41  H    4.798586   4.192158   3.807520   5.615381   5.979847
    42  H   10.085538   6.794938   6.930080   9.006074   9.549080
    43  H    9.910241   6.972815   6.833282   9.240883   9.639348
    44  H   10.772277   7.730074   7.771548  10.007796  10.561650
    45  H    8.741012   5.736222   5.944820   7.950670   8.633557
    46  H    7.898540   5.430608   5.062690   7.668915   7.982619
    47  H    4.247525   3.631801   4.453738   2.137290   3.025245
    48  H    6.057898   5.916184   5.393674   7.268784   7.510962
                   16         17         18         19         20
    16  O    0.000000
    17  N    2.358752   0.000000
    18  C    2.966459   1.397386   0.000000
    19  H    2.763768   2.114820   1.091167   0.000000
    20  C    4.220662   2.392293   1.338830   2.129891   0.000000
    21  H    4.895003   3.364888   2.087092   2.432128   1.090945
    22  C    5.016374   2.864027   2.481111   3.489710   1.504013
    23  H    5.816323   3.831072   3.321276   4.227284   2.156917
    24  H    5.720844   3.406703   3.133814   4.120158   2.241272
    25  C    4.447704   2.393063   2.763928   3.832116   2.459326
    26  C    3.294364   1.391171   2.385064   3.328432   2.773510
    27  H    3.406605   2.125673   3.352293   4.179018   3.860467
    28  C    5.590950   3.740395   4.245609   5.300772   3.842424
    29  O    5.896643   4.209047   5.011227   6.047593   4.827348
    30  N    6.593160   4.780646   4.987271   6.009908   4.282221
    31  H    7.308622   5.618850   5.936518   6.953006   5.288496
    32  H    6.553084   4.841592   4.796115   5.739743   3.960635
    33  C    6.478786   5.268101   6.031742   6.478432   6.586159
    34  C    5.839753   3.828532   4.413302   5.211175   4.512402
    35  C    6.365021   4.149198   4.652198   5.624674   4.401957
    36  C    7.855587   5.531373   5.594294   6.621073   4.754722
    37  C    6.856006   4.511607   4.630137   5.610519   4.011247
    38  O    5.317344   3.374715   3.712331   4.354710   3.922141
    39  S    6.673100   5.041712   5.879703   6.593329   6.170651
    40  H    6.916546   5.592035   6.123486   6.509370   6.577720
    41  H    5.484296   4.518911   5.339664   5.690393   6.073486
    42  H    7.716460   5.442503   5.334097   6.349102   4.327963
    43  H    8.033450   5.794460   6.082047   7.151591   5.368778
    44  H    8.831910   6.484030   6.450083   7.429573   5.549055
    45  H    6.908857   4.583146   4.438031   5.300563   3.765230
    46  H    6.663954   4.580163   5.284900   6.295837   5.087820
    47  H    2.734515   4.492908   4.375632   3.485761   5.578107
    48  H    7.199308   6.192212   7.034435   7.446351   7.641629
                   21         22         23         24         25
    21  H    0.000000
    22  C    2.261511   0.000000
    23  H    2.507186   1.099974   0.000000
    24  H    2.880093   1.164520   1.801554   0.000000
    25  C    3.448560   1.500714   2.172574   2.116978   0.000000
    26  C    3.848478   2.480595   3.347511   3.022582   1.346871
    27  H    4.927642   3.483443   4.267137   3.940190   2.127587
    28  C    4.729927   2.592162   2.788328   2.936904   1.490113
    29  O    5.793808   3.651089   3.978767   3.806388   2.375111
    30  N    4.943566   2.937528   2.591059   3.319658   2.423464
    31  H    5.948971   3.952453   3.581786   4.271505   3.306927
    32  H    4.447538   2.781326   2.132456   3.393624   2.636688
    33  C    7.405102   6.497580   7.536434   5.923519   6.121755
    34  C    5.376662   4.021271   4.968487   3.301876   3.781878
    35  C    5.264173   3.452239   4.191657   2.633910   3.184537
    36  C    5.314221   3.407906   3.469382   2.541791   3.676049
    37  C    4.679752   2.933512   3.446122   1.870041   3.207307
    38  O    4.682527   3.829182   4.847632   3.199900   3.882634
    39  S    7.076698   5.679829   6.616977   5.011941   5.170626
    40  H    7.276887   6.574304   7.589947   5.898221   6.447380
    41  H    6.907242   6.162900   7.244167   5.767100   5.729613
    42  H    4.774509   2.929162   2.677319   2.318228   3.398965
    43  H    6.047643   3.940474   4.013110   3.254036   3.800207
    44  H    5.978766   4.298998   4.280966   3.339453   4.737527
    45  H    4.258150   3.008706   3.550743   1.854763   3.677407
    46  H    6.016084   3.997254   4.637227   3.357671   3.372536
    47  H    5.800618   6.824425   7.556078   7.480035   6.720999
    48  H    8.475867   7.533852   8.568732   6.967616   7.065436
                   26         27         28         29         30
    26  C    0.000000
    27  H    1.093650   0.000000
    28  C    2.437373   2.644149   0.000000
    29  O    2.828436   2.571681   1.223953   0.000000
    30  N    3.601635   3.923531   1.359444   2.257265   0.000000
    31  H    4.354480   4.471391   1.986164   2.407769   1.019272
    32  H    3.849423   4.339354   2.082041   3.151831   1.025256
    33  C    5.464112   5.455925   6.781776   6.488461   7.980043
    34  C    3.614549   3.917142   4.372652   4.325408   5.421026
    35  C    3.500332   3.829743   3.384148   3.370548   4.259999
    36  C    4.708850   5.231190   3.386264   3.794946   3.393089
    37  C    3.927165   4.518127   3.443281   3.813860   3.937090
    38  O    3.600903   4.122173   4.828966   5.016733   5.838268
    39  S    4.782054   4.716783   5.510045   5.092851   6.648474
    40  H    5.913441   6.087095   7.209034   7.062221   8.319428
    41  H    4.889114   4.869600   6.534683   6.304708   7.785465
    42  H    4.619359   5.245227   3.111312   3.815584   2.768615
    43  H    4.771176   5.076436   3.116660   3.219466   3.163889
    44  H    5.753018   6.295938   4.475835   4.847284   4.363583
    45  H    4.315462   5.062112   4.235006   4.752359   4.674105
    46  H    3.668511   3.716521   3.136605   2.762473   4.054161
    47  H    5.738944   6.061797   8.039014   8.498099   8.909858
    48  H    6.352595   6.212760   7.630835   7.212612   8.855527
                   31         32         33         34         35
    31  H    0.000000
    32  H    1.722599   0.000000
    33  C    8.588885   8.547839   0.000000
    34  C    6.093500   5.968962   2.758482   0.000000
    35  C    4.861884   4.900226   4.125202   1.471138   0.000000
    36  C    3.900794   3.900020   6.529812   3.846405   2.487577
    37  C    4.633661   4.406573   5.166203   2.455854   1.346814
    38  O    6.639638   6.204473   2.858856   1.220430   2.386669
    39  S    7.150074   7.341074   1.810383   1.764399   2.704282
    40  H    8.996473   8.817769   1.098391   2.925743   4.317584
    41  H    8.438263   8.281527   1.098457   2.915724   4.319538
    42  H    3.363232   3.058759   7.281331   4.531688   3.235018
    43  H    3.424463   3.902766   6.646478   4.066069   2.598907
    44  H    4.793962   4.800338   6.982746   4.433309   3.194079
    45  H    5.470615   4.956396   5.170705   2.643368   2.098752
    46  H    4.454290   4.866450   4.497185   2.206646   1.094921
    47  H    9.720593   8.688511   7.867625   7.674975   8.430378
    48  H    9.398930   9.476416   1.090000   3.738481   5.011492
                   36         37         38         39         40
    36  C    0.000000
    37  C    1.498904   0.000000
    38  O    4.414573   2.922476   0.000000
    39  S    5.089534   3.908553   2.626220   0.000000
    40  H    6.545816   5.136442   2.752193   2.402587   0.000000
    41  H    6.754171   5.348359   2.749642   2.410078   1.784167
    42  H    1.097567   2.170492   4.920796   5.929606   7.298371
    43  H    1.097796   2.147575   4.856901   5.033793   6.820994
    44  H    1.101565   2.145044   4.973343   5.570096   6.871398
    45  H    2.245959   1.095122   2.679411   4.228816   4.926313
    46  H    2.721575   2.127863   3.287067   2.839211   4.894466
    47  H    9.874245   8.757992   6.821892   8.533713   8.050690
    48  H    7.414896   6.114620   3.945174   2.419045   1.786593
                   41         42         43         44         45
    41  H    0.000000
    42  H    7.375853   0.000000
    43  H    6.893573   1.754432   0.000000
    44  H    7.334560   1.775254   1.796977   0.000000
    45  H    5.335559   2.698159   3.125434   2.559075   0.000000
    46  H    4.715601   3.485425   2.363394   3.485396   3.082963
    47  H    6.821617   9.689635  10.254955  10.734656   8.514511
    48  H    1.790774   8.218060   7.440755   7.834541   6.177235
                   46         47         48
    46  H    0.000000
    47  H    8.945857   0.000000
    48  H    5.235413   8.541470   0.000000
 Symmetry turned off by external request.
 Stoichiometry    C16H24N2O5S
 Framework group  C1[X(C16H24N2O5S)]
 Deg. of freedom   138
 Full point group                 C1      NOp   1
 Rotational constants (GHZ):           0.2893528           0.1641856           0.1232442
 Leave Link  202 at Sun Feb 19 04:12:34 2023, MaxMem=  2684354560 cpu:               0.2 elap:               0.0
 (Enter /storage/apps/GAUSSIAN/G16_RevA03/g16/l301.exe)
 Standard basis: def2TZVP (5D, 7F)
 Ernie: Thresh=  0.10000D-02 Tol=  0.10000D-05 Strict=F.
   894 basis functions,  1434 primitive gaussians,  1014 cartesian basis functions
    95 alpha electrons       95 beta electrons
       nuclear repulsion energy      2426.8454357120 Hartrees.
 IExCor= 4336 DFT=T Ex+Corr=M062X ExCW=0 ScaHFX=  0.540000
 ScaDFX=  1.000000  1.000000  1.000000  1.000000 ScalE2=  1.000000  1.000000
 IRadAn=      5 IRanWt=     -1 IRanGd=            0 ICorTp=0 IEmpDi=131
 NAtoms=   48 NActive=   48 NUniq=   48 SFac= 1.00D+00 NAtFMM=   60 NAOKFM=F Big=F
 Integral buffers will be    131072 words long.
 Raffenetti 2 integral format.
 Two-electron integral symmetry is turned off.
 R6Disp:  Grimme-D3 Dispersion energy=       -0.0041318309 Hartrees.
 Nuclear repulsion after empirical dispersion term =     2426.8413038810 Hartrees.
 Leave Link  301 at Sun Feb 19 04:12:34 2023, MaxMem=  2684354560 cpu:               0.8 elap:               0.1
 (Enter /storage/apps/GAUSSIAN/G16_RevA03/g16/l302.exe)
 NPDir=0 NMtPBC=     1 NCelOv=     1 NCel=       1 NClECP=     1 NCelD=      1
         NCelK=      1 NCelE2=     1 NClLst=     1 CellRange=     0.0.
 One-electron integrals computed using PRISM.
   1 Symmetry operations used in ECPInt.
 ECPInt:  NShTT=   65703 NPrTT=  200010 LenC2=   55869 LenP2D=  118355.
 LDataN:  DoStor=T MaxTD1= 6 Len=  172
 NBasis=   894 RedAO= T EigKep=  3.13D-05  NBF=   894
 NBsUse=   894 1.00D-06 EigRej= -1.00D+00 NBFU=   894
 Precomputing XC quadrature grid using
 IXCGrd= 4 IRadAn=           5 IRanWt=          -1 IRanGd=           0 AccXCQ= 0.00D+00.
 Generated NRdTot=       0 NPtTot=           0 NUsed=           0 NTot=          32
 NSgBfM=   999   999   999   999   999 MxSgAt=    48 MxSgA2=    48.
 Leave Link  302 at Sun Feb 19 04:12:36 2023, MaxMem=  2684354560 cpu:              18.1 elap:               1.2
 (Enter /storage/apps/GAUSSIAN/G16_RevA03/g16/l303.exe)
 DipDrv:  MaxL=1.
 Leave Link  303 at Sun Feb 19 04:12:36 2023, MaxMem=  2684354560 cpu:               2.0 elap:               0.2
 (Enter /storage/apps/GAUSSIAN/G16_RevA03/g16/l401.exe)
 ExpMin= 9.52D-02 ExpMax= 6.07D+04 ExpMxC= 2.07D+03 IAcc=3 IRadAn=         5 AccDes= 0.00D+00
 Harris functional with IExCor= 1009 and IRadAn=       5 diagonalized for initial guess.
 HarFok:  IExCor= 1009 AccDes= 0.00D+00 IRadAn=         5 IDoV= 1 UseB2=F ITyADJ=14
 ICtDFT=  3500011 ScaDFX=  1.000000  1.000000  1.000000  1.000000
 FoFCou: FMM=F IPFlag=           0 FMFlag=      100000 FMFlg1=           0
         NFxFlg=           0 DoJE=T BraDBF=F KetDBF=T FulRan=T
         wScrn=  0.000000 ICntrl=       500 IOpCl=  0 I1Cent=   200000004 NGrid=           0
         NMat0=    1 NMatS0=      1 NMatT0=    0 NMatD0=    1 NMtDS0=    0 NMtDT0=    0
 Symmetry not used in FoFCou.
 Harris En= -1507.21086263167    
 JPrj=0 DoOrth=F DoCkMO=F.
 Leave Link  401 at Sun Feb 19 04:12:40 2023, MaxMem=  2684354560 cpu:              59.0 elap:               3.7
 (Enter /storage/apps/GAUSSIAN/G16_RevA03/g16/l502.exe)
 Two-electron integral symmetry not used.
 Closed shell SCF:
 Using DIIS extrapolation, IDIIS=  1040.
 NGot=  2684354560 LenX=  2682275214 LenY=  2681246004
 Requested convergence on RMS density matrix=1.00D-08 within 128 cycles.
 Requested convergence on MAX density matrix=1.00D-06.
 Requested convergence on             energy=1.00D-06.
 No special actions if energy rises.
 Fock matrices will be formed incrementally for  20 cycles.
 Integral accuracy reduced to 1.0D-05 until final iterations.

 Cycle   1  Pass 0  IDiag  1:
 FoFJK:  IHMeth= 1 ICntrl=       0 DoSepK=F KAlg= 0 I1Cent=           0 FoldK=F
 IRaf= 780000000 NMat=       1 IRICut=       1 DoRegI=T DoRafI=F ISym2E= 0 IDoP0=0 IntGTp=1.
 FoFCou: FMM=F IPFlag=           0 FMFlag=      100000 FMFlg1=           0
         NFxFlg=           0 DoJE=F BraDBF=F KetDBF=F FulRan=T
         wScrn=  0.000000 ICntrl=         0 IOpCl=  0 I1Cent=           0 NGrid=           0
         NMat0=    1 NMatS0=      1 NMatT0=    0 NMatD0=    1 NMtDS0=    0 NMtDT0=    0
 Symmetry not used in FoFCou.
 E= -1507.15548045902    
 DIIS: error= 1.45D-02 at cycle   1 NSaved=   1.
 NSaved= 1 IEnMin= 1 EnMin= -1507.15548045902     IErMin= 1 ErrMin= 1.45D-02
 ErrMax= 1.45D-02  0.00D+00 EMaxC= 1.00D-01 BMatC= 9.89D-01 BMatP= 9.89D-01
 IDIUse=3 WtCom= 8.55D-01 WtEn= 1.45D-01
 Coeff-Com:  0.100D+01
 Coeff-En:   0.100D+01
 Coeff:      0.100D+01
 Gap=     0.355 Goal=   None    Shift=    0.000
 GapD=    0.355 DampG=1.000 DampE=0.500 DampFc=0.5000 IDamp=-1.
 Damping current iteration by 5.00D-01
 RMSDP=4.35D-03 MaxDP=1.36D+00              OVMax= 2.54D-01

 Cycle   2  Pass 0  IDiag  1:
 RMSU=  2.17D-03    CP:  1.03D+00
 E= -1507.48397698886     Delta-E=       -0.328496529842 Rises=F Damp=T
 DIIS: error= 4.94D-03 at cycle   2 NSaved=   2.
 NSaved= 2 IEnMin= 2 EnMin= -1507.48397698886     IErMin= 2 ErrMin= 4.94D-03
 ErrMax= 4.94D-03  0.00D+00 EMaxC= 1.00D-01 BMatC= 9.16D-02 BMatP= 9.89D-01
 IDIUse=3 WtCom= 9.51D-01 WtEn= 4.94D-02
 Coeff-Com:  0.791D-02 0.992D+00
 Coeff-En:   0.653D-01 0.935D+00
 Coeff:      0.107D-01 0.989D+00
 Gap=     0.332 Goal=   None    Shift=    0.000
 RMSDP=1.37D-03 MaxDP=4.51D-01 DE=-3.28D-01 OVMax= 1.68D-01

 Cycle   3  Pass 0  IDiag  1:
 RMSU=  1.04D-03    CP:  1.00D+00  5.90D-01
 E= -1507.84410659058     Delta-E=       -0.360129601722 Rises=F Damp=F
 DIIS: error= 4.76D-03 at cycle   3 NSaved=   3.
 NSaved= 3 IEnMin= 3 EnMin= -1507.84410659058     IErMin= 3 ErrMin= 4.76D-03
 ErrMax= 4.76D-03  0.00D+00 EMaxC= 1.00D-01 BMatC= 6.02D-02 BMatP= 9.16D-02
 IDIUse=3 WtCom= 9.52D-01 WtEn= 4.76D-02
 Coeff-Com: -0.773D-01 0.467D+00 0.611D+00
 Coeff-En:   0.000D+00 0.000D+00 0.100D+01
 Coeff:     -0.736D-01 0.444D+00 0.629D+00
 Gap=     0.225 Goal=   None    Shift=    0.000
 RMSDP=3.68D-04 MaxDP=3.72D-02 DE=-3.60D-01 OVMax= 6.92D-02

 Cycle   4  Pass 0  IDiag  1:
 RMSU=  3.26D-04    CP:  1.01D+00  6.64D-01  9.39D-01
 E= -1507.88398958140     Delta-E=       -0.039882990816 Rises=F Damp=F
 DIIS: error= 2.18D-03 at cycle   4 NSaved=   4.
 NSaved= 4 IEnMin= 4 EnMin= -1507.88398958140     IErMin= 4 ErrMin= 2.18D-03
 ErrMax= 2.18D-03  0.00D+00 EMaxC= 1.00D-01 BMatC= 1.10D-02 BMatP= 6.02D-02
 IDIUse=3 WtCom= 9.78D-01 WtEn= 2.18D-02
 Coeff-Com: -0.364D-01 0.986D-01 0.336D+00 0.601D+00
 Coeff-En:   0.000D+00 0.000D+00 0.123D+00 0.877D+00
 Coeff:     -0.356D-01 0.964D-01 0.332D+00 0.607D+00
 Gap=     0.226 Goal=   None    Shift=    0.000
 RMSDP=1.18D-04 MaxDP=1.04D-02 DE=-3.99D-02 OVMax= 1.75D-02

 Cycle   5  Pass 0  IDiag  1:
 RMSU=  8.02D-05    CP:  1.00D+00  6.61D-01  9.64D-01  7.46D-01
 E= -1507.89214889534     Delta-E=       -0.008159313948 Rises=F Damp=F
 DIIS: error= 3.13D-04 at cycle   5 NSaved=   5.
 NSaved= 5 IEnMin= 5 EnMin= -1507.89214889534     IErMin= 5 ErrMin= 3.13D-04
 ErrMax= 3.13D-04  0.00D+00 EMaxC= 1.00D-01 BMatC= 4.42D-04 BMatP= 1.10D-02
 IDIUse=3 WtCom= 9.97D-01 WtEn= 3.13D-03
 Coeff-Com: -0.106D-01 0.179D-01 0.116D+00 0.269D+00 0.608D+00
 Coeff-En:   0.000D+00 0.000D+00 0.000D+00 0.000D+00 0.100D+01
 Coeff:     -0.106D-01 0.179D-01 0.115D+00 0.269D+00 0.609D+00
 Gap=     0.225 Goal=   None    Shift=    0.000
 RMSDP=5.28D-05 MaxDP=1.53D-02 DE=-8.16D-03 OVMax= 4.55D-03

 Cycle   6  Pass 0  IDiag  1:
 RMSU=  3.38D-05    CP:  1.00D+00  6.45D-01  9.77D-01  7.72D-01  8.90D-01
 E= -1507.89250331981     Delta-E=       -0.000354424470 Rises=F Damp=F
 DIIS: error= 1.64D-04 at cycle   6 NSaved=   6.
 NSaved= 6 IEnMin= 6 EnMin= -1507.89250331981     IErMin= 6 ErrMin= 1.64D-04
 ErrMax= 1.64D-04  0.00D+00 EMaxC= 1.00D-01 BMatC= 5.80D-05 BMatP= 4.42D-04
 IDIUse=3 WtCom= 9.98D-01 WtEn= 1.64D-03
 Coeff-Com:  0.219D-03-0.456D-02 0.104D-01 0.408D-01 0.275D+00 0.678D+00
 Coeff-En:   0.000D+00 0.000D+00 0.000D+00 0.000D+00 0.000D+00 0.100D+01
 Coeff:      0.218D-03-0.456D-02 0.104D-01 0.407D-01 0.274D+00 0.679D+00
 Gap=     0.226 Goal=   None    Shift=    0.000
 RMSDP=1.99D-05 MaxDP=1.75D-03 DE=-3.54D-04 OVMax= 2.31D-03

 Cycle   7  Pass 0  IDiag  1:
 RMSU=  1.79D-05    CP:  1.00D+00  6.44D-01  9.81D-01  7.78D-01  9.71D-01
                    CP:  1.01D+00
 E= -1507.89257923664     Delta-E=       -0.000075916827 Rises=F Damp=F
 DIIS: error= 5.81D-05 at cycle   7 NSaved=   7.
 NSaved= 7 IEnMin= 7 EnMin= -1507.89257923664     IErMin= 7 ErrMin= 5.81D-05
 ErrMax= 5.81D-05  0.00D+00 EMaxC= 1.00D-01 BMatC= 8.73D-06 BMatP= 5.80D-05
 IDIUse=1 WtCom= 1.00D+00 WtEn= 0.00D+00
 Coeff-Com:  0.181D-02-0.492D-02-0.120D-01-0.258D-01 0.126D-01 0.273D+00
 Coeff-Com:  0.756D+00
 Coeff:      0.181D-02-0.492D-02-0.120D-01-0.258D-01 0.126D-01 0.273D+00
 Coeff:      0.756D+00
 Gap=     0.227 Goal=   None    Shift=    0.000
 RMSDP=1.88D-05 MaxDP=3.87D-03 DE=-7.59D-05 OVMax= 2.02D-03

 Cycle   8  Pass 0  IDiag  1:
 RMSU=  1.18D-05    CP:  1.00D+00  6.40D-01  9.84D-01  7.84D-01  1.06D+00
                    CP:  1.18D+00  1.36D+00
 E= -1507.89259916075     Delta-E=       -0.000019924107 Rises=F Damp=F
 DIIS: error= 3.69D-05 at cycle   8 NSaved=   8.
 NSaved= 8 IEnMin= 8 EnMin= -1507.89259916075     IErMin= 8 ErrMin= 3.69D-05
 ErrMax= 3.69D-05  0.00D+00 EMaxC= 1.00D-01 BMatC= 2.04D-06 BMatP= 8.73D-06
 IDIUse=1 WtCom= 1.00D+00 WtEn= 0.00D+00
 Coeff-Com:  0.885D-03-0.159D-02-0.710D-02-0.212D-01-0.439D-01 0.175D-02
 Coeff-Com:  0.359D+00 0.713D+00
 Coeff:      0.885D-03-0.159D-02-0.710D-02-0.212D-01-0.439D-01 0.175D-02
 Coeff:      0.359D+00 0.713D+00
 Gap=     0.227 Goal=   None    Shift=    0.000
 RMSDP=1.83D-05 MaxDP=2.75D-03 DE=-1.99D-05 OVMax= 6.58D-04

 Cycle   9  Pass 0  IDiag  1:
 RMSU=  9.55D-06    CP:  1.00D+00  6.39D-01  9.85D-01  7.85D-01  1.11D+00
                    CP:  1.28D+00  1.99D+00  1.77D+00
 E= -1507.89259842405     Delta-E=        0.000000736698 Rises=F Damp=F
 DIIS: error= 2.25D-05 at cycle   9 NSaved=   9.
 NSaved= 9 IEnMin= 8 EnMin= -1507.89259916075     IErMin= 9 ErrMin= 2.25D-05
 ErrMax= 2.25D-05  0.00D+00 EMaxC= 1.00D-01 BMatC= 4.46D-07 BMatP= 2.04D-06
 IDIUse=1 WtCom= 1.00D+00 WtEn= 0.00D+00
 Coeff-Com:  0.253D-03-0.331D-03-0.189D-02-0.775D-02-0.206D-01-0.245D-01
 Coeff-Com:  0.101D+00 0.332D+00 0.622D+00
 Coeff:      0.253D-03-0.331D-03-0.189D-02-0.775D-02-0.206D-01-0.245D-01
 Coeff:      0.101D+00 0.332D+00 0.622D+00
 Gap=     0.227 Goal=   None    Shift=    0.000
 RMSDP=2.15D-05 MaxDP=3.54D-03 DE= 7.37D-07 OVMax= 1.99D-04

 Cycle  10  Pass 0  IDiag  1:
 RMSU=  4.98D-06    CP:  1.00D+00  6.39D-01  9.87D-01  7.88D-01  1.16D+00
                    CP:  1.36D+00  2.63D+00  2.81D+00  2.20D+00
 E= -1507.89259918417     Delta-E=       -0.000000760126 Rises=F Damp=F
 DIIS: error= 3.15D-05 at cycle  10 NSaved=  10.
 NSaved=10 IEnMin=10 EnMin= -1507.89259918417     IErMin= 9 ErrMin= 2.25D-05
 ErrMax= 3.15D-05  0.00D+00 EMaxC= 1.00D-01 BMatC= 6.47D-07 BMatP= 4.46D-07
 IDIUse=1 WtCom= 1.00D+00 WtEn= 0.00D+00
 Coeff-Com:  0.271D-03-0.280D-03-0.208D-02-0.919D-02-0.267D-01-0.385D-01
 Coeff-Com:  0.109D+00 0.428D+00 0.974D+00-0.433D+00
 Coeff:      0.271D-03-0.280D-03-0.208D-02-0.919D-02-0.267D-01-0.385D-01
 Coeff:      0.109D+00 0.428D+00 0.974D+00-0.433D+00
 Gap=     0.227 Goal=   None    Shift=    0.000
 RMSDP=1.94D-05 MaxDP=3.27D-03 DE=-7.60D-07 OVMax= 3.69D-05

 Cycle  11  Pass 0  IDiag  1:
 RMSU=  3.04D-06    CP:  1.00D+00  6.39D-01  9.86D-01  7.85D-01  1.12D+00
                    CP:  1.30D+00  2.10D+00  1.98D+00  9.80D-01 -1.37D-01
 E= -1507.89258931720     Delta-E=        0.000009866978 Rises=F Damp=F
 DIIS: error= 2.49D-05 at cycle  11 NSaved=  11.
 NSaved=11 IEnMin=10 EnMin= -1507.89259918417     IErMin= 9 ErrMin= 2.25D-05
 ErrMax= 2.49D-05  0.00D+00 EMaxC= 1.00D-01 BMatC= 3.32D-07 BMatP= 4.46D-07
 IDIUse=1 WtCom= 1.00D+00 WtEn= 0.00D+00
 Coeff-Com: -0.174D-04 0.189D-03 0.362D-03-0.169D-02-0.947D-02-0.323D-01
 Coeff-Com: -0.981D-02 0.145D+00 0.787D+00-0.122D+01 0.135D+01
 Coeff:     -0.174D-04 0.189D-03 0.362D-03-0.169D-02-0.947D-02-0.323D-01
 Coeff:     -0.981D-02 0.145D+00 0.787D+00-0.122D+01 0.135D+01
 Gap=     0.227 Goal=   None    Shift=    0.000
 RMSDP=2.09D-05 MaxDP=3.67D-03 DE= 9.87D-06 OVMax= 9.86D-05

 Cycle  12  Pass 0  IDiag  1:
 RMSU=  6.21D-06    CP:  1.00D+00  6.37D-01  9.86D-01  7.84D-01  1.12D+00
                    CP:  1.27D+00  1.75D+00  1.61D+00 -2.47D-01 -2.08D+00
                    CP:  3.00D+00
 E= -1507.89255507871     Delta-E=        0.000034238489 Rises=F Damp=F
 DIIS: error= 2.23D-05 at cycle  12 NSaved=  12.
 NSaved=12 IEnMin=10 EnMin= -1507.89259918417     IErMin=12 ErrMin= 2.23D-05
 ErrMax= 2.23D-05  0.00D+00 EMaxC= 1.00D-01 BMatC= 2.42D-07 BMatP= 3.32D-07
 IDIUse=1 WtCom= 1.00D+00 WtEn= 0.00D+00
 Coeff-Com: -0.401D-04 0.267D-03 0.559D-03-0.170D-02-0.110D-01-0.400D-01
 Coeff-Com: -0.190D-01 0.168D+00 0.975D+00-0.158D+01 0.177D+01-0.266D+00
 Coeff:     -0.401D-04 0.267D-03 0.559D-03-0.170D-02-0.110D-01-0.400D-01
 Coeff:     -0.190D-01 0.168D+00 0.975D+00-0.158D+01 0.177D+01-0.266D+00
 Gap=     0.227 Goal=   None    Shift=    0.000
 RMSDP=6.41D-06 MaxDP=6.90D-04 DE= 3.42D-05 OVMax= 1.96D-05

 Initial convergence to 1.0D-05 achieved.  Increase integral accuracy.
 Cycle  13  Pass 1  IDiag  1:
 E= -1507.89245703829     Delta-E=        0.000098040415 Rises=F Damp=F
 DIIS: error= 2.94D-04 at cycle   1 NSaved=   1.
 NSaved= 1 IEnMin= 1 EnMin= -1507.89245703829     IErMin= 1 ErrMin= 2.94D-04
 ErrMax= 2.94D-04  0.00D+00 EMaxC= 1.00D-01 BMatC= 8.75D-05 BMatP= 8.75D-05
 IDIUse=3 WtCom= 9.97D-01 WtEn= 2.94D-03
 Coeff-Com:  0.100D+01
 Coeff-En:   0.100D+01
 Coeff:      0.100D+01
 Gap=     0.227 Goal=   None    Shift=    0.000
 RMSDP=6.41D-06 MaxDP=6.90D-04 DE= 9.80D-05 OVMax= 1.07D-03

 Cycle  14  Pass 1  IDiag  1:
 RMSU=  4.55D-04    CP:  9.95D-01
 E= -1507.89251676888     Delta-E=       -0.000059730585 Rises=F Damp=F
 DIIS: error= 6.85D-06 at cycle   2 NSaved=   2.
 NSaved= 2 IEnMin= 2 EnMin= -1507.89251676888     IErMin= 2 ErrMin= 6.85D-06
 ErrMax= 6.85D-06  0.00D+00 EMaxC= 1.00D-01 BMatC= 1.15D-07 BMatP= 8.75D-05
 IDIUse=1 WtCom= 1.00D+00 WtEn= 0.00D+00
 Coeff-Com: -0.160D-01 0.102D+01
 Coeff:     -0.160D-01 0.102D+01
 Gap=     0.227 Goal=   None    Shift=    0.000
 RMSDP=1.63D-05 MaxDP=1.40D-03 DE=-5.97D-05 OVMax= 1.52D-04

 Cycle  15  Pass 1  IDiag  1:
 RMSU=  5.16D-06    CP:  9.95D-01  1.03D+00
 E= -1507.89251678485     Delta-E=       -0.000000015971 Rises=F Damp=F
 DIIS: error= 6.65D-06 at cycle   3 NSaved=   3.
 NSaved= 3 IEnMin= 3 EnMin= -1507.89251678485     IErMin= 3 ErrMin= 6.65D-06
 ErrMax= 6.65D-06  0.00D+00 EMaxC= 1.00D-01 BMatC= 1.44D-07 BMatP= 1.15D-07
 IDIUse=1 WtCom= 1.00D+00 WtEn= 0.00D+00
 Coeff-Com: -0.990D-02 0.569D+00 0.441D+00
 Coeff:     -0.990D-02 0.569D+00 0.441D+00
 Gap=     0.227 Goal=   None    Shift=    0.000
 RMSDP=5.92D-07 MaxDP=6.33D-05 DE=-1.60D-08 OVMax= 1.07D-04

 Cycle  16  Pass 1  IDiag  1:
 RMSU=  5.34D-07    CP:  9.95D-01  1.03D+00  1.02D+00
 E= -1507.89251690106     Delta-E=       -0.000000116215 Rises=F Damp=F
 DIIS: error= 1.45D-06 at cycle   4 NSaved=   4.
 NSaved= 4 IEnMin= 4 EnMin= -1507.89251690106     IErMin= 4 ErrMin= 1.45D-06
 ErrMax= 1.45D-06  0.00D+00 EMaxC= 1.00D-01 BMatC= 4.96D-09 BMatP= 1.15D-07
 IDIUse=1 WtCom= 1.00D+00 WtEn= 0.00D+00
 Coeff-Com: -0.173D-02 0.888D-01 0.170D+00 0.743D+00
 Coeff:     -0.173D-02 0.888D-01 0.170D+00 0.743D+00
 Gap=     0.227 Goal=   None    Shift=    0.000
 RMSDP=3.54D-07 MaxDP=4.02D-05 DE=-1.16D-07 OVMax= 2.42D-05

 Cycle  17  Pass 1  IDiag  1:
 RMSU=  1.79D-07    CP:  9.95D-01  1.03D+00  1.06D+00  9.93D-01
 E= -1507.89251690500     Delta-E=       -0.000000003934 Rises=F Damp=F
 DIIS: error= 4.88D-07 at cycle   5 NSaved=   5.
 NSaved= 5 IEnMin= 5 EnMin= -1507.89251690500     IErMin= 5 ErrMin= 4.88D-07
 ErrMax= 4.88D-07  0.00D+00 EMaxC= 1.00D-01 BMatC= 9.22D-10 BMatP= 4.96D-09
 IDIUse=1 WtCom= 1.00D+00 WtEn= 0.00D+00
 Coeff-Com:  0.334D-03-0.245D-01 0.305D-01 0.370D+00 0.624D+00
 Coeff:      0.334D-03-0.245D-01 0.305D-01 0.370D+00 0.624D+00
 Gap=     0.227 Goal=   None    Shift=    0.000
 RMSDP=1.00D-07 MaxDP=7.95D-06 DE=-3.93D-09 OVMax= 6.19D-06

 Cycle  18  Pass 1  IDiag  1:
 RMSU=  4.96D-08    CP:  9.95D-01  1.04D+00  1.07D+00  1.05D+00  1.06D+00
 E= -1507.89251690587     Delta-E=       -0.000000000875 Rises=F Damp=F
 DIIS: error= 1.54D-07 at cycle   6 NSaved=   6.
 NSaved= 6 IEnMin= 6 EnMin= -1507.89251690587     IErMin= 6 ErrMin= 1.54D-07
 ErrMax= 1.54D-07  0.00D+00 EMaxC= 1.00D-01 BMatC= 4.90D-11 BMatP= 9.22D-10
 IDIUse=1 WtCom= 1.00D+00 WtEn= 0.00D+00
 Coeff-Com:  0.240D-03-0.153D-01 0.161D-02 0.104D+00 0.249D+00 0.661D+00
 Coeff:      0.240D-03-0.153D-01 0.161D-02 0.104D+00 0.249D+00 0.661D+00
 Gap=     0.227 Goal=   None    Shift=    0.000
 RMSDP=2.19D-08 MaxDP=2.47D-06 DE=-8.75D-10 OVMax= 2.76D-06

 Cycle  19  Pass 1  IDiag  1:
 RMSU=  1.48D-08    CP:  9.95D-01  1.04D+00  1.07D+00  1.05D+00  1.14D+00
                    CP:  1.01D+00
 E= -1507.89251690594     Delta-E=       -0.000000000069 Rises=F Damp=F
 DIIS: error= 7.47D-08 at cycle   7 NSaved=   7.
 NSaved= 7 IEnMin= 7 EnMin= -1507.89251690594     IErMin= 7 ErrMin= 7.47D-08
 ErrMax= 7.47D-08  0.00D+00 EMaxC= 1.00D-01 BMatC= 8.88D-12 BMatP= 4.90D-11
 IDIUse=1 WtCom= 1.00D+00 WtEn= 0.00D+00
 Coeff-Com:  0.987D-05 0.137D-03-0.672D-02-0.483D-01-0.600D-01 0.253D+00
 Coeff-Com:  0.862D+00
 Coeff:      0.987D-05 0.137D-03-0.672D-02-0.483D-01-0.600D-01 0.253D+00
 Coeff:      0.862D+00
 Gap=     0.227 Goal=   None    Shift=    0.000
 RMSDP=1.27D-08 MaxDP=1.80D-06 DE=-6.87D-11 OVMax= 1.93D-06

 Cycle  20  Pass 1  IDiag  1:
 RMSU=  7.42D-09    CP:  9.95D-01  1.04D+00  1.07D+00  1.06D+00  1.19D+00
                    CP:  1.12D+00  1.03D+00
 E= -1507.89251690598     Delta-E=       -0.000000000042 Rises=F Damp=F
 DIIS: error= 2.64D-08 at cycle   8 NSaved=   8.
 NSaved= 8 IEnMin= 8 EnMin= -1507.89251690598     IErMin= 8 ErrMin= 2.64D-08
 ErrMax= 2.64D-08  0.00D+00 EMaxC= 1.00D-01 BMatC= 1.64D-12 BMatP= 8.88D-12
 IDIUse=1 WtCom= 1.00D+00 WtEn= 0.00D+00
 Coeff-Com: -0.269D-04 0.208D-02-0.335D-02-0.359D-01-0.616D-01 0.465D-01
 Coeff-Com:  0.414D+00 0.639D+00
 Coeff:     -0.269D-04 0.208D-02-0.335D-02-0.359D-01-0.616D-01 0.465D-01
 Coeff:      0.414D+00 0.639D+00
 Gap=     0.227 Goal=   None    Shift=    0.000
 RMSDP=3.07D-09 MaxDP=4.00D-07 DE=-4.18D-11 OVMax= 5.46D-07

 SCF Done:  E(RM062X) =  -1507.89251691     A.U. after   20 cycles
            NFock= 20  Conv=0.31D-08     -V/T= 2.0040
 KE= 1.501812289409D+03 PE=-8.392357190350D+03 EE= 2.955811080154D+03
 Leave Link  502 at Sun Feb 19 04:21:08 2023, MaxMem=  2684354560 cpu:            8120.2 elap:             508.3
 (Enter /storage/apps/GAUSSIAN/G16_RevA03/g16/l601.exe)
 Copying SCF densities to generalized density rwf, IOpCl= 0 IROHF=0.

 **********************************************************************

            Population analysis using the SCF density.

 **********************************************************************

 Alpha  occ. eigenvalues --  -89.90726 -19.64051 -19.63648 -19.62083 -19.61855
 Alpha  occ. eigenvalues --  -19.58853 -14.79252 -14.77051 -10.64909 -10.64341
 Alpha  occ. eigenvalues --  -10.62936 -10.60185 -10.59848 -10.59316 -10.58643
 Alpha  occ. eigenvalues --  -10.57433 -10.56331 -10.55700 -10.55159 -10.54451
 Alpha  occ. eigenvalues --  -10.54055 -10.54040 -10.53868 -10.53672  -8.26645
 Alpha  occ. eigenvalues --   -6.18583  -6.18358  -6.18156  -1.19772  -1.17061
 Alpha  occ. eigenvalues --   -1.15775  -1.15728  -1.14032  -1.08177  -1.01512
 Alpha  occ. eigenvalues --   -0.92170  -0.91090  -0.88444  -0.88322  -0.86994
 Alpha  occ. eigenvalues --   -0.85927  -0.81255  -0.78790  -0.74969  -0.74824
 Alpha  occ. eigenvalues --   -0.72849  -0.70377  -0.68318  -0.66555  -0.66436
 Alpha  occ. eigenvalues --   -0.63425  -0.62719  -0.61279  -0.60439  -0.59749
 Alpha  occ. eigenvalues --   -0.57758  -0.56298  -0.55446  -0.54678  -0.53855
 Alpha  occ. eigenvalues --   -0.53117  -0.52978  -0.51909  -0.50873  -0.50620
 Alpha  occ. eigenvalues --   -0.50211  -0.49711  -0.49229  -0.48820  -0.48270
 Alpha  occ. eigenvalues --   -0.48101  -0.47896  -0.47050  -0.47014  -0.46200
 Alpha  occ. eigenvalues --   -0.46073  -0.44818  -0.44468  -0.43939  -0.43007
 Alpha  occ. eigenvalues --   -0.42395  -0.42145  -0.41444  -0.39900  -0.37946
 Alpha  occ. eigenvalues --   -0.35610  -0.34996  -0.34764  -0.34273  -0.34049
 Alpha  occ. eigenvalues --   -0.32729  -0.32266  -0.31313  -0.29783  -0.24795
 Alpha virt. eigenvalues --   -0.02135   0.00999   0.04765   0.04942   0.05532
 Alpha virt. eigenvalues --    0.06273   0.06616   0.07519   0.08641   0.08776
 Alpha virt. eigenvalues --    0.08987   0.09318   0.10014   0.10724   0.11336
 Alpha virt. eigenvalues --    0.11682   0.12362   0.12650   0.12782   0.13348
 Alpha virt. eigenvalues --    0.13729   0.14056   0.14295   0.14598   0.15079
 Alpha virt. eigenvalues --    0.15798   0.16230   0.16442   0.17007   0.17967
 Alpha virt. eigenvalues --    0.18511   0.18988   0.19516   0.19641   0.20130
 Alpha virt. eigenvalues --    0.20811   0.21069   0.21632   0.22085   0.22145
 Alpha virt. eigenvalues --    0.22854   0.23415   0.23920   0.23968   0.24881
 Alpha virt. eigenvalues --    0.25243   0.25573   0.25944   0.26255   0.26816
 Alpha virt. eigenvalues --    0.27353   0.27583   0.28190   0.28359   0.28891
 Alpha virt. eigenvalues --    0.29234   0.29895   0.29972   0.30982   0.31617
 Alpha virt. eigenvalues --    0.31895   0.32168   0.32304   0.32858   0.33191
 Alpha virt. eigenvalues --    0.33855   0.34286   0.34593   0.35398   0.36055
 Alpha virt. eigenvalues --    0.36672   0.37484   0.37627   0.38132   0.38425
 Alpha virt. eigenvalues --    0.38649   0.39219   0.39528   0.40056   0.40544
 Alpha virt. eigenvalues --    0.40618   0.41076   0.41195   0.41441   0.42098
 Alpha virt. eigenvalues --    0.42315   0.42687   0.43112   0.43333   0.43504
 Alpha virt. eigenvalues --    0.43773   0.43911   0.44617   0.45592   0.45647
 Alpha virt. eigenvalues --    0.46143   0.46340   0.46652   0.47029   0.47704
 Alpha virt. eigenvalues --    0.48063   0.48377   0.48884   0.49100   0.49144
 Alpha virt. eigenvalues --    0.49425   0.49772   0.50414   0.50640   0.50754
 Alpha virt. eigenvalues --    0.51159   0.51271   0.51337   0.52147   0.52527
 Alpha virt. eigenvalues --    0.53007   0.53514   0.53717   0.53944   0.54793
 Alpha virt. eigenvalues --    0.54961   0.55985   0.56056   0.56552   0.57699
 Alpha virt. eigenvalues --    0.57729   0.58374   0.58416   0.58719   0.59253
 Alpha virt. eigenvalues --    0.59459   0.60392   0.60808   0.60950   0.62112
 Alpha virt. eigenvalues --    0.62542   0.62991   0.63302   0.63499   0.64084
 Alpha virt. eigenvalues --    0.64683   0.65468   0.66201   0.66744   0.67294
 Alpha virt. eigenvalues --    0.67522   0.67990   0.68566   0.69786   0.70079
 Alpha virt. eigenvalues --    0.71059   0.71981   0.72321   0.72762   0.73585
 Alpha virt. eigenvalues --    0.74572   0.75197   0.75822   0.76836   0.77213
 Alpha virt. eigenvalues --    0.77948   0.78738   0.78977   0.80275   0.80509
 Alpha virt. eigenvalues --    0.81317   0.81707   0.82599   0.83164   0.83421
 Alpha virt. eigenvalues --    0.83973   0.84589   0.85389   0.86399   0.87233
 Alpha virt. eigenvalues --    0.87965   0.88884   0.89020   0.89677   0.90654
 Alpha virt. eigenvalues --    0.91017   0.92064   0.92741   0.92870   0.93852
 Alpha virt. eigenvalues --    0.94550   0.94837   0.95585   0.95958   0.96717
 Alpha virt. eigenvalues --    0.97287   0.97759   0.98305   0.98740   0.99364
 Alpha virt. eigenvalues --    0.99688   1.01507   1.02250   1.03536   1.03935
 Alpha virt. eigenvalues --    1.04763   1.05119   1.05985   1.06307   1.06825
 Alpha virt. eigenvalues --    1.07311   1.08715   1.08975   1.09494   1.09925
 Alpha virt. eigenvalues --    1.11017   1.11184   1.12119   1.12551   1.13058
 Alpha virt. eigenvalues --    1.13470   1.14064   1.14351   1.15516   1.16282
 Alpha virt. eigenvalues --    1.16764   1.17066   1.17711   1.18411   1.19694
 Alpha virt. eigenvalues --    1.20682   1.20793   1.22089   1.22954   1.23484
 Alpha virt. eigenvalues --    1.24258   1.25739   1.26196   1.26764   1.27844
 Alpha virt. eigenvalues --    1.28264   1.29843   1.30770   1.31505   1.32423
 Alpha virt. eigenvalues --    1.33141   1.33652   1.34002   1.35035   1.35412
 Alpha virt. eigenvalues --    1.36352   1.36806   1.38436   1.39235   1.40489
 Alpha virt. eigenvalues --    1.40968   1.41398   1.42178   1.43399   1.44031
 Alpha virt. eigenvalues --    1.44945   1.46394   1.47434   1.47895   1.49467
 Alpha virt. eigenvalues --    1.50558   1.51214   1.51792   1.52138   1.52676
 Alpha virt. eigenvalues --    1.53435   1.53825   1.54077   1.55440   1.56137
 Alpha virt. eigenvalues --    1.56509   1.56819   1.56936   1.57526   1.57776
 Alpha virt. eigenvalues --    1.58139   1.58747   1.58848   1.59254   1.60243
 Alpha virt. eigenvalues --    1.60301   1.61106   1.61645   1.61935   1.62515
 Alpha virt. eigenvalues --    1.63006   1.63290   1.63762   1.64483   1.64958
 Alpha virt. eigenvalues --    1.65756   1.65839   1.66837   1.67268   1.68044
 Alpha virt. eigenvalues --    1.68590   1.69159   1.70135   1.70635   1.70846
 Alpha virt. eigenvalues --    1.71236   1.72073   1.72375   1.73168   1.73489
 Alpha virt. eigenvalues --    1.73808   1.74364   1.75976   1.76831   1.77583
 Alpha virt. eigenvalues --    1.78108   1.78723   1.79019   1.80206   1.80408
 Alpha virt. eigenvalues --    1.81293   1.82260   1.82775   1.83549   1.83751
 Alpha virt. eigenvalues --    1.84721   1.84906   1.85089   1.85871   1.86982
 Alpha virt. eigenvalues --    1.88012   1.88506   1.88883   1.89188   1.90332
 Alpha virt. eigenvalues --    1.91530   1.91740   1.92527   1.93687   1.94797
 Alpha virt. eigenvalues --    1.95019   1.95530   1.95867   1.96848   1.97310
 Alpha virt. eigenvalues --    1.97928   1.98253   1.99472   1.99963   2.00598
 Alpha virt. eigenvalues --    2.02014   2.02443   2.02584   2.03500   2.04662
 Alpha virt. eigenvalues --    2.05436   2.05921   2.06436   2.07420   2.08224
 Alpha virt. eigenvalues --    2.09069   2.09941   2.10758   2.11238   2.12491
 Alpha virt. eigenvalues --    2.13180   2.13343   2.14221   2.15295   2.15892
 Alpha virt. eigenvalues --    2.16807   2.17618   2.18018   2.18213   2.19985
 Alpha virt. eigenvalues --    2.20642   2.21473   2.22053   2.22713   2.23311
 Alpha virt. eigenvalues --    2.23864   2.24082   2.24717   2.26541   2.27384
 Alpha virt. eigenvalues --    2.27420   2.28045   2.28532   2.28813   2.29495
 Alpha virt. eigenvalues --    2.30791   2.31730   2.31799   2.32100   2.33065
 Alpha virt. eigenvalues --    2.33465   2.33770   2.34997   2.35474   2.35896
 Alpha virt. eigenvalues --    2.36037   2.36868   2.37916   2.38432   2.39495
 Alpha virt. eigenvalues --    2.40274   2.40843   2.41095   2.42652   2.43195
 Alpha virt. eigenvalues --    2.44077   2.44982   2.45124   2.46646   2.47304
 Alpha virt. eigenvalues --    2.48012   2.48351   2.49148   2.50406   2.50535
 Alpha virt. eigenvalues --    2.51433   2.52729   2.52895   2.53636   2.54770
 Alpha virt. eigenvalues --    2.55158   2.55878   2.56363   2.57282   2.57538
 Alpha virt. eigenvalues --    2.57994   2.58248   2.58929   2.59411   2.59981
 Alpha virt. eigenvalues --    2.60639   2.60928   2.62639   2.63128   2.63693
 Alpha virt. eigenvalues --    2.64348   2.64562   2.65756   2.65979   2.66542
 Alpha virt. eigenvalues --    2.66990   2.67843   2.68206   2.69247   2.70203
 Alpha virt. eigenvalues --    2.70521   2.70890   2.71687   2.72365   2.72649
 Alpha virt. eigenvalues --    2.73905   2.74246   2.75694   2.76536   2.76769
 Alpha virt. eigenvalues --    2.77632   2.77961   2.78833   2.79168   2.81041
 Alpha virt. eigenvalues --    2.81799   2.82384   2.82981   2.83733   2.84566
 Alpha virt. eigenvalues --    2.85624   2.86273   2.87437   2.88315   2.88599
 Alpha virt. eigenvalues --    2.89729   2.90361   2.91427   2.92622   2.92837
 Alpha virt. eigenvalues --    2.93954   2.95221   2.95658   2.96186   2.96831
 Alpha virt. eigenvalues --    2.97912   2.98400   2.99524   2.99768   3.00086
 Alpha virt. eigenvalues --    3.02096   3.02390   3.02898   3.03205   3.03750
 Alpha virt. eigenvalues --    3.04681   3.05091   3.05975   3.06376   3.07013
 Alpha virt. eigenvalues --    3.07482   3.08343   3.08830   3.09461   3.09948
 Alpha virt. eigenvalues --    3.10198   3.10644   3.11274   3.12255   3.12787
 Alpha virt. eigenvalues --    3.13379   3.13650   3.15058   3.15318   3.16134
 Alpha virt. eigenvalues --    3.16436   3.17284   3.17932   3.18614   3.18909
 Alpha virt. eigenvalues --    3.19262   3.19653   3.20729   3.21540   3.21625
 Alpha virt. eigenvalues --    3.22280   3.22761   3.24115   3.24323   3.25273
 Alpha virt. eigenvalues --    3.25796   3.26532   3.26895   3.27556   3.28282
 Alpha virt. eigenvalues --    3.29068   3.29464   3.29855   3.30798   3.30868
 Alpha virt. eigenvalues --    3.31457   3.32144   3.33088   3.33676   3.34213
 Alpha virt. eigenvalues --    3.34557   3.35587   3.36239   3.36428   3.37020
 Alpha virt. eigenvalues --    3.37901   3.38037   3.38453   3.38982   3.39504
 Alpha virt. eigenvalues --    3.40186   3.40969   3.41930   3.42569   3.42692
 Alpha virt. eigenvalues --    3.43169   3.44011   3.44439   3.45467   3.46147
 Alpha virt. eigenvalues --    3.46545   3.46776   3.48045   3.48313   3.48825
 Alpha virt. eigenvalues --    3.50201   3.50485   3.51782   3.52140   3.52634
 Alpha virt. eigenvalues --    3.53522   3.54003   3.54726   3.55502   3.56442
 Alpha virt. eigenvalues --    3.57415   3.57974   3.58278   3.58978   3.59772
 Alpha virt. eigenvalues --    3.61328   3.62257   3.63067   3.64255   3.64563
 Alpha virt. eigenvalues --    3.65751   3.65928   3.67017   3.67379   3.68201
 Alpha virt. eigenvalues --    3.69609   3.71356   3.72401   3.72945   3.73579
 Alpha virt. eigenvalues --    3.74660   3.75492   3.76229   3.76566   3.77402
 Alpha virt. eigenvalues --    3.77850   3.79001   3.79156   3.80076   3.80601
 Alpha virt. eigenvalues --    3.82160   3.84368   3.84976   3.86775   3.87899
 Alpha virt. eigenvalues --    3.89482   3.90764   3.91489   3.92502   3.93122
 Alpha virt. eigenvalues --    3.93750   3.94680   3.96747   3.98508   3.99160
 Alpha virt. eigenvalues --    4.00126   4.01513   4.03591   4.03784   4.06093
 Alpha virt. eigenvalues --    4.07839   4.09356   4.09832   4.10457   4.11577
 Alpha virt. eigenvalues --    4.12140   4.12545   4.13661   4.14337   4.16741
 Alpha virt. eigenvalues --    4.18102   4.19893   4.20547   4.21468   4.22807
 Alpha virt. eigenvalues --    4.24109   4.26299   4.27201   4.28049   4.29151
 Alpha virt. eigenvalues --    4.30813   4.33102   4.34798   4.36237   4.38524
 Alpha virt. eigenvalues --    4.38993   4.39933   4.40393   4.41788   4.42119
 Alpha virt. eigenvalues --    4.42989   4.44254   4.46599   4.49059   4.49565
 Alpha virt. eigenvalues --    4.50535   4.51555   4.53814   4.56262   4.56749
 Alpha virt. eigenvalues --    4.58980   4.59430   4.65284   4.65959   4.66342
 Alpha virt. eigenvalues --    4.68298   4.70570   4.71545   4.74377   4.75238
 Alpha virt. eigenvalues --    4.75441   4.75906   4.77792   4.79273   4.80298
 Alpha virt. eigenvalues --    4.83961   4.86555   4.87886   4.89590   4.92392
 Alpha virt. eigenvalues --    4.93756   4.94162   4.96986   4.98236   4.98735
 Alpha virt. eigenvalues --    4.99121   5.00673   5.01341   5.04691   5.06463
 Alpha virt. eigenvalues --    5.09067   5.13181   5.13660   5.17489   5.20450
 Alpha virt. eigenvalues --    5.22220   5.22967   5.23421   5.25180   5.28228
 Alpha virt. eigenvalues --    5.29512   5.31189   5.31427   5.34593   5.35605
 Alpha virt. eigenvalues --    5.37178   5.41216   5.42980   5.44288   5.46759
 Alpha virt. eigenvalues --    5.47261   5.49482   5.53812   5.57652   5.57977
 Alpha virt. eigenvalues --    5.62901   5.66113   5.74590   5.75961   5.77632
 Alpha virt. eigenvalues --    5.78988   5.79943   5.83208   5.84038   5.86060
 Alpha virt. eigenvalues --    5.87759   5.88852   5.90423   5.92461   5.94002
 Alpha virt. eigenvalues --    5.97726   6.02419   6.08049   6.16640   6.20478
 Alpha virt. eigenvalues --    6.22751   6.25485   6.29313   6.31311   6.33762
 Alpha virt. eigenvalues --    6.38094   6.44001   6.44917   6.47550   6.52378
 Alpha virt. eigenvalues --    6.55646   6.59013   6.69539   6.73147   6.74770
 Alpha virt. eigenvalues --    6.78889   6.81225   6.82616   6.85954   6.86449
 Alpha virt. eigenvalues --    6.87334   6.92619   6.98850   7.00538   7.07049
 Alpha virt. eigenvalues --    7.08096   7.08847   7.10151   7.15907   7.24372
 Alpha virt. eigenvalues --    7.25764   7.33623   8.98978   9.38456   9.51272
 Alpha virt. eigenvalues --   19.85418  22.28080  22.42267  22.47764  22.48559
 Alpha virt. eigenvalues --   22.61432  22.65527  22.66881  22.72424  22.79348
 Alpha virt. eigenvalues --   22.86100  22.92897  22.99457  23.02502  23.05463
 Alpha virt. eigenvalues --   23.19255  23.47541  32.15624  33.18261  44.12353
 Alpha virt. eigenvalues --   44.18200  44.23439  44.27458  44.57388
          Condensed to atoms (all electrons):
               1          2          3          4          5          6
     1  C    5.118812   0.421027   0.413059  -0.016962  -0.000076  -0.000110
     2  H    0.421027   0.509956  -0.022540  -0.001484   0.000429  -0.000005
     3  H    0.413059  -0.022540   0.541640   0.001372  -0.000019  -0.000008
     4  C   -0.016962  -0.001484   0.001372   5.638245   0.472739   0.240121
     5  H   -0.000076   0.000429  -0.000019   0.472739   0.546983  -0.030420
     6  O   -0.000110  -0.000005  -0.000008   0.240121  -0.030420   8.015922
     7  H    0.000004  -0.000009   0.000004  -0.064636  -0.002775   0.294539
     8  C    0.008351   0.013537  -0.009682  -0.171624  -0.083392  -0.053951
     9  H    0.010359   0.000024  -0.002097  -0.134392   0.003447   0.002161
    10  O    0.007631  -0.000367   0.000299  -0.044133   0.002161   0.000772
    11  H   -0.000634  -0.000194   0.000474   0.011758  -0.000890  -0.000569
    12  C   -0.002077  -0.000141   0.001169  -0.042510  -0.052141  -0.001678
    13  H   -0.000323   0.000048   0.000125  -0.111784   0.005925   0.000154
    14  C    0.183826  -0.048497  -0.040372   0.155487   0.018263   0.009444
    15  H   -0.075215  -0.006745  -0.002947  -0.014732  -0.000177   0.000040
    16  O   -0.035775   0.000844   0.005344  -0.086304  -0.003176   0.005706
    17  N    0.000257  -0.000104  -0.000038   0.035472  -0.015832  -0.007616
    18  C   -0.001058   0.000005   0.000003   0.002337  -0.003397   0.003790
    19  H   -0.000054  -0.000073   0.000050  -0.016496  -0.003514   0.001404
    20  C   -0.000038   0.000006  -0.000002   0.004945   0.005503  -0.002650
    21  H    0.000005   0.000000  -0.000000   0.000016   0.000136  -0.000041
    22  C   -0.000010  -0.000001   0.000000   0.000359  -0.000211   0.000177
    23  H   -0.000000   0.000000   0.000000   0.000031   0.000006   0.000000
    24  H    0.000000  -0.000000  -0.000000  -0.000270  -0.000048  -0.000004
    25  C   -0.000066  -0.000006   0.000001  -0.001620  -0.000640  -0.000403
    26  C   -0.000260   0.000025  -0.000004   0.024187  -0.000548  -0.003064
    27  H   -0.000013   0.000001  -0.000000   0.000711  -0.000054   0.000118
    28  C    0.000000  -0.000000  -0.000000   0.000149  -0.000004  -0.000022
    29  O   -0.000000   0.000000  -0.000000   0.000002   0.000000  -0.000000
    30  N   -0.000000  -0.000000   0.000000   0.000002  -0.000000  -0.000000
    31  H   -0.000000   0.000000   0.000000   0.000000   0.000000  -0.000000
    32  H    0.000000   0.000000  -0.000000   0.000000   0.000000   0.000000
    33  C    0.000000  -0.000000   0.000000  -0.000240  -0.000346  -0.012893
    34  C    0.000000  -0.000000  -0.000000   0.000254   0.000010  -0.001044
    35  C    0.000000   0.000000  -0.000000  -0.000273   0.000063   0.000004
    36  C   -0.000000   0.000000   0.000000  -0.000001   0.000000   0.000001
    37  C   -0.000000   0.000000   0.000000   0.000226  -0.000002   0.000060
    38  O    0.000000   0.000000  -0.000000  -0.000040  -0.000067  -0.016237
    39  S   -0.000000  -0.000000   0.000000   0.000649   0.000018   0.000865
    40  H   -0.000000   0.000000  -0.000000   0.000188   0.000021   0.000220
    41  H   -0.000001   0.000000  -0.000000  -0.004333   0.000529   0.014898
    42  H    0.000000   0.000000  -0.000000  -0.000000   0.000000  -0.000000
    43  H    0.000000  -0.000000  -0.000000   0.000000  -0.000000  -0.000000
    44  H   -0.000000  -0.000000  -0.000000  -0.000000  -0.000000   0.000000
    45  H   -0.000000  -0.000000   0.000000   0.000017   0.000003   0.000011
    46  H    0.000000  -0.000000  -0.000000  -0.000019   0.000000   0.000007
    47  H    0.380150  -0.022125  -0.025190   0.003122  -0.001190   0.000051
    48  H    0.000000   0.000000  -0.000000   0.000062   0.000002   0.000423
               7          8          9         10         11         12
     1  C    0.000004   0.008351   0.010359   0.007631  -0.000634  -0.002077
     2  H   -0.000009   0.013537   0.000024  -0.000367  -0.000194  -0.000141
     3  H    0.000004  -0.009682  -0.002097   0.000299   0.000474   0.001169
     4  C   -0.064636  -0.171624  -0.134392  -0.044133   0.011758  -0.042510
     5  H   -0.002775  -0.083392   0.003447   0.002161  -0.000890  -0.052141
     6  O    0.294539  -0.053951   0.002161   0.000772  -0.000569  -0.001678
     7  H    0.439268   0.002933  -0.000968  -0.001279   0.000292  -0.003036
     8  C    0.002933   5.596078   0.533666   0.260106  -0.039991   0.021719
     9  H   -0.000968   0.533666   0.572934  -0.057124  -0.001655   0.016939
    10  O   -0.001279   0.260106  -0.057124   8.038986   0.288957  -0.013244
    11  H    0.000292  -0.039991  -0.001655   0.288957   0.428029  -0.001493
    12  C   -0.003036   0.021719   0.016939  -0.013244  -0.001493   5.576180
    13  H   -0.003325   0.019653   0.002874   0.015984  -0.001544   0.483008
    14  C   -0.000105   0.039116  -0.110113  -0.047380  -0.005555  -0.109390
    15  H    0.000132  -0.036756   0.011469  -0.007537   0.005928   0.000455
    16  O    0.001637  -0.042369   0.004876   0.007652   0.000368   0.280892
    17  N    0.019486   0.001462  -0.001099  -0.000633   0.000045   0.116452
    18  C   -0.001956  -0.005294  -0.000487  -0.000513   0.000020  -0.102491
    19  H    0.000579   0.001524   0.000053  -0.000008   0.000005   0.020341
    20  C   -0.000855  -0.002072   0.000008   0.000010  -0.000001   0.015985
    21  H    0.000009  -0.000008   0.000000   0.000000  -0.000000   0.000440
    22  C    0.000250   0.000015  -0.000003  -0.000004   0.000000  -0.010985
    23  H   -0.000021   0.000000   0.000000   0.000000  -0.000000   0.000100
    24  H    0.000584   0.000012  -0.000000   0.000000   0.000000   0.000539
    25  C   -0.001688  -0.000170  -0.000002  -0.000051   0.000001  -0.025606
    26  C   -0.002696  -0.003735  -0.000138  -0.000794  -0.000041  -0.076161
    27  H    0.000191  -0.000065  -0.000007  -0.000117   0.000006  -0.001239
    28  C    0.000086   0.000005   0.000000  -0.000000  -0.000000  -0.001829
    29  O    0.000024   0.000001   0.000000  -0.000000  -0.000000   0.000402
    30  N   -0.000000  -0.000000  -0.000000  -0.000000  -0.000000  -0.000014
    31  H   -0.000000  -0.000000   0.000000  -0.000000  -0.000000  -0.000005
    32  H   -0.000000  -0.000000  -0.000000  -0.000000  -0.000000  -0.000005
    33  C    0.004862   0.000796   0.000002  -0.000567   0.000045  -0.000815
    34  C   -0.001734  -0.000079  -0.000001   0.000022  -0.000001  -0.001781
    35  C    0.002363  -0.000061  -0.000000   0.000001  -0.000000   0.001495
    36  C   -0.000003  -0.000000  -0.000000  -0.000000  -0.000000   0.000023
    37  C   -0.001228   0.000002  -0.000000  -0.000000   0.000000  -0.000630
    38  O    0.025338   0.000035   0.000004   0.000004  -0.000000  -0.001565
    39  S   -0.002809  -0.000013  -0.000000  -0.000002  -0.000000  -0.000455
    40  H   -0.001578  -0.000014   0.000000   0.000009  -0.000001   0.000017
    41  H   -0.000268  -0.001902   0.000037   0.001925  -0.000148   0.001969
    42  H    0.000001   0.000000  -0.000000   0.000000  -0.000000   0.000001
    43  H    0.000001   0.000000  -0.000000  -0.000000   0.000000   0.000001
    44  H   -0.000000  -0.000000  -0.000000   0.000000   0.000000  -0.000000
    45  H   -0.000107  -0.000000   0.000000  -0.000000  -0.000000  -0.000019
    46  H    0.000011  -0.000000  -0.000000   0.000000   0.000000   0.000104
    47  H    0.000040  -0.016406   0.001572   0.000097   0.000142  -0.001093
    48  H   -0.000191  -0.000006   0.000001   0.000006  -0.000001  -0.000009
              13         14         15         16         17         18
     1  C   -0.000323   0.183826  -0.075215  -0.035775   0.000257  -0.001058
     2  H    0.000048  -0.048497  -0.006745   0.000844  -0.000104   0.000005
     3  H    0.000125  -0.040372  -0.002947   0.005344  -0.000038   0.000003
     4  C   -0.111784   0.155487  -0.014732  -0.086304   0.035472   0.002337
     5  H    0.005925   0.018263  -0.000177  -0.003176  -0.015832  -0.003397
     6  O    0.000154   0.009444   0.000040   0.005706  -0.007616   0.003790
     7  H   -0.003325  -0.000105   0.000132   0.001637   0.019486  -0.001956
     8  C    0.019653   0.039116  -0.036756  -0.042369   0.001462  -0.005294
     9  H    0.002874  -0.110113   0.011469   0.004876  -0.001099  -0.000487
    10  O    0.015984  -0.047380  -0.007537   0.007652  -0.000633  -0.000513
    11  H   -0.001544  -0.005555   0.005928   0.000368   0.000045   0.000020
    12  C    0.483008  -0.109390   0.000455   0.280892   0.116452  -0.102491
    13  H    0.519133  -0.008722   0.006257  -0.039235  -0.072036   0.013468
[...]
      4        6          -0.007599316   -0.002833689    0.002627706
      5        1           0.003779102    0.004130641    0.001478005
      6        8           0.007312692    0.001704875   -0.005351951
      7        1          -0.004521155   -0.005426353    0.004118012
      8        6          -0.003527106   -0.011613216   -0.001321313
      9        1          -0.001147452    0.005390732   -0.004065170
     10        8           0.026290527    0.002011063   -0.005028889
     11        1          -0.024454346    0.004398118    0.007416903
     12        6           0.003054797    0.005933440    0.006423177
     13        1          -0.000901234   -0.001984214   -0.002409806
     14        6           0.008788503   -0.002071951    0.001958988
     15        1          -0.003398905    0.003123986    0.001081633
     16        8           0.002247414   -0.002978656   -0.006718241
     17        7          -0.000097898    0.005419307   -0.005092304
     18        6          -0.009586646   -0.002460649   -0.003774070
     19        1          -0.001821746    0.007908216   -0.000348702
     20        6           0.005276800   -0.005649248    0.000905146
     21        1           0.003150320    0.006198613    0.001664012
     22        6          -0.012376173    0.010221783    0.014701230
     23        1           0.002649652   -0.000952442    0.003976535
     24        1           0.013704211   -0.029191261   -0.027097051
     25        6           0.004195739    0.001860749   -0.000385322
     26        6          -0.002803301   -0.002694893   -0.001801093
     27        1          -0.005997273   -0.004717214    0.002324975
     28        6           0.019067002   -0.002582445    0.017699981
     29        8          -0.006908168   -0.004407666   -0.006400428
     30        7          -0.007825081    0.000683107   -0.023402889
     31        1          -0.003631847   -0.005963644    0.004895907
     32        1           0.006451795    0.010991394    0.010240352
     33        6          -0.006299378   -0.013047968   -0.003034600
     34        6           0.000058237   -0.011868374    0.006902509
     35        6          -0.009414055    0.000081145   -0.008056185
     36        6          -0.002212901    0.001461875   -0.003989700
     37        6           0.005230481    0.017992255    0.018509952
     38        8           0.001156454    0.009581848   -0.005143600
     39       16           0.006111543    0.003565399    0.002231765
     40        1           0.005321873    0.002653220   -0.003271049
     41        1          -0.002094293    0.005485091    0.004787623
     42        1          -0.000648349   -0.000321304    0.004880725
     43        1          -0.002974492   -0.003429627    0.003204532
     44        1           0.005739716   -0.001303492   -0.002667122
     45        1           0.002586028    0.004587138   -0.003188911
     46        1          -0.002955645   -0.005528601    0.003303946
     47        1           0.001366783   -0.004591700   -0.001062332
     48        1          -0.002166741    0.003615748   -0.004748222
 -------------------------------------------------------------------
 Cartesian Forces:  Max     0.029191261 RMS     0.007708759
 Leave Link  716 at Sun Feb 19 04:24:09 2023, MaxMem=  2684354560 cpu:               0.4 elap:               0.0
 (Enter /storage/apps/GAUSSIAN/G16_RevA03/g16/l103.exe)

 GradGradGradGradGradGradGradGradGradGradGradGradGradGradGradGradGradGrad
 Berny optimization.
 Search for a local minimum.
 Step number   1 out of a maximum of    2
 All quantities printed in internal units (Hartrees-Bohrs-Radians)
 Second derivative matrix not updated -- first step.
 ITU=  0
     Eigenvalues ---    0.00050   0.00066   0.00111   0.00137   0.00184
     Eigenvalues ---    0.00259   0.00333   0.00383   0.00451   0.00495
     Eigenvalues ---    0.00564   0.00800   0.00812   0.00896   0.01017
     Eigenvalues ---    0.01043   0.01159   0.01369   0.01417   0.01690
     Eigenvalues ---    0.01729   0.01928   0.01941   0.02496   0.02791
     Eigenvalues ---    0.02962   0.03199   0.03235   0.03512   0.04022
     Eigenvalues ---    0.04237   0.04549   0.04898   0.04955   0.05098
     Eigenvalues ---    0.05250   0.05364   0.05577   0.05779   0.05947
     Eigenvalues ---    0.06086   0.06179   0.06364   0.06554   0.06895
     Eigenvalues ---    0.07021   0.07336   0.07506   0.07843   0.08302
     Eigenvalues ---    0.08692   0.09013   0.09685   0.09969   0.10400
     Eigenvalues ---    0.10754   0.11413   0.12245   0.12297   0.12533
     Eigenvalues ---    0.12726   0.12809   0.12970   0.13426   0.13695
     Eigenvalues ---    0.13803   0.14286   0.15288   0.15740   0.16733
     Eigenvalues ---    0.17063   0.17487   0.18651   0.18979   0.19450
     Eigenvalues ---    0.19835   0.20981   0.21390   0.21882   0.24592
     Eigenvalues ---    0.26800   0.26877   0.27534   0.30792   0.32209
     Eigenvalues ---    0.32250   0.34144   0.34655   0.36807   0.37194
     Eigenvalues ---    0.37194   0.37194   0.37194   0.37194   0.39481
     Eigenvalues ---    0.42028   0.43468   0.47605   0.54023   0.55026
     Eigenvalues ---    0.60360   0.64748   0.67547   0.68884   0.72347
     Eigenvalues ---    0.76204   0.81154   0.81259   0.87260   0.87596
     Eigenvalues ---    0.89008   0.89800   0.91994   0.92071   0.92345
     Eigenvalues ---    0.92949   0.95869   0.97154   0.98649   1.00093
     Eigenvalues ---    1.02024   1.05963   1.08193   1.10587   1.12170
     Eigenvalues ---    1.16230   1.17117   1.20029   1.26605   1.30009
     Eigenvalues ---    1.36723   1.41165   1.48045   1.54392   1.62833
     Eigenvalues ---    1.74037   2.13846   2.21928
 Quadratic step=6.347D+00 exceeds max=3.000D-01 adjusted using Lamda=-5.721D-02.
 Angle between NR and scaled steps=  66.15 degrees.
 Angle between quadratic step and forces=  51.77 degrees.
 Linear search not attempted -- first point.
 Variable       Old X    -DE/DX   Delta X   Delta X   Delta X     New X
                                 (Linear)    (Quad)   (Total)
    X1        6.50523  -0.00105   0.00000  -0.02544  -0.02544   6.47978
    Y1       -7.09951   0.00879   0.00000   0.01491   0.01491  -7.08461
    Z1       -1.17612  -0.00029   0.00000   0.00637   0.00637  -1.16975
    X2        6.66856  -0.00061   0.00000  -0.02466  -0.02466   6.64390
    Y2       -7.39108  -0.00071   0.00000   0.00014   0.00014  -7.39094
    Z2       -3.22524   0.00670   0.00000   0.02316   0.02316  -3.20208
    X3        8.20423  -0.00652   0.00000  -0.04413  -0.04413   8.16010
    Y3       -7.82425  -0.00146   0.00000  -0.02042  -0.02042  -7.84467
    Z3       -0.22358  -0.00339   0.00000  -0.01809  -0.01809  -0.24168
    X4        3.00580  -0.00760   0.00000   0.00100   0.00100   3.00679
    Y4       -2.76451  -0.00283   0.00000   0.00925   0.00925  -2.75525
    Z4        2.01720   0.00263   0.00000   0.00376   0.00376   2.02096
    X5        1.84357   0.00378   0.00000   0.01110   0.01110   1.85467
    Y5       -4.48653   0.00413   0.00000   0.01812   0.01812  -4.46841
    Z5        1.76899   0.00148   0.00000   0.02491   0.02491   1.79390
    X6        2.09244   0.00731   0.00000   0.05078   0.05078   2.14322
    Y6       -1.31930   0.00170   0.00000   0.02351   0.02351  -1.29579
    Z6        4.02568  -0.00535   0.00000   0.00368   0.00368   4.02937
    X7        0.95645  -0.00452   0.00000  -0.04428  -0.04428   0.91217
    Y7       -0.03738  -0.00543   0.00000  -0.04244  -0.04244  -0.07981
    Z7        3.35806   0.00412   0.00000   0.04634   0.04634   3.40440
    X8        5.75887  -0.00353   0.00000  -0.00091  -0.00091   5.75796
    Y8       -3.61878  -0.01161   0.00000   0.00095   0.00095  -3.61782
    Z8        2.20141  -0.00132   0.00000  -0.00806  -0.00806   2.19335
    X9        5.98904  -0.00115   0.00000  -0.00208  -0.00208   5.98695
    Y9       -5.29122   0.00539   0.00000   0.01674   0.01674  -5.27448
    Z9        3.43218  -0.00407   0.00000  -0.01661  -0.01661   3.41557
   X10        7.23657   0.02629   0.00000   0.01030   0.01030   7.24687
   Y10       -1.60392   0.00201   0.00000   0.01168   0.01168  -1.59225
   Z10        3.06670  -0.00503   0.00000  -0.00914  -0.00914   3.05756
   X11        9.01957  -0.02445   0.00000  -0.03335  -0.03335   8.98622
   Y11       -1.92982   0.00440   0.00000   0.00843   0.00843  -1.92140
   Z11        2.60876   0.00742   0.00000   0.01158   0.01158   2.62035
   X12        3.06636   0.00305   0.00000   0.00231   0.00231   3.06867
   Y12       -1.39905   0.00593   0.00000   0.00653   0.00653  -1.39251
   Z12       -0.52186   0.00642   0.00000   0.00053   0.00053  -0.52134
   X13        4.16027  -0.00090   0.00000   0.00542   0.00542   4.16569
   Y13        0.35294  -0.00198   0.00000   0.00109   0.00109   0.35403
   Z13       -0.27318  -0.00241   0.00000  -0.02380  -0.02380  -0.29698
   X14        6.30412   0.00879   0.00000   0.00847   0.00847   6.31259
   Y14       -4.28500  -0.00207   0.00000   0.00639   0.00639  -4.27861
   Z14       -0.61554   0.00196   0.00000   0.00154   0.00154  -0.61400
   X15        8.12452  -0.00340   0.00000  -0.00991  -0.00991   8.11461
   Y15       -3.42508   0.00312   0.00000   0.02865   0.02865  -3.39643
   Z15       -1.14528   0.00108   0.00000  -0.00109  -0.00109  -1.14636
   X16        4.34373   0.00225   0.00000   0.00453   0.00453   4.34826
   Y16       -3.14670  -0.00298   0.00000  -0.00256  -0.00256  -3.14926
   Z16       -2.07182  -0.00672   0.00000  -0.00694  -0.00694  -2.07876
   X17        0.65635  -0.00010   0.00000  -0.00354  -0.00354   0.65281
   Y17       -0.70659   0.00542   0.00000   0.00108   0.00108  -0.70552
   Z17       -1.50838  -0.00509   0.00000  -0.00855  -0.00855  -1.51693
   X18       -1.22211  -0.00959   0.00000  -0.01134  -0.01134  -1.23345
   Y18       -2.54114  -0.00246   0.00000   0.00597   0.00597  -2.53517
   Z18       -1.78946  -0.00377   0.00000  -0.00228  -0.00228  -1.79175
   X19       -0.65684  -0.00182   0.00000  -0.01378  -0.01378  -0.67062
   Y19       -4.47843   0.00791   0.00000   0.03215   0.03215  -4.44628
   Z19       -1.36606  -0.00035   0.00000   0.02186   0.02186  -1.34419
   X20       -3.52229   0.00528   0.00000   0.00721   0.00721  -3.51508
   Y20       -1.97484  -0.00565   0.00000  -0.00823  -0.00823  -1.98307
   Z20       -2.67799   0.00091   0.00000  -0.00947  -0.00947  -2.68746
   X21       -4.85496   0.00315   0.00000  -0.00279  -0.00279  -4.85775
   Y21       -3.51995   0.00620   0.00000   0.02073   0.02073  -3.49922
   Z21       -2.97256   0.00166   0.00000   0.02255   0.02255  -2.95001
   X22       -4.22641  -0.01238   0.00000   0.01078   0.01078  -4.21563
   Y22        0.68741   0.01022   0.00000  -0.02607  -0.02607   0.66134
   Z22       -3.38124   0.01470   0.00000  -0.02039  -0.02039  -3.40164
   X23       -5.52276   0.00265   0.00000   0.00852   0.00852  -5.51423
   Y23        0.70696  -0.00095   0.00000  -0.01287  -0.01287   0.69409
   Z23       -5.00602   0.00398   0.00000   0.00110   0.00110  -5.00491
   X24       -5.27794   0.01370   0.00000   0.02424   0.02424  -5.25370
   Y24        1.77404  -0.02919   0.00000  -0.15638  -0.15638   1.61766
   Z24       -1.78241  -0.02710   0.00000  -0.07927  -0.07927  -1.86169
   X25       -1.88192   0.00420   0.00000   0.00526   0.00526  -1.87666
   Y25        2.21229   0.00186   0.00000  -0.00546  -0.00546   2.20682
   Z25       -3.85101  -0.00039   0.00000   0.00340   0.00340  -3.84761
   X26        0.34023  -0.00280   0.00000  -0.00880  -0.00880   0.33143
   Y26        1.56607  -0.00269   0.00000  -0.01224  -0.01224   1.55383
   Z26       -2.79149  -0.00180   0.00000  -0.00161  -0.00161  -2.79311
   X27        2.00177  -0.00600   0.00000  -0.02196  -0.02196   1.97980
   Y27        2.78058  -0.00472   0.00000  -0.01818  -0.01818   2.76240
   Z27       -2.97988   0.00232   0.00000   0.01750   0.01750  -2.96237
   X28       -2.03744   0.01907   0.00000   0.02682   0.02682  -2.01062
   Y28        4.65124  -0.00258   0.00000  -0.00880  -0.00880   4.64244
   Z28       -5.24981   0.01770   0.00000   0.01467   0.01467  -5.23514
   X29       -0.66923  -0.00691   0.00000   0.00844   0.00844  -0.66079
   Y29        6.44285  -0.00441   0.00000   0.00046   0.00046   6.44330
   Z29       -4.73230  -0.00640   0.00000  -0.01406  -0.01406  -4.74635
   X30       -3.83375  -0.00783   0.00000   0.01822   0.01822  -3.81553
   Y30        4.80843   0.00068   0.00000   0.01120   0.01120   4.81963
   Z30       -7.07962  -0.02340   0.00000  -0.00537  -0.00537  -7.08499
   X31       -3.58911  -0.00363   0.00000  -0.01906  -0.01906  -3.60817
   Y31        6.34104  -0.00596   0.00000   0.00596   0.00596   6.34700
   Z31       -8.22037   0.00490   0.00000   0.00819   0.00819  -8.21217
   X32       -4.48313   0.00645   0.00000   0.01977   0.01977  -4.46336
   Y32        3.22025   0.01099   0.00000   0.02604   0.02604   3.24629
   Z32       -7.97948   0.01024   0.00000   0.03832   0.03832  -7.94116
   X33        0.98710  -0.00630   0.00000  -0.02309  -0.02309   0.96400
   Y33        4.11960  -0.01305   0.00000  -0.02771  -0.02771   4.09188
   Z33        7.19252  -0.00303   0.00000  -0.01676  -0.01676   7.17577
   X34       -2.11155   0.00006   0.00000  -0.00936  -0.00936  -2.12091
   Y34        4.22677  -0.01187   0.00000  -0.00977  -0.00977   4.21700
   Z34        3.00206   0.00690   0.00000   0.00880   0.00880   3.01087
   X35       -3.43779  -0.00941   0.00000  -0.01436  -0.01436  -3.45215
   Y35        5.52034   0.00008   0.00000   0.01471   0.01471   5.53505
   Z35        0.92928  -0.00806   0.00000   0.02026   0.02026   0.94954
   X36       -7.20857  -0.00221   0.00000   0.00185   0.00185  -7.20672
   Y36        6.17221   0.00146   0.00000  -0.00273  -0.00273   6.16948
   Z36       -1.80094  -0.00399   0.00000  -0.00234  -0.00234  -1.80328
   X37       -5.71401   0.00523   0.00000  -0.02467  -0.02467  -5.73868
   Y37        4.72110   0.01799   0.00000   0.07582   0.07582   4.79692
   Z37        0.11836   0.01851   0.00000   0.07001   0.07001   0.18837
   X38       -2.29009   0.00116   0.00000  -0.00106  -0.00106  -2.29115
   Y38        1.97572   0.00958   0.00000  -0.00833  -0.00833   1.96739
   Z38        3.47092  -0.00514   0.00000  -0.02991  -0.02991   3.44101
   X39       -0.29424   0.00611   0.00000   0.01142   0.01142  -0.28282
   Y39        6.29445   0.00357   0.00000  -0.01102  -0.01102   6.28343
   Z39        4.88334   0.00223   0.00000  -0.00433  -0.00433   4.87902
   X40       -0.58105   0.00532   0.00000   0.00002   0.00002  -0.58103
   Y40        3.22920   0.00265   0.00000  -0.01411  -0.01411   3.21509
   Z40        8.22037  -0.00327   0.00000  -0.01165  -0.01165   8.20872
   X41        2.06856  -0.00209   0.00000   0.00619   0.00619   2.07475
   Y41        2.63790   0.00549   0.00000  -0.00018  -0.00018   2.63772
   Z41        6.22098   0.00479   0.00000   0.01644   0.01644   6.23742
   X42       -7.63382  -0.00065   0.00000   0.01857   0.01857  -7.61524
   Y42        5.04827  -0.00032   0.00000  -0.04606  -0.04606   5.00221
   Z42       -3.49145   0.00488   0.00000   0.03067   0.03067  -3.46078
   X43       -6.14195  -0.00297   0.00000  -0.00266  -0.00266  -6.14461
   Y43        7.82425  -0.00343   0.00000  -0.01943  -0.01943   7.80482
   Z43       -2.46182   0.00320   0.00000  -0.00991  -0.00991  -2.47174
   X44       -9.01957   0.00574   0.00000   0.00995   0.00995  -9.00962
   Y44        6.79259  -0.00130   0.00000   0.00005   0.00005   6.79263
   Z44       -0.98319  -0.00267   0.00000  -0.03661  -0.03661  -1.01980
   X45       -6.62353   0.00259   0.00000  -0.00033  -0.00033  -6.62386
   Y45        3.16729   0.00459   0.00000   0.05017   0.05017   3.21746
   Z45        1.13876  -0.00319   0.00000   0.02399   0.02399   1.16274
   X46       -2.53240  -0.00296   0.00000   0.00346   0.00346  -2.52894
   Y46        7.17986  -0.00553   0.00000  -0.02283  -0.02283   7.15703
   Z46        0.08819   0.00330   0.00000   0.00754   0.00754   0.09573
   X47        4.81355   0.00137   0.00000  -0.01081  -0.01081   4.80274
   Y47       -8.03580  -0.00459   0.00000  -0.02031  -0.02031  -8.05610
   Z47       -0.46592  -0.00106   0.00000  -0.00534  -0.00534  -0.47127
   X48        2.20409  -0.00217   0.00000  -0.03550  -0.03550   2.16859
   Y48        5.11304   0.00362   0.00000   0.02436   0.02436   5.13740
   Z48        8.52473  -0.00475   0.00000  -0.04585  -0.04585   8.47888
         Item               Value     Threshold  Converged?
 Maximum Force            0.029191     0.000450     NO 
 RMS     Force            0.007709     0.000300     NO 
 Maximum Displacement     0.156382     0.001800     NO 
 RMS     Displacement     0.025060     0.001200     NO 
 Predicted change in Energy=-1.119386D-02
 GradGradGradGradGradGradGradGradGradGradGradGradGradGradGradGradGradGrad

 Leave Link  103 at Sun Feb 19 04:24:09 2023, MaxMem=  2684354560 cpu:               1.3 elap:               0.1
 (Enter /storage/apps/GAUSSIAN/G16_RevA03/g16/l9999.exe)

 Test job not archived.
 1\1\GINC-T046\Force\RM062X\def2TZVP\C16H24N2O5S1\LV87696\19-Feb-2023\0
 \\#P M062X/Def2TZVP scf=(direct,conver=8) EmpiricalDispersion=GD3 NoSy
 mm Force pop=(NBORead) Charge Prop=(Field,Read)\\Gaussian run using SA
 NDER external interface, route from template gau_job.tpl\\0,1\C,3.4424
 187367,-3.7569014864,-0.6223763527\H,3.5288476878,-3.9111893113,-1.706
 7214384\H,4.3414918269,-4.140415204,-0.1183145136\C,1.5905982849,-1.46
 29130917,1.0674588163\H,0.9755767717,-2.3741679601,0.93611151\O,1.1072
 709366,-0.6981418142,2.1302987063\H,0.506131095,-0.0197796535,1.777007
 0829\C,3.0474625714,-1.9149750027,1.164934752\H,3.1692619254,-2.799992
 9516,1.8162330646\O,3.8294281901,-0.8487585711,1.6228283012\H,4.772952
 4433,-1.0212188178,1.3804989647\C,1.6226494185,-0.7403446202,-0.276157
 4048\H,2.2015216063,0.186768042,-0.1445596717\C,3.3359941036,-2.267524
 8107,-0.3257309183\H,4.2993095503,-1.8124729848,-0.6060547146\O,2.2986
 02385,-1.6651644698,-1.096361059\N,0.3473254408,-0.3739135714,-0.79820
 26518\C,-0.6467102855,-1.3447151004,-0.9469436268\H,-0.3475845296,-2.3
 698818608,-0.7228860149\C,-1.8639138629,-1.0450415259,-1.4171318699\H,
 -2.5691326254,-1.8626773933,-1.5730111769\C,-2.2365202869,0.3637616121
 ,-1.7892770051\H,-2.92251663,0.3741052713,-2.6490703447\H,-2.792964772
 4,0.9387841084,-0.9432126629\C,-0.9958715608,1.170691399,-2.0378677156
 \C,0.1800396107,0.8287261543,-1.4771946254\H,1.0592887274,1.4714188457
 ,-1.5768834569\C,-1.0781691953,2.4613308459,-2.7780788621\O,-0.3541418
 783,3.4094067644,-2.5042234246\N,-2.0287327277,2.5445097551,-3.7463756
 977\H,-1.8992776491,3.3555322976,-4.3500302772\H,-2.3723687739,1.70408
 38415,-4.2225574422\C,0.522349074,2.1799973375,3.8061202043\C,-1.11738
 16866,2.2367092938,1.5886240617\C,-1.8191986102,2.9212381412,0.4917559
 571\C,-3.8146131385,3.2661943069,-0.9530162379\C,-3.0237231926,2.49829
 6626,0.0626316295\O,-1.2118640216,1.0455058852,1.8367320022\S,-0.15570
 71862,3.3308774472,2.5841545458\H,-0.3074799537,1.7088198834,4.3500302
 772\H,1.0946335562,1.3959168236,3.2920033387\H,-4.03964208,2.671431547
 6,-1.84759572\H,-3.2501788509,4.140415204,-1.3027416155\H,-4.772952443
 3,3.5944813448,-0.5202825862\H,-3.5050221777,1.676058764,0.602603296\H
 ,-1.3400889115,3.7994200038,0.0466697848\H,2.5472220672,-4.2523618482,
 -0.2465546492\H,1.1663551259,2.7057059238,4.5110930316\\Version=ES64L-
 G16RevA.03\HF=-1507.8925169\RMSD=3.069e-09\RMSF=7.709e-03\Dipole=-0.09
 43622,-1.02898,-0.9278891\Quadrupole=11.1926728,-8.6389113,-2.5537615,
 -9.6132686,9.3869027,0.1673098\PG=C01 [X(C16H24N2O5S1)]\\@


 PATIENCE IS THE ABILITY TO IDLE YOUR MOTOR WHEN
 YOU FEEL LIKE STRIPPING YOUR GEARS.
 Job cpu time:       0 days  3 hours  4 minutes 51.0 seconds.
 Elapsed time:       0 days  0 hours 11 minutes 34.7 seconds.
 File lengths (MBytes):  RWF=    435 Int=      0 D2E=      0 Chk=     48 Scr=      1
 Normal termination of Gaussian 16 at Sun Feb 19 04:24:09 2023.
