 Entering Gaussian System, Link 0=g16
 Initial command:
 /storage/apps/GAUSSIAN/G16_RevA03/g16/l1.exe "/scratch/tmp/1267156/Gau-214507.inp" -scrdir="/scratch/tmp/1267156/"
 Entering Link 1 = /storage/apps/GAUSSIAN/G16_RevA03/g16/l1.exe PID=    214508.
  
 Copyright (c) 1988,1990,1992,1993,1995,1998,2003,2009,2016,
            Gaussian, Inc.  All Rights Reserved.
  
 This is part of the Gaussian(R) 16 program.  It is based on
 the Gaussian(R) 09 system (copyright 2009, Gaussian, Inc.),
 the Gaussian(R) 03 system (copyright 2003, Gaussian, Inc.),
 the Gaussian(R) 98 system (copyright 1998, Gaussian, Inc.),
 the Gaussian(R) 94 system (copyright 1995, Gaussian, Inc.),
 the Gaussian 92(TM) system (copyright 1992, Gaussian, Inc.),
 the Gaussian 90(TM) system (copyright 1990, Gaussian, Inc.),
 the Gaussian 88(TM) system (copyright 1988, Gaussian, Inc.),
 the Gaussian 86(TM) system (copyright 1986, Carnegie Mellon
 University), and the Gaussian 82(TM) system (copyright 1983,
 Carnegie Mellon University). Gaussian is a federally registered
 trademark of Gaussian, Inc.
  
 This software contains proprietary and confidential information,
 including trade secrets, belonging to Gaussian, Inc.
  
 This software is provided under written license and may be
 used, copied, transmitted, or stored only in accord with that
 written license.
  
 The following legend is applicable only to US Government
 contracts under FAR:
  
                    RESTRICTED RIGHTS LEGEND
  
 Use, reproduction and disclosure by the US Government is
 subject to restrictions as set forth in subparagraphs (a)
 and (c) of the Commercial Computer Software - Restricted
 Rights clause in FAR 52.227-19.
  
 Gaussian, Inc.
 340 Quinnipiac St., Bldg. 40, Wallingford CT 06492
  
  
 ---------------------------------------------------------------
 Warning -- This program may not be used in any manner that
 competes with the business of Gaussian, Inc. or will provide
 assistance to any competitor of Gaussian, Inc.  The licensee
 of this program is prohibited from giving any competitor of
 Gaussian, Inc. access to this program.  By using this program,
 the user acknowledges that Gaussian, Inc. is engaged in the
 business of creating and licensing software in the field of
 computational chemistry and represents and warrants to the
 licensee that it is not a competitor of Gaussian, Inc. and that
 it will not use this program in any manner prohibited above.
 ---------------------------------------------------------------
  

 Cite this work as:
 Gaussian 16, Revision A.03,
 M. J. Frisch, G. W. Trucks, H. B. Schlegel, G. E. Scuseria, 
 M. A. Robb, J. R. Cheeseman, G. Scalmani, V. Barone, 
 G. A. Petersson, H. Nakatsuji, X. Li, M. Caricato, A. V. Marenich, 
 J. Bloino, B. G. Janesko, R. Gomperts, B. Mennucci, H. P. Hratchian, 
 J. V. Ortiz, A. F. Izmaylov, J. L. Sonnenberg, D. Williams-Young, 
 F. Ding, F. Lipparini, F. Egidi, J. Goings, B. Peng, A. Petrone, 
 T. Henderson, D. Ranasinghe, V. G. Zakrzewski, J. Gao, N. Rega, 
 G. Zheng, W. Liang, M. Hada, M. Ehara, K. Toyota, R. Fukuda, 
 J. Hasegawa, M. Ishida, T. Nakajima, Y. Honda, O. Kitao, H. Nakai, 
 T. Vreven, K. Throssell, J. A. Montgomery, Jr., J. E. Peralta, 
 F. Ogliaro, M. J. Bearpark, J. J. Heyd, E. N. Brothers, K. N. Kudin, 
 V. N. Staroverov, T. A. Keith, R. Kobayashi, J. Normand, 
 K. Raghavachari, A. P. Rendell, J. C. Burant, S. S. Iyengar, 
 J. Tomasi, M. Cossi, J. M. Millam, M. Klene, C. Adamo, R. Cammi, 
 J. W. Ochterski, R. L. Martin, K. Morokuma, O. Farkas, 
 J. B. Foresman, and D. J. Fox, Gaussian, Inc., Wallingford CT, 2016.
 
 ******************************************
 Gaussian 16:  ES64L-G16RevA.03 25-Dec-2016
                19-Feb-2023 
 ******************************************
 %chk=gau_job.chk
 %NProcShared=16
 Will use up to   16 processors via shared memory.
 %mem=20GB
 ----------------------------------------------------------------------
 #P M062X/Def2TZVP scf=(direct,conver=8) EmpiricalDispersion=GD3 NoSymm
  Force pop=(NBORead) Charge Prop=(Field,Read)
 ----------------------------------------------------------------------
 1/10=7,18=10,28=-2,30=1,38=1,125=101/1,3;
 2/12=2,15=1,17=6,18=5,29=2,40=1/2;
 3/5=44,7=101,11=2,25=1,30=1,71=1,74=-55,124=31/1,2,3;
 4//1;
 5/5=2,6=8,38=5/2;
 6/7=2,8=2,9=2,10=2,14=2,15=1,28=1,40=2/1,2,7;
 7/7=1,16=-2,29=1,30=1/1,2,3,16;
 1/10=7,18=10,28=-2,30=1/3;
 99/12=1/99;
 Leave Link    1 at Sun Feb 19 04:14:34 2023, MaxMem=  2684354560 cpu:               0.7 elap:               0.0
 (Enter /storage/apps/GAUSSIAN/G16_RevA03/g16/l101.exe)
 ----------------------------------------------------------------------
 Gaussian run using SANDER external interface, route from template gau_
 job.tpl
 ----------------------------------------------------------------------
 Symbolic Z-matrix:
 Charge =  0 Multiplicity = 1
 C                     3.43811  -3.75468  -0.62001 
 H                     3.52474  -3.909    -1.70422 
 H                     4.33735  -4.13753  -0.11589 
 C                     1.58637  -1.46045   1.0708 
 H                     0.97159  -2.37177   0.93817 
 O                     1.10299  -0.6965    2.13342 
 H                     0.50148  -0.01742   1.78068 
 C                     3.04351  -1.91318   1.16757 
 H                     3.16531  -2.79852   1.81873 
 O                     3.82525  -0.84653   1.62439 
 H                     4.76887  -1.01847   1.38271 
 C                     1.61874  -0.73762  -0.27294 
 H                     2.1995    0.18886  -0.14116 
 C                     3.33127  -2.26555  -0.32314 
 H                     4.29392  -1.80966  -0.60441 
 O                     2.29346  -1.66325  -1.09308 
 N                     0.34222  -0.37205  -0.79647 
 C                    -0.65321  -1.34023  -0.94865 
 H                    -0.35343  -2.36424  -0.71631 
 C                    -1.87248  -1.03512  -1.41199 
 H                    -2.57535  -1.85417  -1.56472 
 C                    -2.24012   0.3745   -1.77947 
 H                    -2.92742   0.3838   -2.63639 
 H                    -2.79109   0.98307  -0.91741 
 C                    -1.00145   1.17402  -2.03326 
 C                     0.17528   0.83076  -1.47489 
 H                     1.05529   1.47196  -1.57301 
 C                    -1.08037   2.46312  -2.77816 
 O                    -0.35685   3.41105  -2.50412 
 N                    -2.02942   2.54615  -3.7467 
 H                    -1.90059   3.35684  -4.35222 
 H                    -2.37343   1.70482  -4.21968 
 C                     0.51806   2.18197   3.80775 
 C                    -1.12244   2.23751   1.58927 
 C                    -1.82095   2.90817   0.48523 
 C                    -3.81576   3.25901  -0.95585 
 C                    -3.0214    2.47803   0.04999 
 O                    -1.21728   1.04596   1.84126 
 S                    -0.16008   3.33335   2.58479 
 H                    -0.31195   1.71149   4.35222 
 H                     1.09044   1.39691   3.29495 
 H                    -4.04786   2.67378  -1.85422 
 H                    -3.25197   4.13753  -1.29838 
 H                    -4.76887   3.59335  -0.51719 
 H                    -3.51248   1.67039   0.60549 
 H                    -1.34701   3.79509   0.04942 
 H                     2.54318  -4.25045  -0.24395 
 H                     1.16214   2.70772   4.51263 
 
 ITRead=  0  0  0  0  0  0  0  0  0  0  0  0  0  0  0  0  0  0  0  0
 ITRead=  0  0  0  0  0  0  0  0  0  0  0  0  0  0  0  0  0  0  0  0
 ITRead=  0  0  0  0  0  0  0  0
 MicOpt= -1 -1 -1 -1 -1 -1 -1 -1 -1 -1 -1 -1 -1 -1 -1 -1 -1 -1 -1 -1
 MicOpt= -1 -1 -1 -1 -1 -1 -1 -1 -1 -1 -1 -1 -1 -1 -1 -1 -1 -1 -1 -1
 MicOpt= -1 -1 -1 -1 -1 -1 -1 -1
 NAtoms=     48 NQM=       48 NQMF=       0 NMMI=      0 NMMIF=      0
                NMic=       0 NMicF=      0.
                    Isotopes and Nuclear Properties:
 (Nuclear quadrupole moments (NQMom) in fm**2, nuclear magnetic moments (NMagM)
  in nuclear magnetons)

  Atom         1           2           3           4           5           6           7           8           9          10
 IAtWgt=          12           1           1          12           1          16           1          12           1          16
 AtmWgt=  12.0000000   1.0078250   1.0078250  12.0000000   1.0078250  15.9949146   1.0078250  12.0000000   1.0078250  15.9949146
 NucSpn=           0           1           1           0           1           0           1           0           1           0
 AtZEff=  -0.0000000  -0.0000000  -0.0000000  -0.0000000  -0.0000000  -0.0000000  -0.0000000  -0.0000000  -0.0000000  -0.0000000
 NQMom=    0.0000000   0.0000000   0.0000000   0.0000000   0.0000000   0.0000000   0.0000000   0.0000000   0.0000000   0.0000000
 NMagM=    0.0000000   2.7928460   2.7928460   0.0000000   2.7928460   0.0000000   2.7928460   0.0000000   2.7928460   0.0000000
 AtZNuc=   6.0000000   1.0000000   1.0000000   6.0000000   1.0000000   8.0000000   1.0000000   6.0000000   1.0000000   8.0000000

  Atom        11          12          13          14          15          16          17          18          19          20
 IAtWgt=           1          12           1          12           1          16          14          12           1          12
 AtmWgt=   1.0078250  12.0000000   1.0078250  12.0000000   1.0078250  15.9949146  14.0030740  12.0000000   1.0078250  12.0000000
 NucSpn=           1           0           1           0           1           0           2           0           1           0
 AtZEff=  -0.0000000  -0.0000000  -0.0000000  -0.0000000  -0.0000000  -0.0000000  -0.0000000  -0.0000000  -0.0000000  -0.0000000
 NQMom=    0.0000000   0.0000000   0.0000000   0.0000000   0.0000000   0.0000000   2.0440000   0.0000000   0.0000000   0.0000000
 NMagM=    2.7928460   0.0000000   2.7928460   0.0000000   2.7928460   0.0000000   0.4037610   0.0000000   2.7928460   0.0000000
 AtZNuc=   1.0000000   6.0000000   1.0000000   6.0000000   1.0000000   8.0000000   7.0000000   6.0000000   1.0000000   6.0000000

  Atom        21          22          23          24          25          26          27          28          29          30
 IAtWgt=           1          12           1           1          12          12           1          12          16          14
 AtmWgt=   1.0078250  12.0000000   1.0078250   1.0078250  12.0000000  12.0000000   1.0078250  12.0000000  15.9949146  14.0030740
 NucSpn=           1           0           1           1           0           0           1           0           0           2
 AtZEff=  -0.0000000  -0.0000000  -0.0000000  -0.0000000  -0.0000000  -0.0000000  -0.0000000  -0.0000000  -0.0000000  -0.0000000
 NQMom=    0.0000000   0.0000000   0.0000000   0.0000000   0.0000000   0.0000000   0.0000000   0.0000000   0.0000000   2.0440000
 NMagM=    2.7928460   0.0000000   2.7928460   2.7928460   0.0000000   0.0000000   2.7928460   0.0000000   0.0000000   0.4037610
 AtZNuc=   1.0000000   6.0000000   1.0000000   1.0000000   6.0000000   6.0000000   1.0000000   6.0000000   8.0000000   7.0000000

  Atom        31          32          33          34          35          36          37          38          39          40
 IAtWgt=           1           1          12          12          12          12          12          16          32           1
 AtmWgt=   1.0078250   1.0078250  12.0000000  12.0000000  12.0000000  12.0000000  12.0000000  15.9949146  31.9720718   1.0078250
 NucSpn=           1           1           0           0           0           0           0           0           0           1
 AtZEff=  -0.0000000  -0.0000000  -0.0000000  -0.0000000  -0.0000000  -0.0000000  -0.0000000  -0.0000000  -0.0000000  -0.0000000
 NQMom=    0.0000000   0.0000000   0.0000000   0.0000000   0.0000000   0.0000000   0.0000000   0.0000000   0.0000000   0.0000000
 NMagM=    2.7928460   2.7928460   0.0000000   0.0000000   0.0000000   0.0000000   0.0000000   0.0000000   0.0000000   2.7928460
 AtZNuc=   1.0000000   1.0000000   6.0000000   6.0000000   6.0000000   6.0000000   6.0000000   8.0000000  16.0000000   1.0000000

  Atom        41          42          43          44          45          46          47          48
 IAtWgt=           1           1           1           1           1           1           1           1
 AtmWgt=   1.0078250   1.0078250   1.0078250   1.0078250   1.0078250   1.0078250   1.0078250   1.0078250
 NucSpn=           1           1           1           1           1           1           1           1
 AtZEff=  -0.0000000  -0.0000000  -0.0000000  -0.0000000  -0.0000000  -0.0000000  -0.0000000  -0.0000000
 NQMom=    0.0000000   0.0000000   0.0000000   0.0000000   0.0000000   0.0000000   0.0000000   0.0000000
 NMagM=    2.7928460   2.7928460   2.7928460   2.7928460   2.7928460   2.7928460   2.7928460   2.7928460
 AtZNuc=   1.0000000   1.0000000   1.0000000   1.0000000   1.0000000   1.0000000   1.0000000   1.0000000
 Background charge distribution read from input stream:
 Leave Link  101 at Sun Feb 19 04:14:34 2023, MaxMem=  2684354560 cpu:               1.5 elap:               0.1
 (Enter /storage/apps/GAUSSIAN/G16_RevA03/g16/l103.exe)

 GradGradGradGradGradGradGradGradGradGradGradGradGradGradGradGradGradGrad
 Berny optimization.
 Initialization pass.
 Trust Radius=3.00D-01 FncErr=1.00D-07 GrdErr=1.00D-07 EigMax=2.50D+02 EigMin=1.00D-04
 Number of steps in this run=      2 maximum allowed number of steps=      2.
 GradGradGradGradGradGradGradGradGradGradGradGradGradGradGradGradGradGrad

 Leave Link  103 at Sun Feb 19 04:14:34 2023, MaxMem=  2684354560 cpu:               0.3 elap:               0.0
 (Enter /storage/apps/GAUSSIAN/G16_RevA03/g16/l202.exe)
 ---------------------------------------------------------------------------------------------------
                            Z-MATRIX (ANGSTROMS AND DEGREES)
   CD    Cent   Atom    N1       Length/X        N2       Alpha/Y        N3        Beta/Z          J
 ---------------------------------------------------------------------------------------------------
      1      1  C        0   3.438106         -3.754683         -0.620006
      2      2  H        0   3.524744         -3.909000         -1.704224
      3      3  H        0   4.337349         -4.137531         -0.115895
      4      4  C        0   1.586373         -1.460445          1.070796
      5      5  H        0   0.971593         -2.371770          0.938171
      6      6  O        0   1.102992         -0.696499          2.133420
      7      7  H        0   0.501482         -0.017421          1.780684
      8      8  C        0   3.043515         -1.913179          1.167566
      9      9  H        0   3.165311         -2.798524          1.818730
     10     10  O        0   3.825248         -0.846534          1.624387
     11     11  H        0   4.768870         -1.018466          1.382712
     12     12  C        0   1.618739         -0.737624         -0.272939
     13     13  H        0   2.199500          0.188862         -0.141164
     14     14  C        0   3.331271         -2.265550         -0.323139
     15     15  H        0   4.293924         -1.809662         -0.604408
     16     16  O        0   2.293458         -1.663254         -1.093082
     17     17  N        0   0.342220         -0.372055         -0.796467
     18     18  C        0  -0.653211         -1.340234         -0.948647
     19     19  H        0  -0.353434         -2.364241         -0.716307
     20     20  C        0  -1.872483         -1.035117         -1.411990
     21     21  H        0  -2.575348         -1.854170         -1.564721
     22     22  C        0  -2.240122          0.374500         -1.779473
     23     23  H        0  -2.927419          0.383798         -2.636389
     24     24  H        0  -2.791086          0.983072         -0.917411
     25     25  C        0  -1.001454          1.174015         -2.033261
     26     26  C        0   0.175280          0.830757         -1.474890
     27     27  H        0   1.055290          1.471963         -1.573015
     28     28  C        0  -1.080366          2.463121         -2.778164
     29     29  O        0  -0.356847          3.411051         -2.504125
     30     30  N        0  -2.029423          2.546152         -3.746703
     31     31  H        0  -1.900591          3.356836         -4.352222
     32     32  H        0  -2.373434          1.704824         -4.219675
     33     33  C        0   0.518065          2.181971          3.807752
     34     34  C        0  -1.122445          2.237513          1.589271
     35     35  C        0  -1.820946          2.908169          0.485227
     36     36  C        0  -3.815760          3.259009         -0.955853
     37     37  C        0  -3.021400          2.478033          0.049995
     38     38  O        0  -1.217281          1.045959          1.841256
     39     39  S        0  -0.160080          3.333353          2.584791
     40     40  H        0  -0.311949          1.711490          4.352222
     41     41  H        0   1.090443          1.396910          3.294948
     42     42  H        0  -4.047858          2.673779         -1.854222
     43     43  H        0  -3.251969          4.137531         -1.298383
     44     44  H        0  -4.768870          3.593354         -0.517190
     45     45  H        0  -3.512482          1.670395          0.605494
     46     46  H        0  -1.347011          3.795092          0.049419
     47     47  H        0   2.543180         -4.250454         -0.243949
     48     48  H        0   1.162144          2.707720          4.512628
 ---------------------------------------------------------------------------------------------------
                         Z-Matrix orientation:                         
 ---------------------------------------------------------------------
 Center     Atomic      Atomic             Coordinates (Angstroms)
 Number     Number       Type             X           Y           Z
 ---------------------------------------------------------------------
      1          6           0        3.438106   -3.754683   -0.620006
      2          1           0        3.524744   -3.909000   -1.704224
      3          1           0        4.337349   -4.137531   -0.115895
      4          6           0        1.586373   -1.460445    1.070796
      5          1           0        0.971593   -2.371770    0.938171
      6          8           0        1.102992   -0.696499    2.133420
      7          1           0        0.501482   -0.017421    1.780684
      8          6           0        3.043515   -1.913179    1.167566
      9          1           0        3.165311   -2.798524    1.818730
     10          8           0        3.825248   -0.846534    1.624387
     11          1           0        4.768870   -1.018466    1.382712
     12          6           0        1.618739   -0.737624   -0.272939
     13          1           0        2.199500    0.188862   -0.141164
     14          6           0        3.331271   -2.265550   -0.323139
     15          1           0        4.293924   -1.809662   -0.604408
     16          8           0        2.293458   -1.663254   -1.093082
     17          7           0        0.342220   -0.372055   -0.796467
     18          6           0       -0.653211   -1.340234   -0.948647
     19          1           0       -0.353434   -2.364241   -0.716307
     20          6           0       -1.872483   -1.035117   -1.411990
     21          1           0       -2.575348   -1.854170   -1.564721
     22          6           0       -2.240122    0.374500   -1.779473
     23          1           0       -2.927419    0.383798   -2.636389
     24          1           0       -2.791086    0.983072   -0.917411
     25          6           0       -1.001454    1.174015   -2.033261
     26          6           0        0.175280    0.830757   -1.474890
     27          1           0        1.055290    1.471963   -1.573015
     28          6           0       -1.080366    2.463121   -2.778164
     29          8           0       -0.356847    3.411051   -2.504125
     30          7           0       -2.029423    2.546152   -3.746703
     31          1           0       -1.900591    3.356836   -4.352222
     32          1           0       -2.373434    1.704824   -4.219675
     33          6           0        0.518065    2.181971    3.807752
     34          6           0       -1.122445    2.237513    1.589271
     35          6           0       -1.820946    2.908169    0.485227
     36          6           0       -3.815760    3.259009   -0.955853
     37          6           0       -3.021400    2.478033    0.049995
     38          8           0       -1.217281    1.045959    1.841256
     39         16           0       -0.160080    3.333353    2.584791
     40          1           0       -0.311949    1.711490    4.352222
     41          1           0        1.090443    1.396910    3.294948
     42          1           0       -4.047858    2.673779   -1.854222
     43          1           0       -3.251969    4.137531   -1.298383
     44          1           0       -4.768870    3.593354   -0.517190
     45          1           0       -3.512482    1.670395    0.605494
     46          1           0       -1.347011    3.795092    0.049419
     47          1           0        2.543180   -4.250454   -0.243949
     48          1           0        1.162144    2.707720    4.512628
 ---------------------------------------------------------------------
                    Distance matrix (angstroms):
                    1          2          3          4          5
     1  C    0.000000
     2  H    1.098567   0.000000
     3  H    1.099699   1.798706   0.000000
     4  C    3.398713   4.177731   4.017822   0.000000
     5  H    3.228630   3.982953   3.944272   1.107275   0.000000
     6  O    4.731448   5.559906   5.230792   1.395149   2.062139
     7  H    5.324866   6.035651   5.940218   1.939909   2.544364
     8  C    2.596585   3.530165   2.875590   1.528920   2.134430
     9  H    2.633646   3.711275   2.628572   2.200660   2.402062
    10  O    3.693848   4.533063   3.757858   2.386611   3.307656
    11  H    3.642622   4.408198   3.487205   3.228146   4.055658
    12  C    3.540225   3.967249   4.356016   1.526152   2.134483
    13  H    4.161128   4.581693   4.825839   2.136583   3.038018
    14  C    1.522189   2.155402   2.135288   2.374008   2.677735
    15  H    2.125035   2.491677   2.378972   3.202982   3.705860
    16  O    2.430657   2.633047   3.354763   2.285491   2.524938
    17  N    4.588880   4.843807   5.532002   2.493828   2.721017
    18  C    4.761979   4.962335   5.781353   3.018002   2.695205
    19  H    4.039602   4.289817   5.050594   2.788088   2.119681
    20  C    6.018773   6.121655   7.061646   4.278880   3.924112
    21  H    6.376995   6.438393   7.422817   4.941750   4.371860
    22  C    7.115953   7.182459   8.147947   5.112056   5.024211
    23  H    7.855745   7.805604   8.920323   6.125256   5.964304
    24  H    7.831833   8.027525   8.813489   5.393133   5.371768
    25  C    6.782260   6.814087   7.771206   4.824147   5.029404
    26  C    5.692374   5.808339   6.622203   3.704228   4.088172
    27  H    5.822703   5.922009   6.660446   3.983817   4.592095
    28  C    7.983440   7.935006   8.944715   6.109039   6.434115
    29  O    8.324621   8.324046   9.204358   6.347254   6.859676
    30  N    8.909020   8.757254   9.919182   7.234300   7.425637
    31  H    9.643901   9.446615  10.631270   8.048244   8.309911
    32  H    8.748591   8.522384   9.798405   7.327215   7.376394
    33  C    7.960875   8.747682   8.361701   4.679680   5.401550
    34  C    7.847671   8.379922   8.564936   4.613177   5.104352
    35  C    8.559951   8.935541   9.376984   5.571131   5.990090
    36  C   10.095704  10.287051  11.040268   7.454099   7.629662
    37  C    9.001159   9.312545   9.896686   6.146968   6.344559
    38  O    7.125770   7.720677   7.845567   3.838769   4.157836
    39  S    8.570760   9.188322   9.128783   5.321915   6.044871
    40  H    8.286435   9.109921   8.705808   4.942930   5.475056
    41  H    6.883117   7.685716   7.266793   3.654761   4.446512
    42  H    9.944248  10.034928  10.942003   7.575757   7.645253
    43  H   10.368431  10.527831  11.290381   7.769164   8.075373
    44  H   11.016291  11.246262  11.952023   8.273554   8.405575
    45  H    8.901909   9.272918   9.791438   6.001415   6.046213
    46  H    8.963514   9.282366   9.760420   6.104804   6.648006
    47  H    1.090000   1.792334   1.802274   3.229270   2.719696
    48  H    8.560758   9.381477   8.852266   5.422156   6.214038
                    6          7          8          9         10
     6  O    0.000000
     7  H    0.973336   0.000000
     8  C    2.485722   3.229821   0.000000
     9  H    2.961536   3.851228   1.105750   0.000000
    10  O    2.773500   3.429180   1.399116   2.069674   0.000000
    11  H    3.755781   4.401258   1.955416   2.435184   0.989136
    12  C    2.461351   2.446287   2.342429   3.318775   2.912111
    13  H    2.675803   2.572803   2.616050   3.701142   2.613862
    14  C    3.669036   4.181849   1.558579   2.213415   2.459772
    15  H    4.349354   4.825288   2.171205   2.850125   2.472813
    16  O    3.572414   3.765432   2.394907   3.244629   3.224601
    17  N    3.044383   2.606307   3.678245   4.549378   4.268155
    18  C    3.605243   3.245366   4.297954   4.936202   5.188530
    19  H    3.608806   3.531771   3.910460   4.358507   5.024308
    20  C    4.640910   4.106651   5.620688   6.239112   6.459047
    21  H    5.342905   4.902272   6.248239   6.730134   7.221729
    22  C    5.256822   4.510512   6.468024   7.227299   7.061580
    23  H    6.337375   5.606146   7.442999   8.191252   8.078765
    24  H    5.224210   4.372838   6.839442   7.567403   7.320114
    25  C    5.028791   4.269018   6.011476   6.926820   6.384204
    26  C    4.026544   3.380026   4.768494   5.741071   5.073568
    27  H    4.294433   3.711100   4.787798   5.847493   4.824052
    28  C    6.234894   5.425719   7.192161   8.175702   7.375725
    29  O    6.364740   5.554344   7.306928   8.345746   7.256828
    30  N    7.409632   6.597681   8.352867   9.301874   8.639219
    31  H    8.216726   7.400548   9.093146  10.081293   9.282963
    32  H    7.629791   6.872815   8.453145   9.349876   8.893040
    33  C    3.380993   2.991087   5.488054   5.980756   4.987623
    34  C    3.722511   2.785409   5.895871   6.618093   5.830287
    35  C    4.925401   3.953600   6.882874   7.694629   6.875680
    36  C    7.027359   6.071426   8.849299   9.650252   9.049758
    37  C    5.606150   4.651159   7.570661   8.321410   7.772262
    38  O    2.916366   2.022027   5.231132   5.829894   5.390331
    39  S    4.247210   3.508838   6.308538   7.017477   5.854628
    40  H    3.567009   3.203687   5.877023   6.232988   5.576824
    41  H    2.394090   2.154113   4.392828   4.907745   3.911901
    42  H    7.334256   6.414951   8.969892   9.770694   9.299415
    43  H    7.356005   6.390046   9.073320   9.950213   9.136219
    44  H    7.739983   6.789296   9.705342  10.452935   9.907463
    45  H    5.407342   4.510178   7.492598   8.126259   7.824024
    46  H    5.524488   4.577059   7.287753   8.183354   7.125832
    47  H    4.511831   5.117249   2.775890   2.598037   4.089139
    48  H    4.153653   3.914893   6.006805   6.448913   5.297809
                   11         12         13         14         15
    11  H    0.000000
    12  C    3.569787   0.000000
    13  H    3.222034   1.101374   0.000000
    14  C    2.555746   2.295614   2.708904   0.000000
    15  H    2.190938   2.900992   2.931776   1.101657   0.000000
    16  O    3.559912   1.408784   2.084541   1.425703   2.064486
    17  N    4.976132   1.427313   2.047813   3.569844   4.209461
    18  C    5.910815   2.445706   3.335885   4.138063   4.981266
    19  H    5.696928   2.594595   3.656036   3.706936   4.681669
    20  C    7.205429   3.684368   4.437811   5.456978   6.267111
    21  H    7.957594   4.528326   5.385134   6.049703   6.936215
    22  C    7.814457   4.289204   4.735902   6.334919   6.988927
    23  H    8.795020   5.245096   5.705212   7.179232   7.815882
    24  H    8.151666   4.777310   5.112658   6.956289   7.621988
    25  C    7.054962   3.690327   3.846643   5.790305   6.243796
    26  C    5.717218   2.447055   2.507652   4.568799   4.969183
    27  H    5.359966   2.624871   2.237356   4.550965   4.711265
    28  C    7.977963   4.879148   4.783674   6.917371   7.201728
    29  O    7.810319   5.108095   4.743521   7.112152   7.245305
    30  N    9.232236   6.013261   6.036598   7.975607   8.296497
    31  H    9.824176   6.766893   6.676812   8.672780   8.894427
    32  H    9.477107   6.122069   6.312220   7.968095   8.359153
    33  C    5.847475   5.136882   4.732192   6.690204   7.046801
    34  C    6.734364   4.453465   4.269273   6.615925   7.108369
    35  C    7.723316   5.069325   4.893973   7.346166   7.799799
    36  C    9.872262   6.780356   6.802417   9.055447   9.569844
    37  C    8.642335   5.654700   5.703915   7.937080   8.504501
    38  O    6.348710   3.961565   4.042153   6.028269   6.671524
    39  S    6.684151   5.282393   4.783960   7.210638   7.513970
    40  H    6.487324   5.578336   5.368080   7.137850   7.627631
    41  H    4.798074   4.191080   3.807394   5.614755   5.979078
    42  H   10.091833   6.800621   6.938217   9.010701   9.552414
    43  H    9.904870   6.967243   6.830056   9.235237   9.632820
    44  H   10.763224   7.721307   7.764673   9.998835  10.551513
    45  H    8.741558   5.735820   5.948040   7.949275   8.632186
    46  H    7.896329   5.426335   5.061517   7.665280   7.978779
    47  H    4.247996   3.632548   4.453786   2.137101   3.025310
    48  H    6.057170   5.914434   5.392451   7.267955   7.509916
                   16         17         18         19         20
    16  O    0.000000
    17  N    2.358496   0.000000
    18  C    2.967838   1.396930   0.000000
    19  H    2.763943   2.111674   1.091988   0.000000
    20  C    4.225082   2.392369   1.339554   2.134960   0.000000
    21  H    4.895320   3.361411   2.082856   2.432464   1.090043
    22  C    5.017661   2.862191   2.479692   3.491506   1.502406
    23  H    5.816337   3.827162   3.315536   4.226563   2.150666
    24  H    5.734674   3.415934   3.157410   4.145732   2.271900
    25  C    4.448649   2.392792   2.760274   3.830608   2.454574
    26  C    3.294320   1.391001   2.382548   3.326109   2.771060
    27  H    3.404847   2.124123   3.349219   4.175514   3.857879
    28  C    5.590095   3.740200   4.242064   5.299350   3.838170
    29  O    5.896077   4.209118   5.008198   6.045684   4.822688
    30  N    6.591518   4.779594   4.982678   6.008677   4.277967
    31  H    7.308443   5.619451   5.933191   6.953006   5.285358
    32  H    6.549765   4.838033   4.788651   5.736836   3.954912
    33  C    6.477341   5.268092   6.033336   6.472609   6.581040
    34  C    5.837756   3.827118   4.411517   5.204153   4.503358
    35  C    6.349589   4.133025   4.633414   5.603176   4.376253
    36  C    7.846658   5.522574   5.581649   6.608027   4.735389
    37  C    6.834076   4.489258   4.602691   5.581476   3.974876
    38  O    5.317468   3.376446   3.714250   4.349348   3.917114
    39  S    6.671783   5.041355   5.879692   6.587656   6.163612
    40  H    6.915807   5.592682   6.126066   6.504098   6.573071
    41  H    5.483307   4.519817   5.342320   5.685174   6.070334
    42  H    7.720199   5.446901   5.334416   6.350218   4.322469
    43  H    8.027641   5.788479   6.073037   7.142364   5.354641
    44  H    8.822701   6.475006   6.439339   7.418130   5.532854
    45  H    6.907048   4.582120   4.433359   5.291977   3.752284
    46  H    6.659720   4.575384   5.277222   6.285771   5.073733
    47  H    2.734409   4.493493   4.379828   3.488738   5.585766
    48  H    7.197866   6.192235   7.036119   7.440667   7.636681
                   21         22         23         24         25
    21  H    0.000000
    22  C    2.263949   0.000000
    23  H    2.506178   1.098530   0.000000
    24  H    2.918133   1.190408   1.825541   0.000000
    25  C    3.444790   1.495972   2.167382   2.117631   0.000000
    26  C    3.844848   2.476915   3.342992   3.022136   1.346962
    27  H    4.923897   3.479482   4.263430   3.932358   2.128567
    28  C    4.727200   2.589354   2.784832   2.929079   1.490940
    29  O    5.790231   3.645886   3.973612   3.786589   2.375196
    30  N    4.941854   2.937765   2.591326   3.320879   2.423915
    31  H    5.948113   3.953309   3.582934   4.269153   3.309189
    32  H    4.444771   2.782467   2.135136   3.405922   2.635241
    33  C    7.397507   6.487806   7.525406   5.891944   6.119015
    34  C    5.366607   4.008548   4.954835   3.262122   3.777354
    35  C    5.239397   3.424040   4.164278   2.571879   3.165697
    36  C    5.296597   3.388418   3.446764   2.496262   3.664468
    37  C    4.644810   2.895203   3.407537   1.795502   3.181289
    38  O    4.675016   3.821876   4.838629   3.176643   3.882636
    39  S    7.068406   5.668173   6.604450   4.971059   5.166919
    40  H    7.269603   6.565294   7.579191   5.869050   6.445052
    41  H    6.901009   6.155301   7.235355   5.742952   5.728484
    42  H    4.770160   2.925778   2.666680   2.305554   3.400283
    43  H    6.035664   3.926281   3.998262   3.210633   3.793058
    44  H    5.965264   4.283567   4.264175   3.299300   4.727060
    45  H    4.243891   2.997717   3.536585   1.819908   3.676232
    46  H    6.002369   3.980320   4.620409   3.305687   3.365562
    47  H    5.803959   6.828470   7.558274   7.503181   6.722420
    48  H    8.468404   7.523953   8.557662   6.934534   7.062724
                   26         27         28         29         30
    26  C    0.000000
    27  H    1.093248   0.000000
    28  C    2.437167   2.644958   0.000000
    29  O    2.828497   2.573161   1.223580   0.000000
    30  N    3.600615   3.923552   1.358555   2.256005   0.000000
    31  H    4.355382   4.473698   1.987248   2.408640   1.020029
    32  H    3.846269   4.337647   2.079662   3.149753   1.024636
    33  C    5.463477   5.453932   6.782943   6.489676   7.980734
    34  C    3.612774   3.915182   4.373460   4.326572   5.421299
    35  C    3.484625   3.817300   3.375833   3.366408   4.252499
    36  C    4.700447   5.225088   3.381809   3.792669   3.389396
    37  C    3.906092   4.501748   3.430206   3.807084   3.924738
    38  O    3.603104   4.123506   4.833853   5.021587   5.842554
    39  S    4.780843   4.714790   5.510491   5.093311   6.648454
    40  H    5.913401   6.085651   7.210951   7.063994   8.320995
    41  H    4.889725   4.868668   6.536964   6.307191   7.787116
    42  H    4.623366   5.250291   3.115133   3.819621   2.769810
    43  H    4.765705   5.072786   3.115969   3.219211   3.165655
    44  H    5.744019   6.287758   4.471520   4.842220   4.362448
    45  H    4.316547   5.064565   4.241785   4.760005   4.680602
    46  H    3.664447   3.714872   3.136952   2.765592   4.054143
    47  H    5.739414   6.060222   8.038931   8.498070   8.909087
    48  H    6.351949   6.210761   7.631796   7.213655   8.856000
                   31         32         33         34         35
    31  H    0.000000
    32  H    1.723454   0.000000
    33  C    8.591588   8.545644   0.000000
    34  C    6.095879   5.965953   2.759713   0.000000
    35  C    4.858864   4.887677   4.127651   1.468535   0.000000
    36  C    3.900355   3.892085   6.529470   3.843834   2.485777
    37  C    4.626880   4.387231   5.170706   2.456268   1.347418
    38  O    6.645768   6.205294   2.858156   1.221593   2.381396
    39  S    7.152068   7.338379   1.811407   1.765806   2.710613
    40  H    8.999905   8.816302   1.098509   2.927029   4.320042
    41  H    8.441967   8.280267   1.098592   2.917673   4.319099
    42  H    3.364124   3.055804   7.290231   4.539385   3.238379
    43  H    3.429525   3.901773   6.641536   4.059987   2.596234
    44  H    4.794834   4.797192   6.974870   4.424014   3.188194
    45  H    5.479163   4.957910   5.173150   2.646076   2.099487
    46  H    4.457910   4.862914   4.495080   2.201733   1.095982
    47  H    9.720898   8.685898   7.867240   7.674061   8.415650
    48  H    9.401450   9.474135   1.090000   3.739847   5.015870
                   36         37         38         39         40
    36  C    0.000000
    37  C    1.500887   0.000000
    38  O    4.412879   2.917927   0.000000
    39  S    5.089763   3.917131   2.627297   0.000000
    40  H    6.545775   5.141777   2.750911   2.403605   0.000000
    41  H    6.753336   5.348439   2.749905   2.412041   1.784234
    42  H    1.097009   2.172089   4.931381   5.937566   7.307733
    43  H    1.098630   2.150633   4.853361   5.028471   6.816065
    44  H    1.101195   2.149254   4.966414   5.561550   6.864163
    45  H    2.247994   1.096367   2.680480   4.233397   4.927786
    46  H    2.718948   2.130310   3.284089   2.837273   4.891510
    47  H    9.865848   8.736331   6.822107   8.533669   8.051169
    48  H    7.415371   6.121265   3.944533   2.419968   1.786380
                   41         42         43         44         45
    41  H    0.000000
    42  H    7.385559   0.000000
    43  H    6.889575   1.756407   0.000000
    44  H    7.327231   1.775705   1.790916   0.000000
    45  H    5.338059   2.709910   3.127200   2.556698   0.000000
    46  H    4.714438   3.489378   2.358538   3.474315   3.084287
    47  H    6.821067   9.694316  10.249579  10.726884   8.511700
    48  H    1.790561   8.226909   7.436169   7.826899   6.180119
                   46         47         48
    46  H    0.000000
    47  H    8.941502   0.000000
    48  H    5.234355   8.540988   0.000000
 Symmetry turned off by external request.
 Stoichiometry    C16H24N2O5S
 Framework group  C1[X(C16H24N2O5S)]
 Deg. of freedom   138
 Full point group                 C1      NOp   1
 Rotational constants (GHZ):           0.2895448           0.1643363           0.1233824
 Leave Link  202 at Sun Feb 19 04:14:34 2023, MaxMem=  2684354560 cpu:               0.2 elap:               0.0
 (Enter /storage/apps/GAUSSIAN/G16_RevA03/g16/l301.exe)
 Standard basis: def2TZVP (5D, 7F)
 Ernie: Thresh=  0.10000D-02 Tol=  0.10000D-05 Strict=F.
   894 basis functions,  1434 primitive gaussians,  1014 cartesian basis functions
    95 alpha electrons       95 beta electrons
       nuclear repulsion energy      2427.8774022242 Hartrees.
 IExCor= 4336 DFT=T Ex+Corr=M062X ExCW=0 ScaHFX=  0.540000
 ScaDFX=  1.000000  1.000000  1.000000  1.000000 ScalE2=  1.000000  1.000000
 IRadAn=      5 IRanWt=     -1 IRanGd=            0 ICorTp=0 IEmpDi=131
 NAtoms=   48 NActive=   48 NUniq=   48 SFac= 1.00D+00 NAtFMM=   60 NAOKFM=F Big=F
 Integral buffers will be    131072 words long.
 Raffenetti 2 integral format.
 Two-electron integral symmetry is turned off.
 R6Disp:  Grimme-D3 Dispersion energy=       -0.0041293823 Hartrees.
 Nuclear repulsion after empirical dispersion term =     2427.8732728419 Hartrees.
 Leave Link  301 at Sun Feb 19 04:14:34 2023, MaxMem=  2684354560 cpu:               0.8 elap:               0.1
 (Enter /storage/apps/GAUSSIAN/G16_RevA03/g16/l302.exe)
 NPDir=0 NMtPBC=     1 NCelOv=     1 NCel=       1 NClECP=     1 NCelD=      1
         NCelK=      1 NCelE2=     1 NClLst=     1 CellRange=     0.0.
 One-electron integrals computed using PRISM.
   1 Symmetry operations used in ECPInt.
 ECPInt:  NShTT=   65703 NPrTT=  200010 LenC2=   55882 LenP2D=  118391.
 LDataN:  DoStor=T MaxTD1= 6 Len=  172
 NBasis=   894 RedAO= T EigKep=  3.12D-05  NBF=   894
 NBsUse=   894 1.00D-06 EigRej= -1.00D+00 NBFU=   894
 Precomputing XC quadrature grid using
 IXCGrd= 4 IRadAn=           5 IRanWt=          -1 IRanGd=           0 AccXCQ= 0.00D+00.
 Generated NRdTot=       0 NPtTot=           0 NUsed=           0 NTot=          32
 NSgBfM=  1000   999  1000  1000  1000 MxSgAt=    48 MxSgA2=    48.
 Leave Link  302 at Sun Feb 19 04:14:36 2023, MaxMem=  2684354560 cpu:              18.9 elap:               1.2
 (Enter /storage/apps/GAUSSIAN/G16_RevA03/g16/l303.exe)
 DipDrv:  MaxL=1.
 Leave Link  303 at Sun Feb 19 04:14:36 2023, MaxMem=  2684354560 cpu:               2.1 elap:               0.2
 (Enter /storage/apps/GAUSSIAN/G16_RevA03/g16/l401.exe)
 ExpMin= 9.52D-02 ExpMax= 6.07D+04 ExpMxC= 2.07D+03 IAcc=3 IRadAn=         5 AccDes= 0.00D+00
 Harris functional with IExCor= 1009 and IRadAn=       5 diagonalized for initial guess.
 HarFok:  IExCor= 1009 AccDes= 0.00D+00 IRadAn=         5 IDoV= 1 UseB2=F ITyADJ=14
 ICtDFT=  3500011 ScaDFX=  1.000000  1.000000  1.000000  1.000000
 FoFCou: FMM=F IPFlag=           0 FMFlag=      100000 FMFlg1=           0
         NFxFlg=           0 DoJE=T BraDBF=F KetDBF=T FulRan=T
         wScrn=  0.000000 ICntrl=       500 IOpCl=  0 I1Cent=   200000004 NGrid=           0
         NMat0=    1 NMatS0=      1 NMatT0=    0 NMatD0=    1 NMtDS0=    0 NMtDT0=    0
 Symmetry not used in FoFCou.
 Harris En= -1507.20639626468    
 JPrj=0 DoOrth=F DoCkMO=F.
 Leave Link  401 at Sun Feb 19 04:14:39 2023, MaxMem=  2684354560 cpu:              59.6 elap:               3.8
 (Enter /storage/apps/GAUSSIAN/G16_RevA03/g16/l502.exe)
 Two-electron integral symmetry not used.
 Closed shell SCF:
 Using DIIS extrapolation, IDIIS=  1040.
 NGot=  2684354560 LenX=  2682275214 LenY=  2681246004
 Requested convergence on RMS density matrix=1.00D-08 within 128 cycles.
 Requested convergence on MAX density matrix=1.00D-06.
 Requested convergence on             energy=1.00D-06.
 No special actions if energy rises.
 Fock matrices will be formed incrementally for  20 cycles.
 Integral accuracy reduced to 1.0D-05 until final iterations.

 Cycle   1  Pass 0  IDiag  1:
 FoFJK:  IHMeth= 1 ICntrl=       0 DoSepK=F KAlg= 0 I1Cent=           0 FoldK=F
 IRaf= 780000000 NMat=       1 IRICut=       1 DoRegI=T DoRafI=F ISym2E= 0 IDoP0=0 IntGTp=1.
 FoFCou: FMM=F IPFlag=           0 FMFlag=      100000 FMFlg1=           0
         NFxFlg=           0 DoJE=F BraDBF=F KetDBF=F FulRan=T
         wScrn=  0.000000 ICntrl=         0 IOpCl=  0 I1Cent=           0 NGrid=           0
         NMat0=    1 NMatS0=      1 NMatT0=    0 NMatD0=    1 NMtDS0=    0 NMtDT0=    0
 Symmetry not used in FoFCou.
 E= -1507.15112551367    
 DIIS: error= 1.39D-02 at cycle   1 NSaved=   1.
 NSaved= 1 IEnMin= 1 EnMin= -1507.15112551367     IErMin= 1 ErrMin= 1.39D-02
 ErrMax= 1.39D-02  0.00D+00 EMaxC= 1.00D-01 BMatC= 9.89D-01 BMatP= 9.89D-01
 IDIUse=3 WtCom= 8.61D-01 WtEn= 1.39D-01
 Coeff-Com:  0.100D+01
 Coeff-En:   0.100D+01
 Coeff:      0.100D+01
 Gap=     0.346 Goal=   None    Shift=    0.000
 GapD=    0.346 DampG=1.000 DampE=0.500 DampFc=0.5000 IDamp=-1.
 Damping current iteration by 5.00D-01
 RMSDP=4.36D-03 MaxDP=1.36D+00              OVMax= 2.63D-01

 Cycle   2  Pass 0  IDiag  1:
 RMSU=  2.18D-03    CP:  1.03D+00
 E= -1507.47901739610     Delta-E=       -0.327891882428 Rises=F Damp=T
 DIIS: error= 4.77D-03 at cycle   2 NSaved=   2.
 NSaved= 2 IEnMin= 2 EnMin= -1507.47901739610     IErMin= 2 ErrMin= 4.77D-03
 ErrMax= 4.77D-03  0.00D+00 EMaxC= 1.00D-01 BMatC= 9.18D-02 BMatP= 9.89D-01
 IDIUse=3 WtCom= 9.52D-01 WtEn= 4.77D-02
 Coeff-Com:  0.893D-02 0.991D+00
 Coeff-En:   0.676D-01 0.932D+00
 Coeff:      0.117D-01 0.988D+00
 Gap=     0.330 Goal=   None    Shift=    0.000
 RMSDP=1.38D-03 MaxDP=4.51D-01 DE=-3.28D-01 OVMax= 1.68D-01

 Cycle   3  Pass 0  IDiag  1:
 RMSU=  1.05D-03    CP:  1.00D+00  5.88D-01
 E= -1507.83948520873     Delta-E=       -0.360467812633 Rises=F Damp=F
 DIIS: error= 4.66D-03 at cycle   3 NSaved=   3.
 NSaved= 3 IEnMin= 3 EnMin= -1507.83948520873     IErMin= 3 ErrMin= 4.66D-03
 ErrMax= 4.66D-03  0.00D+00 EMaxC= 1.00D-01 BMatC= 6.04D-02 BMatP= 9.18D-02
 IDIUse=3 WtCom= 9.53D-01 WtEn= 4.66D-02
 Coeff-Com: -0.770D-01 0.466D+00 0.611D+00
 Coeff-En:   0.000D+00 0.000D+00 0.100D+01
 Coeff:     -0.734D-01 0.445D+00 0.629D+00
 Gap=     0.224 Goal=   None    Shift=    0.000
 RMSDP=3.69D-04 MaxDP=3.69D-02 DE=-3.60D-01 OVMax= 6.93D-02

 Cycle   4  Pass 0  IDiag  1:
 RMSU=  3.26D-04    CP:  1.00D+00  6.62D-01  9.39D-01
 E= -1507.87962065784     Delta-E=       -0.040135449111 Rises=F Damp=F
 DIIS: error= 2.08D-03 at cycle   4 NSaved=   4.
 NSaved= 4 IEnMin= 4 EnMin= -1507.87962065784     IErMin= 4 ErrMin= 2.08D-03
 ErrMax= 2.08D-03  0.00D+00 EMaxC= 1.00D-01 BMatC= 1.10D-02 BMatP= 6.04D-02
 IDIUse=3 WtCom= 9.79D-01 WtEn= 2.08D-02
 Coeff-Com: -0.364D-01 0.988D-01 0.336D+00 0.602D+00
 Coeff-En:   0.000D+00 0.000D+00 0.122D+00 0.878D+00
 Coeff:     -0.357D-01 0.967D-01 0.332D+00 0.607D+00
 Gap=     0.224 Goal=   None    Shift=    0.000
 RMSDP=1.19D-04 MaxDP=1.00D-02 DE=-4.01D-02 OVMax= 1.75D-02

 Cycle   5  Pass 0  IDiag  1:
 RMSU=  8.16D-05    CP:  1.00D+00  6.60D-01  9.64D-01  7.46D-01
 E= -1507.88779209839     Delta-E=       -0.008171440550 Rises=F Damp=F
 DIIS: error= 3.27D-04 at cycle   5 NSaved=   5.
 NSaved= 5 IEnMin= 5 EnMin= -1507.88779209839     IErMin= 5 ErrMin= 3.27D-04
 ErrMax= 3.27D-04  0.00D+00 EMaxC= 1.00D-01 BMatC= 4.46D-04 BMatP= 1.10D-02
 IDIUse=3 WtCom= 9.97D-01 WtEn= 3.27D-03
 Coeff-Com: -0.107D-01 0.181D-01 0.116D+00 0.270D+00 0.607D+00
 Coeff-En:   0.000D+00 0.000D+00 0.000D+00 0.000D+00 0.100D+01
 Coeff:     -0.106D-01 0.180D-01 0.115D+00 0.269D+00 0.608D+00
 Gap=     0.223 Goal=   None    Shift=    0.000
 RMSDP=5.31D-05 MaxDP=1.54D-02 DE=-8.17D-03 OVMax= 4.59D-03

 Cycle   6  Pass 0  IDiag  1:
 RMSU=  3.42D-05    CP:  1.00D+00  6.44D-01  9.77D-01  7.73D-01  8.95D-01
 E= -1507.88815129037     Delta-E=       -0.000359191974 Rises=F Damp=F
 DIIS: error= 1.60D-04 at cycle   6 NSaved=   6.
 NSaved= 6 IEnMin= 6 EnMin= -1507.88815129037     IErMin= 6 ErrMin= 1.60D-04
 ErrMax= 1.60D-04  0.00D+00 EMaxC= 1.00D-01 BMatC= 5.87D-05 BMatP= 4.46D-04
 IDIUse=3 WtCom= 9.98D-01 WtEn= 1.60D-03
 Coeff-Com:  0.215D-03-0.458D-02 0.104D-01 0.406D-01 0.275D+00 0.679D+00
 Coeff-En:   0.000D+00 0.000D+00 0.000D+00 0.000D+00 0.000D+00 0.100D+01
 Coeff:      0.215D-03-0.458D-02 0.103D-01 0.405D-01 0.274D+00 0.679D+00
 Gap=     0.225 Goal=   None    Shift=    0.000
 RMSDP=1.99D-05 MaxDP=1.81D-03 DE=-3.59D-04 OVMax= 2.39D-03

 Cycle   7  Pass 0  IDiag  1:
 RMSU=  1.79D-05    CP:  1.00D+00  6.43D-01  9.82D-01  7.79D-01  9.78D-01
                    CP:  1.01D+00
 E= -1507.88822820177     Delta-E=       -0.000076911400 Rises=F Damp=F
 DIIS: error= 5.70D-05 at cycle   7 NSaved=   7.
 NSaved= 7 IEnMin= 7 EnMin= -1507.88822820177     IErMin= 7 ErrMin= 5.70D-05
 ErrMax= 5.70D-05  0.00D+00 EMaxC= 1.00D-01 BMatC= 8.91D-06 BMatP= 5.87D-05
 IDIUse=1 WtCom= 1.00D+00 WtEn= 0.00D+00
 Coeff-Com:  0.182D-02-0.496D-02-0.120D-01-0.259D-01 0.131D-01 0.274D+00
 Coeff-Com:  0.754D+00
 Coeff:      0.182D-02-0.496D-02-0.120D-01-0.259D-01 0.131D-01 0.274D+00
 Coeff:      0.754D+00
 Gap=     0.225 Goal=   None    Shift=    0.000
 RMSDP=1.88D-05 MaxDP=3.80D-03 DE=-7.69D-05 OVMax= 2.01D-03

 Cycle   8  Pass 0  IDiag  1:
 RMSU=  1.17D-05    CP:  1.00D+00  6.39D-01  9.84D-01  7.85D-01  1.07D+00
                    CP:  1.18D+00  1.35D+00
 E= -1507.88824847941     Delta-E=       -0.000020277641 Rises=F Damp=F
 DIIS: error= 3.51D-05 at cycle   8 NSaved=   8.
 NSaved= 8 IEnMin= 8 EnMin= -1507.88824847941     IErMin= 8 ErrMin= 3.51D-05
 ErrMax= 3.51D-05  0.00D+00 EMaxC= 1.00D-01 BMatC= 2.07D-06 BMatP= 8.91D-06
 IDIUse=1 WtCom= 1.00D+00 WtEn= 0.00D+00
 Coeff-Com:  0.892D-03-0.160D-02-0.711D-02-0.213D-01-0.439D-01 0.239D-02
 Coeff-Com:  0.358D+00 0.713D+00
 Coeff:      0.892D-03-0.160D-02-0.711D-02-0.213D-01-0.439D-01 0.239D-02
 Coeff:      0.358D+00 0.713D+00
 Gap=     0.225 Goal=   None    Shift=    0.000
 RMSDP=1.87D-05 MaxDP=2.88D-03 DE=-2.03D-05 OVMax= 6.67D-04

 Cycle   9  Pass 0  IDiag  1:
 RMSU=  9.85D-06    CP:  1.00D+00  6.38D-01  9.86D-01  7.86D-01  1.12D+00
                    CP:  1.29D+00  1.99D+00  1.80D+00
 E= -1507.88824867919     Delta-E=       -0.000000199783 Rises=F Damp=F
 DIIS: error= 2.25D-05 at cycle   9 NSaved=   9.
 NSaved= 9 IEnMin= 9 EnMin= -1507.88824867919     IErMin= 9 ErrMin= 2.25D-05
 ErrMax= 2.25D-05  0.00D+00 EMaxC= 1.00D-01 BMatC= 4.79D-07 BMatP= 2.07D-06
 IDIUse=1 WtCom= 1.00D+00 WtEn= 0.00D+00
 Coeff-Com:  0.275D-03-0.376D-03-0.206D-02-0.818D-02-0.213D-01-0.230D-01
 Coeff-Com:  0.108D+00 0.342D+00 0.604D+00
 Coeff:      0.275D-03-0.376D-03-0.206D-02-0.818D-02-0.213D-01-0.230D-01
 Coeff:      0.108D+00 0.342D+00 0.604D+00
 Gap=     0.225 Goal=   None    Shift=    0.000
 RMSDP=2.17D-05 MaxDP=3.55D-03 DE=-2.00D-07 OVMax= 1.91D-04

 Cycle  10  Pass 0  IDiag  1:
 RMSU=  4.79D-06    CP:  1.00D+00  6.39D-01  9.87D-01  7.88D-01  1.17D+00
                    CP:  1.38D+00  2.63D+00  2.88D+00  2.17D+00
 E= -1507.88825068074     Delta-E=       -0.000002001553 Rises=F Damp=F
 DIIS: error= 3.19D-05 at cycle  10 NSaved=  10.
 NSaved=10 IEnMin=10 EnMin= -1507.88825068074     IErMin= 9 ErrMin= 2.25D-05
 ErrMax= 3.19D-05  0.00D+00 EMaxC= 1.00D-01 BMatC= 7.11D-07 BMatP= 4.79D-07
 IDIUse=1 WtCom= 1.00D+00 WtEn= 0.00D+00
 Coeff-Com:  0.290D-03-0.308D-03-0.221D-02-0.963D-02-0.277D-01-0.385D-01
 Coeff-Com:  0.115D+00 0.444D+00 0.100D+01-0.483D+00
 Coeff:      0.290D-03-0.308D-03-0.221D-02-0.963D-02-0.277D-01-0.385D-01
 Coeff:      0.115D+00 0.444D+00 0.100D+01-0.483D+00
 Gap=     0.225 Goal=   None    Shift=    0.000
 RMSDP=2.23D-05 MaxDP=3.74D-03 DE=-2.00D-06 OVMax= 4.31D-05

 Cycle  11  Pass 0  IDiag  1:
 RMSU=  3.74D-06    CP:  1.00D+00  6.37D-01  9.86D-01  7.86D-01  1.13D+00
                    CP:  1.31D+00  2.02D+00  1.92D+00  8.23D-01 -2.79D-01
 E= -1507.88824152114     Delta-E=        0.000009159602 Rises=F Damp=F
 DIIS: error= 2.47D-05 at cycle  11 NSaved=  11.
 NSaved=11 IEnMin=10 EnMin= -1507.88825068074     IErMin= 9 ErrMin= 2.25D-05
 ErrMax= 2.47D-05  0.00D+00 EMaxC= 1.00D-01 BMatC= 3.44D-07 BMatP= 4.79D-07
 IDIUse=1 WtCom= 1.00D+00 WtEn= 0.00D+00
 Coeff-Com: -0.138D-04 0.188D-03 0.334D-03-0.183D-02-0.994D-02-0.328D-01
 Coeff-Com: -0.837D-02 0.152D+00 0.812D+00-0.117D+01 0.126D+01
 Coeff:     -0.138D-04 0.188D-03 0.334D-03-0.183D-02-0.994D-02-0.328D-01
 Coeff:     -0.837D-02 0.152D+00 0.812D+00-0.117D+01 0.126D+01
 Gap=     0.225 Goal=   None    Shift=    0.000
 RMSDP=2.34D-05 MaxDP=5.09D-03 DE= 9.16D-06 OVMax= 1.01D-04

 Cycle  12  Pass 0  IDiag  1:
 RMSU=  5.85D-06    CP:  1.00D+00  6.32D-01  9.86D-01  7.85D-01  1.13D+00
                    CP:  1.30D+00  1.62D+00  1.47D+00 -4.07D-01 -2.31D+00
                    CP:  3.00D+00
 E= -1507.88821453134     Delta-E=        0.000026989805 Rises=F Damp=F
 DIIS: error= 2.20D-05 at cycle  12 NSaved=  12.
 NSaved=12 IEnMin=10 EnMin= -1507.88825068074     IErMin=12 ErrMin= 2.20D-05
 ErrMax= 2.20D-05  0.00D+00 EMaxC= 1.00D-01 BMatC= 2.63D-07 BMatP= 3.44D-07
 IDIUse=1 WtCom= 1.00D+00 WtEn= 0.00D+00
 Coeff-Com: -0.338D-04 0.260D-03 0.508D-03-0.189D-02-0.116D-01-0.405D-01
 Coeff-Com: -0.165D-01 0.176D+00 0.100D+01-0.148D+01 0.163D+01-0.255D+00
 Coeff:     -0.338D-04 0.260D-03 0.508D-03-0.189D-02-0.116D-01-0.405D-01
 Coeff:     -0.165D-01 0.176D+00 0.100D+01-0.148D+01 0.163D+01-0.255D+00
 Gap=     0.225 Goal=   None    Shift=    0.000
 RMSDP=6.73D-06 MaxDP=9.56D-04 DE= 2.70D-05 OVMax= 2.25D-05

 Initial convergence to 1.0D-05 achieved.  Increase integral accuracy.
 Cycle  13  Pass 1  IDiag  1:
 E= -1507.88810399871     Delta-E=        0.000110532631 Rises=F Damp=F
 DIIS: error= 3.00D-04 at cycle   1 NSaved=   1.
 NSaved= 1 IEnMin= 1 EnMin= -1507.88810399871     IErMin= 1 ErrMin= 3.00D-04
 ErrMax= 3.00D-04  0.00D+00 EMaxC= 1.00D-01 BMatC= 8.79D-05 BMatP= 8.79D-05
 IDIUse=3 WtCom= 9.97D-01 WtEn= 3.00D-03
 Coeff-Com:  0.100D+01
 Coeff-En:   0.100D+01
 Coeff:      0.100D+01
 Gap=     0.225 Goal=   None    Shift=    0.000
 RMSDP=6.73D-06 MaxDP=9.56D-04 DE= 1.11D-04 OVMax= 1.07D-03

 Cycle  14  Pass 1  IDiag  1:
 RMSU=  4.58D-04    CP:  9.95D-01
 E= -1507.88816382084     Delta-E=       -0.000059822130 Rises=F Damp=F
 DIIS: error= 6.83D-06 at cycle   2 NSaved=   2.
 NSaved= 2 IEnMin= 2 EnMin= -1507.88816382084     IErMin= 2 ErrMin= 6.83D-06
 ErrMax= 6.83D-06  0.00D+00 EMaxC= 1.00D-01 BMatC= 1.30D-07 BMatP= 8.79D-05
 IDIUse=1 WtCom= 1.00D+00 WtEn= 0.00D+00
 Coeff-Com: -0.157D-01 0.102D+01
 Coeff:     -0.157D-01 0.102D+01
 Gap=     0.225 Goal=   None    Shift=    0.000
 RMSDP=1.64D-05 MaxDP=1.45D-03 DE=-5.98D-05 OVMax= 1.82D-04

 Cycle  15  Pass 1  IDiag  1:
 RMSU=  5.20D-06    CP:  9.95D-01  1.03D+00
 E= -1507.88816380619     Delta-E=        0.000000014650 Rises=F Damp=F
 DIIS: error= 8.35D-06 at cycle   3 NSaved=   3.
 NSaved= 3 IEnMin= 2 EnMin= -1507.88816382084     IErMin= 2 ErrMin= 6.83D-06
 ErrMax= 8.35D-06  0.00D+00 EMaxC= 1.00D-01 BMatC= 1.92D-07 BMatP= 1.30D-07
 IDIUse=1 WtCom= 1.00D+00 WtEn= 0.00D+00
 Coeff-Com: -0.102D-01 0.587D+00 0.423D+00
 Coeff:     -0.102D-01 0.587D+00 0.423D+00
 Gap=     0.225 Goal=   None    Shift=    0.000
 RMSDP=6.40D-07 MaxDP=5.00D-05 DE= 1.46D-08 OVMax= 1.30D-04

 Cycle  16  Pass 1  IDiag  1:
 RMSU=  5.92D-07    CP:  9.95D-01  1.03D+00  1.01D+00
 E= -1507.88816396729     Delta-E=       -0.000000161103 Rises=F Damp=F
 DIIS: error= 1.34D-06 at cycle   4 NSaved=   4.
 NSaved= 4 IEnMin= 4 EnMin= -1507.88816396729     IErMin= 4 ErrMin= 1.34D-06
 ErrMax= 1.34D-06  0.00D+00 EMaxC= 1.00D-01 BMatC= 4.63D-09 BMatP= 1.30D-07
 IDIUse=1 WtCom= 1.00D+00 WtEn= 0.00D+00
 Coeff-Com: -0.185D-02 0.955D-01 0.151D+00 0.756D+00
 Coeff:     -0.185D-02 0.955D-01 0.151D+00 0.756D+00
 Gap=     0.225 Goal=   None    Shift=    0.000
 RMSDP=3.60D-07 MaxDP=4.02D-05 DE=-1.61D-07 OVMax= 2.20D-05

 Cycle  17  Pass 1  IDiag  1:
 RMSU=  1.81D-07    CP:  9.95D-01  1.03D+00  1.05D+00  1.01D+00
 E= -1507.88816397110     Delta-E=       -0.000000003811 Rises=F Damp=F
 DIIS: error= 4.94D-07 at cycle   5 NSaved=   5.
 NSaved= 5 IEnMin= 5 EnMin= -1507.88816397110     IErMin= 5 ErrMin= 4.94D-07
 ErrMax= 4.94D-07  0.00D+00 EMaxC= 1.00D-01 BMatC= 8.94D-10 BMatP= 4.63D-09
 IDIUse=1 WtCom= 1.00D+00 WtEn= 0.00D+00
 Coeff-Com:  0.334D-03-0.245D-01 0.208D-01 0.364D+00 0.639D+00
 Coeff:      0.334D-03-0.245D-01 0.208D-01 0.364D+00 0.639D+00
 Gap=     0.225 Goal=   None    Shift=    0.000
 RMSDP=1.03D-07 MaxDP=8.54D-06 DE=-3.81D-09 OVMax= 5.85D-06

 Cycle  18  Pass 1  IDiag  1:
 RMSU=  4.95D-08    CP:  9.95D-01  1.04D+00  1.06D+00  1.06D+00  1.06D+00
 E= -1507.88816397193     Delta-E=       -0.000000000832 Rises=F Damp=F
 DIIS: error= 1.45D-07 at cycle   6 NSaved=   6.
 NSaved= 6 IEnMin= 6 EnMin= -1507.88816397193     IErMin= 6 ErrMin= 1.45D-07
 ErrMax= 1.45D-07  0.00D+00 EMaxC= 1.00D-01 BMatC= 4.97D-11 BMatP= 8.94D-10
 IDIUse=1 WtCom= 1.00D+00 WtEn= 0.00D+00
 Coeff-Com:  0.242D-03-0.154D-01-0.104D-02 0.101D+00 0.255D+00 0.661D+00
 Coeff:      0.242D-03-0.154D-01-0.104D-02 0.101D+00 0.255D+00 0.661D+00
 Gap=     0.225 Goal=   None    Shift=    0.000
 RMSDP=2.24D-08 MaxDP=2.75D-06 DE=-8.32D-10 OVMax= 2.78D-06

 Cycle  19  Pass 1  IDiag  1:
 RMSU=  1.52D-08    CP:  9.95D-01  1.04D+00  1.07D+00  1.06D+00  1.15D+00
                    CP:  1.02D+00
 E= -1507.88816397198     Delta-E=       -0.000000000052 Rises=F Damp=F
 DIIS: error= 6.80D-08 at cycle   7 NSaved=   7.
 NSaved= 7 IEnMin= 7 EnMin= -1507.88816397198     IErMin= 7 ErrMin= 6.80D-08
 ErrMax= 6.80D-08  0.00D+00 EMaxC= 1.00D-01 BMatC= 8.49D-12 BMatP= 4.97D-11
 IDIUse=1 WtCom= 1.00D+00 WtEn= 0.00D+00
 Coeff-Com:  0.844D-05 0.218D-03-0.536D-02-0.481D-01-0.608D-01 0.244D+00
 Coeff-Com:  0.870D+00
 Coeff:      0.844D-05 0.218D-03-0.536D-02-0.481D-01-0.608D-01 0.244D+00
 Coeff:      0.870D+00
 Gap=     0.225 Goal=   None    Shift=    0.000
 RMSDP=1.19D-08 MaxDP=1.18D-06 DE=-5.23D-11 OVMax= 1.91D-06

 Cycle  20  Pass 1  IDiag  1:
 RMSU=  7.14D-09    CP:  9.95D-01  1.04D+00  1.07D+00  1.06D+00  1.18D+00
                    CP:  1.12D+00  1.02D+00
 E= -1507.88816397202     Delta-E=       -0.000000000031 Rises=F Damp=F
 DIIS: error= 3.18D-08 at cycle   8 NSaved=   8.
 NSaved= 8 IEnMin= 8 EnMin= -1507.88816397202     IErMin= 8 ErrMin= 3.18D-08
 ErrMax= 3.18D-08  0.00D+00 EMaxC= 1.00D-01 BMatC= 1.99D-12 BMatP= 8.49D-12
 IDIUse=1 WtCom= 1.00D+00 WtEn= 0.00D+00
 Coeff-Com: -0.281D-04 0.219D-02-0.262D-02-0.377D-01-0.657D-01 0.452D-01
 Coeff-Com:  0.444D+00 0.615D+00
 Coeff:     -0.281D-04 0.219D-02-0.262D-02-0.377D-01-0.657D-01 0.452D-01
 Coeff:      0.444D+00 0.615D+00
 Gap=     0.225 Goal=   None    Shift=    0.000
 RMSDP=3.41D-09 MaxDP=6.12D-07 DE=-3.09D-11 OVMax= 5.85D-07

 SCF Done:  E(RM062X) =  -1507.88816397     A.U. after   20 cycles
            NFock= 20  Conv=0.34D-08     -V/T= 2.0041
 KE= 1.501796035362D+03 PE=-8.394397284861D+03 EE= 2.956839812684D+03
 Leave Link  502 at Sun Feb 19 04:23:14 2023, MaxMem=  2684354560 cpu:            8224.8 elap:             514.7
 (Enter /storage/apps/GAUSSIAN/G16_RevA03/g16/l601.exe)
 Copying SCF densities to generalized density rwf, IOpCl= 0 IROHF=0.

 **********************************************************************

            Population analysis using the SCF density.

 **********************************************************************

 Alpha  occ. eigenvalues --  -89.90702 -19.64076 -19.63663 -19.61985 -19.61862
 Alpha  occ. eigenvalues --  -19.58854 -14.79309 -14.77072 -10.64831 -10.64345
 Alpha  occ. eigenvalues --  -10.62986 -10.60198 -10.59869 -10.59340 -10.58655
 Alpha  occ. eigenvalues --  -10.57487 -10.56397 -10.55685 -10.55293 -10.54404
 Alpha  occ. eigenvalues --  -10.54068 -10.54064 -10.53862 -10.53706  -8.26615
 Alpha  occ. eigenvalues --   -6.18554  -6.18330  -6.18126  -1.19800  -1.16932
 Alpha  occ. eigenvalues --   -1.15800  -1.15757  -1.14045  -1.08213  -1.01547
 Alpha  occ. eigenvalues --   -0.92249  -0.91072  -0.88406  -0.88326  -0.87010
 Alpha  occ. eigenvalues --   -0.85944  -0.81221  -0.78782  -0.74955  -0.74792
 Alpha  occ. eigenvalues --   -0.72870  -0.70392  -0.68337  -0.66653  -0.66468
 Alpha  occ. eigenvalues --   -0.63463  -0.62745  -0.61263  -0.60452  -0.59766
 Alpha  occ. eigenvalues --   -0.57730  -0.56346  -0.55392  -0.54691  -0.53863
 Alpha  occ. eigenvalues --   -0.53181  -0.52943  -0.51951  -0.50854  -0.50606
 Alpha  occ. eigenvalues --   -0.50179  -0.49720  -0.49251  -0.48791  -0.48290
 Alpha  occ. eigenvalues --   -0.48116  -0.47894  -0.47025  -0.46990  -0.46139
 Alpha  occ. eigenvalues --   -0.45958  -0.44781  -0.44461  -0.43964  -0.43021
 Alpha  occ. eigenvalues --   -0.42392  -0.42142  -0.41429  -0.39869  -0.37971
 Alpha  occ. eigenvalues --   -0.35625  -0.34994  -0.34764  -0.34271  -0.34067
 Alpha  occ. eigenvalues --   -0.32674  -0.32229  -0.31245  -0.29745  -0.24724
 Alpha virt. eigenvalues --   -0.02250   0.00984   0.04763   0.04930   0.05491
 Alpha virt. eigenvalues --    0.06241   0.06625   0.07473   0.08626   0.08769
 Alpha virt. eigenvalues --    0.08999   0.09309   0.10019   0.10751   0.11327
 Alpha virt. eigenvalues --    0.11667   0.12322   0.12642   0.12787   0.13370
 Alpha virt. eigenvalues --    0.13768   0.14058   0.14303   0.14611   0.15069
 Alpha virt. eigenvalues --    0.15796   0.16232   0.16436   0.17009   0.17973
 Alpha virt. eigenvalues --    0.18522   0.18992   0.19532   0.19659   0.20139
 Alpha virt. eigenvalues --    0.20798   0.21075   0.21629   0.22070   0.22128
 Alpha virt. eigenvalues --    0.22852   0.23442   0.23919   0.23958   0.24883
 Alpha virt. eigenvalues --    0.25245   0.25586   0.25938   0.26317   0.26836
 Alpha virt. eigenvalues --    0.27360   0.27617   0.28191   0.28343   0.28888
 Alpha virt. eigenvalues --    0.29224   0.29903   0.29988   0.30917   0.31641
 Alpha virt. eigenvalues --    0.31879   0.32192   0.32307   0.32847   0.33203
 Alpha virt. eigenvalues --    0.33881   0.34280   0.34551   0.35408   0.36078
 Alpha virt. eigenvalues --    0.36659   0.37443   0.37657   0.38151   0.38409
 Alpha virt. eigenvalues --    0.38674   0.39258   0.39573   0.40074   0.40596
 Alpha virt. eigenvalues --    0.40621   0.41061   0.41211   0.41451   0.42117
 Alpha virt. eigenvalues --    0.42340   0.42664   0.43122   0.43340   0.43531
 Alpha virt. eigenvalues --    0.43796   0.43936   0.44628   0.45570   0.45670
 Alpha virt. eigenvalues --    0.46125   0.46366   0.46648   0.47053   0.47650
 Alpha virt. eigenvalues --    0.48081   0.48389   0.48889   0.49101   0.49165
 Alpha virt. eigenvalues --    0.49404   0.49760   0.50430   0.50650   0.50750
 Alpha virt. eigenvalues --    0.51143   0.51267   0.51353   0.52151   0.52532
 Alpha virt. eigenvalues --    0.52962   0.53564   0.53677   0.53901   0.54822
 Alpha virt. eigenvalues --    0.55033   0.55933   0.56060   0.56564   0.57734
 Alpha virt. eigenvalues --    0.57775   0.58396   0.58401   0.58832   0.59244
 Alpha virt. eigenvalues --    0.59582   0.60394   0.60790   0.61012   0.62036
 Alpha virt. eigenvalues --    0.62541   0.63038   0.63298   0.63524   0.64144
 Alpha virt. eigenvalues --    0.64753   0.65498   0.66195   0.66741   0.67300
 Alpha virt. eigenvalues --    0.67535   0.68013   0.68580   0.69743   0.70010
 Alpha virt. eigenvalues --    0.71089   0.71973   0.72413   0.72752   0.73562
 Alpha virt. eigenvalues --    0.74562   0.75136   0.75788   0.76883   0.77359
 Alpha virt. eigenvalues --    0.77977   0.78785   0.79130   0.80349   0.80824
 Alpha virt. eigenvalues --    0.81441   0.81732   0.82697   0.83242   0.83589
 Alpha virt. eigenvalues --    0.83980   0.84562   0.85505   0.86441   0.87400
 Alpha virt. eigenvalues --    0.87968   0.88901   0.89049   0.89655   0.90675
 Alpha virt. eigenvalues --    0.91028   0.92125   0.92799   0.93095   0.93852
 Alpha virt. eigenvalues --    0.94630   0.94862   0.95598   0.96061   0.96737
 Alpha virt. eigenvalues --    0.97265   0.97722   0.98275   0.98710   0.99403
 Alpha virt. eigenvalues --    0.99655   1.01538   1.02354   1.03558   1.04021
 Alpha virt. eigenvalues --    1.04796   1.05178   1.05975   1.06288   1.06807
 Alpha virt. eigenvalues --    1.07336   1.08723   1.08986   1.09475   1.09931
 Alpha virt. eigenvalues --    1.11059   1.11113   1.12080   1.12525   1.13016
 Alpha virt. eigenvalues --    1.13614   1.14098   1.14305   1.15594   1.16391
 Alpha virt. eigenvalues --    1.16856   1.17118   1.17729   1.18370   1.19634
 Alpha virt. eigenvalues --    1.20737   1.20821   1.22135   1.22942   1.23527
 Alpha virt. eigenvalues --    1.24207   1.25712   1.26243   1.26821   1.27896
 Alpha virt. eigenvalues --    1.28312   1.29938   1.30827   1.31505   1.32415
 Alpha virt. eigenvalues --    1.33119   1.33742   1.34057   1.35098   1.35390
 Alpha virt. eigenvalues --    1.36448   1.36858   1.38362   1.39309   1.40561
 Alpha virt. eigenvalues --    1.40994   1.41493   1.42389   1.43335   1.44080
 Alpha virt. eigenvalues --    1.45007   1.46388   1.47468   1.47912   1.49449
 Alpha virt. eigenvalues --    1.50622   1.51301   1.51761   1.52158   1.52667
 Alpha virt. eigenvalues --    1.53530   1.53886   1.54158   1.55436   1.56163
 Alpha virt. eigenvalues --    1.56506   1.56853   1.56979   1.57539   1.57815
 Alpha virt. eigenvalues --    1.58194   1.58871   1.58896   1.59336   1.60304
 Alpha virt. eigenvalues --    1.60355   1.61217   1.61684   1.61940   1.62555
 Alpha virt. eigenvalues --    1.62968   1.63296   1.63917   1.64494   1.64985
 Alpha virt. eigenvalues --    1.65760   1.65813   1.66808   1.67273   1.68075
 Alpha virt. eigenvalues --    1.68568   1.69219   1.70214   1.70602   1.70912
 Alpha virt. eigenvalues --    1.71252   1.72082   1.72324   1.73167   1.73584
 Alpha virt. eigenvalues --    1.73796   1.74445   1.76059   1.76865   1.77619
 Alpha virt. eigenvalues --    1.78137   1.78788   1.79160   1.80214   1.80448
 Alpha virt. eigenvalues --    1.81349   1.82366   1.82911   1.83567   1.83875
 Alpha virt. eigenvalues --    1.84792   1.84928   1.85127   1.85968   1.86943
 Alpha virt. eigenvalues --    1.88116   1.88503   1.88903   1.89252   1.90346
 Alpha virt. eigenvalues --    1.91508   1.91738   1.92512   1.93837   1.94829
 Alpha virt. eigenvalues --    1.95090   1.95548   1.95881   1.96783   1.97284
 Alpha virt. eigenvalues --    1.97836   1.98239   1.99403   1.99967   2.00564
 Alpha virt. eigenvalues --    2.02005   2.02389   2.02670   2.03560   2.04767
 Alpha virt. eigenvalues --    2.05575   2.05728   2.06285   2.07279   2.08309
 Alpha virt. eigenvalues --    2.09071   2.09925   2.10921   2.11261   2.12616
 Alpha virt. eigenvalues --    2.13323   2.13373   2.14285   2.15121   2.15986
 Alpha virt. eigenvalues --    2.16861   2.17641   2.18040   2.18278   2.20002
 Alpha virt. eigenvalues --    2.20720   2.21458   2.22137   2.22740   2.23204
 Alpha virt. eigenvalues --    2.23805   2.24172   2.24843   2.26448   2.27367
 Alpha virt. eigenvalues --    2.27401   2.28029   2.28498   2.28894   2.29515
 Alpha virt. eigenvalues --    2.30649   2.31726   2.31992   2.32080   2.33046
 Alpha virt. eigenvalues --    2.33563   2.33810   2.35055   2.35477   2.35881
 Alpha virt. eigenvalues --    2.36010   2.36893   2.37804   2.38439   2.39609
 Alpha virt. eigenvalues --    2.40265   2.40961   2.41189   2.42802   2.43256
 Alpha virt. eigenvalues --    2.44235   2.45055   2.45561   2.46794   2.47400
 Alpha virt. eigenvalues --    2.48459   2.48627   2.49258   2.50222   2.50622
 Alpha virt. eigenvalues --    2.51713   2.52639   2.53125   2.53900   2.55068
 Alpha virt. eigenvalues --    2.55476   2.56010   2.56562   2.57461   2.57584
 Alpha virt. eigenvalues --    2.58028   2.58072   2.58987   2.59519   2.60034
 Alpha virt. eigenvalues --    2.60614   2.60903   2.62619   2.63204   2.63575
 Alpha virt. eigenvalues --    2.64533   2.64614   2.65875   2.66168   2.66634
 Alpha virt. eigenvalues --    2.67197   2.67874   2.68349   2.69331   2.70213
 Alpha virt. eigenvalues --    2.70694   2.71028   2.71850   2.72401   2.72704
 Alpha virt. eigenvalues --    2.73970   2.74404   2.75814   2.76673   2.76791
 Alpha virt. eigenvalues --    2.77831   2.78407   2.78808   2.79390   2.81125
 Alpha virt. eigenvalues --    2.81829   2.82447   2.82870   2.83834   2.84829
 Alpha virt. eigenvalues --    2.85743   2.86364   2.87513   2.88376   2.88666
 Alpha virt. eigenvalues --    2.89986   2.90384   2.91436   2.92666   2.92954
 Alpha virt. eigenvalues --    2.94032   2.95353   2.95653   2.96129   2.97028
 Alpha virt. eigenvalues --    2.97799   2.98328   2.99479   2.99712   3.00029
 Alpha virt. eigenvalues --    3.02097   3.02368   3.02850   3.03346   3.04065
 Alpha virt. eigenvalues --    3.04518   3.05139   3.06023   3.06235   3.06982
 Alpha virt. eigenvalues --    3.07364   3.08339   3.09029   3.09502   3.10087
 Alpha virt. eigenvalues --    3.10239   3.10769   3.11525   3.12354   3.12888
 Alpha virt. eigenvalues --    3.13518   3.13813   3.15032   3.15436   3.16186
 Alpha virt. eigenvalues --    3.16554   3.17422   3.17991   3.18634   3.18981
 Alpha virt. eigenvalues --    3.19270   3.19698   3.20662   3.21451   3.21805
 Alpha virt. eigenvalues --    3.22382   3.22803   3.24288   3.24515   3.25502
 Alpha virt. eigenvalues --    3.25790   3.26545   3.27012   3.27613   3.28567
 Alpha virt. eigenvalues --    3.29129   3.29642   3.29998   3.30871   3.30921
 Alpha virt. eigenvalues --    3.31538   3.32308   3.33218   3.33672   3.34202
 Alpha virt. eigenvalues --    3.34560   3.35644   3.36312   3.36514   3.37173
 Alpha virt. eigenvalues --    3.37957   3.38068   3.38553   3.39084   3.39576
 Alpha virt. eigenvalues --    3.40372   3.40981   3.41996   3.42504   3.42831
 Alpha virt. eigenvalues --    3.43400   3.44067   3.44755   3.45597   3.46182
 Alpha virt. eigenvalues --    3.46692   3.47028   3.48273   3.48324   3.48896
 Alpha virt. eigenvalues --    3.50109   3.50549   3.51891   3.52111   3.52718
 Alpha virt. eigenvalues --    3.53534   3.54053   3.54946   3.55670   3.56425
 Alpha virt. eigenvalues --    3.57416   3.58005   3.58269   3.59192   3.59926
 Alpha virt. eigenvalues --    3.61526   3.62453   3.63264   3.64272   3.64644
 Alpha virt. eigenvalues --    3.65907   3.66011   3.67118   3.67586   3.68239
 Alpha virt. eigenvalues --    3.69851   3.71424   3.72459   3.73136   3.73580
 Alpha virt. eigenvalues --    3.74745   3.75721   3.76265   3.76684   3.77524
 Alpha virt. eigenvalues --    3.78034   3.79120   3.79329   3.80244   3.81089
 Alpha virt. eigenvalues --    3.82193   3.84367   3.84942   3.86945   3.88136
 Alpha virt. eigenvalues --    3.89510   3.90823   3.91568   3.92599   3.93194
 Alpha virt. eigenvalues --    3.93811   3.94830   3.96852   3.98453   3.99347
 Alpha virt. eigenvalues --    4.00092   4.01678   4.03550   4.03935   4.06264
 Alpha virt. eigenvalues --    4.07859   4.09521   4.09808   4.10566   4.11603
 Alpha virt. eigenvalues --    4.12150   4.12755   4.14018   4.14483   4.16779
 Alpha virt. eigenvalues --    4.17994   4.19915   4.20624   4.21438   4.22989
 Alpha virt. eigenvalues --    4.24166   4.26408   4.27071   4.27946   4.29087
 Alpha virt. eigenvalues --    4.30221   4.33013   4.34516   4.36006   4.38561
 Alpha virt. eigenvalues --    4.39072   4.40006   4.40631   4.41685   4.42132
 Alpha virt. eigenvalues --    4.43496   4.44261   4.46148   4.49253   4.49663
 Alpha virt. eigenvalues --    4.50807   4.51611   4.53979   4.56344   4.56636
 Alpha virt. eigenvalues --    4.58911   4.59429   4.65669   4.65879   4.66561
 Alpha virt. eigenvalues --    4.68309   4.70505   4.71746   4.74454   4.75361
 Alpha virt. eigenvalues --    4.75480   4.76404   4.77781   4.79136   4.80193
 Alpha virt. eigenvalues --    4.83952   4.86459   4.87913   4.89406   4.92439
 Alpha virt. eigenvalues --    4.93754   4.94132   4.96986   4.98130   4.98754
 Alpha virt. eigenvalues --    4.99176   5.00794   5.01358   5.04635   5.06455
 Alpha virt. eigenvalues --    5.09071   5.13287   5.13716   5.17526   5.20502
 Alpha virt. eigenvalues --    5.22301   5.23053   5.23493   5.25202   5.28301
 Alpha virt. eigenvalues --    5.29521   5.31174   5.31439   5.34606   5.35604
 Alpha virt. eigenvalues --    5.37183   5.41220   5.43065   5.44301   5.46790
 Alpha virt. eigenvalues --    5.47247   5.49493   5.53780   5.57551   5.57928
 Alpha virt. eigenvalues --    5.62947   5.66141   5.74575   5.75998   5.77643
 Alpha virt. eigenvalues --    5.78933   5.79923   5.83222   5.84061   5.86027
 Alpha virt. eigenvalues --    5.87808   5.88838   5.90407   5.92431   5.93979
 Alpha virt. eigenvalues --    5.97650   6.02449   6.07747   6.16775   6.20462
 Alpha virt. eigenvalues --    6.22720   6.25412   6.29087   6.31257   6.33865
 Alpha virt. eigenvalues --    6.37746   6.44045   6.45022   6.47545   6.52415
 Alpha virt. eigenvalues --    6.55839   6.59051   6.69517   6.73252   6.74745
 Alpha virt. eigenvalues --    6.78846   6.81197   6.82610   6.85943   6.86500
 Alpha virt. eigenvalues --    6.87335   6.92599   6.98841   7.00740   7.07033
 Alpha virt. eigenvalues --    7.08043   7.08892   7.10132   7.15925   7.24339
 Alpha virt. eigenvalues --    7.25741   7.33600   8.98985   9.38453   9.51266
 Alpha virt. eigenvalues --   19.84976  22.28062  22.42297  22.47878  22.48566
 Alpha virt. eigenvalues --   22.62220  22.65468  22.66633  22.72357  22.79513
 Alpha virt. eigenvalues --   22.86146  22.92827  22.99714  23.02276  23.05269
 Alpha virt. eigenvalues --   23.19538  23.47833  32.15667  33.18089  44.12330
 Alpha virt. eigenvalues --   44.18248  44.23452  44.27453  44.57377
          Condensed to atoms (all electrons):
               1          2          3          4          5          6
     1  C    5.118844   0.421029   0.413133  -0.016956  -0.000008  -0.000111
     2  H    0.421029   0.509928  -0.022547  -0.001486   0.000430  -0.000005
     3  H    0.413133  -0.022547   0.541583   0.001391  -0.000024  -0.000008
     4  C   -0.016956  -0.001486   0.001391   5.636179   0.472541   0.240460
     5  H   -0.000008   0.000430  -0.000024   0.472541   0.547701  -0.030512
     6  O   -0.000111  -0.000005  -0.000008   0.240460  -0.030512   8.016236
     7  H    0.000003  -0.000009   0.000004  -0.064835  -0.002772   0.294286
     8  C    0.008356   0.013538  -0.009717  -0.170281  -0.083387  -0.053965
     9  H    0.010368   0.000024  -0.002105  -0.134293   0.003460   0.002163
    10  O    0.007660  -0.000368   0.000300  -0.044332   0.002171   0.000786
    11  H   -0.000635  -0.000194   0.000475   0.011780  -0.000891  -0.000570
    12  C   -0.002004  -0.000137   0.001157  -0.042398  -0.051946  -0.002075
    13  H   -0.000317   0.000047   0.000125  -0.111480   0.005923   0.000249
    14  C    0.183383  -0.048475  -0.040402   0.155333   0.018192   0.009458
    15  H   -0.075115  -0.006753  -0.002954  -0.014682  -0.000182   0.000040
    16  O   -0.035774   0.000846   0.005340  -0.086001  -0.003297   0.005717
    17  N    0.000253  -0.000103  -0.000038   0.035151  -0.015790  -0.007561
    18  C   -0.001056   0.000006   0.000003   0.002792  -0.003570   0.003782
    19  H   -0.000047  -0.000073   0.000050  -0.016164  -0.003455   0.001392
    20  C   -0.000040   0.000006  -0.000002   0.004576   0.005432  -0.002609
    21  H    0.000005   0.000000  -0.000000   0.000002   0.000135  -0.000040
    22  C   -0.000010  -0.000001   0.000000   0.000415  -0.000220   0.000180
    23  H   -0.000000   0.000000   0.000000   0.000031   0.000006   0.000000
    24  H    0.000000  -0.000000  -0.000000  -0.000286  -0.000048  -0.000006
    25  C   -0.000065  -0.000006   0.000001  -0.001555  -0.000634  -0.000410
    26  C   -0.000262   0.000026  -0.000004   0.023974  -0.000542  -0.003061
    27  H   -0.000013   0.000001  -0.000000   0.000707  -0.000056   0.000115
    28  C    0.000000  -0.000000  -0.000000   0.000144  -0.000003  -0.000022
    29  O   -0.000000   0.000000  -0.000000   0.000001   0.000000  -0.000000
    30  N   -0.000000   0.000000   0.000000   0.000002  -0.000000  -0.000000
    31  H   -0.000000   0.000000   0.000000   0.000000   0.000000  -0.000000
    32  H   -0.000000   0.000000  -0.000000   0.000000   0.000000   0.000000
    33  C    0.000000  -0.000000   0.000000  -0.000257  -0.000347  -0.012906
    34  C    0.000000  -0.000000  -0.000000   0.000303   0.000009  -0.001040
    35  C    0.000000   0.000000  -0.000000  -0.000256   0.000065   0.000020
    36  C   -0.000000   0.000000   0.000000  -0.000001   0.000000   0.000001
    37  C   -0.000000   0.000000   0.000000   0.000243  -0.000002   0.000063
    38  O    0.000000   0.000000  -0.000000  -0.000098  -0.000068  -0.016341
    39  S   -0.000000  -0.000000   0.000000   0.000628   0.000018   0.000854
    40  H   -0.000000   0.000000  -0.000000   0.000188   0.000021   0.000223
    41  H   -0.000001   0.000000  -0.000000  -0.004298   0.000532   0.014892
    42  H    0.000000   0.000000  -0.000000  -0.000000   0.000000  -0.000000
    43  H    0.000000  -0.000000  -0.000000   0.000000  -0.000000  -0.000000
    44  H   -0.000000  -0.000000  -0.000000  -0.000000  -0.000000  -0.000000
    45  H   -0.000000  -0.000000   0.000000   0.000019   0.000003   0.000012
    46  H    0.000000  -0.000000  -0.000000  -0.000020   0.000000   0.000007
    47  H    0.380113  -0.022110  -0.025176   0.003113  -0.001199   0.000052
    48  H    0.000000   0.000000  -0.000000   0.000063   0.000002   0.000424
               7          8          9         10         11         12
     1  C    0.000003   0.008356   0.010368   0.007660  -0.000635  -0.002004
     2  H   -0.000009   0.013538   0.000024  -0.000368  -0.000194  -0.000137
     3  H    0.000004  -0.009717  -0.002105   0.000300   0.000475   0.001157
     4  C   -0.064835  -0.170281  -0.134293  -0.044332   0.011780  -0.042398
     5  H   -0.002772  -0.083387   0.003460   0.002171  -0.000891  -0.051946
     6  O    0.294286  -0.053965   0.002163   0.000786  -0.000570  -0.002075
     7  H    0.439431   0.002883  -0.000968  -0.001271   0.000292  -0.003081
     8  C    0.002883   5.595038   0.533467   0.260183  -0.039937   0.021795
     9  H   -0.000968   0.533467   0.572803  -0.057024  -0.001669   0.016988
    10  O   -0.001271   0.260183  -0.057024   8.038998   0.288981  -0.013109
    11  H    0.000292  -0.039937  -0.001669   0.288981   0.427921  -0.001529
    12  C   -0.003081   0.021795   0.016988  -0.013109  -0.001529   5.576665
    13  H   -0.003300   0.019464   0.002873   0.016002  -0.001547   0.482497
    14  C   -0.000078   0.039031  -0.110153  -0.047617  -0.005512  -0.109473
    15  H    0.000132  -0.036817   0.011466  -0.007525   0.005907   0.000390
    16  O    0.001647  -0.042461   0.004883   0.007661   0.000366   0.280153
    17  N    0.019654   0.001393  -0.001093  -0.000629   0.000045   0.117736
    18  C   -0.002136  -0.005139  -0.000485  -0.000510   0.000020  -0.101996
    19  H    0.000571   0.001484   0.000053  -0.000008   0.000005   0.020279
    20  C   -0.000806  -0.002033   0.000007   0.000010  -0.000001   0.015980
    21  H    0.000011  -0.000007   0.000000   0.000000  -0.000000   0.000457
    22  C    0.000261   0.000015  -0.000003  -0.000004   0.000000  -0.011314
    23  H   -0.000022   0.000000   0.000000   0.000000  -0.000000   0.000098
    24  H    0.000634   0.000012  -0.000000   0.000000   0.000000   0.000601
    25  C   -0.001693  -0.000183  -0.000002  -0.000050   0.000001  -0.025403
    26  C   -0.002802  -0.003715  -0.000137  -0.000788  -0.000042  -0.076001
    27  H    0.000196  -0.000060  -0.000007  -0.000118   0.000006  -0.001231
    28  C    0.000091   0.000005   0.000000  -0.000000  -0.000000  -0.001751
    29  O    0.000025   0.000001   0.000000  -0.000000  -0.000000   0.000402
    30  N   -0.000000  -0.000000  -0.000000  -0.000000  -0.000000  -0.000015
    31  H   -0.000000  -0.000000   0.000000  -0.000000  -0.000000  -0.000005
    32  H   -0.000000  -0.000000  -0.000000  -0.000000  -0.000000  -0.000005
    33  C    0.004914   0.000794   0.000002  -0.000566   0.000045  -0.000799
    34  C   -0.001791  -0.000077  -0.000001   0.000022  -0.000001  -0.001855
    35  C    0.002272  -0.000062  -0.000000   0.000001  -0.000000   0.001510
    36  C   -0.000003  -0.000000  -0.000000  -0.000000  -0.000000   0.000022
    37  C   -0.001312   0.000002  -0.000000  -0.000000   0.000000  -0.000647
    38  O    0.025654   0.000034   0.000004   0.000004  -0.000000  -0.001568
    39  S   -0.002728  -0.000013  -0.000000  -0.000002  -0.000000  -0.000432
    40  H   -0.001571  -0.000014   0.000000   0.000009  -0.000001   0.000018
    41  H   -0.000366  -0.001899   0.000037   0.001923  -0.000148   0.001933
    42  H    0.000001   0.000000  -0.000000   0.000000  -0.000000   0.000000
    43  H    0.000001   0.000000  -0.000000  -0.000000   0.000000   0.000001
    44  H    0.000000  -0.000000  -0.000000   0.000000   0.000000  -0.000000
    45  H   -0.000123  -0.000000   0.000000  -0.000000  -0.000000  -0.000021
    46  H    0.000010  -0.000000  -0.000000   0.000000   0.000000   0.000107
    47  H    0.000040  -0.016431   0.001573   0.000096   0.000142  -0.001115
    48  H   -0.000195  -0.000006   0.000001   0.000006  -0.000001  -0.000009
              13         14         15         16         17         18
     1  C   -0.000317   0.183383  -0.075115  -0.035774   0.000253  -0.001056
     2  H    0.000047  -0.048475  -0.006753   0.000846  -0.000103   0.000006
     3  H    0.000125  -0.040402  -0.002954   0.005340  -0.000038   0.000003
     4  C   -0.111480   0.155333  -0.014682  -0.086001   0.035151   0.002792
     5  H    0.005923   0.018192  -0.000182  -0.003297  -0.015790  -0.003570
     6  O    0.000249   0.009458   0.000040   0.005717  -0.007561   0.003782
     7  H   -0.003300  -0.000078   0.000132   0.001647   0.019654  -0.002136
     8  C    0.019464   0.039031  -0.036817  -0.042461   0.001393  -0.005139
     9  H    0.002873  -0.110153   0.011466   0.004883  -0.001093  -0.000485
    10  O    0.016002  -0.047617  -0.007525   0.007661  -0.000629  -0.000510
    11  H   -0.001547  -0.005512   0.005907   0.000366   0.000045   0.000020
    12  C    0.482497  -0.109473   0.000390   0.280153   0.117736  -0.101996
    13  H    0.518310  -0.008657   0.006267  -0.039095  -0.071581   0.013266
[...]
      5        1           0.003742765    0.004125971    0.001537324
      6        8           0.007033730    0.002105633   -0.005264226
      7        1          -0.004313219   -0.005720550    0.004281124
      8        6          -0.003709207   -0.011540013   -0.001332345
      9        1          -0.001127988    0.005532783   -0.004077149
     10        8           0.026241619    0.002077913   -0.004842534
     11        1          -0.024349126    0.004317043    0.007353856
     12        6           0.002612872    0.005576443    0.006139236
     13        1          -0.001399308   -0.002080862   -0.002557645
     14        6           0.008838286   -0.001990583    0.001896940
     15        1          -0.003356819    0.003060643    0.001151418
     16        8           0.002145970   -0.002910018   -0.006776655
     17        7           0.000142179    0.005963757   -0.005435522
     18        6          -0.008779037   -0.002536662   -0.001650270
     19        1          -0.002478230    0.008089778   -0.001231318
     20        6           0.006277648   -0.005775040    0.002194751
     21        1           0.002200769    0.006294431    0.001344393
     22        6          -0.014351237    0.012836900    0.017926548
     23        1           0.001390731   -0.000027234    0.004090891
     24        1           0.016119029   -0.034911264   -0.032426320
     25        6           0.005776051    0.002433660   -0.001461887
     26        6          -0.002304974   -0.002545163   -0.001078474
     27        1          -0.005912504   -0.004467767    0.002023684
     28        6           0.018814057   -0.002175212    0.018471465
     29        8          -0.006338931   -0.004171127   -0.006422936
     30        7          -0.007932429    0.000983688   -0.023928838
     31        1          -0.003625886   -0.006510263    0.005327077
     32        1           0.006162628    0.010715916    0.009808939
     33        6          -0.006524616   -0.013033001   -0.003124472
     34        6           0.000183059   -0.014263795    0.006921286
     35        6          -0.007290938    0.002970173   -0.007101794
     36        6          -0.001860223    0.002188255   -0.004278798
     37        6           0.002195152    0.019174155    0.020113881
     38        8           0.001557450    0.010167203   -0.004733906
     39       16           0.005812528    0.003267404    0.001917668
     40        1           0.005359247    0.002689900   -0.003349504
     41        1          -0.002192198    0.005623541    0.004710009
     42        1          -0.000753522   -0.000198151    0.004599372
     43        1          -0.002634940   -0.004324313    0.003036633
     44        1           0.005474369   -0.002002997   -0.002192445
     45        1           0.003024476    0.004786168   -0.003700473
     46        1          -0.003353375   -0.006456462    0.002703446
     47        1           0.001371323   -0.004601141   -0.001078232
     48        1          -0.002178695    0.003710457   -0.004786495
 -------------------------------------------------------------------
 Cartesian Forces:  Max     0.034911264 RMS     0.008198268
 Leave Link  716 at Sun Feb 19 04:26:22 2023, MaxMem=  2684354560 cpu:               0.3 elap:               0.0
 (Enter /storage/apps/GAUSSIAN/G16_RevA03/g16/l103.exe)

 GradGradGradGradGradGradGradGradGradGradGradGradGradGradGradGradGradGrad
 Berny optimization.
 Search for a local minimum.
 Step number   1 out of a maximum of    2
 All quantities printed in internal units (Hartrees-Bohrs-Radians)
 Second derivative matrix not updated -- first step.
 ITU=  0
     Eigenvalues ---    0.00050   0.00065   0.00110   0.00137   0.00183
     Eigenvalues ---    0.00260   0.00335   0.00384   0.00453   0.00495
     Eigenvalues ---    0.00563   0.00795   0.00808   0.00894   0.01018
     Eigenvalues ---    0.01041   0.01153   0.01367   0.01416   0.01699
     Eigenvalues ---    0.01730   0.01933   0.01943   0.02489   0.02800
     Eigenvalues ---    0.02940   0.03201   0.03222   0.03507   0.04004
     Eigenvalues ---    0.04225   0.04544   0.04874   0.04950   0.05094
     Eigenvalues ---    0.05238   0.05336   0.05576   0.05781   0.05967
     Eigenvalues ---    0.06095   0.06181   0.06363   0.06554   0.06902
     Eigenvalues ---    0.07017   0.07321   0.07511   0.07843   0.08302
     Eigenvalues ---    0.08681   0.09020   0.09670   0.09952   0.10397
     Eigenvalues ---    0.10764   0.11404   0.12210   0.12286   0.12513
     Eigenvalues ---    0.12700   0.12799   0.12944   0.13407   0.13668
     Eigenvalues ---    0.13792   0.14289   0.15281   0.15712   0.16690
     Eigenvalues ---    0.17048   0.17474   0.18586   0.18961   0.19350
     Eigenvalues ---    0.19806   0.20923   0.21396   0.21879   0.24537
     Eigenvalues ---    0.26761   0.26843   0.27540   0.30783   0.32085
     Eigenvalues ---    0.32259   0.34201   0.34600   0.36774   0.37156
     Eigenvalues ---    0.37156   0.37156   0.37156   0.37156   0.39380
     Eigenvalues ---    0.41786   0.43525   0.47473   0.53757   0.54792
     Eigenvalues ---    0.60266   0.64708   0.67456   0.68949   0.72205
     Eigenvalues ---    0.75057   0.80180   0.81111   0.87261   0.87548
     Eigenvalues ---    0.89038   0.89913   0.91689   0.91958   0.92325
     Eigenvalues ---    0.92961   0.95943   0.97200   0.98726   1.00105
     Eigenvalues ---    1.02056   1.06037   1.08130   1.10596   1.12402
     Eigenvalues ---    1.16301   1.16759   1.20049   1.26653   1.29986
     Eigenvalues ---    1.36781   1.41312   1.48096   1.54102   1.62713
     Eigenvalues ---    1.73950   2.12839   2.22275
 Quadratic step=6.953D+00 exceeds max=3.000D-01 adjusted using Lamda=-6.952D-02.
 Angle between NR and scaled steps=  68.41 degrees.
 Angle between quadratic step and forces=  48.49 degrees.
 Linear search not attempted -- first point.
 Variable       Old X    -DE/DX   Delta X   Delta X   Delta X     New X
                                 (Linear)    (Quad)   (Total)
    X1        6.49708  -0.00105   0.00000  -0.02188  -0.02188   6.47520
    Y1       -7.09532   0.00878   0.00000   0.01470   0.01470  -7.08062
    Z1       -1.17164  -0.00023   0.00000   0.00617   0.00617  -1.16547
    X2        6.66080  -0.00062   0.00000  -0.02092  -0.02092   6.63988
    Y2       -7.38694  -0.00072   0.00000   0.00006   0.00006  -7.38688
    Z2       -3.22052   0.00665   0.00000   0.02221   0.02221  -3.19830
    X3        8.19640  -0.00649   0.00000  -0.03953  -0.03953   8.15687
    Y3       -7.81880  -0.00151   0.00000  -0.01795  -0.01795  -7.83675
    Z3       -0.21901  -0.00338   0.00000  -0.01652  -0.01652  -0.23553
    X4        2.99781  -0.00755   0.00000  -0.00082  -0.00082   2.99699
    Y4       -2.75984  -0.00300   0.00000   0.00691   0.00691  -2.75293
    Z4        2.02351   0.00225   0.00000   0.00237   0.00237   2.02588
    X5        1.83604   0.00374   0.00000   0.00921   0.00921   1.84525
    Y5       -4.48199   0.00413   0.00000   0.01567   0.01567  -4.46632
    Z5        1.77289   0.00154   0.00000   0.02178   0.02178   1.79467
    X6        2.08435   0.00703   0.00000   0.04539   0.04539   2.12974
    Y6       -1.31619   0.00211   0.00000   0.02115   0.02115  -1.29505
    Z6        4.03158  -0.00526   0.00000   0.00157   0.00157   4.03315
    X7        0.94766  -0.00431   0.00000  -0.03920  -0.03920   0.90846
    Y7       -0.03292  -0.00572   0.00000  -0.03814  -0.03814  -0.07106
    Z7        3.36501   0.00428   0.00000   0.04084   0.04084   3.40584
    X8        5.75141  -0.00371   0.00000  -0.00187  -0.00187   5.74954
    Y8       -3.61539  -0.01154   0.00000   0.00002   0.00002  -3.61536
    Z8        2.20638  -0.00133   0.00000  -0.00743  -0.00743   2.19895
    X9        5.98157  -0.00113   0.00000  -0.00272  -0.00272   5.97885
    Y9       -5.28844   0.00553   0.00000   0.01601   0.01601  -5.27243
    Z9        3.43690  -0.00408   0.00000  -0.01521  -0.01521   3.42169
   X10        7.22867   0.02624   0.00000   0.01050   0.01050   7.23918
   Y10       -1.59972   0.00208   0.00000   0.01000   0.01000  -1.58972
   Z10        3.06965  -0.00484   0.00000  -0.00780  -0.00780   3.06184
   X11        9.01186  -0.02435   0.00000  -0.03257  -0.03257   8.97929
   Y11       -1.92462   0.00432   0.00000   0.00660   0.00660  -1.91802
   Z11        2.61295   0.00735   0.00000   0.01147   0.01147   2.62442
   X12        3.05897   0.00261   0.00000   0.00161   0.00161   3.06058
   Y12       -1.39391   0.00558   0.00000   0.00495   0.00495  -1.38896
   Z12       -0.51578   0.00614   0.00000   0.00003   0.00003  -0.51575
   X13        4.15645  -0.00140   0.00000   0.00161   0.00161   4.15806
   Y13        0.35690  -0.00208   0.00000   0.00024   0.00024   0.35714
   Z13       -0.26676  -0.00256   0.00000  -0.02147  -0.02147  -0.28824
   X14        6.29519   0.00884   0.00000   0.00885   0.00885   6.30404
   Y14       -4.28127  -0.00199   0.00000   0.00582   0.00582  -4.27545
   Z14       -0.61064   0.00190   0.00000   0.00163   0.00163  -0.60901
   X15        8.11434  -0.00336   0.00000  -0.00850  -0.00850   8.10584
   Y15       -3.41977   0.00306   0.00000   0.02608   0.02608  -3.39368
   Z15       -1.14217   0.00115   0.00000   0.00039   0.00039  -1.14178
   X16        4.33401   0.00215   0.00000   0.00506   0.00506   4.33906
   Y16       -3.14309  -0.00291   0.00000  -0.00284  -0.00284  -3.14593
   Z16       -2.06563  -0.00678   0.00000  -0.00763  -0.00763  -2.07326
   X17        0.64670   0.00014   0.00000  -0.00225  -0.00225   0.64445
   Y17       -0.70308   0.00596   0.00000   0.00286   0.00286  -0.70022
   Z17       -1.50510  -0.00544   0.00000  -0.00764  -0.00764  -1.51274
   X18       -1.23439  -0.00878   0.00000  -0.01073  -0.01073  -1.24512
   Y18       -2.53268  -0.00254   0.00000   0.00708   0.00708  -2.52559
   Z18       -1.79268  -0.00165   0.00000   0.00470   0.00470  -1.78798
   X19       -0.66789  -0.00248   0.00000  -0.01587  -0.01587  -0.68376
   Y19       -4.46777   0.00809   0.00000   0.03031   0.03031  -4.43745
   Z19       -1.35362  -0.00123   0.00000   0.01580   0.01580  -1.33782
   X20       -3.53848   0.00628   0.00000   0.00720   0.00720  -3.53128
   Y20       -1.95609  -0.00578   0.00000  -0.00618  -0.00618  -1.96227
   Z20       -2.66827   0.00219   0.00000  -0.00220  -0.00220  -2.67048
   X21       -4.86670   0.00220   0.00000  -0.00587  -0.00587  -4.87257
   Y21       -3.50387   0.00629   0.00000   0.02371   0.02371  -3.48016
   Z21       -2.95689   0.00134   0.00000   0.02186   0.02186  -2.93503
   X22       -4.23322  -0.01435   0.00000   0.01035   0.01035  -4.22287
   Y22        0.70770   0.01284   0.00000  -0.02272  -0.02272   0.68498
   Z22       -3.36272   0.01793   0.00000  -0.01719  -0.01719  -3.37990
   X23       -5.53202   0.00139   0.00000  -0.00052  -0.00052  -5.53254
   Y23        0.72527  -0.00003   0.00000  -0.00406  -0.00406   0.72121
   Z23       -4.98205   0.00409   0.00000   0.00839   0.00839  -4.97366
   X24       -5.27439   0.01612   0.00000   0.03448   0.03448  -5.23990
   Y24        1.85774  -0.03491   0.00000  -0.16952  -0.16952   1.68821
   Z24       -1.73366  -0.03243   0.00000  -0.09274  -0.09274  -1.82640
   X25       -1.89247   0.00578   0.00000   0.00854   0.00854  -1.88393
   Y25        2.21857   0.00243   0.00000  -0.00374  -0.00374   2.21482
   Z25       -3.84231  -0.00146   0.00000   0.00113   0.00113  -3.84118
   X26        0.33123  -0.00230   0.00000  -0.00564  -0.00564   0.32559
   Y26        1.56990  -0.00255   0.00000  -0.00952  -0.00952   1.56039
   Z26       -2.78714  -0.00108   0.00000  -0.00118  -0.00118  -2.78831
   X27        1.99421  -0.00591   0.00000  -0.01883  -0.01883   1.97538
   Y27        2.78161  -0.00447   0.00000  -0.01479  -0.01479   2.76682
   Z27       -2.97257   0.00202   0.00000   0.01455   0.01455  -2.95802
   X28       -2.04160   0.01881   0.00000   0.02456   0.02456  -2.01704
   Y28        4.65462  -0.00218   0.00000  -0.00679  -0.00679   4.64783
   Z28       -5.24997   0.01847   0.00000   0.01485   0.01485  -5.23512
   X29       -0.67434  -0.00634   0.00000   0.00807   0.00807  -0.66627
   Y29        6.44595  -0.00417   0.00000   0.00192   0.00192   6.44787
   Z29       -4.73211  -0.00642   0.00000  -0.01525  -0.01525  -4.74736
   X30       -3.83505  -0.00793   0.00000   0.01604   0.01604  -3.81902
   Y30        4.81153   0.00098   0.00000   0.00874   0.00874   4.82027
   Z30       -7.08024  -0.02393   0.00000  -0.00715  -0.00715  -7.08739
   X31       -3.59160  -0.00363   0.00000  -0.01840  -0.01840  -3.61000
   Y31        6.34350  -0.00651   0.00000   0.00285   0.00285   6.34635
   Z31       -8.22451   0.00533   0.00000   0.00830   0.00830  -8.21621
   X32       -4.48514   0.00616   0.00000   0.01648   0.01648  -4.46866
   Y32        3.22165   0.01072   0.00000   0.02365   0.02365   3.24531
   Z32       -7.97403   0.00981   0.00000   0.03386   0.03386  -7.94017
   X33        0.97900  -0.00652   0.00000  -0.02315  -0.02315   0.95585
   Y33        4.12333  -0.01303   0.00000  -0.02554  -0.02554   4.09779
   Z33        7.19561  -0.00312   0.00000  -0.01577  -0.01577   7.17984
   X34       -2.12111   0.00018   0.00000  -0.00537  -0.00537  -2.12648
   Y34        4.22829  -0.01426   0.00000  -0.01452  -0.01452   4.21376
   Z34        3.00329   0.00692   0.00000   0.00589   0.00589   3.00918
   X35       -3.44109  -0.00729   0.00000  -0.01303  -0.01303  -3.45412
   Y35        5.49564   0.00297   0.00000   0.01770   0.01770   5.51334
   Z35        0.91695  -0.00710   0.00000   0.02098   0.02098   0.93793
   X36       -7.21074  -0.00186   0.00000   0.00043   0.00043  -7.21031
   Y36        6.15863   0.00219   0.00000  -0.00110  -0.00110   6.15753
   Z36       -1.80630  -0.00428   0.00000  -0.00327  -0.00327  -1.80957
   X37       -5.70962   0.00220   0.00000  -0.02815  -0.02815  -5.73776
   Y37        4.68280   0.01917   0.00000   0.07882   0.07882   4.76162
   Z37        0.09448   0.02011   0.00000   0.07244   0.07244   0.16691
   X38       -2.30033   0.00156   0.00000   0.00084   0.00084  -2.29949
   Y38        1.97658   0.01017   0.00000  -0.01076  -0.01076   1.96582
   Z38        3.47947  -0.00473   0.00000  -0.02597  -0.02597   3.45350
   X39       -0.30251   0.00581   0.00000   0.00916   0.00916  -0.29335
   Y39        6.29912   0.00327   0.00000  -0.01249  -0.01249   6.28664
   Z39        4.88455   0.00192   0.00000  -0.00625  -0.00625   4.87830
   X40       -0.58950   0.00536   0.00000  -0.00005  -0.00005  -0.58955
   Y40        3.23425   0.00269   0.00000  -0.01152  -0.01152   3.22273
   Z40        8.22451  -0.00335   0.00000  -0.01035  -0.01035   8.21415
   X41        2.06064  -0.00219   0.00000   0.00373   0.00373   2.06437
   Y41        2.63978   0.00562   0.00000   0.00147   0.00147   2.64124
   Z41        6.22655   0.00471   0.00000   0.01537   0.01537   6.24192
   X42       -7.64934  -0.00075   0.00000   0.01589   0.01589  -7.63345
   Y42        5.05271  -0.00020   0.00000  -0.03969  -0.03969   5.01302
   Z42       -3.50397   0.00460   0.00000   0.02554   0.02554  -3.47844
   X43       -6.14533  -0.00263   0.00000  -0.00039  -0.00039  -6.14572
   Y43        7.81880  -0.00432   0.00000  -0.02062  -0.02062   7.79818
   Z43       -2.45359   0.00304   0.00000  -0.00925  -0.00925  -2.46284
   X44       -9.01186   0.00547   0.00000   0.00834   0.00834  -9.00352
   Y44        6.79045  -0.00200   0.00000  -0.00372  -0.00372   6.78673
   Z44       -0.97735  -0.00219   0.00000  -0.03139  -0.03139  -1.00874
   X45       -6.63763   0.00302   0.00000   0.00084   0.00084  -6.63679
   Y45        3.15659   0.00479   0.00000   0.04492   0.04492   3.20150
   Z45        1.14422  -0.00370   0.00000   0.01836   0.01836   1.16258
   X46       -2.54548  -0.00335   0.00000   0.00339   0.00339  -2.54210
   Y46        7.17169  -0.00646   0.00000  -0.02356  -0.02356   7.14813
   Z46        0.09339   0.00270   0.00000   0.00228   0.00228   0.09567
   X47        4.80591   0.00137   0.00000  -0.00785  -0.00785   4.79807
   Y47       -8.03219  -0.00460   0.00000  -0.01918  -0.01918  -8.05138
   Z47       -0.46100  -0.00108   0.00000  -0.00497  -0.00497  -0.46596
   X48        2.19613  -0.00218   0.00000  -0.03322  -0.03322   2.16291
   Y48        5.11685   0.00371   0.00000   0.02297   0.02297   5.13982
   Z48        8.52763  -0.00479   0.00000  -0.04292  -0.04292   8.48471
         Item               Value     Threshold  Converged?
 Maximum Force            0.034911     0.000450     NO 
 RMS     Force            0.008198     0.000300     NO 
 Maximum Displacement     0.169525     0.001800     NO 
 RMS     Displacement     0.025009     0.001200     NO 
 Predicted change in Energy=-1.291483D-02
 GradGradGradGradGradGradGradGradGradGradGradGradGradGradGradGradGradGrad

 Leave Link  103 at Sun Feb 19 04:26:22 2023, MaxMem=  2684354560 cpu:               1.4 elap:               0.1
 (Enter /storage/apps/GAUSSIAN/G16_RevA03/g16/l9999.exe)

 Test job not archived.
 1\1\GINC-T027\Force\RM062X\def2TZVP\C16H24N2O5S1\LV87696\19-Feb-2023\0
 \\#P M062X/Def2TZVP scf=(direct,conver=8) EmpiricalDispersion=GD3 NoSy
 mm Force pop=(NBORead) Charge Prop=(Field,Read)\\Gaussian run using SA
 NDER external interface, route from template gau_job.tpl\\0,1\C,3.4381
 05941,-3.7546830592,-0.6200056638\H,3.524744188,-3.9090004069,-1.70422
 41208\H,4.3373489053,-4.1375312803,-0.1158947567\C,1.5863731105,-1.460
 4450181,1.0707955768\H,0.9715925615,-2.3717695887,0.9381705186\O,1.102
 9921887,-0.6964987322,2.133419674\H,0.5014824,-0.0174211627,1.78068422
 01\C,3.0435148979,-1.9131794397,1.1675663689\H,3.1653105218,-2.7985236
 632,1.8187302492\O,3.8252483025,-0.8465337007,1.6243874034\H,4.7688702
 26,-1.0184657005,1.3827115556\C,1.6187389131,-0.7376241079,-0.27293879
 66\H,2.1995000647,0.1888624474,-0.1411638731\C,3.3312706013,-2.2655504
 177,-0.3231386333\H,4.2939242731,-1.8096620256,-0.6044079917\O,2.29345
 80234,-1.6632539881,-1.0930821043\N,0.3422204029,-0.3720546678,-0.7964
 665295\C,-0.6532113003,-1.3402342246,-0.9486465318\H,-0.3534343361,-2.
 3642410387,-0.7163066961\C,-1.8724826046,-1.0351173118,-1.4119902409\H
 ,-2.5753477917,-1.8541703887,-1.5647212394\C,-2.2401222165,0.374500063
 2,-1.7794729312\H,-2.9274188942,0.3837982627,-2.6363885469\H,-2.791085
 7336,0.9830720995,-0.9174111204\C,-1.0014540845,1.1740152024,-2.033260
 9359\C,0.1752800197,0.8307572747,-1.4748897706\H,1.0552899647,1.471963
 1038,-1.5730147788\C,-1.0803660649,2.4631209528,-2.7781635769\O,-0.356
 847119,3.4110505833,-2.5041247242\N,-2.0294232118,2.5461524155,-3.7467
 026083\H,-1.9005906795,3.3568361206,-4.3522220633\H,-2.3734343902,1.70
 48243416,-4.2196750391\C,0.5180648573,2.1819707003,3.8077522465\C,-1.1
 224446236,2.2375128199,1.589271244\C,-1.8209457753,2.9081685492,0.4852
 274551\C,-3.8157600888,3.2590087666,-0.9558530103\C,-3.0213999944,2.47
 80330926,0.0499949403\O,-1.2172812525,1.0459591678,1.8412560004\S,-0.1
 60080252,3.3333531568,2.5847910714\H,-0.3119485805,1.7114902718,4.3522
 220633\H,1.0904429526,1.3969098681,3.2949481642\H,-4.0478575584,2.6737
 79346,-1.8542217025\H,-3.2519694101,4.1375312803,-1.2983833222\H,-4.76
 8870226,3.593353645,-0.5171902719\H,-3.5124821069,1.6703945484,0.60549
 40977\H,-1.3470114069,3.7950923211,0.0494189423\H,2.5431797072,-4.2504
 537927,-0.243949264\H,1.1621440045,2.7077203389,4.512627675\\Version=E
 S64L-G16RevA.03\HF=-1507.888164\RMSD=3.410e-09\RMSF=8.198e-03\Dipole=-
 0.0838258,-1.0404367,-0.9437104\Quadrupole=11.1949167,-8.643673,-2.551
 2437,-9.6427562,9.407241,0.104484\PG=C01 [X(C16H24N2O5S1)]\\@


 IN NATURE THERE ARE NEITHER REWARDS OR
 PUNISHMENTS -- THERE ARE CONSEQUENCES.

                            -- ROBERT GREEN INGERSOLL
 Job cpu time:       0 days  3 hours  8 minutes 27.9 seconds.
 Elapsed time:       0 days  0 hours 11 minutes 48.0 seconds.
 File lengths (MBytes):  RWF=    435 Int=      0 D2E=      0 Chk=     48 Scr=      1
 Normal termination of Gaussian 16 at Sun Feb 19 04:26:22 2023.
