 Entering Gaussian System, Link 0=g16
 Initial command:
 /storage/apps/GAUSSIAN/G16_RevA03/g16/l1.exe "/scratch/tmp/1267158/Gau-179785.inp" -scrdir="/scratch/tmp/1267158/"
 Entering Link 1 = /storage/apps/GAUSSIAN/G16_RevA03/g16/l1.exe PID=    179786.
  
 Copyright (c) 1988,1990,1992,1993,1995,1998,2003,2009,2016,
            Gaussian, Inc.  All Rights Reserved.
  
 This is part of the Gaussian(R) 16 program.  It is based on
 the Gaussian(R) 09 system (copyright 2009, Gaussian, Inc.),
 the Gaussian(R) 03 system (copyright 2003, Gaussian, Inc.),
 the Gaussian(R) 98 system (copyright 1998, Gaussian, Inc.),
 the Gaussian(R) 94 system (copyright 1995, Gaussian, Inc.),
 the Gaussian 92(TM) system (copyright 1992, Gaussian, Inc.),
 the Gaussian 90(TM) system (copyright 1990, Gaussian, Inc.),
 the Gaussian 88(TM) system (copyright 1988, Gaussian, Inc.),
 the Gaussian 86(TM) system (copyright 1986, Carnegie Mellon
 University), and the Gaussian 82(TM) system (copyright 1983,
 Carnegie Mellon University). Gaussian is a federally registered
 trademark of Gaussian, Inc.
  
 This software contains proprietary and confidential information,
 including trade secrets, belonging to Gaussian, Inc.
  
 This software is provided under written license and may be
 used, copied, transmitted, or stored only in accord with that
 written license.
  
 The following legend is applicable only to US Government
 contracts under FAR:
  
                    RESTRICTED RIGHTS LEGEND
  
 Use, reproduction and disclosure by the US Government is
 subject to restrictions as set forth in subparagraphs (a)
 and (c) of the Commercial Computer Software - Restricted
 Rights clause in FAR 52.227-19.
  
 Gaussian, Inc.
 340 Quinnipiac St., Bldg. 40, Wallingford CT 06492
  
  
 ---------------------------------------------------------------
 Warning -- This program may not be used in any manner that
 competes with the business of Gaussian, Inc. or will provide
 assistance to any competitor of Gaussian, Inc.  The licensee
 of this program is prohibited from giving any competitor of
 Gaussian, Inc. access to this program.  By using this program,
 the user acknowledges that Gaussian, Inc. is engaged in the
 business of creating and licensing software in the field of
 computational chemistry and represents and warrants to the
 licensee that it is not a competitor of Gaussian, Inc. and that
 it will not use this program in any manner prohibited above.
 ---------------------------------------------------------------
  

 Cite this work as:
 Gaussian 16, Revision A.03,
 M. J. Frisch, G. W. Trucks, H. B. Schlegel, G. E. Scuseria, 
 M. A. Robb, J. R. Cheeseman, G. Scalmani, V. Barone, 
 G. A. Petersson, H. Nakatsuji, X. Li, M. Caricato, A. V. Marenich, 
 J. Bloino, B. G. Janesko, R. Gomperts, B. Mennucci, H. P. Hratchian, 
 J. V. Ortiz, A. F. Izmaylov, J. L. Sonnenberg, D. Williams-Young, 
 F. Ding, F. Lipparini, F. Egidi, J. Goings, B. Peng, A. Petrone, 
 T. Henderson, D. Ranasinghe, V. G. Zakrzewski, J. Gao, N. Rega, 
 G. Zheng, W. Liang, M. Hada, M. Ehara, K. Toyota, R. Fukuda, 
 J. Hasegawa, M. Ishida, T. Nakajima, Y. Honda, O. Kitao, H. Nakai, 
 T. Vreven, K. Throssell, J. A. Montgomery, Jr., J. E. Peralta, 
 F. Ogliaro, M. J. Bearpark, J. J. Heyd, E. N. Brothers, K. N. Kudin, 
 V. N. Staroverov, T. A. Keith, R. Kobayashi, J. Normand, 
 K. Raghavachari, A. P. Rendell, J. C. Burant, S. S. Iyengar, 
 J. Tomasi, M. Cossi, J. M. Millam, M. Klene, C. Adamo, R. Cammi, 
 J. W. Ochterski, R. L. Martin, K. Morokuma, O. Farkas, 
 J. B. Foresman, and D. J. Fox, Gaussian, Inc., Wallingford CT, 2016.
 
 ******************************************
 Gaussian 16:  ES64L-G16RevA.03 25-Dec-2016
                19-Feb-2023 
 ******************************************
 %chk=gau_job.chk
 %NProcShared=16
 Will use up to   16 processors via shared memory.
 %mem=20GB
 ----------------------------------------------------------------------
 #P M062X/Def2TZVP scf=(direct,conver=8) EmpiricalDispersion=GD3 NoSymm
  Force pop=(NBORead) Charge Prop=(Field,Read)
 ----------------------------------------------------------------------
 1/10=7,18=10,28=-2,30=1,38=1,125=101/1,3;
 2/12=2,15=1,17=6,18=5,29=2,40=1/2;
 3/5=44,7=101,11=2,25=1,30=1,71=1,74=-55,124=31/1,2,3;
 4//1;
 5/5=2,6=8,38=5/2;
 6/7=2,8=2,9=2,10=2,14=2,15=1,28=1,40=2/1,2,7;
 7/7=1,16=-2,29=1,30=1/1,2,3,16;
 1/10=7,18=10,28=-2,30=1/3;
 99/12=1/99;
 Leave Link    1 at Sun Feb 19 04:16:06 2023, MaxMem=  2684354560 cpu:               0.7 elap:               0.0
 (Enter /storage/apps/GAUSSIAN/G16_RevA03/g16/l101.exe)
 ----------------------------------------------------------------------
 Gaussian run using SANDER external interface, route from template gau_
 job.tpl
 ----------------------------------------------------------------------
 Symbolic Z-matrix:
 Charge =  0 Multiplicity = 1
 C                     3.42343  -3.71902  -0.57597 
 H                     3.50732  -3.87618  -1.65996 
 H                     4.3274   -4.09507  -0.07504 
 C                     1.57094  -1.42557   1.12228 
 H                     0.95707  -2.33688   0.98739 
 O                     1.08865  -0.66611   2.18927 
 H                     0.47409   0.00285   1.84094 
 C                     3.02766  -1.87868   1.21211 
 H                     3.15164  -2.76406   1.86212 
 O                     3.81113  -0.81242   1.66638 
 H                     4.75368  -0.98567   1.42007 
 C                     1.60523  -0.69882  -0.21937 
 H                     2.20236   0.21752  -0.09145 
 C                     3.30818  -2.23046  -0.28086 
 H                     4.2655   -1.76693  -0.56868 
 O                     2.25909  -1.63281  -1.04425 
 N                     0.32887  -0.30754  -0.73019 
 C                    -0.6909   -1.25257  -0.84177 
 H                    -0.42089  -2.27645  -0.58704 
 C                    -1.90632  -0.93245  -1.30607 
 H                    -2.64077  -1.729    -1.41683 
 C                    -2.23496   0.46959  -1.70565 
 H                    -2.96024   0.50873  -2.53319 
 H                    -2.77621   1.1085   -0.80034 
 C                    -0.99373   1.24827  -1.97477 
 C                     0.18434   0.88762  -1.42145 
 H                     1.07862   1.50297  -1.55 
 C                    -1.05077   2.51652  -2.7597 
 O                    -0.3278    3.46796  -2.49921 
 N                    -1.97091   2.56938  -3.75616 
 H                    -1.7958    3.34143  -4.40233 
 H                    -2.31607   1.71155  -4.19932 
 C                     0.51148   2.20407   3.85334 
 C                    -1.141     2.23803   1.64929 
 C                    -1.81981   2.89481   0.53589 
 C                    -3.80253   3.24432  -0.92654 
 C                    -3.02812   2.4607    0.09799 
 O                    -1.26539   1.05499   1.94486 
 S                    -0.14889   3.33913   2.60981 
 H                    -0.32485   1.75003   4.40233 
 H                     1.07798   1.40655   3.35413 
 H                    -4.03888   2.63901  -1.80842 
 H                    -3.21098   4.09507  -1.29203 
 H                    -4.75368   3.60991  -0.50794 
 H                    -3.55156   1.71393   0.70768 
 H                    -1.31597   3.7399    0.0538 
 H                     2.53388  -4.2203   -0.1945 
 H                     1.15794   2.73812   4.54975 
 
 ITRead=  0  0  0  0  0  0  0  0  0  0  0  0  0  0  0  0  0  0  0  0
 ITRead=  0  0  0  0  0  0  0  0  0  0  0  0  0  0  0  0  0  0  0  0
 ITRead=  0  0  0  0  0  0  0  0
 MicOpt= -1 -1 -1 -1 -1 -1 -1 -1 -1 -1 -1 -1 -1 -1 -1 -1 -1 -1 -1 -1
 MicOpt= -1 -1 -1 -1 -1 -1 -1 -1 -1 -1 -1 -1 -1 -1 -1 -1 -1 -1 -1 -1
 MicOpt= -1 -1 -1 -1 -1 -1 -1 -1
 NAtoms=     48 NQM=       48 NQMF=       0 NMMI=      0 NMMIF=      0
                NMic=       0 NMicF=      0.
                    Isotopes and Nuclear Properties:
 (Nuclear quadrupole moments (NQMom) in fm**2, nuclear magnetic moments (NMagM)
  in nuclear magnetons)

  Atom         1           2           3           4           5           6           7           8           9          10
 IAtWgt=          12           1           1          12           1          16           1          12           1          16
 AtmWgt=  12.0000000   1.0078250   1.0078250  12.0000000   1.0078250  15.9949146   1.0078250  12.0000000   1.0078250  15.9949146
 NucSpn=           0           1           1           0           1           0           1           0           1           0
 AtZEff=  -0.0000000  -0.0000000  -0.0000000  -0.0000000  -0.0000000  -0.0000000  -0.0000000  -0.0000000  -0.0000000  -0.0000000
 NQMom=    0.0000000   0.0000000   0.0000000   0.0000000   0.0000000   0.0000000   0.0000000   0.0000000   0.0000000   0.0000000
 NMagM=    0.0000000   2.7928460   2.7928460   0.0000000   2.7928460   0.0000000   2.7928460   0.0000000   2.7928460   0.0000000
 AtZNuc=   6.0000000   1.0000000   1.0000000   6.0000000   1.0000000   8.0000000   1.0000000   6.0000000   1.0000000   8.0000000

  Atom        11          12          13          14          15          16          17          18          19          20
 IAtWgt=           1          12           1          12           1          16          14          12           1          12
 AtmWgt=   1.0078250  12.0000000   1.0078250  12.0000000   1.0078250  15.9949146  14.0030740  12.0000000   1.0078250  12.0000000
 NucSpn=           1           0           1           0           1           0           2           0           1           0
 AtZEff=  -0.0000000  -0.0000000  -0.0000000  -0.0000000  -0.0000000  -0.0000000  -0.0000000  -0.0000000  -0.0000000  -0.0000000
 NQMom=    0.0000000   0.0000000   0.0000000   0.0000000   0.0000000   0.0000000   2.0440000   0.0000000   0.0000000   0.0000000
 NMagM=    2.7928460   0.0000000   2.7928460   0.0000000   2.7928460   0.0000000   0.4037610   0.0000000   2.7928460   0.0000000
 AtZNuc=   1.0000000   6.0000000   1.0000000   6.0000000   1.0000000   8.0000000   7.0000000   6.0000000   1.0000000   6.0000000

  Atom        21          22          23          24          25          26          27          28          29          30
 IAtWgt=           1          12           1           1          12          12           1          12          16          14
 AtmWgt=   1.0078250  12.0000000   1.0078250   1.0078250  12.0000000  12.0000000   1.0078250  12.0000000  15.9949146  14.0030740
 NucSpn=           1           0           1           1           0           0           1           0           0           2
 AtZEff=  -0.0000000  -0.0000000  -0.0000000  -0.0000000  -0.0000000  -0.0000000  -0.0000000  -0.0000000  -0.0000000  -0.0000000
 NQMom=    0.0000000   0.0000000   0.0000000   0.0000000   0.0000000   0.0000000   0.0000000   0.0000000   0.0000000   2.0440000
 NMagM=    2.7928460   0.0000000   2.7928460   2.7928460   0.0000000   0.0000000   2.7928460   0.0000000   0.0000000   0.4037610
 AtZNuc=   1.0000000   6.0000000   1.0000000   1.0000000   6.0000000   6.0000000   1.0000000   6.0000000   8.0000000   7.0000000

  Atom        31          32          33          34          35          36          37          38          39          40
 IAtWgt=           1           1          12          12          12          12          12          16          32           1
 AtmWgt=   1.0078250   1.0078250  12.0000000  12.0000000  12.0000000  12.0000000  12.0000000  15.9949146  31.9720718   1.0078250
 NucSpn=           1           1           0           0           0           0           0           0           0           1
 AtZEff=  -0.0000000  -0.0000000  -0.0000000  -0.0000000  -0.0000000  -0.0000000  -0.0000000  -0.0000000  -0.0000000  -0.0000000
 NQMom=    0.0000000   0.0000000   0.0000000   0.0000000   0.0000000   0.0000000   0.0000000   0.0000000   0.0000000   0.0000000
 NMagM=    2.7928460   2.7928460   0.0000000   0.0000000   0.0000000   0.0000000   0.0000000   0.0000000   0.0000000   2.7928460
 AtZNuc=   1.0000000   1.0000000   6.0000000   6.0000000   6.0000000   6.0000000   6.0000000   8.0000000  16.0000000   1.0000000

  Atom        41          42          43          44          45          46          47          48
 IAtWgt=           1           1           1           1           1           1           1           1
 AtmWgt=   1.0078250   1.0078250   1.0078250   1.0078250   1.0078250   1.0078250   1.0078250   1.0078250
 NucSpn=           1           1           1           1           1           1           1           1
 AtZEff=  -0.0000000  -0.0000000  -0.0000000  -0.0000000  -0.0000000  -0.0000000  -0.0000000  -0.0000000
 NQMom=    0.0000000   0.0000000   0.0000000   0.0000000   0.0000000   0.0000000   0.0000000   0.0000000
 NMagM=    2.7928460   2.7928460   2.7928460   2.7928460   2.7928460   2.7928460   2.7928460   2.7928460
 AtZNuc=   1.0000000   1.0000000   1.0000000   1.0000000   1.0000000   1.0000000   1.0000000   1.0000000
 Background charge distribution read from input stream:
 Leave Link  101 at Sun Feb 19 04:16:06 2023, MaxMem=  2684354560 cpu:               1.5 elap:               0.1
 (Enter /storage/apps/GAUSSIAN/G16_RevA03/g16/l103.exe)

 GradGradGradGradGradGradGradGradGradGradGradGradGradGradGradGradGradGrad
 Berny optimization.
 Initialization pass.
 Trust Radius=3.00D-01 FncErr=1.00D-07 GrdErr=1.00D-07 EigMax=2.50D+02 EigMin=1.00D-04
 Number of steps in this run=      2 maximum allowed number of steps=      2.
 GradGradGradGradGradGradGradGradGradGradGradGradGradGradGradGradGradGrad

 Leave Link  103 at Sun Feb 19 04:16:06 2023, MaxMem=  2684354560 cpu:               0.3 elap:               0.0
 (Enter /storage/apps/GAUSSIAN/G16_RevA03/g16/l202.exe)
 ---------------------------------------------------------------------------------------------------
                            Z-MATRIX (ANGSTROMS AND DEGREES)
   CD    Cent   Atom    N1       Length/X        N2       Alpha/Y        N3        Beta/Z          J
 ---------------------------------------------------------------------------------------------------
      1      1  C        0   3.423430         -3.719024         -0.575968
      2      2  H        0   3.507320         -3.876182         -1.659964
      3      3  H        0   4.327400         -4.095074         -0.075044
      4      4  C        0   1.570939         -1.425569          1.122283
      5      5  H        0   0.957071         -2.336881          0.987389
      6      6  O        0   1.088646         -0.666113          2.189268
      7      7  H        0   0.474087          0.002849          1.840941
      8      8  C        0   3.027657         -1.878683          1.212108
      9      9  H        0   3.151637         -2.764057          1.862125
     10     10  O        0   3.811133         -0.812425          1.666384
     11     11  H        0   4.753681         -0.985675          1.420068
     12     12  C        0   1.605227         -0.698824         -0.219370
     13     13  H        0   2.202355          0.217518         -0.091449
     14     14  C        0   3.308177         -2.230462         -0.280862
     15     15  H        0   4.265501         -1.766927         -0.568680
     16     16  O        0   2.259094         -1.632805         -1.044247
     17     17  N        0   0.328874         -0.307541         -0.730187
     18     18  C        0  -0.690900         -1.252571         -0.841770
     19     19  H        0  -0.420890         -2.276447         -0.587043
     20     20  C        0  -1.906324         -0.932445         -1.306069
     21     21  H        0  -2.640771         -1.729000         -1.416835
     22     22  C        0  -2.234964          0.469595         -1.705649
     23     23  H        0  -2.960244          0.508729         -2.533188
     24     24  H        0  -2.776205          1.108504         -0.800337
     25     25  C        0  -0.993734          1.248273         -1.974768
     26     26  C        0   0.184337          0.887618         -1.421447
     27     27  H        0   1.078620          1.502966         -1.549998
     28     28  C        0  -1.050771          2.516523         -2.759699
     29     29  O        0  -0.327795          3.467961         -2.499213
     30     30  N        0  -1.970912          2.569377         -3.756164
     31     31  H        0  -1.795800          3.341430         -4.402330
     32     32  H        0  -2.316068          1.711551         -4.199318
     33     33  C        0   0.511482          2.204069          3.853342
     34     34  C        0  -1.140996          2.238031          1.649287
     35     35  C        0  -1.819807          2.894814          0.535891
     36     36  C        0  -3.802526          3.244316         -0.926538
     37     37  C        0  -3.028122          2.460700          0.097986
     38     38  O        0  -1.265392          1.054993          1.944863
     39     39  S        0  -0.148890          3.339129          2.609806
     40     40  H        0  -0.324850          1.750034          4.402330
     41     41  H        0   1.077979          1.406551          3.354129
     42     42  H        0  -4.038876          2.639014         -1.808424
     43     43  H        0  -3.210981          4.095074         -1.292032
     44     44  H        0  -4.753681          3.609911         -0.507939
     45     45  H        0  -3.551555          1.713934          0.707678
     46     46  H        0  -1.315969          3.739896          0.053800
     47     47  H        0   2.533878         -4.220302         -0.194499
     48     48  H        0   1.157937          2.738125          4.549747
 ---------------------------------------------------------------------------------------------------
                         Z-Matrix orientation:                         
 ---------------------------------------------------------------------
 Center     Atomic      Atomic             Coordinates (Angstroms)
 Number     Number       Type             X           Y           Z
 ---------------------------------------------------------------------
      1          6           0        3.423430   -3.719024   -0.575968
      2          1           0        3.507320   -3.876182   -1.659964
      3          1           0        4.327400   -4.095074   -0.075044
      4          6           0        1.570939   -1.425569    1.122283
      5          1           0        0.957071   -2.336881    0.987389
      6          8           0        1.088646   -0.666113    2.189268
      7          1           0        0.474087    0.002849    1.840941
      8          6           0        3.027657   -1.878683    1.212108
      9          1           0        3.151637   -2.764057    1.862125
     10          8           0        3.811133   -0.812425    1.666384
     11          1           0        4.753681   -0.985675    1.420068
     12          6           0        1.605227   -0.698824   -0.219370
     13          1           0        2.202355    0.217518   -0.091449
     14          6           0        3.308177   -2.230462   -0.280862
     15          1           0        4.265501   -1.766927   -0.568680
     16          8           0        2.259094   -1.632805   -1.044247
     17          7           0        0.328874   -0.307541   -0.730187
     18          6           0       -0.690900   -1.252571   -0.841770
     19          1           0       -0.420890   -2.276447   -0.587043
     20          6           0       -1.906324   -0.932445   -1.306069
     21          1           0       -2.640771   -1.729000   -1.416835
     22          6           0       -2.234964    0.469595   -1.705649
     23          1           0       -2.960244    0.508729   -2.533188
     24          1           0       -2.776205    1.108504   -0.800337
     25          6           0       -0.993734    1.248273   -1.974768
     26          6           0        0.184337    0.887618   -1.421447
     27          1           0        1.078620    1.502966   -1.549998
     28          6           0       -1.050771    2.516523   -2.759699
     29          8           0       -0.327795    3.467961   -2.499213
     30          7           0       -1.970912    2.569377   -3.756164
     31          1           0       -1.795800    3.341430   -4.402330
     32          1           0       -2.316068    1.711551   -4.199318
     33          6           0        0.511482    2.204069    3.853342
     34          6           0       -1.140996    2.238031    1.649287
     35          6           0       -1.819807    2.894814    0.535891
     36          6           0       -3.802526    3.244316   -0.926538
     37          6           0       -3.028122    2.460700    0.097986
     38          8           0       -1.265392    1.054993    1.944863
     39         16           0       -0.148890    3.339129    2.609806
     40          1           0       -0.324850    1.750034    4.402330
     41          1           0        1.077979    1.406551    3.354129
     42          1           0       -4.038876    2.639014   -1.808424
     43          1           0       -3.210981    4.095074   -1.292032
     44          1           0       -4.753681    3.609911   -0.507939
     45          1           0       -3.551555    1.713934    0.707678
     46          1           0       -1.315969    3.739896    0.053800
     47          1           0        2.533878   -4.220302   -0.194499
     48          1           0        1.157937    2.738125    4.549747
 ---------------------------------------------------------------------
                    Distance matrix (angstroms):
                    1          2          3          4          5
     1  C    0.000000
     2  H    1.098537   0.000000
     3  H    1.099773   1.797892   0.000000
     4  C    3.402310   4.182819   4.019692   0.000000
     5  H    3.230686   3.985185   3.947040   1.107033   0.000000
     6  O    4.734767   5.565171   5.232057   1.395650   2.062352
     7  H    5.328453   6.041831   5.942389   1.939054   2.536959
     8  C    2.596287   3.531130   2.873757   1.528204   2.132551
     9  H    2.632514   3.710585   2.628050   2.199437   2.400784
    10  O    3.691447   4.532494   3.751652   2.385469   3.306157
    11  H    3.636609   4.403980   3.476412   3.226767   4.053051
    12  C    3.543252   3.973522   4.354948   1.526226   2.135323
    13  H    4.149957   4.574009   4.807758   2.138121   3.039667
    14  C    1.521903   2.156380   2.134936   2.373745   2.673479
    15  H    2.125987   2.492929   2.380709   3.199460   3.700258
    16  O    2.434599   2.640060   3.358573   2.282619   2.513669
    17  N    4.608501   4.868491   5.546425   2.494866   2.731835
    18  C    4.804347   5.017752   5.818163   3.000558   2.690234
    19  H    4.106087   4.375060   5.110363   2.759197   2.093146
    20  C    6.058411   6.172388   7.097673   4.269827   3.928284
    21  H    6.437529   6.516788   7.480248   4.927239   4.369699
    22  C    7.130086   7.201506   8.158412   5.106245   5.031684
    23  H    7.902904   7.862528   8.963661   6.134786   5.986427
    24  H    7.860715   8.066520   8.835411   5.386618   5.385535
    25  C    6.792792   6.827784   7.776553   4.828944   5.043148
    26  C    5.694533   5.813166   6.618534   3.707298   4.098415
    27  H    5.806552   5.903042   6.638381   3.994969   4.604078
    28  C    7.979299   7.927944   8.935620   6.122355   6.451948
    29  O    8.332066   8.327598   9.205810   6.377073   6.892276
    30  N    8.874490   8.714948   9.881006   7.232119   7.426018
    31  H    9.577652   9.366834  10.560330   8.036203   8.298830
    32  H    8.692620   8.460670   9.739722   7.298615   7.348821
    33  C    7.948664   8.737336   8.347015   4.664269   5.388178
    34  C    7.827659   8.363109   8.543119   4.588495   5.076398
    35  C    8.512967   8.890807   9.328447   5.523289   5.940162
    36  C   10.041187  10.230995  10.985781   7.408078   7.580675
    37  C    8.959114   9.271379   9.854533   6.107670   6.299967
    38  O    7.150586   7.751777   7.866546   3.856761   4.166643
    39  S    8.528080   9.146558   9.083665   5.279478   6.006037
    40  H    8.291179   9.115439   8.709511   4.943397   5.477957
    41  H    6.871559   7.677897   7.251610   3.639375   4.430504
    42  H    9.880770   9.970702  10.878746   7.521962   7.585222
    43  H   10.275616  10.431293  11.197623   7.692410   7.996153
    44  H   10.981032  11.207716  11.917224   8.247090   8.379321
    45  H    8.933936   9.310363   9.820141   6.022319   6.067541
    46  H    8.859684   9.176369   9.656654   6.013146   6.554809
    47  H    1.090000   1.792650   1.801852   3.236000   2.725886
    48  H    8.549864   9.371721   8.838936   5.408736   6.203743
                    6          7          8          9         10
     6  O    0.000000
     7  H    0.972894   0.000000
     8  C    2.486953   3.233622   0.000000
     9  H    2.960461   3.850388   1.105341   0.000000
    10  O    2.776104   3.439624   1.398967   2.069328   0.000000
    11  H    3.758493   4.412395   1.954448   2.434051   0.989487
    12  C    2.463628   2.452897   2.337629   3.314996   2.904307
    13  H    2.687531   2.601369   2.602776   3.688818   2.595944
    14  C    3.670838   4.185904   1.559295   2.213961   2.460805
    15  H    4.348619   4.828374   2.171625   2.853730   2.472456
    16  O    3.572123   3.766420   2.396306   3.243973   3.229454
    17  N    3.037935   2.593864   3.677558   4.552202   4.257299
    18  C    3.563413   3.182800   4.293961   4.935659   5.172318
    19  H    3.546798   3.448373   3.909941   4.358800   5.013114
    20  C    4.610657   4.055220   5.619676   6.243014   6.445091
    21  H    5.295494   4.828534   6.250186   6.736090   7.209259
    22  C    5.244672   4.487216   6.459326   7.225025   7.040559
    23  H    6.330510   5.584224   7.455330   8.208836   8.076720
    24  H    5.198469   4.331654   6.830670   7.564704   7.291619
    25  C    5.033923   4.273783   6.008796   6.928538   6.371123
    26  C    4.033500   3.392632   4.761566   5.737721   5.057519
    27  H    4.322860   3.756898   4.781582   5.843584   4.813811
    28  C    6.260875   5.459821   7.192126   8.179610   7.369547
    29  O    6.409269   5.611324   7.322539   8.364554   7.266680
    30  N    7.428153   6.625155   8.333947   9.287153   8.618159
    31  H    8.235872   7.434847   9.057441  10.049751   9.247783
    32  H    7.619672   6.869451   8.410037   9.309563   8.849831
    33  C    3.367522   2.982705   5.475046   5.968052   4.976919
    34  C    3.700937   2.764284   5.875043   6.594914   5.816283
    35  C    4.885995   3.915172   6.836772   7.648331   6.835870
    36  C    6.994516   6.037836   8.801723   9.604039   9.008229
    37  C    5.576576   4.620000   7.532860   8.282494   7.742650
    38  O    2.926334   2.035583   5.251063   5.839704   5.416263
    39  S    4.213111   3.479945   6.266544   6.978638   5.814398
    40  H    3.568385   3.201823   5.880851   6.238239   5.581930
    41  H    2.377593   2.150536   4.379756   4.890819   3.904160
    42  H    7.293620   6.374486   8.914544   9.714401   9.252533
    43  H    7.298982   6.335737   8.993170   9.873161   9.063435
    44  H    7.726065   6.771831   9.676386  10.427786   9.881335
    45  H    5.421365   4.518617   7.513148   8.143583   7.842881
    46  H    5.454843   4.512615   7.195638   8.095119   7.043524
    47  H    4.517002   5.120621   2.775885   2.594605   4.087529
    48  H    4.143126   3.909861   5.995882   6.439888   5.287686
                   11         12         13         14         15
    11  H    0.000000
    12  C    3.561292   0.000000
    13  H    3.200253   1.101185   0.000000
    14  C    2.555805   2.291231   2.692829   0.000000
    15  H    2.191755   2.887893   2.902128   1.101895   0.000000
    16  O    3.565752   1.407226   2.082004   1.428470   2.066355
    17  N    4.966123   1.429375   2.047830   3.574321   4.201539
    18  C    5.901746   2.442584   3.330926   4.154938   4.990497
    19  H    5.698313   2.594075   3.653339   3.741899   4.714044
    20  C    7.196549   3.683271   4.436097   5.470550   6.271486
    21  H    7.954776   4.530307   5.385299   6.077161   6.958261
    22  C    7.792886   4.280337   4.728529   6.328249   6.967839
    23  H    8.795801   5.258846   5.718332   7.202031   7.826193
    24  H    8.124960   4.775029   5.107097   6.959760   7.609691
    25  C    7.039049   3.691504   3.850238   5.785962   6.223188
    26  C    5.697573   2.445550   2.508052   4.558699   4.942643
    27  H    5.340477   2.625978   2.245556   4.529913   4.670267
    28  C    7.964139   4.883242   4.794561   6.904994   7.170165
    29  O    7.811340   5.127997   4.771202   7.114310   7.226990
    30  N    9.200648   5.998235   6.031380   7.936307   8.237502
    31  H    9.773426   6.737046   6.657910   8.607152   8.805200
    32  H    9.425172   6.084936   6.286722   7.907332   8.282415
    33  C    5.838796   5.119575   4.729356   6.676692   7.029634
    34  C    6.722502   4.433817   4.276754   6.594547   7.084439
    35  C    7.684445   5.021504   4.872294   7.296010   7.744862
    36  C    9.828939   6.729950   6.776243   8.997344   9.504403
    37  C    8.612889   5.617048   5.694352   7.892986   8.456608
    38  O    6.377223   4.000029   4.107700   6.055213   6.698650
    39  S    6.644893   5.233185   4.750746   7.164330   7.460659
    40  H    6.493802   5.575142   5.378607   7.139714   7.625698
    41  H    4.793133   4.180967   3.814450   5.604892   5.968224
    42  H   10.043435   6.747011   6.911195   8.945638   9.482192
    43  H    9.828801   6.879529   6.766170   9.139710   9.528068
    44  H   10.734363   7.686623   7.750370   9.957664  10.500463
    45  H    8.761982   5.768294   5.998779   7.974422   8.651697
    46  H    7.812705   5.320737   4.980647   7.559094   7.865456
    47  H    4.242306   3.641953   4.451378   2.136927   3.026149
    48  H    6.049045   5.895520   5.383768   7.255699   7.493379
                   16         17         18         19         20
    16  O    0.000000
    17  N    2.362352   0.000000
    18  C    2.981282   1.394802   0.000000
    19  H    2.793855   2.111688   1.089088   0.000000
    20  C    4.231993   2.391287   1.339891   2.128345   0.000000
    21  H    4.914952   3.363156   2.087984   2.432308   1.089119
    22  C    5.005406   2.851092   2.469063   3.476045   1.494451
    23  H    5.834775   3.838672   3.333616   4.241816   2.166460
    24  H    5.738337   3.413447   3.150379   4.129273   2.275507
    25  C    4.443801   2.391407   2.762176   3.831133   2.456727
    26  C    3.286249   1.388214   2.383795   3.327738   2.774312
    27  H    3.388563   2.124181   3.350489   4.178489   3.860132
    28  C    5.578074   3.741347   4.244294   5.299976   3.839322
    29  O    5.901419   4.220792   5.016213   6.055021   4.824823
    30  N    6.550251   4.766782   4.973873   5.993990   4.274330
    31  H    7.243059   5.595879   5.916353   6.928733   5.278736
    32  H    6.486239   4.807007   4.764485   5.704766   3.940748
    33  C    6.462362   5.229749   5.952996   6.376626   6.504078
    34  C    5.813700   3.781845   4.311874   5.089227   4.401338
    35  C    6.295522   4.058924   4.513666   5.473562   4.248319
    36  C    7.780964   5.451853   5.469131   6.483019   4.602712
    37  C    6.783519   4.429272   4.487107   5.450457   3.839692
    38  O    5.346124   3.399129   3.663362   4.268749   3.863841
    39  S    6.623490   4.968100   5.769824   6.467497   6.055493
    40  H    6.912710   5.568097   6.053942   6.412145   6.502505
    41  H    5.475256   4.492317   5.273086   5.598564   6.007863
    42  H    7.648322   5.377920   5.223773   6.224416   4.189924
    43  H    7.924123   5.677082   5.928816   6.991273   5.194061
    44  H    8.772269   6.420918   6.345184   7.309483   5.420097
    45  H    6.930624   4.605600   4.402760   5.234549   3.710160
    46  H    6.546197   4.438681   5.110527   6.116226   4.901891
    47  H    2.737282   4.523130   4.430077   3.558556   5.635688
    48  H    7.184033   6.151515   6.957895   7.350185   7.559984
                   21         22         23         24         25
    21  H    0.000000
    22  C    2.254309   0.000000
    23  H    2.521059   1.101083   0.000000
    24  H    2.906861   1.233181   1.842925   0.000000
    25  C    3.447923   1.489771   2.173918   2.139165   0.000000
    26  C    3.850707   2.471545   3.356772   3.033048   1.350588
    27  H    4.929219   3.474467   4.274061   3.946806   2.130716
    28  C    4.728197   2.589063   2.780042   2.966267   1.492591
    29  O    5.790492   3.641049   3.960808   3.801043   2.376033
    30  N    4.939354   2.946765   2.592435   3.394048   2.423544
    31  H    5.944444   3.963886   3.588011   4.349886   3.304190
    32  H    4.436782   2.787009   2.153540   3.482595   2.629033
    33  C    7.292495   6.438458   7.464236   5.802231   6.094759
    34  C    5.233332   3.947116   4.877833   3.154426   3.759666
    35  C    5.085938   3.328444   4.051326   2.427160   3.113985
    36  C    5.130686   3.280754   3.282408   2.372963   3.601706
    37  C    4.471946   2.801196   3.276870   1.642827   3.147225
    38  O    4.576384   3.822172   4.819115   3.133934   3.933785
    39  S    6.936082   5.586509   6.508861   4.848459   5.109184
    40  H    7.164485   6.526520   7.522470   5.786920   6.431683
    41  H    6.813433   6.120035   7.195404   5.674783   5.719632
    42  H    4.602998   2.823304   2.495365   2.225542   3.351824
    43  H    5.853251   3.777273   3.803315   3.057842   3.672409
    44  H    5.813299   4.200003   4.115262   3.202022   4.676123
    45  H    4.146912   3.017605   3.507903   1.800507   3.735614
    46  H    5.816071   3.825582   4.453829   3.128269   3.229104
    47  H    5.871770   6.857154   7.616992   7.547198   6.746756
    48  H    8.365732   7.469135   8.491030   6.837876   7.029839
                   26         27         28         29         30
    26  C    0.000000
    27  H    1.093124   0.000000
    28  C    2.443306   2.650469   0.000000
    29  O    2.842891   2.596194   1.223022   0.000000
    30  N    3.595041   3.912039   1.357349   2.255485   0.000000
    31  H    4.339101   4.447251   1.983375   2.406844   1.021890
    32  H    3.827200   4.311185   2.078812   3.150962   1.025370
    33  C    5.446418   5.478073   6.802248   6.531215   8.012510
    34  C    3.606873   3.962631   4.418694   4.402735   5.478819
    35  C    3.446244   3.832630   3.405207   3.430226   4.307027
    36  C    4.657686   5.219827   3.385604   3.820612   3.437606
    37  C    3.886278   4.527521   3.475542   3.879663   3.997997
    38  O    3.669029   4.231918   4.931028   5.143084   5.940777
    39  S    4.729899   4.709804   5.506511   5.113774   6.666173
    40  H    5.909264   6.120537   7.239414   7.112142   8.363125
    41  H    4.886104   4.905075   6.568296   6.362958   7.823310
    42  H    4.588319   5.248444   3.138263   3.864772   2.841657
    43  H    4.672548   5.018591   3.051618   3.187996   3.152375
    44  H    5.712215   6.288151   4.469615   4.855284   4.401986
    45  H    4.378683   5.155593   4.349802   4.873745   4.812079
    46  H    3.544399   3.648299   3.079407   2.751057   4.039170
    47  H    5.754702   6.058955   8.050762   8.521166   8.892600
    48  H    6.326723   6.224050   7.639077   7.240711   8.877293
                   31         32         33         34         35
    31  H    0.000000
    32  H    1.722904   0.000000
    33  C    8.647153   8.548857   0.000000
    34  C    6.186140   5.988670   2.754940   0.000000
    35  C    4.958434   4.905975   4.113091   1.460068   0.000000
    36  C    4.014662   3.907687   6.522271   3.838128   2.488378
    37  C    4.748383   4.419849   5.166949   2.453032   1.356555
    38  O    6.767273   6.267851   2.849552   1.225732   2.382754
    39  S    7.202942   7.328700   1.808544   1.766150   2.700094
    40  H    9.067428   8.829200   1.098629   2.912641   4.300554
    41  H    8.495000   8.286565   1.098257   2.919194   4.307500
    42  H    3.500446   3.089438   7.276712   4.529268   3.238135
    43  H    3.499238   3.864500   6.626274   4.047815   2.591774
    44  H    4.897695   4.813731   6.979907   4.425740   3.195084
    45  H    5.643014   5.060144   5.161754   2.640474   2.103079
    46  H    4.499567   4.816991   4.487188   2.198134   1.095640
    47  H    9.676349   8.645659   7.857967   7.655998   8.373345
    48  H    9.446069   9.469356   1.090000   3.734682   5.000255
                   36         37         38         39         40
    36  C    0.000000
    37  C    1.504461   0.000000
    38  O    4.413063   2.914478   0.000000
    39  S    5.085644   3.920569   2.627927   0.000000
    40  H    6.536355   5.132261   2.721552   2.401941   0.000000
    41  H    6.746912   5.345444   2.756994   2.407090   1.784554
    42  H    1.095434   2.165137   4.928337   5.928146   7.290936
    43  H    1.098772   2.153315   4.848185   5.017191   6.801083
    44  H    1.101626   2.159950   4.971117   5.567563   6.869092
    45  H    2.252935   1.096980   2.681673   4.223444   4.905444
    46  H    2.718386   2.137701   3.284415   2.838284   4.883808
    47  H    9.818677   8.698114   6.843980   8.497433   8.059037
    48  H    7.406221   6.117045   3.935845   2.415030   1.787935
                   41         42         43         44         45
    41  H    0.000000
    42  H    7.372458   0.000000
    43  H    6.870965   1.752764   0.000000
    44  H    7.333391   1.773372   1.797250   0.000000
    45  H    5.341421   2.724707   3.128044   2.552951   0.000000
    46  H    4.697623   3.477649   2.351273   3.485729   3.087057
    47  H    6.809837   9.636185  10.166290  10.701355   8.547607
    48  H    1.791364   8.212371   7.419915   7.828629   6.163585
                   46         47         48
    46  H    0.000000
    47  H    8.845774   0.000000
    48  H    5.228508   8.533509   0.000000
 Symmetry turned off by external request.
 Stoichiometry    C16H24N2O5S
 Framework group  C1[X(C16H24N2O5S)]
 Deg. of freedom   138
 Full point group                 C1      NOp   1
 Rotational constants (GHZ):           0.2895110           0.1651674           0.1244909
 Leave Link  202 at Sun Feb 19 04:16:06 2023, MaxMem=  2684354560 cpu:               0.2 elap:               0.0
 (Enter /storage/apps/GAUSSIAN/G16_RevA03/g16/l301.exe)
 Standard basis: def2TZVP (5D, 7F)
 Ernie: Thresh=  0.10000D-02 Tol=  0.10000D-05 Strict=F.
   894 basis functions,  1434 primitive gaussians,  1014 cartesian basis functions
    95 alpha electrons       95 beta electrons
       nuclear repulsion energy      2432.3016972322 Hartrees.
 IExCor= 4336 DFT=T Ex+Corr=M062X ExCW=0 ScaHFX=  0.540000
 ScaDFX=  1.000000  1.000000  1.000000  1.000000 ScalE2=  1.000000  1.000000
 IRadAn=      5 IRanWt=     -1 IRanGd=            0 ICorTp=0 IEmpDi=131
 NAtoms=   48 NActive=   48 NUniq=   48 SFac= 1.00D+00 NAtFMM=   60 NAOKFM=F Big=F
 Integral buffers will be    131072 words long.
 Raffenetti 2 integral format.
 Two-electron integral symmetry is turned off.
 R6Disp:  Grimme-D3 Dispersion energy=       -0.0041343198 Hartrees.
 Nuclear repulsion after empirical dispersion term =     2432.2975629124 Hartrees.
 Leave Link  301 at Sun Feb 19 04:16:06 2023, MaxMem=  2684354560 cpu:               0.9 elap:               0.1
 (Enter /storage/apps/GAUSSIAN/G16_RevA03/g16/l302.exe)
 NPDir=0 NMtPBC=     1 NCelOv=     1 NCel=       1 NClECP=     1 NCelD=      1
         NCelK=      1 NCelE2=     1 NClLst=     1 CellRange=     0.0.
 One-electron integrals computed using PRISM.
   1 Symmetry operations used in ECPInt.
 ECPInt:  NShTT=   65703 NPrTT=  200010 LenC2=   55965 LenP2D=  118621.
 LDataN:  DoStor=T MaxTD1= 6 Len=  172
 NBasis=   894 RedAO= T EigKep=  3.15D-05  NBF=   894
 NBsUse=   894 1.00D-06 EigRej= -1.00D+00 NBFU=   894
 Precomputing XC quadrature grid using
 IXCGrd= 4 IRadAn=           5 IRanWt=          -1 IRanGd=           0 AccXCQ= 0.00D+00.
 Generated NRdTot=       0 NPtTot=           0 NUsed=           0 NTot=          32
 NSgBfM=   999   998   999   999   999 MxSgAt=    48 MxSgA2=    48.
 Leave Link  302 at Sun Feb 19 04:16:07 2023, MaxMem=  2684354560 cpu:              18.5 elap:               1.2
 (Enter /storage/apps/GAUSSIAN/G16_RevA03/g16/l303.exe)
 DipDrv:  MaxL=1.
 Leave Link  303 at Sun Feb 19 04:16:08 2023, MaxMem=  2684354560 cpu:               2.1 elap:               0.2
 (Enter /storage/apps/GAUSSIAN/G16_RevA03/g16/l401.exe)
 ExpMin= 9.52D-02 ExpMax= 6.07D+04 ExpMxC= 2.07D+03 IAcc=3 IRadAn=         5 AccDes= 0.00D+00
 Harris functional with IExCor= 1009 and IRadAn=       5 diagonalized for initial guess.
 HarFok:  IExCor= 1009 AccDes= 0.00D+00 IRadAn=         5 IDoV= 1 UseB2=F ITyADJ=14
 ICtDFT=  3500011 ScaDFX=  1.000000  1.000000  1.000000  1.000000
 FoFCou: FMM=F IPFlag=           0 FMFlag=      100000 FMFlg1=           0
         NFxFlg=           0 DoJE=T BraDBF=F KetDBF=T FulRan=T
         wScrn=  0.000000 ICntrl=       500 IOpCl=  0 I1Cent=   200000004 NGrid=           0
         NMat0=    1 NMatS0=      1 NMatT0=    0 NMatD0=    1 NMtDS0=    0 NMtDT0=    0
 Symmetry not used in FoFCou.
 Harris En= -1507.19715796805    
 JPrj=0 DoOrth=F DoCkMO=F.
 Leave Link  401 at Sun Feb 19 04:16:11 2023, MaxMem=  2684354560 cpu:              60.3 elap:               3.8
 (Enter /storage/apps/GAUSSIAN/G16_RevA03/g16/l502.exe)
 Two-electron integral symmetry not used.
 Closed shell SCF:
 Using DIIS extrapolation, IDIIS=  1040.
 NGot=  2684354560 LenX=  2682275214 LenY=  2681246004
 Requested convergence on RMS density matrix=1.00D-08 within 128 cycles.
 Requested convergence on MAX density matrix=1.00D-06.
 Requested convergence on             energy=1.00D-06.
 No special actions if energy rises.
 Fock matrices will be formed incrementally for  20 cycles.
 Integral accuracy reduced to 1.0D-05 until final iterations.

 Cycle   1  Pass 0  IDiag  1:
 FoFJK:  IHMeth= 1 ICntrl=       0 DoSepK=F KAlg= 0 I1Cent=           0 FoldK=F
 IRaf= 780000000 NMat=       1 IRICut=       1 DoRegI=T DoRafI=F ISym2E= 0 IDoP0=0 IntGTp=1.
 FoFCou: FMM=F IPFlag=           0 FMFlag=      100000 FMFlg1=           0
         NFxFlg=           0 DoJE=F BraDBF=F KetDBF=F FulRan=T
         wScrn=  0.000000 ICntrl=         0 IOpCl=  0 I1Cent=           0 NGrid=           0
         NMat0=    1 NMatS0=      1 NMatT0=    0 NMatD0=    1 NMtDS0=    0 NMtDT0=    0
 Symmetry not used in FoFCou.
 E= -1507.14429455447    
 DIIS: error= 1.54D-02 at cycle   1 NSaved=   1.
 NSaved= 1 IEnMin= 1 EnMin= -1507.14429455447     IErMin= 1 ErrMin= 1.54D-02
 ErrMax= 1.54D-02  0.00D+00 EMaxC= 1.00D-01 BMatC= 9.86D-01 BMatP= 9.86D-01
 IDIUse=3 WtCom= 8.46D-01 WtEn= 1.54D-01
 Coeff-Com:  0.100D+01
 Coeff-En:   0.100D+01
 Coeff:      0.100D+01
 Gap=     0.327 Goal=   None    Shift=    0.000
 GapD=    0.327 DampG=1.000 DampE=0.500 DampFc=0.5000 IDamp=-1.
 Damping current iteration by 5.00D-01
 RMSDP=4.17D-03 MaxDP=1.21D+00              OVMax= 2.62D-01

 Cycle   2  Pass 0  IDiag  1:
 RMSU=  2.08D-03    CP:  1.02D+00
 E= -1507.47063985147     Delta-E=       -0.326345296996 Rises=F Damp=T
 DIIS: error= 3.80D-03 at cycle   2 NSaved=   2.
 NSaved= 2 IEnMin= 2 EnMin= -1507.47063985147     IErMin= 2 ErrMin= 3.80D-03
 ErrMax= 3.80D-03  0.00D+00 EMaxC= 1.00D-01 BMatC= 9.20D-02 BMatP= 9.86D-01
 IDIUse=3 WtCom= 9.62D-01 WtEn= 3.80D-02
 Coeff-Com:  0.101D-01 0.990D+00
 Coeff-En:   0.704D-01 0.930D+00
 Coeff:      0.124D-01 0.988D+00
 Gap=     0.317 Goal=   None    Shift=    0.000
 RMSDP=1.32D-03 MaxDP=3.98D-01 DE=-3.26D-01 OVMax= 1.70D-01

 Cycle   3  Pass 0  IDiag  1:
 RMSU=  1.04D-03    CP:  1.00D+00  6.18D-01
 E= -1507.83016215697     Delta-E=       -0.359522305501 Rises=F Damp=F
 DIIS: error= 4.44D-03 at cycle   3 NSaved=   3.
 NSaved= 3 IEnMin= 3 EnMin= -1507.83016215697     IErMin= 2 ErrMin= 3.80D-03
 ErrMax= 4.44D-03  0.00D+00 EMaxC= 1.00D-01 BMatC= 6.06D-02 BMatP= 9.20D-02
 IDIUse=3 WtCom= 9.56D-01 WtEn= 4.44D-02
 Coeff-Com: -0.770D-01 0.466D+00 0.611D+00
 Coeff-En:   0.000D+00 0.000D+00 0.100D+01
 Coeff:     -0.735D-01 0.446D+00 0.628D+00
 Gap=     0.220 Goal=   None    Shift=    0.000
 RMSDP=3.73D-04 MaxDP=3.15D-02 DE=-3.60D-01 OVMax= 7.13D-02

 Cycle   4  Pass 0  IDiag  1:
 RMSU=  3.32D-04    CP:  1.00D+00  6.92D-01  9.34D-01
 E= -1507.87075683704     Delta-E=       -0.040594680067 Rises=F Damp=F
 DIIS: error= 1.77D-03 at cycle   4 NSaved=   4.
 NSaved= 4 IEnMin= 4 EnMin= -1507.87075683704     IErMin= 4 ErrMin= 1.77D-03
 ErrMax= 1.77D-03  0.00D+00 EMaxC= 1.00D-01 BMatC= 1.10D-02 BMatP= 6.06D-02
 IDIUse=3 WtCom= 9.82D-01 WtEn= 1.77D-02
 Coeff-Com: -0.367D-01 0.997D-01 0.337D+00 0.600D+00
 Coeff-En:   0.000D+00 0.000D+00 0.123D+00 0.877D+00
 Coeff:     -0.361D-01 0.979D-01 0.333D+00 0.605D+00
 Gap=     0.220 Goal=   None    Shift=    0.000
 RMSDP=1.23D-04 MaxDP=9.83D-03 DE=-4.06D-02 OVMax= 1.76D-02

 Cycle   5  Pass 0  IDiag  1:
 RMSU=  8.47D-05    CP:  1.00D+00  6.93D-01  9.59D-01  7.44D-01
 E= -1507.87906804718     Delta-E=       -0.008311210146 Rises=F Damp=F
 DIIS: error= 3.15D-04 at cycle   5 NSaved=   5.
 NSaved= 5 IEnMin= 5 EnMin= -1507.87906804718     IErMin= 5 ErrMin= 3.15D-04
 ErrMax= 3.15D-04  0.00D+00 EMaxC= 1.00D-01 BMatC= 4.64D-04 BMatP= 1.10D-02
 IDIUse=3 WtCom= 9.97D-01 WtEn= 3.15D-03
 Coeff-Com: -0.110D-01 0.188D-01 0.118D+00 0.272D+00 0.602D+00
 Coeff-En:   0.000D+00 0.000D+00 0.000D+00 0.000D+00 0.100D+01
 Coeff:     -0.110D-01 0.188D-01 0.118D+00 0.271D+00 0.603D+00
 Gap=     0.220 Goal=   None    Shift=    0.000
 RMSDP=5.12D-05 MaxDP=1.34D-02 DE=-8.31D-03 OVMax= 4.85D-03

 Cycle   6  Pass 0  IDiag  1:
 RMSU=  3.50D-05    CP:  1.00D+00  6.78D-01  9.71D-01  7.71D-01  8.96D-01
 E= -1507.87944734586     Delta-E=       -0.000379298674 Rises=F Damp=F
 DIIS: error= 1.31D-04 at cycle   6 NSaved=   6.
 NSaved= 6 IEnMin= 6 EnMin= -1507.87944734586     IErMin= 6 ErrMin= 1.31D-04
 ErrMax= 1.31D-04  0.00D+00 EMaxC= 1.00D-01 BMatC= 6.08D-05 BMatP= 4.64D-04
 IDIUse=3 WtCom= 9.99D-01 WtEn= 1.31D-03
 Coeff-Com:  0.218D-03-0.467D-02 0.106D-01 0.402D-01 0.273D+00 0.681D+00
 Coeff-En:   0.000D+00 0.000D+00 0.000D+00 0.000D+00 0.000D+00 0.100D+01
 Coeff:      0.218D-03-0.466D-02 0.106D-01 0.401D-01 0.272D+00 0.681D+00
 Gap=     0.221 Goal=   None    Shift=    0.000
 RMSDP=2.08D-05 MaxDP=2.17D-03 DE=-3.79D-04 OVMax= 2.57D-03

 Cycle   7  Pass 0  IDiag  1:
 RMSU=  1.89D-05    CP:  1.00D+00  6.77D-01  9.76D-01  7.75D-01  9.85D-01
                    CP:  1.01D+00
 E= -1507.87952665258     Delta-E=       -0.000079306725 Rises=F Damp=F
 DIIS: error= 4.85D-05 at cycle   7 NSaved=   7.
 NSaved= 7 IEnMin= 7 EnMin= -1507.87952665258     IErMin= 7 ErrMin= 4.85D-05
 ErrMax= 4.85D-05  0.00D+00 EMaxC= 1.00D-01 BMatC= 9.47D-06 BMatP= 6.08D-05
 IDIUse=1 WtCom= 1.00D+00 WtEn= 0.00D+00
 Coeff-Com:  0.187D-02-0.511D-02-0.121D-01-0.262D-01 0.142D-01 0.279D+00
 Coeff-Com:  0.748D+00
 Coeff:      0.187D-02-0.511D-02-0.121D-01-0.262D-01 0.142D-01 0.279D+00
 Coeff:      0.748D+00
 Gap=     0.221 Goal=   None    Shift=    0.000
 RMSDP=1.94D-05 MaxDP=3.93D-03 DE=-7.93D-05 OVMax= 2.07D-03

 Cycle   8  Pass 0  IDiag  1:
 RMSU=  1.19D-05    CP:  1.00D+00  6.73D-01  9.78D-01  7.83D-01  1.07D+00
                    CP:  1.20D+00  1.35D+00
 E= -1507.87954540537     Delta-E=       -0.000018752787 Rises=F Damp=F
 DIIS: error= 2.72D-05 at cycle   8 NSaved=   8.
 NSaved= 8 IEnMin= 8 EnMin= -1507.87954540537     IErMin= 8 ErrMin= 2.72D-05
 ErrMax= 2.72D-05  0.00D+00 EMaxC= 1.00D-01 BMatC= 2.17D-06 BMatP= 9.47D-06
 IDIUse=1 WtCom= 1.00D+00 WtEn= 0.00D+00
 Coeff-Com:  0.921D-03-0.167D-02-0.732D-02-0.217D-01-0.443D-01 0.336D-02
 Coeff-Com:  0.356D+00 0.715D+00
 Coeff:      0.921D-03-0.167D-02-0.732D-02-0.217D-01-0.443D-01 0.336D-02
 Coeff:      0.356D+00 0.715D+00
 Gap=     0.221 Goal=   None    Shift=    0.000
 RMSDP=1.94D-05 MaxDP=2.84D-03 DE=-1.88D-05 OVMax= 6.56D-04

 Cycle   9  Pass 0  IDiag  1:
 RMSU=  9.48D-06    CP:  1.00D+00  6.72D-01  9.80D-01  7.83D-01  1.13D+00
                    CP:  1.33D+00  1.99D+00  1.78D+00
 E= -1507.87954461101     Delta-E=        0.000000794361 Rises=F Damp=F
 DIIS: error= 2.15D-05 at cycle   9 NSaved=   9.
 NSaved= 9 IEnMin= 8 EnMin= -1507.87954540537     IErMin= 9 ErrMin= 2.15D-05
 ErrMax= 2.15D-05  0.00D+00 EMaxC= 1.00D-01 BMatC= 4.94D-07 BMatP= 2.17D-06
 IDIUse=1 WtCom= 1.00D+00 WtEn= 0.00D+00
 Coeff-Com:  0.278D-03-0.372D-03-0.208D-02-0.820D-02-0.214D-01-0.232D-01
 Coeff-Com:  0.105D+00 0.342D+00 0.608D+00
 Coeff:      0.278D-03-0.372D-03-0.208D-02-0.820D-02-0.214D-01-0.232D-01
 Coeff:      0.105D+00 0.342D+00 0.608D+00
 Gap=     0.221 Goal=   None    Shift=    0.000
 RMSDP=2.21D-05 MaxDP=3.48D-03 DE= 7.94D-07 OVMax= 1.97D-04

 Cycle  10  Pass 0  IDiag  1:
 RMSU=  4.98D-06    CP:  1.00D+00  6.72D-01  9.82D-01  7.86D-01  1.18D+00
                    CP:  1.44D+00  2.66D+00  2.79D+00  2.15D+00
 E= -1507.87954512297     Delta-E=       -0.000000511960 Rises=F Damp=F
 DIIS: error= 3.23D-05 at cycle  10 NSaved=  10.
 NSaved=10 IEnMin= 8 EnMin= -1507.87954540537     IErMin= 9 ErrMin= 2.15D-05
 ErrMax= 3.23D-05  0.00D+00 EMaxC= 1.00D-01 BMatC= 6.80D-07 BMatP= 4.94D-07
 IDIUse=1 WtCom= 1.00D+00 WtEn= 0.00D+00
 Coeff-Com:  0.307D-03-0.350D-03-0.234D-02-0.973D-02-0.272D-01-0.346D-01
 Coeff-Com:  0.117D+00 0.434D+00 0.904D+00-0.380D+00
 Coeff:      0.307D-03-0.350D-03-0.234D-02-0.973D-02-0.272D-01-0.346D-01
 Coeff:      0.117D+00 0.434D+00 0.904D+00-0.380D+00
 Gap=     0.221 Goal=   None    Shift=    0.000
 RMSDP=1.78D-05 MaxDP=2.90D-03 DE=-5.12D-07 OVMax= 3.42D-05

 Cycle  11  Pass 0  IDiag  1:
 RMSU=  2.58D-06    CP:  1.00D+00  6.71D-01  9.80D-01  7.84D-01  1.15D+00
                    CP:  1.37D+00  2.14D+00  2.07D+00  1.13D+00 -6.23D-02
 E= -1507.87953760735     Delta-E=        0.000007515616 Rises=F Damp=F
 DIIS: error= 2.42D-05 at cycle  11 NSaved=  11.
 NSaved=11 IEnMin= 8 EnMin= -1507.87954540537     IErMin= 9 ErrMin= 2.15D-05
 ErrMax= 2.42D-05  0.00D+00 EMaxC= 1.00D-01 BMatC= 3.94D-07 BMatP= 4.94D-07
 IDIUse=1 WtCom= 1.00D+00 WtEn= 0.00D+00
 Coeff-Com:  0.334D-04 0.109D-03-0.657D-04-0.298D-02-0.124D-01-0.325D-01
 Coeff-Com:  0.939D-02 0.191D+00 0.794D+00-0.125D+01 0.130D+01
 Coeff:      0.334D-04 0.109D-03-0.657D-04-0.298D-02-0.124D-01-0.325D-01
 Coeff:      0.939D-02 0.191D+00 0.794D+00-0.125D+01 0.130D+01
 Gap=     0.221 Goal=   None    Shift=    0.000
 RMSDP=1.99D-05 MaxDP=2.71D-03 DE= 7.52D-06 OVMax= 9.42D-05

 Cycle  12  Pass 0  IDiag  1:
 RMSU=  6.45D-06    CP:  1.00D+00  6.69D-01  9.79D-01  7.82D-01  1.14D+00
                    CP:  1.33D+00  1.72D+00  1.73D+00  1.04D-01 -1.98D+00
                    CP:  3.00D+00
 E= -1507.87951101610     Delta-E=        0.000026591257 Rises=F Damp=F
 DIIS: error= 3.07D-05 at cycle  12 NSaved=  12.
 NSaved=12 IEnMin= 8 EnMin= -1507.87954540537     IErMin= 9 ErrMin= 2.15D-05
 ErrMax= 3.07D-05  0.00D+00 EMaxC= 1.00D-01 BMatC= 3.45D-07 BMatP= 3.94D-07
 IDIUse=1 WtCom= 1.00D+00 WtEn= 0.00D+00
 Coeff-Com:  0.138D-04 0.187D-03 0.101D-03-0.315D-02-0.146D-01-0.415D-01
 Coeff-Com:  0.138D-02 0.223D+00 0.101D+01-0.168D+01 0.181D+01-0.307D+00
 Coeff:      0.138D-04 0.187D-03 0.101D-03-0.315D-02-0.146D-01-0.415D-01
 Coeff:      0.138D-02 0.223D+00 0.101D+01-0.168D+01 0.181D+01-0.307D+00
 Gap=     0.221 Goal=   None    Shift=    0.000
 RMSDP=9.04D-06 MaxDP=9.19D-04 DE= 2.66D-05 OVMax= 3.27D-05

 Initial convergence to 1.0D-05 achieved.  Increase integral accuracy.
 Cycle  13  Pass 1  IDiag  1:
 E= -1507.87938832938     Delta-E=        0.000122686713 Rises=F Damp=F
 DIIS: error= 3.19D-04 at cycle   1 NSaved=   1.
 NSaved= 1 IEnMin= 1 EnMin= -1507.87938832938     IErMin= 1 ErrMin= 3.19D-04
 ErrMax= 3.19D-04  0.00D+00 EMaxC= 1.00D-01 BMatC= 9.09D-05 BMatP= 9.09D-05
 IDIUse=3 WtCom= 9.97D-01 WtEn= 3.19D-03
 Coeff-Com:  0.100D+01
 Coeff-En:   0.100D+01
 Coeff:      0.100D+01
 Gap=     0.221 Goal=   None    Shift=    0.000
 RMSDP=9.04D-06 MaxDP=9.19D-04 DE= 1.23D-04 OVMax= 1.12D-03

 Cycle  14  Pass 1  IDiag  1:
 RMSU=  4.71D-04    CP:  9.94D-01
 E= -1507.87944963443     Delta-E=       -0.000061305049 Rises=F Damp=F
 DIIS: error= 6.40D-06 at cycle   2 NSaved=   2.
 NSaved= 2 IEnMin= 2 EnMin= -1507.87944963443     IErMin= 2 ErrMin= 6.40D-06
 ErrMax= 6.40D-06  0.00D+00 EMaxC= 1.00D-01 BMatC= 1.70D-07 BMatP= 9.09D-05
 IDIUse=1 WtCom= 1.00D+00 WtEn= 0.00D+00
 Coeff-Com: -0.148D-01 0.101D+01
 Coeff:     -0.148D-01 0.101D+01
 Gap=     0.221 Goal=   None    Shift=    0.000
 RMSDP=1.67D-05 MaxDP=1.53D-03 DE=-6.13D-05 OVMax= 2.31D-04

 Cycle  15  Pass 1  IDiag  1:
 RMSU=  5.17D-06    CP:  9.94D-01  1.03D+00
 E= -1507.87944954982     Delta-E=        0.000000084608 Rises=F Damp=F
 DIIS: error= 1.14D-05 at cycle   3 NSaved=   3.
 NSaved= 3 IEnMin= 2 EnMin= -1507.87944963443     IErMin= 2 ErrMin= 6.40D-06
 ErrMax= 1.14D-05  0.00D+00 EMaxC= 1.00D-01 BMatC= 3.13D-07 BMatP= 1.70D-07
 IDIUse=1 WtCom= 1.00D+00 WtEn= 0.00D+00
 Coeff-Com: -0.104D-01 0.606D+00 0.404D+00
 Coeff:     -0.104D-01 0.606D+00 0.404D+00
 Gap=     0.221 Goal=   None    Shift=    0.000
 RMSDP=7.81D-07 MaxDP=6.50D-05 DE= 8.46D-08 OVMax= 1.63D-04

 Cycle  16  Pass 1  IDiag  1:
 RMSU=  7.40D-07    CP:  9.94D-01  1.03D+00  1.01D+00
 E= -1507.87944982002     Delta-E=       -0.000000270200 Rises=F Damp=F
 DIIS: error= 1.16D-06 at cycle   4 NSaved=   4.
 NSaved= 4 IEnMin= 4 EnMin= -1507.87944982002     IErMin= 4 ErrMin= 1.16D-06
 ErrMax= 1.16D-06  0.00D+00 EMaxC= 1.00D-01 BMatC= 4.15D-09 BMatP= 1.70D-07
 IDIUse=1 WtCom= 1.00D+00 WtEn= 0.00D+00
 Coeff-Com: -0.206D-02 0.109D+00 0.126D+00 0.767D+00
 Coeff:     -0.206D-02 0.109D+00 0.126D+00 0.767D+00
 Gap=     0.221 Goal=   None    Shift=    0.000
 RMSDP=3.63D-07 MaxDP=4.34D-05 DE=-2.70D-07 OVMax= 2.28D-05

 Cycle  17  Pass 1  IDiag  1:
 RMSU=  1.90D-07    CP:  9.94D-01  1.03D+00  1.04D+00  1.05D+00
 E= -1507.87944982343     Delta-E=       -0.000000003406 Rises=F Damp=F
 DIIS: error= 6.27D-07 at cycle   5 NSaved=   5.
 NSaved= 5 IEnMin= 5 EnMin= -1507.87944982343     IErMin= 5 ErrMin= 6.27D-07
 ErrMax= 6.27D-07  0.00D+00 EMaxC= 1.00D-01 BMatC= 1.08D-09 BMatP= 4.15D-09
 IDIUse=1 WtCom= 1.00D+00 WtEn= 0.00D+00
 Coeff-Com:  0.304D-03-0.232D-01 0.862D-02 0.377D+00 0.638D+00
 Coeff:      0.304D-03-0.232D-01 0.862D-02 0.377D+00 0.638D+00
 Gap=     0.221 Goal=   None    Shift=    0.000
 RMSDP=1.10D-07 MaxDP=7.17D-06 DE=-3.41D-09 OVMax= 7.56D-06

 Cycle  18  Pass 1  IDiag  1:
 RMSU=  5.49D-08    CP:  9.94D-01  1.03D+00  1.05D+00  1.09D+00  1.02D+00
 E= -1507.87944982447     Delta-E=       -0.000000001040 Rises=F Damp=F
 DIIS: error= 1.48D-07 at cycle   6 NSaved=   6.
 NSaved= 6 IEnMin= 6 EnMin= -1507.87944982447     IErMin= 6 ErrMin= 1.48D-07
 ErrMax= 1.48D-07  0.00D+00 EMaxC= 1.00D-01 BMatC= 6.50D-11 BMatP= 1.08D-09
 IDIUse=1 WtCom= 1.00D+00 WtEn= 0.00D+00
 Coeff-Com:  0.261D-03-0.168D-01-0.573D-02 0.103D+00 0.259D+00 0.660D+00
 Coeff:      0.261D-03-0.168D-01-0.573D-02 0.103D+00 0.259D+00 0.660D+00
 Gap=     0.221 Goal=   None    Shift=    0.000
 RMSDP=2.47D-08 MaxDP=3.72D-06 DE=-1.04D-09 OVMax= 3.03D-06

 Cycle  19  Pass 1  IDiag  1:
 RMSU=  1.73D-08    CP:  9.94D-01  1.03D+00  1.05D+00  1.10D+00  1.10D+00
                    CP:  1.03D+00
 E= -1507.87944982454     Delta-E=       -0.000000000074 Rises=F Damp=F
 DIIS: error= 6.23D-08 at cycle   7 NSaved=   7.
 NSaved= 7 IEnMin= 7 EnMin= -1507.87944982454     IErMin= 7 ErrMin= 6.23D-08
 ErrMax= 6.23D-08  0.00D+00 EMaxC= 1.00D-01 BMatC= 9.95D-12 BMatP= 6.50D-11
 IDIUse=1 WtCom= 1.00D+00 WtEn= 0.00D+00
 Coeff-Com:  0.213D-04-0.573D-03-0.416D-02-0.448D-01-0.518D-01 0.226D+00
 Coeff-Com:  0.875D+00
 Coeff:      0.213D-04-0.573D-03-0.416D-02-0.448D-01-0.518D-01 0.226D+00
 Coeff:      0.875D+00
 Gap=     0.221 Goal=   None    Shift=    0.000
 RMSDP=1.19D-08 MaxDP=6.89D-07 DE=-7.41D-11 OVMax= 2.46D-06

 Cycle  20  Pass 1  IDiag  1:
 RMSU=  8.16D-09    CP:  9.94D-01  1.03D+00  1.05D+00  1.10D+00  1.12D+00
                    CP:  1.13D+00  1.04D+00
 E= -1507.87944982458     Delta-E=       -0.000000000034 Rises=F Damp=F
 DIIS: error= 4.62D-08 at cycle   8 NSaved=   8.
 NSaved= 8 IEnMin= 8 EnMin= -1507.87944982458     IErMin= 8 ErrMin= 4.62D-08
 ErrMax= 4.62D-08  0.00D+00 EMaxC= 1.00D-01 BMatC= 4.25D-12 BMatP= 9.95D-12
 IDIUse=1 WtCom= 1.00D+00 WtEn= 0.00D+00
 Coeff-Com: -0.307D-04 0.246D-02-0.166D-02-0.439D-01-0.748D-01 0.253D-01
 Coeff-Com:  0.521D+00 0.572D+00
 Coeff:     -0.307D-04 0.246D-02-0.166D-02-0.439D-01-0.748D-01 0.253D-01
 Coeff:      0.521D+00 0.572D+00
 Gap=     0.221 Goal=   None    Shift=    0.000
 RMSDP=4.66D-09 MaxDP=8.38D-07 DE=-3.41D-11 OVMax= 7.77D-07

 SCF Done:  E(RM062X) =  -1507.87944982     A.U. after   20 cycles
            NFock= 20  Conv=0.47D-08     -V/T= 2.0041
 KE= 1.501780726672D+03 PE=-8.403120240430D+03 EE= 2.961162501022D+03
 Leave Link  502 at Sun Feb 19 04:24:53 2023, MaxMem=  2684354560 cpu:            8342.8 elap:             522.0
 (Enter /storage/apps/GAUSSIAN/G16_RevA03/g16/l601.exe)
 Copying SCF densities to generalized density rwf, IOpCl= 0 IROHF=0.

 **********************************************************************

            Population analysis using the SCF density.

 **********************************************************************

 Alpha  occ. eigenvalues --  -89.90390 -19.64259 -19.63767 -19.61961 -19.61645
 Alpha  occ. eigenvalues --  -19.59081 -14.79717 -14.77233 -10.64563 -10.64480
 Alpha  occ. eigenvalues --  -10.63158 -10.60367 -10.59991 -10.59474 -10.59078
 Alpha  occ. eigenvalues --  -10.57659 -10.56482 -10.55622 -10.55412 -10.54456
 Alpha  occ. eigenvalues --  -10.54197 -10.54069 -10.53892 -10.53821  -8.26309
 Alpha  occ. eigenvalues --   -6.18248  -6.18024  -6.17820  -1.19963  -1.16418
 Alpha  occ. eigenvalues --   -1.16012  -1.15886  -1.14136  -1.08585  -1.01730
 Alpha  occ. eigenvalues --   -0.92525  -0.90964  -0.88510  -0.88203  -0.87321
 Alpha  occ. eigenvalues --   -0.86090  -0.81157  -0.78876  -0.75133  -0.74623
 Alpha  occ. eigenvalues --   -0.73020  -0.70557  -0.68451  -0.66674  -0.66635
 Alpha  occ. eigenvalues --   -0.63664  -0.62904  -0.61138  -0.60513  -0.59905
 Alpha  occ. eigenvalues --   -0.57942  -0.56585  -0.55136  -0.54818  -0.53934
 Alpha  occ. eigenvalues --   -0.53398  -0.52966  -0.52121  -0.50952  -0.50754
 Alpha  occ. eigenvalues --   -0.50081  -0.49862  -0.49399  -0.48666  -0.48479
 Alpha  occ. eigenvalues --   -0.48356  -0.47941  -0.47142  -0.46833  -0.46042
 Alpha  occ. eigenvalues --   -0.45672  -0.44734  -0.44383  -0.44129  -0.42962
 Alpha  occ. eigenvalues --   -0.42484  -0.42270  -0.41637  -0.39644  -0.38135
 Alpha  occ. eigenvalues --   -0.35739  -0.35123  -0.34878  -0.34390  -0.34209
 Alpha  occ. eigenvalues --   -0.32429  -0.32337  -0.31035  -0.29492  -0.24539
 Alpha virt. eigenvalues --   -0.02435   0.00659   0.04695   0.04835   0.05549
 Alpha virt. eigenvalues --    0.06119   0.06672   0.07364   0.08485   0.08701
 Alpha virt. eigenvalues --    0.08900   0.09438   0.10000   0.10886   0.11249
 Alpha virt. eigenvalues --    0.11545   0.12433   0.12679   0.12729   0.13442
 Alpha virt. eigenvalues --    0.13814   0.14004   0.14320   0.14688   0.15025
 Alpha virt. eigenvalues --    0.15798   0.16215   0.16326   0.16996   0.18013
 Alpha virt. eigenvalues --    0.18660   0.19138   0.19607   0.19676   0.20151
 Alpha virt. eigenvalues --    0.20648   0.21025   0.21485   0.21909   0.22042
 Alpha virt. eigenvalues --    0.22797   0.23478   0.23855   0.24087   0.24971
 Alpha virt. eigenvalues --    0.25318   0.25710   0.25876   0.26387   0.26720
 Alpha virt. eigenvalues --    0.27330   0.27813   0.28058   0.28413   0.28993
 Alpha virt. eigenvalues --    0.29136   0.29765   0.30009   0.30842   0.31761
 Alpha virt. eigenvalues --    0.31792   0.32225   0.32430   0.32764   0.33311
 Alpha virt. eigenvalues --    0.33825   0.34226   0.34409   0.35276   0.36126
 Alpha virt. eigenvalues --    0.36590   0.37539   0.37613   0.38204   0.38263
 Alpha virt. eigenvalues --    0.38811   0.39319   0.39782   0.40272   0.40491
 Alpha virt. eigenvalues --    0.40654   0.41025   0.41169   0.41600   0.42280
 Alpha virt. eigenvalues --    0.42421   0.42643   0.43109   0.43381   0.43535
 Alpha virt. eigenvalues --    0.43805   0.43836   0.44652   0.45562   0.45918
 Alpha virt. eigenvalues --    0.45999   0.46573   0.46631   0.47096   0.47570
 Alpha virt. eigenvalues --    0.47916   0.48363   0.48875   0.49074   0.49168
 Alpha virt. eigenvalues --    0.49459   0.49777   0.50463   0.50637   0.50730
 Alpha virt. eigenvalues --    0.50921   0.51274   0.51431   0.52002   0.52599
 Alpha virt. eigenvalues --    0.53003   0.53628   0.53656   0.54025   0.54619
 Alpha virt. eigenvalues --    0.54997   0.55910   0.56027   0.56478   0.57729
 Alpha virt. eigenvalues --    0.57909   0.58219   0.58283   0.58919   0.59267
 Alpha virt. eigenvalues --    0.59882   0.60429   0.60741   0.60990   0.62081
 Alpha virt. eigenvalues --    0.62636   0.63027   0.63247   0.63314   0.64202
 Alpha virt. eigenvalues --    0.65099   0.65664   0.66348   0.66639   0.67551
 Alpha virt. eigenvalues --    0.67729   0.67896   0.68430   0.69807   0.69854
 Alpha virt. eigenvalues --    0.70875   0.71762   0.72677   0.72838   0.73912
 Alpha virt. eigenvalues --    0.74307   0.75203   0.75971   0.76543   0.77475
 Alpha virt. eigenvalues --    0.77973   0.78906   0.79602   0.80576   0.80994
 Alpha virt. eigenvalues --    0.81615   0.82133   0.82709   0.83443   0.83876
 Alpha virt. eigenvalues --    0.84061   0.84870   0.85660   0.86889   0.87239
 Alpha virt. eigenvalues --    0.88066   0.88690   0.88929   0.89210   0.90618
 Alpha virt. eigenvalues --    0.90938   0.92070   0.92726   0.93227   0.93836
 Alpha virt. eigenvalues --    0.94557   0.95259   0.95624   0.96238   0.96993
 Alpha virt. eigenvalues --    0.97433   0.97977   0.98266   0.98832   0.99184
 Alpha virt. eigenvalues --    0.99790   1.01262   1.02569   1.03620   1.04169
 Alpha virt. eigenvalues --    1.04693   1.04962   1.05849   1.06282   1.06741
 Alpha virt. eigenvalues --    1.07680   1.08682   1.09045   1.09616   1.10008
 Alpha virt. eigenvalues --    1.10921   1.11156   1.11687   1.12478   1.13289
 Alpha virt. eigenvalues --    1.13877   1.14152   1.14678   1.15758   1.16792
 Alpha virt. eigenvalues --    1.16977   1.17444   1.17879   1.18411   1.19463
 Alpha virt. eigenvalues --    1.20677   1.20805   1.21825   1.22777   1.23360
 Alpha virt. eigenvalues --    1.24204   1.25954   1.26609   1.26930   1.28235
 Alpha virt. eigenvalues --    1.28467   1.29866   1.30794   1.31501   1.32536
 Alpha virt. eigenvalues --    1.33036   1.33646   1.34071   1.34980   1.35266
 Alpha virt. eigenvalues --    1.36457   1.36946   1.37661   1.39242   1.40153
 Alpha virt. eigenvalues --    1.41421   1.41704   1.42796   1.43253   1.44215
 Alpha virt. eigenvalues --    1.45042   1.46081   1.47502   1.48439   1.49627
 Alpha virt. eigenvalues --    1.50756   1.51095   1.51546   1.52217   1.52475
 Alpha virt. eigenvalues --    1.53751   1.54142   1.54380   1.55580   1.56266
 Alpha virt. eigenvalues --    1.56523   1.57077   1.57119   1.57663   1.57849
 Alpha virt. eigenvalues --    1.58198   1.58746   1.59001   1.59545   1.60070
 Alpha virt. eigenvalues --    1.60423   1.61406   1.61924   1.62013   1.62609
 Alpha virt. eigenvalues --    1.62981   1.63184   1.64149   1.64869   1.65296
 Alpha virt. eigenvalues --    1.65783   1.65894   1.66909   1.67489   1.68229
 Alpha virt. eigenvalues --    1.68669   1.69512   1.70317   1.70692   1.71263
 Alpha virt. eigenvalues --    1.71513   1.72268   1.73011   1.73544   1.73580
 Alpha virt. eigenvalues --    1.74129   1.74506   1.76323   1.77071   1.77725
 Alpha virt. eigenvalues --    1.78274   1.78761   1.79642   1.80328   1.80407
 Alpha virt. eigenvalues --    1.81391   1.82604   1.82880   1.83600   1.84616
 Alpha virt. eigenvalues --    1.84835   1.85131   1.85666   1.86321   1.87162
 Alpha virt. eigenvalues --    1.88372   1.88649   1.89340   1.89469   1.90315
 Alpha virt. eigenvalues --    1.92046   1.92183   1.92694   1.93963   1.94989
 Alpha virt. eigenvalues --    1.95299   1.95519   1.96001   1.96389   1.97208
 Alpha virt. eigenvalues --    1.97616   1.97955   1.99221   1.99953   2.00663
 Alpha virt. eigenvalues --    2.01853   2.02304   2.02675   2.03782   2.04893
 Alpha virt. eigenvalues --    2.05527   2.06427   2.06870   2.07657   2.08365
 Alpha virt. eigenvalues --    2.08927   2.09661   2.10852   2.11451   2.12786
 Alpha virt. eigenvalues --    2.13357   2.13762   2.14255   2.15242   2.16244
 Alpha virt. eigenvalues --    2.16936   2.17645   2.18027   2.19059   2.19914
 Alpha virt. eigenvalues --    2.20937   2.21435   2.22177   2.22978   2.23316
 Alpha virt. eigenvalues --    2.23888   2.24459   2.24761   2.26537   2.27256
 Alpha virt. eigenvalues --    2.27615   2.28128   2.28738   2.29108   2.29491
 Alpha virt. eigenvalues --    2.30169   2.31545   2.31972   2.32232   2.33373
 Alpha virt. eigenvalues --    2.33586   2.34110   2.35067   2.35587   2.35788
 Alpha virt. eigenvalues --    2.36248   2.37184   2.37594   2.38857   2.39837
 Alpha virt. eigenvalues --    2.40438   2.41029   2.41587   2.42924   2.43432
 Alpha virt. eigenvalues --    2.44502   2.45045   2.46024   2.47131   2.47509
 Alpha virt. eigenvalues --    2.48139   2.49079   2.49448   2.50400   2.51396
 Alpha virt. eigenvalues --    2.52057   2.52310   2.53326   2.54102   2.55014
 Alpha virt. eigenvalues --    2.55721   2.56527   2.57161   2.57465   2.58109
 Alpha virt. eigenvalues --    2.58421   2.58467   2.59282   2.59668   2.60312
 Alpha virt. eigenvalues --    2.60891   2.61484   2.62863   2.63367   2.63940
 Alpha virt. eigenvalues --    2.64685   2.65212   2.65970   2.66542   2.67227
 Alpha virt. eigenvalues --    2.67938   2.68266   2.69120   2.69605   2.70219
 Alpha virt. eigenvalues --    2.71030   2.71756   2.72007   2.72273   2.72966
 Alpha virt. eigenvalues --    2.74075   2.74686   2.76017   2.76664   2.77126
 Alpha virt. eigenvalues --    2.77755   2.77820   2.78945   2.80517   2.81373
 Alpha virt. eigenvalues --    2.81674   2.82458   2.82839   2.83389   2.85030
 Alpha virt. eigenvalues --    2.85947   2.86319   2.87559   2.88341   2.89227
 Alpha virt. eigenvalues --    2.90204   2.90431   2.91736   2.92638   2.93437
 Alpha virt. eigenvalues --    2.93984   2.95279   2.95943   2.96625   2.97010
 Alpha virt. eigenvalues --    2.97241   2.98069   2.99029   2.99758   3.00125
 Alpha virt. eigenvalues --    3.01912   3.02546   3.03132   3.03307   3.04407
 Alpha virt. eigenvalues --    3.04972   3.05212   3.05903   3.06726   3.07242
 Alpha virt. eigenvalues --    3.07973   3.08455   3.09136   3.09664   3.10134
 Alpha virt. eigenvalues --    3.10467   3.10719   3.11763   3.12850   3.13162
 Alpha virt. eigenvalues --    3.13850   3.14607   3.15150   3.15898   3.16010
 Alpha virt. eigenvalues --    3.16714   3.17553   3.17971   3.18368   3.19283
 Alpha virt. eigenvalues --    3.19589   3.19945   3.20581   3.21813   3.22319
 Alpha virt. eigenvalues --    3.22476   3.23158   3.23996   3.24653   3.26041
 Alpha virt. eigenvalues --    3.26261   3.26986   3.27444   3.28382   3.29102
 Alpha virt. eigenvalues --    3.29568   3.30207   3.30256   3.31113   3.31282
 Alpha virt. eigenvalues --    3.31421   3.32699   3.33522   3.33901   3.34008
 Alpha virt. eigenvalues --    3.34910   3.36076   3.36299   3.36666   3.37575
 Alpha virt. eigenvalues --    3.38005   3.38277   3.38582   3.39430   3.39653
 Alpha virt. eigenvalues --    3.40381   3.40948   3.41813   3.42797   3.43195
 Alpha virt. eigenvalues --    3.43900   3.44264   3.44574   3.45279   3.45935
 Alpha virt. eigenvalues --    3.47042   3.47501   3.48057   3.48437   3.49025
 Alpha virt. eigenvalues --    3.49903   3.50831   3.51470   3.51659   3.52595
 Alpha virt. eigenvalues --    3.54082   3.54440   3.55053   3.55817   3.56287
 Alpha virt. eigenvalues --    3.57316   3.58151   3.58465   3.59098   3.60921
 Alpha virt. eigenvalues --    3.61543   3.62933   3.63914   3.64196   3.65136
 Alpha virt. eigenvalues --    3.66242   3.66467   3.67740   3.68138   3.68810
 Alpha virt. eigenvalues --    3.69977   3.71529   3.72614   3.73240   3.73689
 Alpha virt. eigenvalues --    3.74763   3.76287   3.76369   3.76903   3.77621
 Alpha virt. eigenvalues --    3.78631   3.79631   3.79844   3.79949   3.81933
 Alpha virt. eigenvalues --    3.82362   3.83914   3.84783   3.87150   3.88906
 Alpha virt. eigenvalues --    3.89721   3.91155   3.91996   3.92627   3.93099
 Alpha virt. eigenvalues --    3.93845   3.95317   3.97210   3.97730   3.98689
 Alpha virt. eigenvalues --    4.00680   4.01567   4.03663   4.04645   4.06687
 Alpha virt. eigenvalues --    4.07873   4.08446   4.09530   4.10770   4.11379
 Alpha virt. eigenvalues --    4.11845   4.13223   4.13807   4.14438   4.16555
 Alpha virt. eigenvalues --    4.17812   4.20176   4.21168   4.21314   4.23154
 Alpha virt. eigenvalues --    4.24395   4.26660   4.27180   4.27950   4.28975
 Alpha virt. eigenvalues --    4.30329   4.33009   4.35052   4.35854   4.38313
 Alpha virt. eigenvalues --    4.39275   4.39856   4.39976   4.41199   4.41601
 Alpha virt. eigenvalues --    4.43545   4.44040   4.45355   4.48631   4.49643
 Alpha virt. eigenvalues --    4.50902   4.51343   4.53548   4.56440   4.56475
 Alpha virt. eigenvalues --    4.59282   4.60010   4.65655   4.66167   4.67720
 Alpha virt. eigenvalues --    4.68925   4.70827   4.72202   4.74422   4.75570
 Alpha virt. eigenvalues --    4.76400   4.77673   4.78487   4.79578   4.80490
 Alpha virt. eigenvalues --    4.84250   4.86796   4.87734   4.89237   4.92382
 Alpha virt. eigenvalues --    4.93690   4.94374   4.96691   4.97779   4.98726
 Alpha virt. eigenvalues --    4.99339   5.00817   5.01769   5.04675   5.06299
 Alpha virt. eigenvalues --    5.08583   5.12723   5.13444   5.17425   5.19730
 Alpha virt. eigenvalues --    5.22512   5.22960   5.23626   5.24956   5.28438
 Alpha virt. eigenvalues --    5.29440   5.30933   5.31313   5.34311   5.35483
 Alpha virt. eigenvalues --    5.37265   5.41200   5.42977   5.44382   5.46937
 Alpha virt. eigenvalues --    5.47091   5.49323   5.53711   5.57373   5.58002
 Alpha virt. eigenvalues --    5.62660   5.65877   5.74263   5.75803   5.77587
 Alpha virt. eigenvalues --    5.78915   5.79682   5.82857   5.84056   5.86013
 Alpha virt. eigenvalues --    5.87605   5.88458   5.90258   5.92506   5.93543
 Alpha virt. eigenvalues --    5.97856   6.02337   6.07440   6.16749   6.20368
 Alpha virt. eigenvalues --    6.22670   6.25558   6.28374   6.31325   6.33756
 Alpha virt. eigenvalues --    6.37721   6.44150   6.44721   6.47587   6.52335
 Alpha virt. eigenvalues --    6.56254   6.58858   6.69500   6.73107   6.74598
 Alpha virt. eigenvalues --    6.78862   6.81169   6.82546   6.86118   6.86300
 Alpha virt. eigenvalues --    6.87350   6.92188   6.98784   7.00946   7.07010
 Alpha virt. eigenvalues --    7.07892   7.08679   7.09523   7.15825   7.24381
 Alpha virt. eigenvalues --    7.25567   7.33329   8.99498   9.39079   9.51746
 Alpha virt. eigenvalues --   19.85982  22.28507  22.42180  22.48460  22.49149
 Alpha virt. eigenvalues --   22.63893  22.66130  22.66442  22.72341  22.80501
 Alpha virt. eigenvalues --   22.86053  22.91316  23.00616  23.03151  23.05538
 Alpha virt. eigenvalues --   23.19073  23.47891  32.14797  33.18167  44.12590
 Alpha virt. eigenvalues --   44.18281  44.23561  44.27677  44.57206
          Condensed to atoms (all electrons):
               1          2          3          4          5          6
     1  C    5.116261   0.420886   0.413618  -0.017619  -0.000008  -0.000127
     2  H    0.420886   0.509789  -0.022688  -0.001527   0.000417  -0.000005
     3  H    0.413618  -0.022688   0.541007   0.001575  -0.000018  -0.000007
     4  C   -0.017619  -0.001527   0.001575   5.648967   0.470531   0.234757
     5  H   -0.000008   0.000417  -0.000018   0.470531   0.548615  -0.031135
     6  O   -0.000127  -0.000005  -0.000007   0.234757  -0.031135   8.017406
     7  H   -0.000001  -0.000009   0.000004  -0.064633  -0.003284   0.293843
     8  C    0.010561   0.013653  -0.010342  -0.167438  -0.079840  -0.051754
     9  H    0.010486   0.000029  -0.002129  -0.135980   0.003291   0.002126
    10  O    0.007559  -0.000366   0.000319  -0.045248   0.002153   0.000812
    11  H   -0.000626  -0.000196   0.000483   0.012181  -0.000889  -0.000552
    12  C   -0.002896  -0.000146   0.001153  -0.048324  -0.051455  -0.000371
    13  H   -0.000219   0.000045   0.000126  -0.110654   0.005874   0.000596
    14  C    0.181226  -0.048324  -0.040041   0.153511   0.017899   0.009377
    15  H   -0.073395  -0.006751  -0.003103  -0.014834  -0.000157   0.000057
    16  O   -0.034089   0.000775   0.005239  -0.084627  -0.003394   0.005701
    17  N    0.000115  -0.000101  -0.000033   0.032426  -0.016031  -0.007874
    18  C   -0.001070  -0.000007   0.000007   0.005596  -0.005186   0.004206
    19  H    0.000018  -0.000059   0.000041  -0.014824  -0.003141   0.001384
    20  C   -0.000029   0.000005  -0.000002   0.004791   0.005632  -0.002790
    21  H    0.000004   0.000000  -0.000000   0.000007   0.000146  -0.000048
    22  C   -0.000010  -0.000000   0.000000   0.000718  -0.000221   0.000149
    23  H   -0.000000   0.000000   0.000000   0.000037   0.000005   0.000001
    24  H    0.000000  -0.000000  -0.000000  -0.000427  -0.000050  -0.000003
    25  C   -0.000062  -0.000006   0.000001  -0.002380  -0.000629  -0.000397
    26  C   -0.000286   0.000024  -0.000003   0.026018  -0.000773  -0.003023
    27  H   -0.000012   0.000001  -0.000000   0.000785  -0.000045   0.000118
    28  C    0.000000  -0.000000  -0.000000   0.000125  -0.000006  -0.000021
    29  O   -0.000000   0.000000  -0.000000   0.000001   0.000000  -0.000000
    30  N   -0.000000  -0.000000   0.000000   0.000002  -0.000000  -0.000000
    31  H   -0.000000   0.000000   0.000000   0.000000   0.000000  -0.000000
    32  H    0.000000   0.000000  -0.000000   0.000000   0.000000   0.000000
    33  C    0.000000  -0.000000   0.000000  -0.000286  -0.000352  -0.013357
    34  C    0.000001  -0.000000  -0.000000   0.000222   0.000033  -0.001068
    35  C    0.000000   0.000000  -0.000000  -0.000047   0.000081   0.000133
    36  C   -0.000000   0.000000   0.000000  -0.000000   0.000000   0.000001
    37  C   -0.000000   0.000000   0.000000   0.000284  -0.000003   0.000066
    38  O    0.000000   0.000000  -0.000000  -0.000152  -0.000059  -0.015926
    39  S   -0.000000  -0.000000  -0.000000   0.000504   0.000017   0.000794
    40  H   -0.000000   0.000000  -0.000000   0.000178   0.000021   0.000235
    41  H   -0.000001   0.000000  -0.000000  -0.004187   0.000537   0.015084
    42  H    0.000000   0.000000  -0.000000  -0.000000   0.000000  -0.000000
    43  H    0.000000  -0.000000  -0.000000   0.000000  -0.000000  -0.000000
    44  H   -0.000000  -0.000000  -0.000000  -0.000000  -0.000000  -0.000000
    45  H   -0.000000  -0.000000   0.000000   0.000021   0.000003   0.000012
    46  H    0.000000  -0.000000  -0.000000  -0.000034   0.000000   0.000010
    47  H    0.380791  -0.021970  -0.025172   0.002982  -0.001097   0.000055
    48  H    0.000000   0.000000  -0.000000   0.000068   0.000002   0.000420
               7          8          9         10         11         12
     1  C   -0.000001   0.010561   0.010486   0.007559  -0.000626  -0.002896
     2  H   -0.000009   0.013653   0.000029  -0.000366  -0.000196  -0.000146
     3  H    0.000004  -0.010342  -0.002129   0.000319   0.000483   0.001153
     4  C   -0.064633  -0.167438  -0.135980  -0.045248   0.012181  -0.048324
     5  H   -0.003284  -0.079840   0.003291   0.002153  -0.000889  -0.051455
     6  O    0.293843  -0.051754   0.002126   0.000812  -0.000552  -0.000371
     7  H    0.440066   0.003044  -0.000963  -0.001243   0.000290  -0.003970
     8  C    0.003044   5.594322   0.536536   0.262875  -0.040504   0.016812
     9  H   -0.000963   0.536536   0.572033  -0.057107  -0.001632   0.016468
    10  O   -0.001243   0.262875  -0.057107   8.037713   0.288813  -0.014555
    11  H    0.000290  -0.040504  -0.001632   0.288813   0.427726  -0.001610
    12  C   -0.003970   0.016812   0.016468  -0.014555  -0.001610   5.587127
    13  H   -0.003118   0.019347   0.002949   0.016466  -0.001595   0.482042
    14  C   -0.000084   0.036575  -0.110785  -0.048013  -0.005021  -0.105171
    15  H    0.000136  -0.038351   0.011396  -0.007383   0.005826   0.000553
    16  O    0.001638  -0.043441   0.004955   0.007815   0.000348   0.281215
    17  N    0.020819   0.000442  -0.001087  -0.000685   0.000044   0.121572
    18  C   -0.002678  -0.005104  -0.000502  -0.000550   0.000021  -0.113590
    19  H    0.000669   0.001229   0.000047  -0.000006   0.000005   0.018062
    20  C   -0.001277  -0.002030   0.000007   0.000010  -0.000001   0.019593
    21  H    0.000008  -0.000008   0.000000   0.000000  -0.000000   0.000557
    22  C    0.000381  -0.000005  -0.000003  -0.000004   0.000000  -0.013333
    23  H   -0.000027   0.000000   0.000000   0.000000  -0.000000   0.000078
    24  H    0.000833   0.000013  -0.000000   0.000000   0.000000   0.000731
    25  C   -0.001162  -0.000228  -0.000002  -0.000048   0.000001  -0.025318
    26  C   -0.003398  -0.003559  -0.000139  -0.000834  -0.000041  -0.078578
    27  H    0.000177  -0.000083  -0.000007  -0.000115   0.000006  -0.000742
    28  C    0.000086   0.000006   0.000000  -0.000000  -0.000000  -0.001958
    29  O    0.000022   0.000001   0.000000  -0.000000  -0.000000   0.000378
    30  N   -0.000000  -0.000000  -0.000000  -0.000000  -0.000000  -0.000022
    31  H   -0.000000  -0.000000   0.000000  -0.000000  -0.000000  -0.000005
    32  H   -0.000000  -0.000000  -0.000000  -0.000000  -0.000000  -0.000005
    33  C    0.005300   0.000755   0.000003  -0.000565   0.000044  -0.000787
    34  C   -0.001436  -0.000099  -0.000001   0.000024  -0.000002  -0.001846
    35  C    0.001711  -0.000063  -0.000000   0.000001  -0.000000   0.001576
    36  C   -0.000008  -0.000000  -0.000000  -0.000000  -0.000000   0.000017
    37  C   -0.001475   0.000003  -0.000000  -0.000000   0.000000  -0.000760
    38  O    0.025638   0.000030   0.000004   0.000003  -0.000000  -0.001683
    39  S   -0.002327  -0.000020  -0.000000  -0.000002  -0.000000  -0.000243
    40  H   -0.001536  -0.000015  -0.000000   0.000009  -0.000001   0.000026
    41  H   -0.001426  -0.001791   0.000035   0.001912  -0.000147   0.001905
    42  H    0.000001   0.000000  -0.000000   0.000000  -0.000000  -0.000000
    43  H    0.000001   0.000000  -0.000000   0.000000   0.000000   0.000002
    44  H    0.000000  -0.000000  -0.000000   0.000000   0.000000  -0.000000
    45  H   -0.000128  -0.000000   0.000000  -0.000000  -0.000000  -0.000017
    46  H    0.000051  -0.000001  -0.000000   0.000000   0.000000   0.000165
    47  H    0.000042  -0.016420   0.001530   0.000104   0.000144  -0.001060
    48  H   -0.000208  -0.000005   0.000001   0.000005  -0.000001  -0.000011
              13         14         15         16         17         18
     1  C   -0.000219   0.181226  -0.073395  -0.034089   0.000115  -0.001070
     2  H    0.000045  -0.048324  -0.006751   0.000775  -0.000101  -0.000007
     3  H    0.000126  -0.040041  -0.003103   0.005239  -0.000033   0.000007
     4  C   -0.110654   0.153511  -0.014834  -0.084627   0.032426   0.005596
     5  H    0.005874   0.017899  -0.000157  -0.003394  -0.016031  -0.005186
     6  O    0.000596   0.009377   0.000057   0.005701  -0.007874   0.004206
     7  H   -0.003118  -0.000084   0.000136   0.001638   0.020819  -0.002678
     8  C    0.019347   0.036575  -0.038351  -0.043441   0.000442  -0.005104
     9  H    0.002949  -0.110785   0.011396   0.004955  -0.001087  -0.000502
    10  O    0.016466  -0.048013  -0.007383   0.007815  -0.000685  -0.000550
    11  H   -0.001595  -0.005021   0.005826   0.000348   0.000044   0.000021
    12  C    0.482042  -0.105171   0.000553   0.281215   0.121572  -0.113590
    13  H    0.517089  -0.008972   0.006429  -0.039857  -0.070320   0.013359
[...]
      5        1           0.003816980    0.004140232    0.001450592
      6        8           0.007682071    0.001423781   -0.005764370
      7        1          -0.004643039   -0.005157619    0.004356848
      8        6          -0.003712366   -0.011474373   -0.001092547
      9        1          -0.001054277    0.005339209   -0.003989183
     10        8           0.026738973    0.001744475   -0.005153856
     11        1          -0.024466511    0.004553269    0.007670291
     12        6           0.001938837    0.006551113    0.006606519
     13        1          -0.001469279   -0.002016059   -0.002252746
     14        6           0.008289751   -0.001399144    0.001558542
     15        1          -0.003579497    0.002935218    0.001153129
     16        8           0.003130653   -0.003874495   -0.006812923
     17        7           0.002271833    0.004559035   -0.004532046
     18        6          -0.010629486   -0.002779579   -0.003483015
     19        1          -0.001299015    0.006914471   -0.000329518
     20        6           0.006329915   -0.004948036    0.000961724
     21        1           0.002769291    0.005348537    0.000863141
     22        6          -0.019214827    0.015885494    0.022452016
     23        1           0.003655892   -0.001343974    0.004833468
     24        1           0.019796150   -0.037730530   -0.038507672
     25        6           0.005885919    0.001075899   -0.000706829
     26        6          -0.004832633   -0.001400348   -0.002553540
     27        1          -0.005914016   -0.004201163    0.002960533
     28        6           0.018832343   -0.002558497    0.019720389
     29        8          -0.005913983   -0.004650029   -0.006191506
     30        7          -0.007398272    0.000843565   -0.026257388
     31        1          -0.005117887   -0.006607020    0.006660868
     32        1           0.006477295    0.011203156    0.009757506
     33        6          -0.006140178   -0.012882464   -0.002345177
     34        6           0.000691518   -0.016028860    0.010607908
     35        6          -0.009477346    0.000252410   -0.011313504
     36        6          -0.001641823    0.001121825   -0.004486717
     37        6           0.003110428    0.023774405    0.022971716
     38        8           0.001979186    0.013246136   -0.006775127
     39       16           0.005955627    0.003429047    0.001561165
     40        1           0.005498701    0.002690558   -0.003348332
     41        1          -0.001937126    0.005474205    0.004968997
     42        1          -0.001748067    0.000264645    0.003252199
     43        1          -0.003290091   -0.003709047    0.003732237
     44        1           0.006562190   -0.001872149   -0.001798089
     45        1           0.002942049    0.003939207   -0.004454803
     46        1          -0.004055913   -0.005089080    0.004161809
     47        1           0.001406301   -0.004555084   -0.001133492
     48        1          -0.002053604    0.003259956   -0.004591466
 -------------------------------------------------------------------
 Cartesian Forces:  Max     0.038507672 RMS     0.009049005
 Leave Link  716 at Sun Feb 19 04:28:03 2023, MaxMem=  2684354560 cpu:               0.4 elap:               0.0
 (Enter /storage/apps/GAUSSIAN/G16_RevA03/g16/l103.exe)

 GradGradGradGradGradGradGradGradGradGradGradGradGradGradGradGradGradGrad
 Berny optimization.
 Search for a local minimum.
 Step number   1 out of a maximum of    2
 All quantities printed in internal units (Hartrees-Bohrs-Radians)
 Second derivative matrix not updated -- first step.
 ITU=  0
     Eigenvalues ---    0.00051   0.00072   0.00110   0.00136   0.00183
     Eigenvalues ---    0.00266   0.00345   0.00387   0.00452   0.00489
     Eigenvalues ---    0.00556   0.00782   0.00817   0.00891   0.01027
     Eigenvalues ---    0.01041   0.01152   0.01373   0.01424   0.01691
     Eigenvalues ---    0.01735   0.01925   0.01971   0.02469   0.02783
     Eigenvalues ---    0.02921   0.03202   0.03222   0.03507   0.04012
     Eigenvalues ---    0.04217   0.04535   0.04814   0.04949   0.05078
     Eigenvalues ---    0.05189   0.05293   0.05573   0.05763   0.05992
     Eigenvalues ---    0.06126   0.06170   0.06372   0.06538   0.06912
     Eigenvalues ---    0.07008   0.07309   0.07517   0.07814   0.08268
     Eigenvalues ---    0.08643   0.08988   0.09631   0.09924   0.10447
     Eigenvalues ---    0.10772   0.11406   0.12171   0.12264   0.12476
     Eigenvalues ---    0.12723   0.12825   0.12919   0.13307   0.13619
     Eigenvalues ---    0.13761   0.14295   0.15276   0.15662   0.16606
     Eigenvalues ---    0.17011   0.17450   0.18301   0.18943   0.19125
     Eigenvalues ---    0.19832   0.20783   0.21419   0.21876   0.24492
     Eigenvalues ---    0.26645   0.26748   0.27576   0.30676   0.31731
     Eigenvalues ---    0.32415   0.34370   0.34642   0.36717   0.37080
     Eigenvalues ---    0.37080   0.37080   0.37080   0.37080   0.39487
     Eigenvalues ---    0.41689   0.43398   0.47364   0.53451   0.54845
     Eigenvalues ---    0.60183   0.64499   0.67136   0.69126   0.71900
     Eigenvalues ---    0.72103   0.79144   0.81306   0.87225   0.87625
     Eigenvalues ---    0.88920   0.89721   0.91948   0.92058   0.92400
     Eigenvalues ---    0.93027   0.96226   0.97433   0.99031   1.00175
     Eigenvalues ---    1.02332   1.06372   1.08270   1.10726   1.13275
     Eigenvalues ---    1.15697   1.16223   1.19869   1.26629   1.29808
     Eigenvalues ---    1.36797   1.41272   1.48335   1.50506   1.63210
     Eigenvalues ---    1.73668   2.09932   2.22736
 Quadratic step=7.481D+00 exceeds max=3.000D-01 adjusted using Lamda=-7.941D-02.
 Angle between NR and scaled steps=  69.45 degrees.
 Angle between quadratic step and forces=  45.86 degrees.
 Linear search not attempted -- first point.
 Variable       Old X    -DE/DX   Delta X   Delta X   Delta X     New X
                                 (Linear)    (Quad)   (Total)
    X1        6.46935  -0.00123   0.00000  -0.02188  -0.02188   6.44747
    Y1       -7.02794   0.00873   0.00000   0.01493   0.01493  -7.01301
    Z1       -1.08842  -0.00040   0.00000   0.00560   0.00560  -1.08282
    X2        6.62787  -0.00068   0.00000  -0.02145  -0.02145   6.60642
    Y2       -7.32492  -0.00063   0.00000   0.00027   0.00027  -7.32465
    Z2       -3.13688   0.00661   0.00000   0.02123   0.02123  -3.11565
    X3        8.17760  -0.00651   0.00000  -0.03869  -0.03869   8.13892
    Y3       -7.73857  -0.00141   0.00000  -0.01587  -0.01587  -7.75444
    Z3       -0.14181  -0.00331   0.00000  -0.01568  -0.01568  -0.15749
    X4        2.96865  -0.00775   0.00000  -0.00107  -0.00107   2.96758
    Y4       -2.69393  -0.00238   0.00000   0.00789   0.00789  -2.68604
    Z4        2.12081   0.00271   0.00000   0.00280   0.00280   2.12360
    X5        1.80860   0.00382   0.00000   0.00874   0.00874   1.81734
    Y5       -4.41607   0.00414   0.00000   0.01659   0.01659  -4.39948
    Z5        1.86589   0.00145   0.00000   0.01986   0.01986   1.88575
    X6        2.05724   0.00768   0.00000   0.04363   0.04363   2.10087
    Y6       -1.25877   0.00142   0.00000   0.02151   0.02151  -1.23726
    Z6        4.13712  -0.00576   0.00000   0.00003   0.00003   4.13715
    X7        0.89590  -0.00464   0.00000  -0.03417  -0.03417   0.86172
    Y7        0.00538  -0.00516   0.00000  -0.03221  -0.03221  -0.02682
    Z7        3.47887   0.00436   0.00000   0.03970   0.03970   3.51858
    X8        5.72144  -0.00371   0.00000  -0.00169  -0.00169   5.71975
    Y8       -3.55020  -0.01147   0.00000  -0.00046  -0.00046  -3.55065
    Z8        2.29055  -0.00109   0.00000  -0.00584  -0.00584   2.28471
    X9        5.95573  -0.00105   0.00000  -0.00277  -0.00277   5.95296
    Y9       -5.22331   0.00534   0.00000   0.01441   0.01441  -5.20890
    Z9        3.51891  -0.00399   0.00000  -0.01378  -0.01378   3.50513
   X10        7.20200   0.02674   0.00000   0.01334   0.01334   7.21534
   Y10       -1.53526   0.00174   0.00000   0.00805   0.00805  -1.52721
   Z10        3.14901  -0.00515   0.00000  -0.00719  -0.00719   3.14183
   X11        8.98315  -0.02447   0.00000  -0.02991  -0.02991   8.95325
   Y11       -1.86266   0.00455   0.00000   0.00608   0.00608  -1.85657
   Z11        2.68354   0.00767   0.00000   0.01119   0.01119   2.69473
   X12        3.03344   0.00194   0.00000   0.00171   0.00171   3.03515
   Y12       -1.32059   0.00655   0.00000   0.00632   0.00632  -1.31427
   Z12       -0.41455   0.00661   0.00000   0.00130   0.00130  -0.41325
   X13        4.16185  -0.00147   0.00000   0.00037   0.00037   4.16222
   Y13        0.41105  -0.00202   0.00000   0.00186   0.00186   0.41291
   Z13       -0.17281  -0.00225   0.00000  -0.01713  -0.01713  -0.18994
   X14        6.25155   0.00829   0.00000   0.00819   0.00819   6.25974
   Y14       -4.21496  -0.00140   0.00000   0.00595   0.00595  -4.20902
   Z14       -0.53075   0.00156   0.00000   0.00237   0.00237  -0.52838
   X15        8.06063  -0.00358   0.00000  -0.00918  -0.00918   8.05145
   Y15       -3.33901   0.00294   0.00000   0.02354   0.02354  -3.31547
   Z15       -1.07465   0.00115   0.00000   0.00034   0.00034  -1.07431
   X16        4.26907   0.00313   0.00000   0.00721   0.00721   4.27628
   Y16       -3.08555  -0.00387   0.00000  -0.00214  -0.00214  -3.08769
   Z16       -1.97334  -0.00681   0.00000  -0.00664  -0.00664  -1.97998
   X17        0.62148   0.00227   0.00000  -0.00159  -0.00159   0.61989
   Y17       -0.58117   0.00456   0.00000   0.00003   0.00003  -0.58114
   Z17       -1.37985  -0.00453   0.00000  -0.00870  -0.00870  -1.38855
   X18       -1.30561  -0.01063   0.00000  -0.01130  -0.01130  -1.31691
   Y18       -2.36702  -0.00278   0.00000   0.00412   0.00412  -2.36289
   Z18       -1.59071  -0.00348   0.00000  -0.00224  -0.00224  -1.59295
   X19       -0.79537  -0.00130   0.00000  -0.01172  -0.01172  -0.80708
   Y19       -4.30186   0.00691   0.00000   0.02648   0.02648  -4.27538
   Z19       -1.10935  -0.00033   0.00000   0.01692   0.01692  -1.09243
   X20       -3.60243   0.00633   0.00000   0.00546   0.00546  -3.59697
   Y20       -1.76207  -0.00495   0.00000  -0.00497  -0.00497  -1.76704
   Z20       -2.46811   0.00096   0.00000  -0.00555  -0.00555  -2.47367
   X21       -4.99033   0.00277   0.00000  -0.00248  -0.00248  -4.99281
   Y21       -3.26734   0.00535   0.00000   0.02102   0.02102  -3.24632
   Z21       -2.67743   0.00086   0.00000   0.01713   0.01713  -2.66030
   X22       -4.22347  -0.01921   0.00000   0.00316   0.00316  -4.22031
   Y22        0.88741   0.01589   0.00000  -0.01786  -0.01786   0.86955
   Z22       -3.22321   0.02245   0.00000  -0.00854  -0.00854  -3.23175
   X23       -5.59405   0.00366   0.00000   0.00415   0.00415  -5.58990
   Y23        0.96136  -0.00134   0.00000  -0.00670  -0.00670   0.95466
   Z23       -4.78703   0.00483   0.00000   0.01407   0.01407  -4.77296
   X24       -5.24627   0.01980   0.00000   0.05433   0.05433  -5.19194
   Y24        2.09477  -0.03773   0.00000  -0.16665  -0.16665   1.92812
   Z24       -1.51242  -0.03851   0.00000  -0.11436  -0.11436  -1.62678
   X25       -1.87788   0.00589   0.00000   0.00382   0.00382  -1.87406
   Y25        2.35889   0.00108   0.00000  -0.00592  -0.00592   2.35297
   Z25       -3.73177  -0.00071   0.00000   0.00345   0.00345  -3.72832
   X26        0.34835  -0.00483   0.00000  -0.01085  -0.01085   0.33750
   Y26        1.67736  -0.00140   0.00000  -0.00951  -0.00951   1.66785
   Z26       -2.68615  -0.00255   0.00000  -0.00128  -0.00128  -2.68743
   X27        2.03830  -0.00591   0.00000  -0.02266  -0.02266   2.01564
   Y27        2.84019  -0.00420   0.00000  -0.01254  -0.01254   2.82765
   Z27       -2.92907   0.00296   0.00000   0.01900   0.01900  -2.91007
   X28       -1.98567   0.01883   0.00000   0.02347   0.02347  -1.96220
   Y28        4.75554  -0.00256   0.00000  -0.00942  -0.00942   4.74612
   Z28       -5.21508   0.01972   0.00000   0.01630   0.01630  -5.19878
   X29       -0.61944  -0.00591   0.00000   0.00956   0.00956  -0.60988
   Y29        6.55350  -0.00465   0.00000  -0.00321  -0.00321   6.55029
   Z29       -4.72283  -0.00619   0.00000  -0.01173  -0.01173  -4.73456
   X30       -3.72448  -0.00740   0.00000   0.01586   0.01586  -3.70862
   Y30        4.85542   0.00084   0.00000   0.00791   0.00791   4.86333
   Z30       -7.09812  -0.02626   0.00000  -0.00883  -0.00883  -7.10695
   X31       -3.39357  -0.00512   0.00000  -0.02615  -0.02615  -3.41972
   Y31        6.31439  -0.00661   0.00000   0.00616   0.00616   6.32055
   Z31       -8.31920   0.00666   0.00000   0.01083   0.01083  -8.30837
   X32       -4.37673   0.00648   0.00000   0.01689   0.01689  -4.35984
   Y32        3.23436   0.01120   0.00000   0.02452   0.02452   3.25888
   Z32       -7.93556   0.00976   0.00000   0.03134   0.03134  -7.90422
   X33        0.96656  -0.00614   0.00000  -0.01999  -0.01999   0.94657
   Y33        4.16509  -0.01288   0.00000  -0.02466  -0.02466   4.14043
   Z33        7.28176  -0.00235   0.00000  -0.01140  -0.01140   7.27036
   X34       -2.15617   0.00069   0.00000  -0.00423  -0.00423  -2.16039
   Y34        4.22927  -0.01603   0.00000  -0.01239  -0.01239   4.21687
   Z34        3.11670   0.01061   0.00000   0.00771   0.00771   3.12441
   X35       -3.43894  -0.00948   0.00000  -0.01211  -0.01211  -3.45105
   Y35        5.47041   0.00025   0.00000   0.01318   0.01318   5.48358
   Z35        1.01269  -0.01131   0.00000   0.01312   0.01312   1.02581
   X36       -7.18573  -0.00164   0.00000  -0.00044  -0.00044  -7.18618
   Y36        6.13087   0.00112   0.00000  -0.00374  -0.00374   6.12713
   Z36       -1.75090  -0.00449   0.00000  -0.00690  -0.00690  -1.75780
   X37       -5.72232   0.00311   0.00000  -0.02885  -0.02885  -5.75117
   Y37        4.65005   0.02377   0.00000   0.08511   0.08511   4.73516
   Z37        0.18517   0.02297   0.00000   0.07266   0.07266   0.25782
   X38       -2.39124   0.00198   0.00000   0.00287   0.00287  -2.38838
   Y38        1.99365   0.01325   0.00000  -0.00763  -0.00763   1.98602
   Z38        3.67526  -0.00678   0.00000  -0.02929  -0.02929   3.64597
   X39       -0.28136   0.00596   0.00000   0.01003   0.01003  -0.27133
   Y39        6.31004   0.00343   0.00000  -0.01146  -0.01146   6.29858
   Z39        4.93182   0.00156   0.00000  -0.00380  -0.00380   4.92802
   X40       -0.61388   0.00550   0.00000   0.00144   0.00144  -0.61244
   Y40        3.30709   0.00269   0.00000  -0.00979  -0.00979   3.29730
   Z40        8.31920  -0.00335   0.00000  -0.00812  -0.00812   8.31107
   X41        2.03709  -0.00194   0.00000   0.00510   0.00510   2.04219
   Y41        2.65800   0.00547   0.00000   0.00069   0.00069   2.65868
   Z41        6.33839   0.00497   0.00000   0.01889   0.01889   6.35727
   X42       -7.63237  -0.00175   0.00000   0.00788   0.00788  -7.62449
   Y42        4.98701   0.00026   0.00000  -0.03413  -0.03413   4.95289
   Z42       -3.41743   0.00325   0.00000   0.01636   0.01636  -3.40106
   X43       -6.06787  -0.00329   0.00000  -0.00443  -0.00443  -6.07231
   Y43        7.73857  -0.00371   0.00000  -0.01864  -0.01864   7.71993
   Z43       -2.44159   0.00373   0.00000  -0.00523  -0.00523  -2.44682
   X44       -8.98315   0.00656   0.00000   0.01322   0.01322  -8.96993
   Y44        6.82174  -0.00187   0.00000  -0.00516  -0.00516   6.81658
   Z44       -0.95987  -0.00180   0.00000  -0.02810  -0.02810  -0.98797
   X45       -6.71147   0.00294   0.00000   0.00098   0.00098  -6.71049
   Y45        3.23887   0.00394   0.00000   0.03564   0.03564   3.27450
   Z45        1.33732  -0.00445   0.00000   0.01009   0.01009   1.34741
   X46       -2.48682  -0.00406   0.00000  -0.00411  -0.00411  -2.49093
   Y46        7.06738  -0.00509   0.00000  -0.01750  -0.01750   7.04988
   Z46        0.10167   0.00416   0.00000   0.00844   0.00844   0.11011
   X47        4.78834   0.00141   0.00000  -0.00798  -0.00798   4.78036
   Y47       -7.97521  -0.00456   0.00000  -0.01764  -0.01764  -7.99285
   Z47       -0.36755  -0.00113   0.00000  -0.00452  -0.00452  -0.37207
   X48        2.18818  -0.00205   0.00000  -0.02891  -0.02891   2.15928
   Y48        5.17431   0.00326   0.00000   0.01854   0.01854   5.19285
   Z48        8.59778  -0.00459   0.00000  -0.03654  -0.03654   8.56123
         Item               Value     Threshold  Converged?
 Maximum Force            0.038508     0.000450     NO 
 RMS     Force            0.009049     0.000300     NO 
 Maximum Displacement     0.166646     0.001800     NO 
 RMS     Displacement     0.025045     0.001200     NO 
 Predicted change in Energy=-1.494953D-02
 GradGradGradGradGradGradGradGradGradGradGradGradGradGradGradGradGradGrad

 Leave Link  103 at Sun Feb 19 04:28:03 2023, MaxMem=  2684354560 cpu:               3.2 elap:               0.2
 (Enter /storage/apps/GAUSSIAN/G16_RevA03/g16/l9999.exe)

 Test job not archived.
 1\1\GINC-T005\Force\RM062X\def2TZVP\C16H24N2O5S1\LV87696\19-Feb-2023\0
 \\#P M062X/Def2TZVP scf=(direct,conver=8) EmpiricalDispersion=GD3 NoSy
 mm Force pop=(NBORead) Charge Prop=(Field,Read)\\Gaussian run using SA
 NDER external interface, route from template gau_job.tpl\\0,1\C,3.4234
 300586,-3.7190240399,-0.575968283\H,3.5073202451,-3.8761821096,-1.6599
 639518\H,4.3273998768,-4.0950739547,-0.0750443396\C,1.5709393852,-1.42
 55688603,1.122282512\H,0.9570705841,-2.3368811869,0.9873886649\O,1.088
 6456766,-0.6661125528,2.1892684369\H,0.4740873655,0.0028486738,1.84094
 10615\C,3.0276573243,-1.8786833823,1.2121082023\H,3.151637012,-2.76405
 73866,1.8621248656\O,3.8111331219,-0.8124246323,1.6663844216\H,4.75368
 08141,-0.985674954,1.4200678199\C,1.6052267154,-0.698823529,-0.2193698
 889\H,2.2023550089,0.2175180062,-0.0914485956\C,3.3081773801,-2.230462
 1847,-0.2808619732\H,4.2655014059,-1.7669268977,-0.5686800903\O,2.2590
 939553,-1.6328051469,-1.0442465295\N,0.32887389,-0.307541111,-0.730187
 4885\C,-0.6909003018,-1.2525713257,-0.8417700567\H,-0.4208901271,-2.27
 6446741,-0.5870425885\C,-1.906323914,-0.9324450202,-1.3060691498\H,-2.
 6407706795,-1.7289997348,-1.4168346465\C,-2.2349637863,0.46959475,-1.7
 056485771\H,-2.9602441569,0.5087286559,-2.5331880286\H,-2.776205383,1.
 1085038525,-0.8003372343\C,-0.993733898,1.2482728811,-1.9747681656\C,0
 .1843374371,0.887618461,-1.4214470683\H,1.0786204518,1.5029657023,-1.5
 499983319\C,-1.0507713222,2.5165230384,-2.7596989461\O,-0.3277953,3.46
 79611876,-2.4992129015\N,-1.9709121108,2.5693773151,-3.7561642827\H,-1
 .7957997773,3.3414304171,-4.4023295208\H,-2.3160677258,1.7115509514,-4
 .1993183357\C,0.5114815683,2.204068951,3.8533421168\C,-1.1409956629,2.
 238031176,1.6492871933\C,-1.8198068873,2.8948137297,0.5358908803\C,-3.
 8025255648,3.2443163764,-0.9265376677\C,-3.0281224547,2.4606998828,0.0
 979857606\O,-1.2653922668,1.0549931535,1.9448630682\S,-0.1488900358,3.
 3391287909,2.6098064881\H,-0.3248495574,1.7500340286,4.4023295208\H,1.
 0779791405,1.4065506481,3.3541293876\H,-4.0388760265,2.6390142113,-1.8
 084244385\H,-3.210981154,4.0950739547,-1.292032468\H,-4.7536808141,3.6
 099109165,-0.5079390773\H,-3.5515552816,1.7139343201,0.7076784365\H,-1
 .3159692236,3.7398960173,0.0538001604\H,2.5338783134,-4.2203016433,-0.
 1944994678\H,1.157937457,2.7381245679,4.5497467277\\Version=ES64L-G16R
 evA.03\HF=-1507.8794498\RMSD=4.661e-09\RMSF=9.049e-03\Dipole=-0.007424
 2,-1.1890644,-1.083574\Quadrupole=11.6659369,-9.3799564,-2.2859806,-9.
 2182985,9.1841872,-0.315862\PG=C01 [X(C16H24N2O5S1)]\\@


 A HARD FALL SHOULD MEAN A HIGH BOUNCE 
 IF ONE IS MADE OF THE RIGHT MATERIAL.

                -- THE CHEMIST ANALYST, MARCH 1950
 Job cpu time:       0 days  3 hours 10 minutes 53.4 seconds.
 Elapsed time:       0 days  0 hours 11 minutes 57.0 seconds.
 File lengths (MBytes):  RWF=    435 Int=      0 D2E=      0 Chk=     48 Scr=      1
 Normal termination of Gaussian 16 at Sun Feb 19 04:28:03 2023.
