 Entering Gaussian System, Link 0=g16
 Initial command:
 /storage/apps/GAUSSIAN/G16_RevA03/g16/l1.exe "/scratch/tmp/1267160/Gau-89075.inp" -scrdir="/scratch/tmp/1267160/"
 Entering Link 1 = /storage/apps/GAUSSIAN/G16_RevA03/g16/l1.exe PID=     89076.
  
 Copyright (c) 1988,1990,1992,1993,1995,1998,2003,2009,2016,
            Gaussian, Inc.  All Rights Reserved.
  
 This is part of the Gaussian(R) 16 program.  It is based on
 the Gaussian(R) 09 system (copyright 2009, Gaussian, Inc.),
 the Gaussian(R) 03 system (copyright 2003, Gaussian, Inc.),
 the Gaussian(R) 98 system (copyright 1998, Gaussian, Inc.),
 the Gaussian(R) 94 system (copyright 1995, Gaussian, Inc.),
 the Gaussian 92(TM) system (copyright 1992, Gaussian, Inc.),
 the Gaussian 90(TM) system (copyright 1990, Gaussian, Inc.),
 the Gaussian 88(TM) system (copyright 1988, Gaussian, Inc.),
 the Gaussian 86(TM) system (copyright 1986, Carnegie Mellon
 University), and the Gaussian 82(TM) system (copyright 1983,
 Carnegie Mellon University). Gaussian is a federally registered
 trademark of Gaussian, Inc.
  
 This software contains proprietary and confidential information,
 including trade secrets, belonging to Gaussian, Inc.
  
 This software is provided under written license and may be
 used, copied, transmitted, or stored only in accord with that
 written license.
  
 The following legend is applicable only to US Government
 contracts under FAR:
  
                    RESTRICTED RIGHTS LEGEND
  
 Use, reproduction and disclosure by the US Government is
 subject to restrictions as set forth in subparagraphs (a)
 and (c) of the Commercial Computer Software - Restricted
 Rights clause in FAR 52.227-19.
  
 Gaussian, Inc.
 340 Quinnipiac St., Bldg. 40, Wallingford CT 06492
  
  
 ---------------------------------------------------------------
 Warning -- This program may not be used in any manner that
 competes with the business of Gaussian, Inc. or will provide
 assistance to any competitor of Gaussian, Inc.  The licensee
 of this program is prohibited from giving any competitor of
 Gaussian, Inc. access to this program.  By using this program,
 the user acknowledges that Gaussian, Inc. is engaged in the
 business of creating and licensing software in the field of
 computational chemistry and represents and warrants to the
 licensee that it is not a competitor of Gaussian, Inc. and that
 it will not use this program in any manner prohibited above.
 ---------------------------------------------------------------
  

 Cite this work as:
 Gaussian 16, Revision A.03,
 M. J. Frisch, G. W. Trucks, H. B. Schlegel, G. E. Scuseria, 
 M. A. Robb, J. R. Cheeseman, G. Scalmani, V. Barone, 
 G. A. Petersson, H. Nakatsuji, X. Li, M. Caricato, A. V. Marenich, 
 J. Bloino, B. G. Janesko, R. Gomperts, B. Mennucci, H. P. Hratchian, 
 J. V. Ortiz, A. F. Izmaylov, J. L. Sonnenberg, D. Williams-Young, 
 F. Ding, F. Lipparini, F. Egidi, J. Goings, B. Peng, A. Petrone, 
 T. Henderson, D. Ranasinghe, V. G. Zakrzewski, J. Gao, N. Rega, 
 G. Zheng, W. Liang, M. Hada, M. Ehara, K. Toyota, R. Fukuda, 
 J. Hasegawa, M. Ishida, T. Nakajima, Y. Honda, O. Kitao, H. Nakai, 
 T. Vreven, K. Throssell, J. A. Montgomery, Jr., J. E. Peralta, 
 F. Ogliaro, M. J. Bearpark, J. J. Heyd, E. N. Brothers, K. N. Kudin, 
 V. N. Staroverov, T. A. Keith, R. Kobayashi, J. Normand, 
 K. Raghavachari, A. P. Rendell, J. C. Burant, S. S. Iyengar, 
 J. Tomasi, M. Cossi, J. M. Millam, M. Klene, C. Adamo, R. Cammi, 
 J. W. Ochterski, R. L. Martin, K. Morokuma, O. Farkas, 
 J. B. Foresman, and D. J. Fox, Gaussian, Inc., Wallingford CT, 2016.
 
 ******************************************
 Gaussian 16:  ES64L-G16RevA.03 25-Dec-2016
                19-Feb-2023 
 ******************************************
 %chk=gau_job.chk
 %NProcShared=16
 Will use up to   16 processors via shared memory.
 %mem=20GB
 ----------------------------------------------------------------------
 #P M062X/Def2TZVP scf=(direct,conver=8) EmpiricalDispersion=GD3 NoSymm
  Force pop=(NBORead) Charge Prop=(Field,Read)
 ----------------------------------------------------------------------
 1/10=7,18=10,28=-2,30=1,38=1,125=101/1,3;
 2/12=2,15=1,17=6,18=5,29=2,40=1/2;
 3/5=44,7=101,11=2,25=1,30=1,71=1,74=-55,124=31/1,2,3;
 4//1;
 5/5=2,6=8,38=5/2;
 6/7=2,8=2,9=2,10=2,14=2,15=1,28=1,40=2/1,2,7;
 7/7=1,16=-2,29=1,30=1/1,2,3,16;
 1/10=7,18=10,28=-2,30=1/3;
 99/12=1/99;
 Leave Link    1 at Sun Feb 19 04:24:07 2023, MaxMem=  2684354560 cpu:               0.7 elap:               0.0
 (Enter /storage/apps/GAUSSIAN/G16_RevA03/g16/l101.exe)
 ----------------------------------------------------------------------
 Gaussian run using SANDER external interface, route from template gau_
 job.tpl
 ----------------------------------------------------------------------
 Symbolic Z-matrix:
 Charge =  0 Multiplicity = 1
 C                     3.40047  -3.70605  -0.56796 
 H                     3.48222  -3.86248  -1.65241 
 H                     4.30653  -4.08158  -0.06993 
 C                     1.54841  -1.4095    1.13395 
 H                     0.93485  -2.32098   0.99768 
 O                     1.07106  -0.65195   2.20272 
 H                     0.44579   0.01472   1.86679 
 C                     3.00569  -1.86491   1.22216 
 H                     3.12926  -2.74997   1.87298 
 O                     3.79147  -0.79929   1.67392 
 H                     4.73425  -0.97434   1.42857 
 C                     1.58424  -0.68581  -0.20818 
 H                     2.17785   0.2321   -0.08068 
 C                     3.28477  -2.21783  -0.27085 
 H                     4.24127  -1.75434  -0.56006 
 O                     2.23508  -1.61937  -1.03286 
 N                     0.30793  -0.29718  -0.73055 
 C                    -0.71826  -1.23186  -0.82983 
 H                    -0.45654  -2.25726  -0.56612 
 C                    -1.9366   -0.89951  -1.28707 
 H                    -2.68351  -1.68707  -1.38155 
 C                    -2.24114   0.49242  -1.70295 
 H                    -3.0135    0.56744  -2.47981 
 H                    -2.7489    1.19042  -0.76434 
 C                    -1.01017   1.25959  -1.97436 
 C                     0.16325   0.90343  -1.40223 
 H                     1.05394   1.52886  -1.50656 
 C                    -1.06329   2.5279   -2.75923 
 O                    -0.3349    3.47456  -2.49836 
 N                    -1.97938   2.57502  -3.75905 
 H                    -1.80108   3.34281  -4.40995 
 H                    -2.32661   1.71448  -4.19727 
 C                     0.49331   2.21568   3.85953 
 C                    -1.16078   2.23062   1.64585 
 C                    -1.82879   2.86645   0.52607 
 C                    -3.80966   3.2266   -0.93704 
 C                    -3.02841   2.39469   0.05249 
 O                    -1.28471   1.05189   1.96582 
 S                    -0.17192   3.34451   2.6093 
 H                    -0.3419    1.76169   4.40995 
 H                     1.06057   1.41571   3.36532 
 H                    -4.09229   2.67603  -1.84336 
 H                    -3.20844   4.08158  -1.27806 
 H                    -4.73425   3.59996  -0.46936 
 H                    -3.57939   1.69439   0.69161 
 H                    -1.35625   3.74151   0.06737 
 H                     2.51264  -4.20905  -0.18475 
 H                     1.14011   2.74865   4.55644 
 
 ITRead=  0  0  0  0  0  0  0  0  0  0  0  0  0  0  0  0  0  0  0  0
 ITRead=  0  0  0  0  0  0  0  0  0  0  0  0  0  0  0  0  0  0  0  0
 ITRead=  0  0  0  0  0  0  0  0
 MicOpt= -1 -1 -1 -1 -1 -1 -1 -1 -1 -1 -1 -1 -1 -1 -1 -1 -1 -1 -1 -1
 MicOpt= -1 -1 -1 -1 -1 -1 -1 -1 -1 -1 -1 -1 -1 -1 -1 -1 -1 -1 -1 -1
 MicOpt= -1 -1 -1 -1 -1 -1 -1 -1
 NAtoms=     48 NQM=       48 NQMF=       0 NMMI=      0 NMMIF=      0
                NMic=       0 NMicF=      0.
                    Isotopes and Nuclear Properties:
 (Nuclear quadrupole moments (NQMom) in fm**2, nuclear magnetic moments (NMagM)
  in nuclear magnetons)

  Atom         1           2           3           4           5           6           7           8           9          10
 IAtWgt=          12           1           1          12           1          16           1          12           1          16
 AtmWgt=  12.0000000   1.0078250   1.0078250  12.0000000   1.0078250  15.9949146   1.0078250  12.0000000   1.0078250  15.9949146
 NucSpn=           0           1           1           0           1           0           1           0           1           0
 AtZEff=  -0.0000000  -0.0000000  -0.0000000  -0.0000000  -0.0000000  -0.0000000  -0.0000000  -0.0000000  -0.0000000  -0.0000000
 NQMom=    0.0000000   0.0000000   0.0000000   0.0000000   0.0000000   0.0000000   0.0000000   0.0000000   0.0000000   0.0000000
 NMagM=    0.0000000   2.7928460   2.7928460   0.0000000   2.7928460   0.0000000   2.7928460   0.0000000   2.7928460   0.0000000
 AtZNuc=   6.0000000   1.0000000   1.0000000   6.0000000   1.0000000   8.0000000   1.0000000   6.0000000   1.0000000   8.0000000

  Atom        11          12          13          14          15          16          17          18          19          20
 IAtWgt=           1          12           1          12           1          16          14          12           1          12
 AtmWgt=   1.0078250  12.0000000   1.0078250  12.0000000   1.0078250  15.9949146  14.0030740  12.0000000   1.0078250  12.0000000
 NucSpn=           1           0           1           0           1           0           2           0           1           0
 AtZEff=  -0.0000000  -0.0000000  -0.0000000  -0.0000000  -0.0000000  -0.0000000  -0.0000000  -0.0000000  -0.0000000  -0.0000000
 NQMom=    0.0000000   0.0000000   0.0000000   0.0000000   0.0000000   0.0000000   2.0440000   0.0000000   0.0000000   0.0000000
 NMagM=    2.7928460   0.0000000   2.7928460   0.0000000   2.7928460   0.0000000   0.4037610   0.0000000   2.7928460   0.0000000
 AtZNuc=   1.0000000   6.0000000   1.0000000   6.0000000   1.0000000   8.0000000   7.0000000   6.0000000   1.0000000   6.0000000

  Atom        21          22          23          24          25          26          27          28          29          30
 IAtWgt=           1          12           1           1          12          12           1          12          16          14
 AtmWgt=   1.0078250  12.0000000   1.0078250   1.0078250  12.0000000  12.0000000   1.0078250  12.0000000  15.9949146  14.0030740
 NucSpn=           1           0           1           1           0           0           1           0           0           2
 AtZEff=  -0.0000000  -0.0000000  -0.0000000  -0.0000000  -0.0000000  -0.0000000  -0.0000000  -0.0000000  -0.0000000  -0.0000000
 NQMom=    0.0000000   0.0000000   0.0000000   0.0000000   0.0000000   0.0000000   0.0000000   0.0000000   0.0000000   2.0440000
 NMagM=    2.7928460   0.0000000   2.7928460   2.7928460   0.0000000   0.0000000   2.7928460   0.0000000   0.0000000   0.4037610
 AtZNuc=   1.0000000   6.0000000   1.0000000   1.0000000   6.0000000   6.0000000   1.0000000   6.0000000   8.0000000   7.0000000

  Atom        31          32          33          34          35          36          37          38          39          40
 IAtWgt=           1           1          12          12          12          12          12          16          32           1
 AtmWgt=   1.0078250   1.0078250  12.0000000  12.0000000  12.0000000  12.0000000  12.0000000  15.9949146  31.9720718   1.0078250
 NucSpn=           1           1           0           0           0           0           0           0           0           1
 AtZEff=  -0.0000000  -0.0000000  -0.0000000  -0.0000000  -0.0000000  -0.0000000  -0.0000000  -0.0000000  -0.0000000  -0.0000000
 NQMom=    0.0000000   0.0000000   0.0000000   0.0000000   0.0000000   0.0000000   0.0000000   0.0000000   0.0000000   0.0000000
 NMagM=    2.7928460   2.7928460   0.0000000   0.0000000   0.0000000   0.0000000   0.0000000   0.0000000   0.0000000   2.7928460
 AtZNuc=   1.0000000   1.0000000   6.0000000   6.0000000   6.0000000   6.0000000   6.0000000   8.0000000  16.0000000   1.0000000

  Atom        41          42          43          44          45          46          47          48
 IAtWgt=           1           1           1           1           1           1           1           1
 AtmWgt=   1.0078250   1.0078250   1.0078250   1.0078250   1.0078250   1.0078250   1.0078250   1.0078250
 NucSpn=           1           1           1           1           1           1           1           1
 AtZEff=  -0.0000000  -0.0000000  -0.0000000  -0.0000000  -0.0000000  -0.0000000  -0.0000000  -0.0000000
 NQMom=    0.0000000   0.0000000   0.0000000   0.0000000   0.0000000   0.0000000   0.0000000   0.0000000
 NMagM=    2.7928460   2.7928460   2.7928460   2.7928460   2.7928460   2.7928460   2.7928460   2.7928460
 AtZNuc=   1.0000000   1.0000000   1.0000000   1.0000000   1.0000000   1.0000000   1.0000000   1.0000000
 Background charge distribution read from input stream:
 Leave Link  101 at Sun Feb 19 04:24:07 2023, MaxMem=  2684354560 cpu:               1.5 elap:               0.1
 (Enter /storage/apps/GAUSSIAN/G16_RevA03/g16/l103.exe)

 GradGradGradGradGradGradGradGradGradGradGradGradGradGradGradGradGradGrad
 Berny optimization.
 Initialization pass.
 Trust Radius=3.00D-01 FncErr=1.00D-07 GrdErr=1.00D-07 EigMax=2.50D+02 EigMin=1.00D-04
 Number of steps in this run=      2 maximum allowed number of steps=      2.
 GradGradGradGradGradGradGradGradGradGradGradGradGradGradGradGradGradGrad

 Leave Link  103 at Sun Feb 19 04:24:07 2023, MaxMem=  2684354560 cpu:               0.3 elap:               0.0
 (Enter /storage/apps/GAUSSIAN/G16_RevA03/g16/l202.exe)
 ---------------------------------------------------------------------------------------------------
                            Z-MATRIX (ANGSTROMS AND DEGREES)
   CD    Cent   Atom    N1       Length/X        N2       Alpha/Y        N3        Beta/Z          J
 ---------------------------------------------------------------------------------------------------
      1      1  C        0   3.400466         -3.706050         -0.567957
      2      2  H        0   3.482216         -3.862482         -1.652406
      3      3  H        0   4.306527         -4.081578         -0.069930
      4      4  C        0   1.548410         -1.409501          1.133947
      5      5  H        0   0.934850         -2.320980          0.997682
      6      6  O        0   1.071061         -0.651952          2.202720
      7      7  H        0   0.445794          0.014719          1.866787
      8      8  C        0   3.005692         -1.864906          1.222164
      9      9  H        0   3.129258         -2.749975          1.872981
     10     10  O        0   3.791468         -0.799290          1.673918
     11     11  H        0   4.734250         -0.974343          1.428566
     12     12  C        0   1.584243         -0.685808         -0.208178
     13     13  H        0   2.177854          0.232101         -0.080676
     14     14  C        0   3.284766         -2.217826         -0.270846
     15     15  H        0   4.241270         -1.754341         -0.560056
     16     16  O        0   2.235081         -1.619365         -1.032857
     17     17  N        0   0.307933         -0.297181         -0.730548
     18     18  C        0  -0.718258         -1.231864         -0.829831
     19     19  H        0  -0.456535         -2.257264         -0.566121
     20     20  C        0  -1.936600         -0.899513         -1.287072
     21     21  H        0  -2.683505         -1.687075         -1.381548
     22     22  C        0  -2.241143          0.492422         -1.702946
     23     23  H        0  -3.013502          0.567439         -2.479812
     24     24  H        0  -2.748899          1.190418         -0.764344
     25     25  C        0  -1.010167          1.259594         -1.974360
     26     26  C        0   0.163254          0.903432         -1.402228
     27     27  H        0   1.053937          1.528858         -1.506560
     28     28  C        0  -1.063287          2.527897         -2.759226
     29     29  O        0  -0.334897          3.474562         -2.498357
     30     30  N        0  -1.979383          2.575024         -3.759052
     31     31  H        0  -1.801075          3.342806         -4.409951
     32     32  H        0  -2.326607          1.714481         -4.197274
     33     33  C        0   0.493307          2.215676          3.859526
     34     34  C        0  -1.160784          2.230625          1.645849
     35     35  C        0  -1.828791          2.866447          0.526072
     36     36  C        0  -3.809658          3.226599         -0.937035
     37     37  C        0  -3.028411          2.394686          0.052493
     38     38  O        0  -1.284706          1.051892          1.965818
     39     39  S        0  -0.171919          3.344506          2.609300
     40     40  H        0  -0.341898          1.761686          4.409951
     41     41  H        0   1.060569          1.415711          3.365318
     42     42  H        0  -4.092287          2.676030         -1.843361
     43     43  H        0  -3.208439          4.081578         -1.278060
     44     44  H        0  -4.734250          3.599957         -0.469360
     45     45  H        0  -3.579387          1.694394          0.691606
     46     46  H        0  -1.356250          3.741512          0.067369
     47     47  H        0   2.512636         -4.209053         -0.184751
     48     48  H        0   1.140108          2.748648          4.556440
 ---------------------------------------------------------------------------------------------------
                         Z-Matrix orientation:                         
 ---------------------------------------------------------------------
 Center     Atomic      Atomic             Coordinates (Angstroms)
 Number     Number       Type             X           Y           Z
 ---------------------------------------------------------------------
      1          6           0        3.400466   -3.706050   -0.567957
      2          1           0        3.482216   -3.862482   -1.652406
      3          1           0        4.306527   -4.081578   -0.069930
      4          6           0        1.548410   -1.409501    1.133947
      5          1           0        0.934850   -2.320980    0.997682
      6          8           0        1.071061   -0.651952    2.202720
      7          1           0        0.445794    0.014719    1.866787
      8          6           0        3.005692   -1.864906    1.222164
      9          1           0        3.129258   -2.749975    1.872981
     10          8           0        3.791468   -0.799290    1.673918
     11          1           0        4.734250   -0.974343    1.428566
     12          6           0        1.584243   -0.685808   -0.208178
     13          1           0        2.177854    0.232101   -0.080676
     14          6           0        3.284766   -2.217826   -0.270846
     15          1           0        4.241270   -1.754341   -0.560056
     16          8           0        2.235081   -1.619365   -1.032857
     17          7           0        0.307933   -0.297181   -0.730548
     18          6           0       -0.718258   -1.231864   -0.829831
     19          1           0       -0.456535   -2.257264   -0.566121
     20          6           0       -1.936600   -0.899513   -1.287072
     21          1           0       -2.683505   -1.687075   -1.381548
     22          6           0       -2.241143    0.492422   -1.702946
     23          1           0       -3.013502    0.567439   -2.479812
     24          1           0       -2.748899    1.190418   -0.764344
     25          6           0       -1.010167    1.259594   -1.974360
     26          6           0        0.163254    0.903432   -1.402228
     27          1           0        1.053937    1.528858   -1.506560
     28          6           0       -1.063287    2.527897   -2.759226
     29          8           0       -0.334897    3.474562   -2.498357
     30          7           0       -1.979383    2.575024   -3.759052
     31          1           0       -1.801075    3.342806   -4.409951
     32          1           0       -2.326607    1.714481   -4.197274
     33          6           0        0.493307    2.215676    3.859526
     34          6           0       -1.160784    2.230625    1.645849
     35          6           0       -1.828791    2.866447    0.526072
     36          6           0       -3.809658    3.226599   -0.937035
     37          6           0       -3.028411    2.394686    0.052493
     38          8           0       -1.284706    1.051892    1.965818
     39         16           0       -0.171919    3.344506    2.609300
     40          1           0       -0.341898    1.761686    4.409951
     41          1           0        1.060569    1.415711    3.365318
     42          1           0       -4.092287    2.676030   -1.843361
     43          1           0       -3.208439    4.081578   -1.278060
     44          1           0       -4.734250    3.599957   -0.469360
     45          1           0       -3.579387    1.694394    0.691606
     46          1           0       -1.356250    3.741512    0.067369
     47          1           0        2.512636   -4.209053   -0.184751
     48          1           0        1.140108    2.748648    4.556440
 ---------------------------------------------------------------------
                    Distance matrix (angstroms):
                    1          2          3          4          5
     1  C    0.000000
     2  H    1.098720   0.000000
     3  H    1.100000   1.797700   0.000000
     4  C    3.405983   4.185747   4.024490   0.000000
     5  H    3.232477   3.986009   3.950659   1.107167   0.000000
     6  O    4.736063   5.566253   5.234072   1.394281   2.063086
     7  H    5.338743   6.052872   5.952796   1.944536   2.539687
     8  C    2.598112   3.532780   2.876684   1.529329   2.132319
     9  H    2.635490   3.713570   2.633255   2.200482   2.401168
    10  O    3.691631   4.532462   3.752293   2.386469   3.306525
    11  H    3.636937   4.404694   3.476111   3.228891   4.053952
    12  C    3.542593   3.972323   4.354445   1.525226   2.132978
    13  H    4.152258   4.575729   4.810321   2.136905   3.037455
    14  C    1.521996   2.156986   2.134932   2.375240   2.672436
    15  H    2.125131   2.492719   2.379183   3.200008   3.698654
    16  O    2.434852   2.640219   3.358662   2.282674   2.511166
    17  N    4.605494   4.861817   5.544982   2.500476   2.734148
    18  C    4.811866   5.024018   5.826387   3.004291   2.694206
    19  H    4.120126   4.389818   5.124558   2.762017   2.094157
    20  C    6.072730   6.186778   7.112216   4.273958   3.935213
    21  H    6.461648   6.543842   7.504301   4.930910   4.376650
    22  C    7.123420   7.191980   8.152313   5.101567   5.029468
    23  H    7.940836   7.905894   9.000207   6.146429   6.002118
    24  H    7.863119   8.071384   8.834884   5.369353   5.385597
    25  C    6.788908   6.820617   7.773172   4.830316   5.043474
    26  C    5.694109   5.813092   6.617557   3.701419   4.092892
    27  H    5.813039   5.914757   6.642306   3.981298   4.594199
    28  C    7.974262   7.919823   8.930419   6.122162   6.451242
    29  O    8.321091   8.313735   9.194309   6.371385   6.886425
    30  N    8.864409   8.701063   9.870797   7.229329   7.422272
    31  H    9.565736   9.350582  10.547988   8.033572   8.294953
    32  H    8.680637   8.445193   9.727679   7.293623   7.342316
    33  C    7.944874   8.732639   8.344860   4.656602   5.382041
    34  C    7.807050   8.340376   8.525214   4.566431   5.052614
    35  C    8.469931   8.844832   9.288294   5.482584   5.896569
    36  C   10.009182  10.195011  10.955993   7.381822   7.551763
    37  C    8.884503   9.189510   9.785617   6.048857   6.232040
    38  O    7.142049   7.743782   7.858668   3.844088   4.152105
    39  S    8.518640   9.135399   9.076424   5.266572   5.993328
    40  H    8.287399   9.110833   8.707520   4.935777   5.471912
    41  H    6.868639   7.674715   7.249645   3.633020   4.425422
    42  H    9.924663  10.008081  10.924760   7.574522   7.636343
    43  H   10.238603  10.392934  11.161156   7.654889   7.958554
    44  H   10.934398  11.162343  11.870180   8.193722   8.327569
    45  H    8.914574   9.286522   9.804561   6.010335   6.049400
    46  H    8.859805   9.175462   9.658500   6.008957   6.547398
    47  H    1.090000   1.792822   1.802076   3.241324   2.729904
    48  H    8.545864   9.367085   8.836373   5.400961   6.197420
                    6          7          8          9         10
     6  O    0.000000
     7  H    0.973787   0.000000
     8  C    2.485064   3.240619   0.000000
     9  H    2.957465   3.852862   1.105521   0.000000
    10  O    2.775240   3.448673   1.398951   2.069619   0.000000
    11  H    3.757951   4.422797   1.955407   2.434414   0.989786
    12  C    2.465143   2.468255   2.335951   3.313469   2.902931
    13  H    2.687087   2.615320   2.603872   3.689813   2.597329
    14  C    3.670284   4.196843   1.559332   2.214353   2.459898
    15  H    4.347231   4.839915   2.171448   2.854387   2.470847
    16  O    3.572085   3.778851   2.395674   3.243721   3.228234
    17  N    3.051605   2.619625   3.680863   4.555703   4.262463
    18  C    3.568519   3.190726   4.298748   4.940974   5.176245
    19  H    3.546415   3.448934   3.916494   4.364618   5.018864
    20  C    4.613672   4.056902   5.626234   6.250845   6.448898
    21  H    5.292941   4.820819   6.259226   6.746105   7.214521
    22  C    5.247334   4.493420   6.453104   7.220913   7.033074
    23  H    6.332194   5.582576   7.473395   8.227122   8.088822
    24  H    5.175895   4.302462   6.811500   7.552145   7.258131
    25  C    5.043166   4.292312   6.008943   6.929178   6.372177
    26  C    4.029762   3.399426   4.757162   5.733372   5.052314
    27  H    4.302904   3.747255   4.772098   5.834094   4.798936
    28  C    6.267998   5.476622   7.190604   8.178674   7.368283
    29  O    6.411315   5.624453   7.315172   8.357860   7.259516
    30  N    7.433795   6.639782   8.329254   9.282974   8.614283
    31  H    8.242250   7.451310   9.052403  10.045167   9.243752
    32  H    7.622603   6.881005   8.403317   9.303000   8.844251
    33  C    3.361859   2.969424   5.469819   5.962574   4.974412
    34  C    3.687884   2.745932   5.857679   6.577417   5.805684
    35  C    4.857924   3.886336   6.800182   7.611873   6.807532
    36  C    6.980161   6.023825   8.776934   9.579362   8.988993
    37  C    5.541765   4.585412   7.478146   8.227916   7.703328
    38  O    2.916993   2.019942   5.241016   5.826310   5.411065
    39  S    4.204995   3.467041   6.257742   6.970124   5.809855
    40  H    3.562859   3.184342   5.875416   6.232192   5.579354
    41  H    2.372124   2.141570   4.374822   4.884617   3.901907
    42  H    7.355705   6.437542   8.966541   9.767468   9.306057
    43  H    7.268855   6.307362   8.956965   9.836949   9.029714
    44  H    7.675961   6.718956   9.624588  10.375112   9.830304
    45  H    5.423603   4.517127   7.504224   8.133509   7.843016
    46  H    5.454731   4.513784   7.196667   8.094406   7.049743
    47  H    4.520080   5.130389   2.778045   2.596803   4.088587
    48  H    4.136284   3.897522   5.990216   6.433702   5.284554
                   11         12         13         14         15
    11  H    0.000000
    12  C    3.561562   0.000000
    13  H    3.204446   1.100540   0.000000
    14  C    2.556415   2.289713   2.695099   0.000000
    15  H    2.192270   2.885372   2.904039   1.101526   0.000000
    16  O    3.566581   1.405424   2.082750   1.428515   2.065563
    17  N    4.971177   1.432783   2.049165   3.572357   4.198038
    18  C    5.907327   2.446659   3.330449   4.160383   4.994264
    19  H    5.706918   2.600456   3.656857   3.753143   4.724652
    20  C    7.202814   3.688634   4.434487   5.480268   6.278962
    21  H    7.964158   4.537952   5.385937   6.093900   6.973656
    22  C    7.785491   4.272720   4.714558   6.319179   6.955273
    23  H    8.813635   5.279224   5.728742   7.232248   7.855434
    24  H    8.092747   4.754541   5.065439   6.947286   7.587872
    25  C    7.040504   3.692554   3.847760   5.782807   6.217849
    26  C    5.695036   2.443492   2.501160   4.556985   4.939962
    27  H    5.331574   2.621405   2.231124   4.532243   4.672724
    28  C    7.963336   4.883151   4.790648   6.900688   7.163256
    29  O    7.804468   5.122177   4.761581   7.104016   7.213857
    30  N    9.196861   5.995095   6.025144   7.927815   8.226390
    31  H    9.769162   6.733870   6.652141   8.597592   8.792754
    32  H    9.419955   6.080215   6.279649   7.897302   8.270374
    33  C    5.837070   5.114193   4.722020   6.671444   7.024313
    34  C    6.713452   4.413408   4.256934   6.574599   7.065985
    35  C    7.657654   4.980607   4.833335   7.254887   7.705647
    36  C    9.810318   6.703159   6.749124   8.967521   9.474668
    37  C    8.573379   5.552835   5.639123   7.825345   8.392729
    38  O    6.373546   3.997090   4.104817   6.047628   6.692637
    39  S    6.642068   5.221659   4.737560   7.154261   7.451127
    40  H    6.491670   5.570221   5.371640   7.134358   7.620291
    41  H    4.791586   4.178575   3.811054   5.601012   5.964449
    42  H   10.096458   6.796967   6.956616   8.991303   9.524874
    43  H    9.796655   6.844152   6.727879   9.102674   9.490608
    44  H   10.685449   7.639329   7.698747   9.909118  10.451636
    45  H    8.762523   5.756565   5.990037   7.959169   8.638466
    46  H    7.822169   5.321991   4.982748   7.560894   7.869580
    47  H    4.242842   3.643585   4.454969   2.137424   3.025663
    48  H    6.046661   5.890190   5.377060   7.250387   7.488167
                   16         17         18         19         20
    16  O    0.000000
    17  N    2.356578   0.000000
    18  C    2.985563   1.391602   0.000000
    19  H    2.805274   2.110302   1.090637   0.000000
    20  C    4.240960   2.389655   1.343088   2.133976   0.000000
    21  H    4.931396   3.362188   2.091365   2.439146   1.089516
    22  C    4.994522   2.840215   2.460624   3.469578   1.484311
    23  H    5.867148   3.852197   3.350832   4.263713   2.175843
    24  H    5.727743   3.399752   3.161525   4.144965   2.302365
    25  C    4.439197   2.389143   2.757267   3.828569   2.447935
    26  C    3.285333   1.383314   2.379956   3.327644   2.770065
    27  H    3.395704   2.119702   3.349660   4.183381   3.858559
    28  C    5.573094   3.738563   4.239978   5.298644   3.831064
    29  O    5.890719   4.214787   5.008132   6.049972   4.813023
    30  N    6.541158   4.759539   4.966202   5.988729   4.264378
    31  H    7.233150   5.588866   5.909091   6.924132   5.269536
    32  H    6.475883   4.796433   4.754724   5.697122   3.931201
    33  C    6.455753   5.236182   5.945040   6.363627   6.488168
    34  C    5.790491   3.767518   4.279445   5.052715   4.359091
    35  C    6.250427   4.019108   4.457343   5.415569   4.181096
    36  C    7.747995   5.423488   5.426430   6.438460   4.544851
    37  C    6.707827   4.357809   4.389439   5.351437   3.719978
    38  O    5.340091   3.409823   3.654047   4.248187   3.848927
    39  S    6.610520   4.964547   5.750589   6.445474   6.025572
    40  H    6.906265   5.575477   6.046346   6.397374   6.486997
    41  H    5.471299   4.502952   5.270024   5.590042   5.999002
    42  H    7.690443   5.425889   5.261458   6.259986   4.212000
    43  H    7.886240   5.642532   5.885114   6.946995   5.140906
    44  H    8.725275   6.378049   6.293221   7.253637   5.361038
    45  H    6.911065   4.593490   4.366213   5.191308   3.652706
    46  H    6.545774   4.440407   5.093767   6.098861   4.869335
    47  H    2.739124   4.523422   4.440547   3.573640   5.653660
    48  H    7.177657   6.158071   6.950534   7.338192   7.544657
                   21         22         23         24         25
    21  H    0.000000
    22  C    2.247040   0.000000
    23  H    2.529410   1.098038   0.000000
    24  H    2.943668   1.275142   1.844166   0.000000
    25  C    3.440108   1.475642   2.178970   2.119460   0.000000
    26  C    3.849050   2.457740   3.371328   2.994977   1.353182
    27  H    4.932172   3.459815   4.291341   3.889343   2.133510
    28  C    4.721133   2.578029   2.779354   2.934228   1.492458
    29  O    5.779768   3.627618   3.953053   3.748536   2.374162
    30  N    4.930902   2.938251   2.595429   3.387855   2.419682
    31  H    5.937138   3.955531   3.591389   4.338386   3.301123
    32  H    4.430154   2.778921   2.176512   3.498282   2.623220
    33  C    7.265842   6.433344   7.429778   5.739619   6.099898
    34  C    5.179979   3.924659   4.818696   3.068089   3.751199
    35  C    5.010400   3.282460   3.965390   2.306696   3.082901
    36  C    5.060633   3.243853   3.175714   2.302405   3.575235
    37  C    4.340070   2.705543   3.122759   1.481760   3.077316
    38  O    4.545706   3.832441   4.794482   3.101102   3.955189
    39  S    6.895777   5.568800   6.456451   4.760504   5.104846
    40  H    7.135723   6.525770   7.485488   5.735271   6.438797
    41  H    6.795448   6.118910   7.175177   5.622892   5.729265
    42  H    4.608103   2.866111   2.452550   2.275085   3.394542
    43  H    5.793411   3.741420   3.719056   2.972185   3.644286
    44  H    5.743723   4.170622   4.024805   3.136003   4.648776
    45  H    4.066313   2.994914   3.412938   1.750283   3.727910
    46  H    5.773259   3.804423   4.394241   3.023127   3.232390
    47  H    5.898524   6.856180   7.656395   7.561346   6.746773
    48  H    8.339986   7.463466   8.456890   6.772238   7.035077
                   26         27         28         29         30
    26  C    0.000000
    27  H    1.093325   0.000000
    28  C    2.446372   2.655163   0.000000
    29  O    2.839078   2.588105   1.222611   0.000000
    30  N    3.597184   3.920359   1.356873   2.258950   0.000000
    31  H    4.342296   4.457711   1.983255   2.412722   1.022229
    32  H    3.830077   4.324636   2.079809   3.154539   1.026225
    33  C    5.432953   5.438834   6.806494   6.534019   8.017859
    34  C    3.578447   3.916012   4.416171   4.404987   5.477378
    35  C    3.397059   3.772382   3.390251   3.427637   4.297661
    36  C    4.625747   5.182784   3.369142   3.817484   3.426111
    37  C    3.811401   4.454871   3.432961   3.863675   3.957380
    38  O    3.669109   4.213569   4.955166   5.167237   5.964616
    39  S    4.707817   4.662575   5.502951   5.111912   6.664453
    40  H    5.896881   6.083393   7.246005   7.117494   8.371110
    41  H    4.878227   4.873196   6.577064   6.369370   7.832111
    42  H    4.631018   5.283281   3.167900   3.896749   2.853846
    43  H    4.635120   4.973574   3.034708   3.180383   3.152080
    44  H    5.668071   6.234448   4.457439   4.846324   4.411559
    45  H    4.360862   5.130987   4.351290   4.885855   4.810808
    46  H    3.538828   3.630716   3.090037   2.774415   4.048517
    47  H    5.756679   6.066185   8.049947   8.514643   8.886932
    48  H    6.313857   6.185086   7.643472   7.243808   8.883061
                   31         32         33         34         35
    31  H    0.000000
    32  H    1.724198   0.000000
    33  C    8.655569   8.550739   0.000000
    34  C    6.190285   5.980604   2.763441   0.000000
    35  C    4.959033   4.887212   4.114312   1.450656   0.000000
    36  C    4.013609   3.887814   6.522613   3.831422   2.488820
    37  C    4.724266   4.360703   5.189224   2.460433   1.373289
    38  O    6.794510   6.285562   2.846376   1.227660   2.379392
    39  S    7.205834   7.323190   1.811035   1.773929   2.704368
    40  H    9.078536   8.833211   1.098472   2.920743   4.303007
    41  H    8.506322   8.291865   1.098168   2.924904   4.302831
    42  H    3.504515   3.095660   7.332293   4.578939   3.282359
    43  H    3.512150   3.860387   6.601462   4.020965   2.575822
    44  H    4.919136   4.821733   6.926964   4.372509   3.157627
    45  H    5.648498   5.046880   5.185970   2.654763   2.113219
    46  H    4.516994   4.820542   4.486590   2.193760   1.095190
    47  H    9.669074   8.637526   7.855636   7.636397   8.331624
    48  H    9.455144   9.471807   1.090000   3.746197   5.007206
                   36         37         38         39         40
    36  C    0.000000
    37  C    1.510494   0.000000
    38  O    4.419423   2.916234   0.000000
    39  S    5.081688   3.949553   2.628392   0.000000
    40  H    6.539235   5.158051   2.714126   2.403447   0.000000
    41  H    6.746012   5.352846   2.755228   2.410568   1.782658
    42  H    1.097466   2.192087   5.003017   5.970120   7.348834
    43  H    1.099432   2.156011   4.837612   4.987514   6.778822
    44  H    1.101356   2.152880   4.931742   5.509834   6.817601
    45  H    2.247921   1.096562   2.702219   4.243968   4.930716
    46  H    2.700588   2.147157   3.292914   2.832255   4.879205
    47  H    9.789089   8.623738   6.835371   8.489393   8.056635
    48  H    7.409919   6.147144   3.933196   2.422357   1.786588
                   41         42         43         44         45
    41  H    0.000000
    42  H    7.434424   0.000000
    43  H    6.847790   1.753944   0.000000
    44  H    7.283928   1.775848   1.792778   0.000000
    45  H    5.362424   2.766357   3.117023   2.512513   0.000000
    46  H    4.703916   3.503147   2.314396   3.423302   3.085887
    47  H    6.808043   9.684026  10.132155  10.657345   8.528272
    48  H    1.789363   8.266842   7.397834   7.777627   6.190479
                   46         47         48
    46  H    0.000000
    47  H    8.845525   0.000000
    48  H    5.231571   8.530670   0.000000
 Symmetry turned off by external request.
 Stoichiometry    C16H24N2O5S
 Framework group  C1[X(C16H24N2O5S)]
 Deg. of freedom   138
 Full point group                 C1      NOp   1
 Rotational constants (GHZ):           0.2899485           0.1658731           0.1250509
 Leave Link  202 at Sun Feb 19 04:24:07 2023, MaxMem=  2684354560 cpu:               0.2 elap:               0.0
 (Enter /storage/apps/GAUSSIAN/G16_RevA03/g16/l301.exe)
 Standard basis: def2TZVP (5D, 7F)
 Ernie: Thresh=  0.10000D-02 Tol=  0.10000D-05 Strict=F.
   894 basis functions,  1434 primitive gaussians,  1014 cartesian basis functions
    95 alpha electrons       95 beta electrons
       nuclear repulsion energy      2435.9503036382 Hartrees.
 IExCor= 4336 DFT=T Ex+Corr=M062X ExCW=0 ScaHFX=  0.540000
 ScaDFX=  1.000000  1.000000  1.000000  1.000000 ScalE2=  1.000000  1.000000
 IRadAn=      5 IRanWt=     -1 IRanGd=            0 ICorTp=0 IEmpDi=131
 NAtoms=   48 NActive=   48 NUniq=   48 SFac= 1.00D+00 NAtFMM=   60 NAOKFM=F Big=F
 Integral buffers will be    131072 words long.
 Raffenetti 2 integral format.
 Two-electron integral symmetry is turned off.
 R6Disp:  Grimme-D3 Dispersion energy=       -0.0041203616 Hartrees.
 Nuclear repulsion after empirical dispersion term =     2435.9461832767 Hartrees.
 Leave Link  301 at Sun Feb 19 04:24:07 2023, MaxMem=  2684354560 cpu:               0.8 elap:               0.1
 (Enter /storage/apps/GAUSSIAN/G16_RevA03/g16/l302.exe)
 NPDir=0 NMtPBC=     1 NCelOv=     1 NCel=       1 NClECP=     1 NCelD=      1
         NCelK=      1 NCelE2=     1 NClLst=     1 CellRange=     0.0.
 One-electron integrals computed using PRISM.
   1 Symmetry operations used in ECPInt.
 ECPInt:  NShTT=   65703 NPrTT=  200010 LenC2=   56000 LenP2D=  118761.
 LDataN:  DoStor=T MaxTD1= 6 Len=  172
 NBasis=   894 RedAO= T EigKep=  3.10D-05  NBF=   894
 NBsUse=   894 1.00D-06 EigRej= -1.00D+00 NBFU=   894
 Precomputing XC quadrature grid using
 IXCGrd= 4 IRadAn=           5 IRanWt=          -1 IRanGd=           0 AccXCQ= 0.00D+00.
 Generated NRdTot=       0 NPtTot=           0 NUsed=           0 NTot=          32
 NSgBfM=   998   998   998   998   998 MxSgAt=    48 MxSgA2=    48.
 Leave Link  302 at Sun Feb 19 04:24:09 2023, MaxMem=  2684354560 cpu:              18.3 elap:               1.2
 (Enter /storage/apps/GAUSSIAN/G16_RevA03/g16/l303.exe)
 DipDrv:  MaxL=1.
 Leave Link  303 at Sun Feb 19 04:24:09 2023, MaxMem=  2684354560 cpu:               2.0 elap:               0.2
 (Enter /storage/apps/GAUSSIAN/G16_RevA03/g16/l401.exe)
 ExpMin= 9.52D-02 ExpMax= 6.07D+04 ExpMxC= 2.07D+03 IAcc=3 IRadAn=         5 AccDes= 0.00D+00
 Harris functional with IExCor= 1009 and IRadAn=       5 diagonalized for initial guess.
 HarFok:  IExCor= 1009 AccDes= 0.00D+00 IRadAn=         5 IDoV= 1 UseB2=F ITyADJ=14
 ICtDFT=  3500011 ScaDFX=  1.000000  1.000000  1.000000  1.000000
 FoFCou: FMM=F IPFlag=           0 FMFlag=      100000 FMFlg1=           0
         NFxFlg=           0 DoJE=T BraDBF=F KetDBF=T FulRan=T
         wScrn=  0.000000 ICntrl=       500 IOpCl=  0 I1Cent=   200000004 NGrid=           0
         NMat0=    1 NMatS0=      1 NMatT0=    0 NMatD0=    1 NMtDS0=    0 NMtDT0=    0
 Symmetry not used in FoFCou.
 Harris En= -1507.18773052320    
 JPrj=0 DoOrth=F DoCkMO=F.
 Leave Link  401 at Sun Feb 19 04:24:12 2023, MaxMem=  2684354560 cpu:              58.5 elap:               3.7
 (Enter /storage/apps/GAUSSIAN/G16_RevA03/g16/l502.exe)
 Two-electron integral symmetry not used.
 Closed shell SCF:
 Using DIIS extrapolation, IDIIS=  1040.
 NGot=  2684354560 LenX=  2682275214 LenY=  2681246004
 Requested convergence on RMS density matrix=1.00D-08 within 128 cycles.
 Requested convergence on MAX density matrix=1.00D-06.
 Requested convergence on             energy=1.00D-06.
 No special actions if energy rises.
 Fock matrices will be formed incrementally for  20 cycles.
 Integral accuracy reduced to 1.0D-05 until final iterations.

 Cycle   1  Pass 0  IDiag  1:
 FoFJK:  IHMeth= 1 ICntrl=       0 DoSepK=F KAlg= 0 I1Cent=           0 FoldK=F
 IRaf= 780000000 NMat=       1 IRICut=       1 DoRegI=T DoRafI=F ISym2E= 0 IDoP0=0 IntGTp=1.
 FoFCou: FMM=F IPFlag=           0 FMFlag=      100000 FMFlg1=           0
         NFxFlg=           0 DoJE=F BraDBF=F KetDBF=F FulRan=T
         wScrn=  0.000000 ICntrl=         0 IOpCl=  0 I1Cent=           0 NGrid=           0
         NMat0=    1 NMatS0=      1 NMatT0=    0 NMatD0=    1 NMtDS0=    0 NMtDT0=    0
 Symmetry not used in FoFCou.
 E= -1507.13353135019    
 DIIS: error= 1.61D-02 at cycle   1 NSaved=   1.
 NSaved= 1 IEnMin= 1 EnMin= -1507.13353135019     IErMin= 1 ErrMin= 1.61D-02
 ErrMax= 1.61D-02  0.00D+00 EMaxC= 1.00D-01 BMatC= 9.84D-01 BMatP= 9.84D-01
 IDIUse=3 WtCom= 8.39D-01 WtEn= 1.61D-01
 Coeff-Com:  0.100D+01
 Coeff-En:   0.100D+01
 Coeff:      0.100D+01
 Gap=     0.310 Goal=   None    Shift=    0.000
 GapD=    0.310 DampG=1.000 DampE=0.500 DampFc=0.5000 IDamp=-1.
 Damping current iteration by 5.00D-01
 RMSDP=4.19D-03 MaxDP=1.22D+00              OVMax= 2.38D-01

 Cycle   2  Pass 0  IDiag  1:
 RMSU=  2.09D-03    CP:  1.02D+00
 E= -1507.45905159060     Delta-E=       -0.325520240413 Rises=F Damp=T
 DIIS: error= 4.57D-03 at cycle   2 NSaved=   2.
 NSaved= 2 IEnMin= 2 EnMin= -1507.45905159060     IErMin= 2 ErrMin= 4.57D-03
 ErrMax= 4.57D-03  0.00D+00 EMaxC= 1.00D-01 BMatC= 9.19D-02 BMatP= 9.84D-01
 IDIUse=3 WtCom= 9.54D-01 WtEn= 4.57D-02
 Coeff-Com:  0.112D-01 0.989D+00
 Coeff-En:   0.733D-01 0.927D+00
 Coeff:      0.140D-01 0.986D+00
 Gap=     0.309 Goal=   None    Shift=    0.000
 RMSDP=1.34D-03 MaxDP=4.01D-01 DE=-3.26D-01 OVMax= 1.75D-01

 Cycle   3  Pass 0  IDiag  1:
 RMSU=  1.07D-03    CP:  1.00D+00  6.23D-01
 E= -1507.82023276215     Delta-E=       -0.361181171544 Rises=F Damp=F
 DIIS: error= 4.30D-03 at cycle   3 NSaved=   3.
 NSaved= 3 IEnMin= 3 EnMin= -1507.82023276215     IErMin= 3 ErrMin= 4.30D-03
 ErrMax= 4.30D-03  0.00D+00 EMaxC= 1.00D-01 BMatC= 5.80D-02 BMatP= 9.19D-02
 IDIUse=3 WtCom= 9.57D-01 WtEn= 4.30D-02
 Coeff-Com: -0.761D-01 0.459D+00 0.617D+00
 Coeff-En:   0.000D+00 0.000D+00 0.100D+01
 Coeff:     -0.728D-01 0.439D+00 0.634D+00
 Gap=     0.211 Goal=   None    Shift=    0.000
 RMSDP=3.78D-04 MaxDP=3.67D-02 DE=-3.61D-01 OVMax= 7.60D-02

 Cycle   4  Pass 0  IDiag  1:
 RMSU=  3.33D-04    CP:  1.00D+00  7.01D-01  9.30D-01
 E= -1507.85943125804     Delta-E=       -0.039198495895 Rises=F Damp=F
 DIIS: error= 1.79D-03 at cycle   4 NSaved=   4.
 NSaved= 4 IEnMin= 4 EnMin= -1507.85943125804     IErMin= 4 ErrMin= 1.79D-03
 ErrMax= 1.79D-03  0.00D+00 EMaxC= 1.00D-01 BMatC= 1.09D-02 BMatP= 5.80D-02
 IDIUse=3 WtCom= 9.82D-01 WtEn= 1.79D-02
 Coeff-Com: -0.363D-01 0.990D-01 0.341D+00 0.597D+00
 Coeff-En:   0.000D+00 0.000D+00 0.128D+00 0.872D+00
 Coeff:     -0.357D-01 0.973D-01 0.337D+00 0.602D+00
 Gap=     0.210 Goal=   None    Shift=    0.000
 RMSDP=1.28D-04 MaxDP=9.35D-03 DE=-3.92D-02 OVMax= 1.72D-02

 Cycle   5  Pass 0  IDiag  1:
 RMSU=  8.96D-05    CP:  1.00D+00  7.00D-01  9.54D-01  7.38D-01
 E= -1507.86777571038     Delta-E=       -0.008344452340 Rises=F Damp=F
 DIIS: error= 3.42D-04 at cycle   5 NSaved=   5.
 NSaved= 5 IEnMin= 5 EnMin= -1507.86777571038     IErMin= 5 ErrMin= 3.42D-04
 ErrMax= 3.42D-04  0.00D+00 EMaxC= 1.00D-01 BMatC= 4.79D-04 BMatP= 1.09D-02
 IDIUse=3 WtCom= 9.97D-01 WtEn= 3.42D-03
 Coeff-Com: -0.111D-01 0.193D-01 0.122D+00 0.274D+00 0.596D+00
 Coeff-En:   0.000D+00 0.000D+00 0.000D+00 0.000D+00 0.100D+01
 Coeff:     -0.111D-01 0.192D-01 0.122D+00 0.273D+00 0.597D+00
 Gap=     0.210 Goal=   None    Shift=    0.000
 RMSDP=5.22D-05 MaxDP=1.32D-02 DE=-8.34D-03 OVMax= 5.26D-03

 Cycle   6  Pass 0  IDiag  1:
 RMSU=  3.67D-05    CP:  1.00D+00  6.85D-01  9.67D-01  7.64D-01  8.92D-01
 E= -1507.86818053172     Delta-E=       -0.000404821336 Rises=F Damp=F
 DIIS: error= 1.54D-04 at cycle   6 NSaved=   6.
 NSaved= 6 IEnMin= 6 EnMin= -1507.86818053172     IErMin= 6 ErrMin= 1.54D-04
 ErrMax= 1.54D-04  0.00D+00 EMaxC= 1.00D-01 BMatC= 6.54D-05 BMatP= 4.79D-04
 IDIUse=3 WtCom= 9.98D-01 WtEn= 1.54D-03
 Coeff-Com:  0.223D-03-0.473D-02 0.115D-01 0.407D-01 0.275D+00 0.677D+00
 Coeff-En:   0.000D+00 0.000D+00 0.000D+00 0.000D+00 0.000D+00 0.100D+01
 Coeff:      0.222D-03-0.472D-02 0.115D-01 0.407D-01 0.275D+00 0.678D+00
 Gap=     0.211 Goal=   None    Shift=    0.000
 RMSDP=2.29D-05 MaxDP=2.43D-03 DE=-4.05D-04 OVMax= 3.19D-03

 Cycle   7  Pass 0  IDiag  1:
 RMSU=  2.02D-05    CP:  1.00D+00  6.84D-01  9.72D-01  7.69D-01  9.99D-01
                    CP:  1.00D+00
 E= -1507.86826704344     Delta-E=       -0.000086511718 Rises=F Damp=F
 DIIS: error= 5.29D-05 at cycle   7 NSaved=   7.
 NSaved= 7 IEnMin= 7 EnMin= -1507.86826704344     IErMin= 7 ErrMin= 5.29D-05
 ErrMax= 5.29D-05  0.00D+00 EMaxC= 1.00D-01 BMatC= 1.09D-05 BMatP= 6.54D-05
 IDIUse=1 WtCom= 1.00D+00 WtEn= 0.00D+00
 Coeff-Com:  0.194D-02-0.534D-02-0.128D-01-0.276D-01 0.162D-01 0.291D+00
 Coeff-Com:  0.736D+00
 Coeff:      0.194D-02-0.534D-02-0.128D-01-0.276D-01 0.162D-01 0.291D+00
 Coeff:      0.736D+00
 Gap=     0.211 Goal=   None    Shift=    0.000
 RMSDP=2.06D-05 MaxDP=3.69D-03 DE=-8.65D-05 OVMax= 2.34D-03

 Cycle   8  Pass 0  IDiag  1:
 RMSU=  1.22D-05    CP:  1.00D+00  6.80D-01  9.75D-01  7.79D-01  1.09D+00
                    CP:  1.22D+00  1.37D+00
 E= -1507.86828442167     Delta-E=       -0.000017378234 Rises=F Damp=F
 DIIS: error= 2.22D-05 at cycle   8 NSaved=   8.
 NSaved= 8 IEnMin= 8 EnMin= -1507.86828442167     IErMin= 8 ErrMin= 2.22D-05
 ErrMax= 2.22D-05  0.00D+00 EMaxC= 1.00D-01 BMatC= 2.37D-06 BMatP= 1.09D-05
 IDIUse=1 WtCom= 1.00D+00 WtEn= 0.00D+00
 Coeff-Com:  0.966D-03-0.177D-02-0.799D-02-0.231D-01-0.467D-01 0.717D-02
 Coeff-Com:  0.351D+00 0.720D+00
 Coeff:      0.966D-03-0.177D-02-0.799D-02-0.231D-01-0.467D-01 0.717D-02
 Coeff:      0.351D+00 0.720D+00
 Gap=     0.211 Goal=   None    Shift=    0.000
 RMSDP=2.10D-05 MaxDP=3.00D-03 DE=-1.74D-05 OVMax= 7.73D-04

 Cycle   9  Pass 0  IDiag  1:
 RMSU=  9.40D-06    CP:  1.00D+00  6.79D-01  9.76D-01  7.81D-01  1.16D+00
                    CP:  1.38D+00  2.02D+00  1.82D+00
 E= -1507.86828169475     Delta-E=        0.000002726922 Rises=F Damp=F
 DIIS: error= 2.21D-05 at cycle   9 NSaved=   9.
 NSaved= 9 IEnMin= 8 EnMin= -1507.86828442167     IErMin= 9 ErrMin= 2.21D-05
 ErrMax= 2.21D-05  0.00D+00 EMaxC= 1.00D-01 BMatC= 5.43D-07 BMatP= 2.37D-06
 IDIUse=1 WtCom= 1.00D+00 WtEn= 0.00D+00
 Coeff-Com:  0.289D-03-0.375D-03-0.231D-02-0.878D-02-0.229D-01-0.221D-01
 Coeff-Com:  0.102D+00 0.349D+00 0.606D+00
 Coeff:      0.289D-03-0.375D-03-0.231D-02-0.878D-02-0.229D-01-0.221D-01
 Coeff:      0.102D+00 0.349D+00 0.606D+00
 Gap=     0.211 Goal=   None    Shift=    0.000
 RMSDP=2.28D-05 MaxDP=3.52D-03 DE= 2.73D-06 OVMax= 2.32D-04

 Cycle  10  Pass 0  IDiag  1:
 RMSU=  4.90D-06    CP:  1.00D+00  6.79D-01  9.78D-01  7.85D-01  1.22D+00
                    CP:  1.51D+00  2.67D+00  2.86D+00  2.05D+00
 E= -1507.86827840020     Delta-E=        0.000003294544 Rises=F Damp=F
 DIIS: error= 3.35D-05 at cycle  10 NSaved=  10.
 NSaved=10 IEnMin= 8 EnMin= -1507.86828442167     IErMin= 9 ErrMin= 2.21D-05
 ErrMax= 3.35D-05  0.00D+00 EMaxC= 1.00D-01 BMatC= 6.39D-07 BMatP= 5.43D-07
 IDIUse=1 WtCom= 1.00D+00 WtEn= 0.00D+00
 Coeff-Com:  0.328D-03-0.398D-03-0.266D-02-0.102D-01-0.274D-01-0.283D-01
 Coeff-Com:  0.116D+00 0.418D+00 0.773D+00-0.239D+00
 Coeff:      0.328D-03-0.398D-03-0.266D-02-0.102D-01-0.274D-01-0.283D-01
 Coeff:      0.116D+00 0.418D+00 0.773D+00-0.239D+00
 Gap=     0.211 Goal=   None    Shift=    0.000
 RMSDP=1.15D-05 MaxDP=1.84D-03 DE= 3.29D-06 OVMax= 2.79D-05

 Cycle  11  Pass 0  IDiag  1:
 RMSU=  1.70D-06    CP:  1.00D+00  6.79D-01  9.77D-01  7.83D-01  1.19D+00
                    CP:  1.45D+00  2.35D+00  2.38D+00  1.46D+00  3.35D-01
 E= -1507.86827395144     Delta-E=        0.000004448764 Rises=F Damp=F
 DIIS: error= 2.76D-05 at cycle  11 NSaved=  11.
 NSaved=11 IEnMin= 8 EnMin= -1507.86828442167     IErMin= 9 ErrMin= 2.21D-05
 ErrMax= 2.76D-05  0.00D+00 EMaxC= 1.00D-01 BMatC= 4.85D-07 BMatP= 5.43D-07
 IDIUse=1 WtCom= 1.00D+00 WtEn= 0.00D+00
 Coeff-Com:  0.104D-03-0.423D-05-0.742D-03-0.492D-02-0.168D-01-0.311D-01
 Coeff-Com:  0.332D-01 0.248D+00 0.771D+00-0.169D+01 0.170D+01
 Coeff:      0.104D-03-0.423D-05-0.742D-03-0.492D-02-0.168D-01-0.311D-01
 Coeff:      0.332D-01 0.248D+00 0.771D+00-0.169D+01 0.170D+01
 Gap=     0.211 Goal=   None    Shift=    0.000
 RMSDP=2.28D-05 MaxDP=3.56D-03 DE= 4.45D-06 OVMax= 8.43D-05

 Cycle  12  Pass 0  IDiag  1:
 RMSU=  8.84D-06    CP:  1.00D+00  6.76D-01  9.76D-01  7.80D-01  1.16D+00
                    CP:  1.38D+00  1.82D+00  1.80D+00  4.63D-01 -1.57D+00
                    CP:  3.00D+00
 E= -1507.86825519868     Delta-E=        0.000018752762 Rises=F Damp=F
 DIIS: error= 3.61D-05 at cycle  12 NSaved=  12.
 NSaved=12 IEnMin= 8 EnMin= -1507.86828442167     IErMin= 9 ErrMin= 2.21D-05
 ErrMax= 3.61D-05  0.00D+00 EMaxC= 1.00D-01 BMatC= 3.99D-07 BMatP= 4.85D-07
 IDIUse=1 WtCom= 1.00D+00 WtEn= 0.00D+00
 Coeff-Com:  0.954D-04 0.506D-04-0.678D-03-0.531D-02-0.192D-01-0.388D-01
 Coeff-Com:  0.292D-01 0.283D+00 0.953D+00-0.226D+01 0.236D+01-0.298D+00
 Coeff:      0.954D-04 0.506D-04-0.678D-03-0.531D-02-0.192D-01-0.388D-01
 Coeff:      0.292D-01 0.283D+00 0.953D+00-0.226D+01 0.236D+01-0.298D+00
 Gap=     0.211 Goal=   None    Shift=    0.000
 RMSDP=7.88D-06 MaxDP=6.65D-04 DE= 1.88D-05 OVMax= 3.07D-05

 Initial convergence to 1.0D-05 achieved.  Increase integral accuracy.
 Cycle  13  Pass 1  IDiag  1:
 E= -1507.86804879168     Delta-E=        0.000206406997 Rises=F Damp=F
 DIIS: error= 3.33D-04 at cycle   1 NSaved=   1.
 NSaved= 1 IEnMin= 1 EnMin= -1507.86804879168     IErMin= 1 ErrMin= 3.33D-04
 ErrMax= 3.33D-04  0.00D+00 EMaxC= 1.00D-01 BMatC= 9.17D-05 BMatP= 9.17D-05
 IDIUse=3 WtCom= 9.97D-01 WtEn= 3.33D-03
 Coeff-Com:  0.100D+01
 Coeff-En:   0.100D+01
 Coeff:      0.100D+01
 Gap=     0.211 Goal=   None    Shift=    0.000
 RMSDP=7.88D-06 MaxDP=6.65D-04 DE= 2.06D-04 OVMax= 1.04D-03

 Cycle  14  Pass 1  IDiag  1:
 RMSU=  4.78D-04    CP:  9.94D-01
 E= -1507.86810983983     Delta-E=       -0.000061048151 Rises=F Damp=F
 DIIS: error= 6.44D-06 at cycle   2 NSaved=   2.
 NSaved= 2 IEnMin= 2 EnMin= -1507.86810983983     IErMin= 2 ErrMin= 6.44D-06
 ErrMax= 6.44D-06  0.00D+00 EMaxC= 1.00D-01 BMatC= 1.50D-07 BMatP= 9.17D-05
 IDIUse=1 WtCom= 1.00D+00 WtEn= 0.00D+00
 Coeff-Com: -0.153D-01 0.102D+01
 Coeff:     -0.153D-01 0.102D+01
 Gap=     0.211 Goal=   None    Shift=    0.000
 RMSDP=1.68D-05 MaxDP=1.69D-03 DE=-6.10D-05 OVMax= 1.92D-04

 Cycle  15  Pass 1  IDiag  1:
 RMSU=  5.13D-06    CP:  9.94D-01  1.03D+00
 E= -1507.86810980814     Delta-E=        0.000000031690 Rises=F Damp=F
 DIIS: error= 9.34D-06 at cycle   3 NSaved=   3.
 NSaved= 3 IEnMin= 2 EnMin= -1507.86810983983     IErMin= 2 ErrMin= 6.44D-06
 ErrMax= 9.34D-06  0.00D+00 EMaxC= 1.00D-01 BMatC= 2.39D-07 BMatP= 1.50D-07
 IDIUse=1 WtCom= 1.00D+00 WtEn= 0.00D+00
 Coeff-Com: -0.102D-01 0.593D+00 0.418D+00
 Coeff:     -0.102D-01 0.593D+00 0.418D+00
 Gap=     0.211 Goal=   None    Shift=    0.000
 RMSDP=7.48D-07 MaxDP=7.47D-05 DE= 3.17D-08 OVMax= 1.38D-04

 Cycle  16  Pass 1  IDiag  1:
 RMSU=  7.04D-07    CP:  9.94D-01  1.03D+00  1.01D+00
 E= -1507.86811001269     Delta-E=       -0.000000204551 Rises=F Damp=F
 DIIS: error= 1.39D-06 at cycle   4 NSaved=   4.
 NSaved= 4 IEnMin= 4 EnMin= -1507.86811001269     IErMin= 4 ErrMin= 1.39D-06
 ErrMax= 1.39D-06  0.00D+00 EMaxC= 1.00D-01 BMatC= 5.12D-09 BMatP= 1.50D-07
 IDIUse=1 WtCom= 1.00D+00 WtEn= 0.00D+00
 Coeff-Com: -0.180D-02 0.922D-01 0.140D+00 0.770D+00
 Coeff:     -0.180D-02 0.922D-01 0.140D+00 0.770D+00
 Gap=     0.211 Goal=   None    Shift=    0.000
 RMSDP=3.59D-07 MaxDP=4.33D-05 DE=-2.05D-07 OVMax= 2.81D-05

 Cycle  17  Pass 1  IDiag  1:
 RMSU=  2.01D-07    CP:  9.94D-01  1.03D+00  1.04D+00  1.04D+00
 E= -1507.86811001715     Delta-E=       -0.000000004453 Rises=F Damp=F
 DIIS: error= 6.63D-07 at cycle   5 NSaved=   5.
 NSaved= 5 IEnMin= 5 EnMin= -1507.86811001715     IErMin= 5 ErrMin= 6.63D-07
 ErrMax= 6.63D-07  0.00D+00 EMaxC= 1.00D-01 BMatC= 1.39D-09 BMatP= 5.12D-09
 IDIUse=1 WtCom= 1.00D+00 WtEn= 0.00D+00
 Coeff-Com:  0.460D-03-0.330D-01 0.140D-01 0.394D+00 0.624D+00
 Coeff:      0.460D-03-0.330D-01 0.140D-01 0.394D+00 0.624D+00
 Gap=     0.211 Goal=   None    Shift=    0.000
 RMSDP=1.13D-07 MaxDP=1.02D-05 DE=-4.45D-09 OVMax= 1.07D-05

 Cycle  18  Pass 1  IDiag  1:
 RMSU=  7.02D-08    CP:  9.94D-01  1.03D+00  1.05D+00  1.08D+00  9.93D-01
 E= -1507.86811001851     Delta-E=       -0.000000001360 Rises=F Damp=F
 DIIS: error= 1.48D-07 at cycle   6 NSaved=   6.
 NSaved= 6 IEnMin= 6 EnMin= -1507.86811001851     IErMin= 6 ErrMin= 1.48D-07
 ErrMax= 1.48D-07  0.00D+00 EMaxC= 1.00D-01 BMatC= 9.33D-11 BMatP= 1.39D-09
 IDIUse=1 WtCom= 1.00D+00 WtEn= 0.00D+00
 Coeff-Com:  0.329D-03-0.206D-01-0.728D-02 0.854D-01 0.244D+00 0.699D+00
 Coeff:      0.329D-03-0.206D-01-0.728D-02 0.854D-01 0.244D+00 0.699D+00
 Gap=     0.211 Goal=   None    Shift=    0.000
 RMSDP=3.05D-08 MaxDP=4.22D-06 DE=-1.36D-09 OVMax= 5.06D-06

 Cycle  19  Pass 1  IDiag  1:
 RMSU=  2.17D-08    CP:  9.94D-01  1.03D+00  1.06D+00  1.08D+00  1.09D+00
                    CP:  1.07D+00
 E= -1507.86811001858     Delta-E=       -0.000000000077 Rises=F Damp=F
 DIIS: error= 9.28D-08 at cycle   7 NSaved=   7.
 NSaved= 7 IEnMin= 7 EnMin= -1507.86811001858     IErMin= 7 ErrMin= 9.28D-08
 ErrMax= 9.28D-08  0.00D+00 EMaxC= 1.00D-01 BMatC= 1.96D-11 BMatP= 9.33D-11
 IDIUse=1 WtCom= 1.00D+00 WtEn= 0.00D+00
 Coeff-Com:  0.239D-04-0.466D-03-0.661D-02-0.599D-01-0.455D-01 0.298D+00
 Coeff-Com:  0.814D+00
 Coeff:      0.239D-04-0.466D-03-0.661D-02-0.599D-01-0.455D-01 0.298D+00
 Coeff:      0.814D+00
 Gap=     0.211 Goal=   None    Shift=    0.000
 RMSDP=1.68D-08 MaxDP=2.71D-06 DE=-7.73D-11 OVMax= 3.53D-06

 Cycle  20  Pass 1  IDiag  1:
 RMSU=  1.16D-08    CP:  9.94D-01  1.03D+00  1.06D+00  1.09D+00  1.12D+00
                    CP:  1.20D+00  1.10D+00
 E= -1507.86811001863     Delta-E=       -0.000000000044 Rises=F Damp=F
 DIIS: error= 6.45D-08 at cycle   8 NSaved=   8.
 NSaved= 8 IEnMin= 8 EnMin= -1507.86811001863     IErMin= 8 ErrMin= 6.45D-08
 ErrMax= 6.45D-08  0.00D+00 EMaxC= 1.00D-01 BMatC= 6.33D-12 BMatP= 1.96D-11
 IDIUse=1 WtCom= 1.00D+00 WtEn= 0.00D+00
 Coeff-Com: -0.419D-04 0.323D-02-0.273D-02-0.491D-01-0.686D-01 0.472D-01
 Coeff-Com:  0.469D+00 0.601D+00
 Coeff:     -0.419D-04 0.323D-02-0.273D-02-0.491D-01-0.686D-01 0.472D-01
 Coeff:      0.469D+00 0.601D+00
 Gap=     0.211 Goal=   None    Shift=    0.000
 RMSDP=6.29D-09 MaxDP=7.75D-07 DE=-4.41D-11 OVMax= 1.25D-06

 SCF Done:  E(RM062X) =  -1507.86811002     A.U. after   20 cycles
            NFock= 20  Conv=0.63D-08     -V/T= 2.0041
 KE= 1.501770763019D+03 PE=-8.410310605711D+03 EE= 2.964725549398D+03
 Leave Link  502 at Sun Feb 19 04:32:42 2023, MaxMem=  2684354560 cpu:            8143.7 elap:             509.8
 (Enter /storage/apps/GAUSSIAN/G16_RevA03/g16/l601.exe)
 Copying SCF densities to generalized density rwf, IOpCl= 0 IROHF=0.

 **********************************************************************

            Population analysis using the SCF density.

 **********************************************************************

 Alpha  occ. eigenvalues --  -89.89862 -19.64497 -19.63853 -19.61971 -19.61058
 Alpha  occ. eigenvalues --  -19.59270 -14.80298 -14.77446 -10.64773 -10.63912
 Alpha  occ. eigenvalues --  -10.63429 -10.60509 -10.60126 -10.59644 -10.59508
 Alpha  occ. eigenvalues --  -10.58153 -10.56523 -10.56100 -10.55050 -10.54832
 Alpha  occ. eigenvalues --  -10.54357 -10.54325 -10.53793 -10.53581  -8.25770
 Alpha  occ. eigenvalues --   -6.17711  -6.17489  -6.17277  -1.20225  -1.16200
 Alpha  occ. eigenvalues --   -1.16057  -1.15768  -1.14162  -1.09122  -1.01964
 Alpha  occ. eigenvalues --   -0.93026  -0.90709  -0.88653  -0.87728  -0.87687
 Alpha  occ. eigenvalues --   -0.86317  -0.80855  -0.79117  -0.75496  -0.74251
 Alpha  occ. eigenvalues --   -0.73302  -0.70784  -0.68626  -0.66934  -0.66757
 Alpha  occ. eigenvalues --   -0.63964  -0.63081  -0.61154  -0.60447  -0.60069
 Alpha  occ. eigenvalues --   -0.58266  -0.56956  -0.55144  -0.54596  -0.54059
 Alpha  occ. eigenvalues --   -0.53687  -0.52889  -0.52214  -0.51196  -0.50841
 Alpha  occ. eigenvalues --   -0.50071  -0.49751  -0.49596  -0.48662  -0.48576
 Alpha  occ. eigenvalues --   -0.48335  -0.48032  -0.47262  -0.46538  -0.45981
 Alpha  occ. eigenvalues --   -0.45421  -0.44864  -0.44376  -0.44017  -0.42993
 Alpha  occ. eigenvalues --   -0.42772  -0.42473  -0.41884  -0.39249  -0.38281
 Alpha  occ. eigenvalues --   -0.35844  -0.35292  -0.34963  -0.34540  -0.34386
 Alpha  occ. eigenvalues --   -0.32488  -0.31884  -0.30674  -0.29181  -0.23988
 Alpha virt. eigenvalues --   -0.02886   0.00257   0.04566   0.04739   0.05626
 Alpha virt. eigenvalues --    0.06011   0.06764   0.07391   0.08403   0.08609
 Alpha virt. eigenvalues --    0.08903   0.09440   0.09942   0.11032   0.11202
 Alpha virt. eigenvalues --    0.11382   0.12544   0.12616   0.12772   0.13444
 Alpha virt. eigenvalues --    0.13902   0.14001   0.14400   0.14849   0.15022
 Alpha virt. eigenvalues --    0.15731   0.16176   0.16283   0.16957   0.17931
 Alpha virt. eigenvalues --    0.18734   0.19102   0.19573   0.19798   0.20114
 Alpha virt. eigenvalues --    0.20576   0.21076   0.21452   0.21878   0.22073
 Alpha virt. eigenvalues --    0.22762   0.23486   0.23794   0.24184   0.24962
 Alpha virt. eigenvalues --    0.25370   0.25705   0.25881   0.26466   0.26807
 Alpha virt. eigenvalues --    0.27357   0.27791   0.27989   0.28500   0.29059
 Alpha virt. eigenvalues --    0.29254   0.29608   0.30090   0.30693   0.31693
 Alpha virt. eigenvalues --    0.31843   0.32202   0.32408   0.32636   0.33391
 Alpha virt. eigenvalues --    0.33867   0.34087   0.34395   0.35214   0.36044
 Alpha virt. eigenvalues --    0.36671   0.37505   0.37640   0.38098   0.38293
 Alpha virt. eigenvalues --    0.38800   0.39277   0.39935   0.40252   0.40419
 Alpha virt. eigenvalues --    0.40751   0.40982   0.41135   0.41511   0.42226
 Alpha virt. eigenvalues --    0.42423   0.42685   0.43221   0.43392   0.43612
 Alpha virt. eigenvalues --    0.43884   0.43942   0.44772   0.45471   0.45904
 Alpha virt. eigenvalues --    0.46130   0.46561   0.46701   0.47167   0.47446
 Alpha virt. eigenvalues --    0.47801   0.48478   0.48959   0.49102   0.49240
 Alpha virt. eigenvalues --    0.49425   0.49801   0.50449   0.50500   0.50791
 Alpha virt. eigenvalues --    0.50826   0.51256   0.51566   0.51937   0.52537
 Alpha virt. eigenvalues --    0.52977   0.53489   0.53648   0.54014   0.54660
 Alpha virt. eigenvalues --    0.55188   0.55727   0.55895   0.56407   0.57867
 Alpha virt. eigenvalues --    0.57958   0.58212   0.58311   0.59047   0.59301
 Alpha virt. eigenvalues --    0.60185   0.60456   0.60772   0.61202   0.61812
 Alpha virt. eigenvalues --    0.62723   0.63020   0.63249   0.63461   0.64310
 Alpha virt. eigenvalues --    0.65264   0.65963   0.66399   0.66652   0.67496
 Alpha virt. eigenvalues --    0.67856   0.67972   0.68493   0.69628   0.69749
 Alpha virt. eigenvalues --    0.70980   0.71859   0.72948   0.73100   0.74053
 Alpha virt. eigenvalues --    0.74115   0.74941   0.75911   0.76794   0.77485
 Alpha virt. eigenvalues --    0.77932   0.79079   0.79809   0.80541   0.81372
 Alpha virt. eigenvalues --    0.81731   0.82467   0.82807   0.83349   0.83968
 Alpha virt. eigenvalues --    0.84147   0.85421   0.86209   0.86736   0.87404
 Alpha virt. eigenvalues --    0.88151   0.88594   0.88827   0.89479   0.90432
 Alpha virt. eigenvalues --    0.90897   0.92093   0.92875   0.93125   0.93847
 Alpha virt. eigenvalues --    0.94901   0.95450   0.95605   0.96555   0.96818
 Alpha virt. eigenvalues --    0.97425   0.98068   0.98254   0.98901   0.99380
 Alpha virt. eigenvalues --    1.00067   1.01261   1.02908   1.03633   1.04232
 Alpha virt. eigenvalues --    1.04596   1.04872   1.05663   1.06198   1.06554
 Alpha virt. eigenvalues --    1.07521   1.08755   1.08937   1.09520   1.09811
 Alpha virt. eigenvalues --    1.10468   1.11015   1.11726   1.12381   1.13139
 Alpha virt. eigenvalues --    1.13893   1.14183   1.14859   1.15802   1.16826
 Alpha virt. eigenvalues --    1.16895   1.17568   1.18105   1.18320   1.19516
 Alpha virt. eigenvalues --    1.20588   1.21062   1.22008   1.22798   1.23522
 Alpha virt. eigenvalues --    1.24311   1.25860   1.26785   1.27195   1.28389
 Alpha virt. eigenvalues --    1.28487   1.29777   1.30776   1.31125   1.32353
 Alpha virt. eigenvalues --    1.32812   1.33711   1.33837   1.34955   1.35445
 Alpha virt. eigenvalues --    1.36461   1.37087   1.37473   1.38776   1.40419
 Alpha virt. eigenvalues --    1.41421   1.41830   1.42989   1.43212   1.44060
 Alpha virt. eigenvalues --    1.44947   1.46039   1.47432   1.48698   1.49703
 Alpha virt. eigenvalues --    1.50770   1.51213   1.51426   1.52100   1.52481
 Alpha virt. eigenvalues --    1.54113   1.54509   1.54646   1.55620   1.56410
 Alpha virt. eigenvalues --    1.56535   1.57100   1.57343   1.57722   1.58083
 Alpha virt. eigenvalues --    1.58251   1.58816   1.59192   1.59978   1.60166
 Alpha virt. eigenvalues --    1.60895   1.61684   1.62058   1.62259   1.62474
 Alpha virt. eigenvalues --    1.63398   1.63512   1.64343   1.65062   1.65880
 Alpha virt. eigenvalues --    1.66083   1.66240   1.67068   1.67516   1.68477
 Alpha virt. eigenvalues --    1.68728   1.69801   1.70437   1.70687   1.71142
 Alpha virt. eigenvalues --    1.71784   1.72432   1.73342   1.73601   1.73754
 Alpha virt. eigenvalues --    1.74793   1.75399   1.76442   1.77288   1.77847
 Alpha virt. eigenvalues --    1.78543   1.78829   1.79771   1.80274   1.80854
 Alpha virt. eigenvalues --    1.81699   1.82600   1.83474   1.84044   1.84790
 Alpha virt. eigenvalues --    1.85217   1.85427   1.85982   1.86755   1.87347
 Alpha virt. eigenvalues --    1.88367   1.88504   1.89486   1.89664   1.90446
 Alpha virt. eigenvalues --    1.92123   1.92307   1.92982   1.93931   1.95047
 Alpha virt. eigenvalues --    1.95169   1.95664   1.95808   1.96450   1.97057
 Alpha virt. eigenvalues --    1.97507   1.97875   1.99001   2.00051   2.00921
 Alpha virt. eigenvalues --    2.01923   2.02533   2.02887   2.03440   2.04341
 Alpha virt. eigenvalues --    2.05856   2.06330   2.07194   2.08124   2.08257
 Alpha virt. eigenvalues --    2.09001   2.09896   2.11094   2.11748   2.13041
 Alpha virt. eigenvalues --    2.13439   2.13858   2.14456   2.15328   2.16447
 Alpha virt. eigenvalues --    2.17097   2.17720   2.18145   2.19266   2.19746
 Alpha virt. eigenvalues --    2.21095   2.21455   2.22183   2.22800   2.23230
 Alpha virt. eigenvalues --    2.23705   2.24684   2.25077   2.26665   2.27160
 Alpha virt. eigenvalues --    2.27562   2.28227   2.28923   2.29206   2.29367
 Alpha virt. eigenvalues --    2.29990   2.31378   2.31870   2.32245   2.32986
 Alpha virt. eigenvalues --    2.33470   2.34230   2.34438   2.35134   2.35677
 Alpha virt. eigenvalues --    2.36374   2.37178   2.38290   2.39090   2.39740
 Alpha virt. eigenvalues --    2.40670   2.41199   2.42142   2.43043   2.43900
 Alpha virt. eigenvalues --    2.44625   2.45378   2.46150   2.47094   2.47825
 Alpha virt. eigenvalues --    2.48182   2.49148   2.49668   2.51116   2.51548
 Alpha virt. eigenvalues --    2.51938   2.52363   2.53939   2.54248   2.55117
 Alpha virt. eigenvalues --    2.55941   2.56768   2.57561   2.57847   2.58196
 Alpha virt. eigenvalues --    2.58917   2.58974   2.59470   2.60292   2.60498
 Alpha virt. eigenvalues --    2.61303   2.62121   2.62745   2.63656   2.63739
 Alpha virt. eigenvalues --    2.64931   2.65385   2.66232   2.66493   2.67765
 Alpha virt. eigenvalues --    2.67987   2.68771   2.69418   2.69958   2.70801
 Alpha virt. eigenvalues --    2.71388   2.71794   2.72290   2.72952   2.73328
 Alpha virt. eigenvalues --    2.74587   2.74777   2.75772   2.77058   2.77305
 Alpha virt. eigenvalues --    2.77867   2.78150   2.79300   2.80866   2.81450
 Alpha virt. eigenvalues --    2.81854   2.82663   2.83381   2.84111   2.85028
 Alpha virt. eigenvalues --    2.85861   2.86781   2.87165   2.88009   2.89263
 Alpha virt. eigenvalues --    2.90372   2.91514   2.92036   2.92656   2.93251
 Alpha virt. eigenvalues --    2.94236   2.94763   2.96466   2.96630   2.97250
 Alpha virt. eigenvalues --    2.97542   2.98104   2.98826   2.99555   3.00173
 Alpha virt. eigenvalues --    3.01979   3.02205   3.02965   3.03270   3.04181
 Alpha virt. eigenvalues --    3.04711   3.05645   3.05848   3.06781   3.07414
 Alpha virt. eigenvalues --    3.07927   3.08739   3.09171   3.09945   3.10166
 Alpha virt. eigenvalues --    3.10729   3.11131   3.12263   3.12875   3.12970
 Alpha virt. eigenvalues --    3.13546   3.14645   3.15321   3.15736   3.16521
 Alpha virt. eigenvalues --    3.16713   3.17414   3.17900   3.18521   3.18878
 Alpha virt. eigenvalues --    3.19772   3.20240   3.20971   3.21611   3.22406
 Alpha virt. eigenvalues --    3.22822   3.23369   3.24222   3.25365   3.26153
 Alpha virt. eigenvalues --    3.26316   3.27131   3.27433   3.28479   3.29454
 Alpha virt. eigenvalues --    3.29773   3.30299   3.30683   3.31239   3.31837
 Alpha virt. eigenvalues --    3.32196   3.32855   3.33328   3.33786   3.34063
 Alpha virt. eigenvalues --    3.35083   3.36159   3.36498   3.36937   3.37951
 Alpha virt. eigenvalues --    3.38327   3.38643   3.39238   3.39562   3.39674
 Alpha virt. eigenvalues --    3.40709   3.41301   3.42076   3.42680   3.43368
 Alpha virt. eigenvalues --    3.43865   3.44389   3.45227   3.45579   3.45901
 Alpha virt. eigenvalues --    3.47266   3.47693   3.48357   3.48942   3.49121
 Alpha virt. eigenvalues --    3.49696   3.50850   3.51226   3.51626   3.52761
 Alpha virt. eigenvalues --    3.53813   3.54579   3.54984   3.56091   3.57256
 Alpha virt. eigenvalues --    3.57368   3.58115   3.58570   3.58783   3.61359
 Alpha virt. eigenvalues --    3.62124   3.63059   3.63740   3.64280   3.64961
 Alpha virt. eigenvalues --    3.66155   3.67251   3.67848   3.69128   3.69488
 Alpha virt. eigenvalues --    3.70801   3.71574   3.72406   3.73181   3.73708
 Alpha virt. eigenvalues --    3.75304   3.76245   3.77130   3.77565   3.77713
 Alpha virt. eigenvalues --    3.78874   3.79981   3.80413   3.80486   3.81648
 Alpha virt. eigenvalues --    3.82094   3.84578   3.84904   3.88129   3.89415
 Alpha virt. eigenvalues --    3.90122   3.91388   3.92446   3.92693   3.93342
 Alpha virt. eigenvalues --    3.93962   3.95677   3.96604   3.97596   3.99013
 Alpha virt. eigenvalues --    4.00239   4.01691   4.03722   4.06003   4.07163
 Alpha virt. eigenvalues --    4.07652   4.08165   4.09568   4.10494   4.11113
 Alpha virt. eigenvalues --    4.11788   4.12534   4.14050   4.15123   4.16161
 Alpha virt. eigenvalues --    4.17573   4.20748   4.21768   4.22171   4.23553
 Alpha virt. eigenvalues --    4.24765   4.26997   4.27669   4.28247   4.28934
 Alpha virt. eigenvalues --    4.30576   4.32756   4.34725   4.35726   4.38254
 Alpha virt. eigenvalues --    4.38964   4.39212   4.39804   4.41082   4.41212
 Alpha virt. eigenvalues --    4.43113   4.45359   4.45818   4.48193   4.49465
 Alpha virt. eigenvalues --    4.50933   4.51280   4.53401   4.54982   4.56648
 Alpha virt. eigenvalues --    4.59779   4.60655   4.65806   4.65941   4.68130
 Alpha virt. eigenvalues --    4.70472   4.71247   4.72907   4.74636   4.75513
 Alpha virt. eigenvalues --    4.76735   4.78097   4.79707   4.80683   4.81425
 Alpha virt. eigenvalues --    4.84271   4.86811   4.87722   4.88709   4.92402
 Alpha virt. eigenvalues --    4.93085   4.93806   4.95167   4.97566   4.98572
 Alpha virt. eigenvalues --    4.99340   5.01125   5.01724   5.04092   5.06614
 Alpha virt. eigenvalues --    5.08367   5.12850   5.13674   5.16630   5.19660
 Alpha virt. eigenvalues --    5.22845   5.23073   5.23901   5.24538   5.28584
 Alpha virt. eigenvalues --    5.29203   5.30165   5.31183   5.34242   5.35224
 Alpha virt. eigenvalues --    5.37010   5.41152   5.42848   5.44227   5.46780
 Alpha virt. eigenvalues --    5.47162   5.49228   5.53683   5.57465   5.58013
 Alpha virt. eigenvalues --    5.62940   5.65979   5.74168   5.75799   5.77683
 Alpha virt. eigenvalues --    5.79067   5.79568   5.82968   5.84030   5.86008
 Alpha virt. eigenvalues --    5.87444   5.88615   5.90271   5.92394   5.93449
 Alpha virt. eigenvalues --    5.98242   6.02392   6.07523   6.16814   6.20223
 Alpha virt. eigenvalues --    6.22598   6.25529   6.28585   6.31395   6.33867
 Alpha virt. eigenvalues --    6.38193   6.44457   6.44901   6.47595   6.52323
 Alpha virt. eigenvalues --    6.57168   6.58844   6.69370   6.73410   6.74414
 Alpha virt. eigenvalues --    6.78533   6.80944   6.82556   6.86137   6.86272
 Alpha virt. eigenvalues --    6.87604   6.92068   6.98708   7.01607   7.07066
 Alpha virt. eigenvalues --    7.08227   7.08628   7.09747   7.15742   7.24335
 Alpha virt. eigenvalues --    7.25472   7.33471   8.99965   9.39488   9.52067
 Alpha virt. eigenvalues --   19.83477  22.28868  22.42049  22.48103  22.50326
 Alpha virt. eigenvalues --   22.64930  22.67906  22.69151  22.72109  22.81639
 Alpha virt. eigenvalues --   22.86065  22.87415  23.01593  23.03415  23.05208
 Alpha virt. eigenvalues --   23.19278  23.48511  32.14830  33.18695  44.13255
 Alpha virt. eigenvalues --   44.18155  44.23589  44.27754  44.56969
          Condensed to atoms (all electrons):
               1          2          3          4          5          6
     1  C    5.115866   0.420906   0.413737  -0.017697  -0.000028  -0.000130
     2  H    0.420906   0.509620  -0.022661  -0.001520   0.000415  -0.000005
     3  H    0.413737  -0.022661   0.540163   0.001555  -0.000012  -0.000007
     4  C   -0.017697  -0.001520   0.001555   5.652679   0.471670   0.237637
     5  H   -0.000028   0.000415  -0.000012   0.471670   0.549750  -0.031059
     6  O   -0.000130  -0.000005  -0.000007   0.237637  -0.031059   8.017068
     7  H   -0.000006  -0.000008   0.000004  -0.064376  -0.003506   0.292684
     8  C    0.010928   0.013619  -0.010271  -0.171788  -0.080756  -0.052734
     9  H    0.010775   0.000030  -0.002164  -0.135301   0.003332   0.002205
    10  O    0.007546  -0.000365   0.000322  -0.045040   0.002141   0.000740
    11  H   -0.000638  -0.000194   0.000484   0.012208  -0.000884  -0.000549
    12  C   -0.003145  -0.000154   0.001176  -0.055918  -0.053710  -0.000500
    13  H   -0.000175   0.000045   0.000123  -0.110275   0.006029   0.000832
    14  C    0.180382  -0.048286  -0.039943   0.155880   0.018357   0.009451
    15  H   -0.073051  -0.006747  -0.003205  -0.014684  -0.000134   0.000062
    16  O   -0.033569   0.000751   0.005197  -0.084481  -0.003027   0.005723
    17  N    0.000079  -0.000099  -0.000033   0.032402  -0.016085  -0.007539
    18  C   -0.001084  -0.000008   0.000008   0.005696  -0.005080   0.004291
    19  H    0.000033  -0.000057   0.000038  -0.014195  -0.002931   0.001371
    20  C   -0.000027   0.000006  -0.000002   0.004662   0.005805  -0.002831
    21  H    0.000004   0.000000  -0.000000  -0.000009   0.000149  -0.000050
    22  C   -0.000011  -0.000001   0.000000   0.000848  -0.000223   0.000131
    23  H   -0.000000   0.000000   0.000000   0.000040   0.000005   0.000001
    24  H    0.000000  -0.000000  -0.000000  -0.000554  -0.000065  -0.000002
    25  C   -0.000063  -0.000006   0.000001  -0.002934  -0.000649  -0.000464
    26  C   -0.000307   0.000026  -0.000003   0.027141  -0.000703  -0.003237
    27  H   -0.000014   0.000001  -0.000000   0.000787  -0.000046   0.000127
    28  C    0.000000  -0.000000  -0.000000   0.000114  -0.000004  -0.000019
    29  O   -0.000000   0.000000  -0.000000  -0.000000   0.000000  -0.000000
    30  N   -0.000000  -0.000000   0.000000   0.000002  -0.000000  -0.000000
    31  H   -0.000000   0.000000   0.000000   0.000000   0.000000  -0.000000
    32  H    0.000000   0.000000  -0.000000   0.000000   0.000000   0.000000
    33  C    0.000001  -0.000000   0.000000  -0.000311  -0.000354  -0.013474
    34  C    0.000001  -0.000000  -0.000000   0.000426   0.000037  -0.000995
    35  C    0.000000   0.000000  -0.000000   0.000118   0.000096   0.000227
    36  C   -0.000000   0.000000   0.000000   0.000001   0.000000   0.000001
    37  C   -0.000000   0.000000   0.000000   0.000329   0.000000   0.000072
    38  O   -0.000000   0.000000  -0.000000  -0.000482  -0.000066  -0.017154
    39  S   -0.000000  -0.000000  -0.000000   0.000388   0.000016   0.000739
    40  H   -0.000000   0.000000  -0.000000   0.000178   0.000021   0.000256
    41  H   -0.000001   0.000000  -0.000000  -0.003903   0.000535   0.014840
    42  H    0.000000   0.000000  -0.000000  -0.000000   0.000000  -0.000000
    43  H    0.000000  -0.000000  -0.000000  -0.000000  -0.000000  -0.000000
    44  H    0.000000  -0.000000  -0.000000  -0.000000  -0.000000  -0.000000
    45  H   -0.000000   0.000000   0.000000   0.000028   0.000003   0.000015
    46  H    0.000000  -0.000000  -0.000000  -0.000040   0.000000   0.000010
    47  H    0.380605  -0.022070  -0.025027   0.002979  -0.001058   0.000056
    48  H    0.000000   0.000000  -0.000000   0.000073   0.000002   0.000418
               7          8          9         10         11         12
     1  C   -0.000006   0.010928   0.010775   0.007546  -0.000638  -0.003145
     2  H   -0.000008   0.013619   0.000030  -0.000365  -0.000194  -0.000154
     3  H    0.000004  -0.010271  -0.002164   0.000322   0.000484   0.001176
     4  C   -0.064376  -0.171788  -0.135301  -0.045040   0.012208  -0.055918
     5  H   -0.003506  -0.080756   0.003332   0.002141  -0.000884  -0.053710
     6  O    0.292684  -0.052734   0.002205   0.000740  -0.000549  -0.000500
     7  H    0.437296   0.003112  -0.000958  -0.001216   0.000285  -0.002111
     8  C    0.003112   5.597941   0.536099   0.263312  -0.040121   0.020403
     9  H   -0.000958   0.536099   0.571285  -0.057113  -0.001654   0.016248
    10  O   -0.001216   0.263312  -0.057113   8.036554   0.288571  -0.014686
    11  H    0.000285  -0.040121  -0.001654   0.288571   0.427367  -0.001686
    12  C   -0.002111   0.020403   0.016248  -0.014686  -0.001686   5.588655
    13  H   -0.003131   0.018806   0.002943   0.016533  -0.001589   0.479774
    14  C   -0.000049   0.034113  -0.110972  -0.048032  -0.004935  -0.106774
    15  H    0.000131  -0.038297   0.011315  -0.007325   0.005752   0.000476
    16  O    0.001566  -0.042949   0.004948   0.007844   0.000344   0.283248
    17  N    0.020189   0.000289  -0.001060  -0.000664   0.000041   0.130149
    18  C   -0.002926  -0.004961  -0.000476  -0.000530   0.000021  -0.114298
    19  H    0.000663   0.001213   0.000037  -0.000006   0.000004   0.017675
    20  C   -0.001358  -0.002083   0.000008   0.000010  -0.000001   0.020202
    21  H    0.000011  -0.000009   0.000000   0.000000  -0.000000   0.000583
    22  C    0.000454  -0.000014  -0.000003  -0.000004   0.000000  -0.014495
    23  H   -0.000030   0.000000   0.000000   0.000000  -0.000000   0.000030
    24  H    0.001074   0.000018  -0.000000   0.000000   0.000000   0.001154
    25  C   -0.000893  -0.000197  -0.000002  -0.000049   0.000001  -0.024106
    26  C   -0.004134  -0.003724  -0.000143  -0.000858  -0.000042  -0.082203
    27  H    0.000176  -0.000096  -0.000007  -0.000123   0.000006  -0.000617
    28  C    0.000078   0.000007   0.000000  -0.000000  -0.000000  -0.001502
    29  O    0.000022   0.000001   0.000000  -0.000000  -0.000000   0.000433
    30  N   -0.000000  -0.000000  -0.000000  -0.000000  -0.000000  -0.000019
    31  H   -0.000000  -0.000000   0.000000  -0.000000  -0.000000  -0.000006
    32  H   -0.000000  -0.000000  -0.000000  -0.000000  -0.000000  -0.000006
    33  C    0.005427   0.000752   0.000003  -0.000558   0.000043  -0.000713
    34  C   -0.001883  -0.000098  -0.000001   0.000025  -0.000002  -0.002183
    35  C    0.001231  -0.000073  -0.000000   0.000001  -0.000000   0.001398
    36  C   -0.000012  -0.000000  -0.000000  -0.000000  -0.000000   0.000009
    37  C   -0.001673   0.000003  -0.000000  -0.000000   0.000000  -0.000867
    38  O    0.027974   0.000025   0.000004   0.000003  -0.000000  -0.001310
    39  S   -0.001874  -0.000018  -0.000001  -0.000001  -0.000000  -0.000161
    40  H   -0.001500  -0.000015  -0.000000   0.000009  -0.000001   0.000026
    41  H   -0.001953  -0.001794   0.000036   0.001886  -0.000144   0.001683
    42  H    0.000001   0.000000  -0.000000   0.000000  -0.000000  -0.000001
    43  H    0.000001   0.000000  -0.000000   0.000000   0.000000   0.000002
    44  H    0.000000  -0.000000  -0.000000   0.000000   0.000000  -0.000000
    45  H   -0.000172  -0.000000   0.000000  -0.000000  -0.000000  -0.000030
    46  H    0.000060  -0.000001  -0.000000   0.000000   0.000000   0.000193
    47  H    0.000042  -0.016497   0.001499   0.000106   0.000144  -0.001101
    48  H   -0.000228  -0.000005   0.000001   0.000005  -0.000001  -0.000014
              13         14         15         16         17         18
     1  C   -0.000175   0.180382  -0.073051  -0.033569   0.000079  -0.001084
     2  H    0.000045  -0.048286  -0.006747   0.000751  -0.000099  -0.000008
     3  H    0.000123  -0.039943  -0.003205   0.005197  -0.000033   0.000008
     4  C   -0.110275   0.155880  -0.014684  -0.084481   0.032402   0.005696
     5  H    0.006029   0.018357  -0.000134  -0.003027  -0.016085  -0.005080
     6  O    0.000832   0.009451   0.000062   0.005723  -0.007539   0.004291
     7  H   -0.003131  -0.000049   0.000131   0.001566   0.020189  -0.002926
     8  C    0.018806   0.034113  -0.038297  -0.042949   0.000289  -0.004961
     9  H    0.002943  -0.110972   0.011315   0.004948  -0.001060  -0.000476
    10  O    0.016533  -0.048032  -0.007325   0.007844  -0.000664  -0.000530
    11  H   -0.001589  -0.004935   0.005752   0.000344   0.000041   0.000021
    12  C    0.479774  -0.106774   0.000476   0.283248   0.130149  -0.114298
    13  H    0.516062  -0.008885   0.006381  -0.039328  -0.069385   0.013258
[...]
      3        1          -0.006668811   -0.001359041   -0.003313828
      4        6          -0.007740250   -0.002730803    0.002895275
      5        1           0.003705738    0.004041194    0.001633770
      6        8           0.007503074    0.001559902   -0.005585917
      7        1          -0.004520675   -0.005518882    0.004249378
      8        6          -0.003594030   -0.011495598   -0.001230902
      9        1          -0.001171228    0.005449862   -0.004061019
     10        8           0.026714510    0.001658136   -0.005178326
     11        1          -0.024732499    0.004562311    0.007700296
     12        6           0.000883363    0.006747563    0.005824645
     13        1          -0.001227695   -0.001771953   -0.002347214
     14        6           0.008496494   -0.001675811    0.001665869
     15        1          -0.003453880    0.003055738    0.001149432
     16        8           0.003243821   -0.003907903   -0.006881863
     17        7           0.002218860    0.004327262   -0.002879200
     18        6          -0.010808830   -0.003641735   -0.002522779
     19        1          -0.001717408    0.007955995   -0.000633708
     20        6           0.006292780   -0.006255568    0.000802190
     21        1           0.003152368    0.005557272    0.000830253
     22        6          -0.016077189    0.014805338    0.019480749
     23        1           0.004173346   -0.002173105    0.002992920
     24        1           0.016077369   -0.037760593   -0.035643041
     25        6           0.006543802    0.001787571   -0.000684007
     26        6          -0.003716026   -0.000470554   -0.003447919
     27        1          -0.006154767   -0.004474252    0.002143685
     28        6           0.019901927   -0.002395279    0.019796907
     29        8          -0.006800115   -0.004634992   -0.007003410
     30        7          -0.007239530    0.001218818   -0.026738452
     31        1          -0.005347385   -0.006707953    0.006797298
     32        1           0.006835796    0.011744869    0.010057150
     33        6          -0.006626132   -0.013151238   -0.002784349
     34        6           0.001219343   -0.013733750    0.011666661
     35        6          -0.011625924    0.000402660   -0.011124329
     36        6          -0.002327157    0.002492058   -0.004245972
     37        6           0.003536761    0.027000051    0.025357926
     38        8           0.001885679    0.010991970   -0.007537627
     39       16           0.006126072    0.002939245    0.001184024
     40        1           0.005340859    0.002697145   -0.003298981
     41        1          -0.001918310    0.005633411    0.004760531
     42        1          -0.000455530   -0.000578388    0.005406053
     43        1          -0.003348032   -0.004290884    0.003388297
     44        1           0.005949335   -0.001673031   -0.002734585
     45        1           0.003336984    0.002547695   -0.004025903
     46        1          -0.003235080   -0.006154178    0.003719594
     47        1           0.001420014   -0.004548668   -0.001132861
     48        1          -0.002166564    0.003813792   -0.004866389
 -------------------------------------------------------------------
 Cartesian Forces:  Max     0.037760593 RMS     0.008973765
 Leave Link  716 at Sun Feb 19 04:35:46 2023, MaxMem=  2684354560 cpu:               0.4 elap:               0.0
 (Enter /storage/apps/GAUSSIAN/G16_RevA03/g16/l103.exe)

 GradGradGradGradGradGradGradGradGradGradGradGradGradGradGradGradGradGrad
 Berny optimization.
 Search for a local minimum.
 Step number   1 out of a maximum of    2
 All quantities printed in internal units (Hartrees-Bohrs-Radians)
 Second derivative matrix not updated -- first step.
 ITU=  0
     Eigenvalues ---    0.00051   0.00066   0.00108   0.00139   0.00181
     Eigenvalues ---    0.00265   0.00349   0.00385   0.00457   0.00490
     Eigenvalues ---    0.00555   0.00763   0.00819   0.00879   0.01028
     Eigenvalues ---    0.01040   0.01138   0.01359   0.01428   0.01710
     Eigenvalues ---    0.01741   0.01938   0.01998   0.02463   0.02798
     Eigenvalues ---    0.02894   0.03166   0.03220   0.03507   0.04000
     Eigenvalues ---    0.04221   0.04532   0.04760   0.04952   0.05040
     Eigenvalues ---    0.05086   0.05263   0.05588   0.05769   0.06026
     Eigenvalues ---    0.06169   0.06273   0.06408   0.06579   0.06965
     Eigenvalues ---    0.06977   0.07265   0.07555   0.07818   0.08255
     Eigenvalues ---    0.08627   0.08971   0.09579   0.09889   0.10468
     Eigenvalues ---    0.10848   0.11397   0.11881   0.12254   0.12381
     Eigenvalues ---    0.12669   0.12779   0.12826   0.13269   0.13434
     Eigenvalues ---    0.13736   0.14285   0.15289   0.15583   0.16354
     Eigenvalues ---    0.17066   0.17465   0.18017   0.18935   0.19103
     Eigenvalues ---    0.19805   0.20579   0.21425   0.21890   0.24501
     Eigenvalues ---    0.26367   0.26755   0.27601   0.30767   0.30887
     Eigenvalues ---    0.32624   0.34446   0.34574   0.36674   0.37010
     Eigenvalues ---    0.37010   0.37010   0.37010   0.37010   0.39029
     Eigenvalues ---    0.41367   0.43555   0.47417   0.53204   0.54763
     Eigenvalues ---    0.60085   0.64128   0.66416   0.68918   0.70192
     Eigenvalues ---    0.71936   0.78930   0.81235   0.87212   0.87462
     Eigenvalues ---    0.88734   0.89371   0.91324   0.91985   0.92441
     Eigenvalues ---    0.93143   0.96646   0.98491   0.98923   1.00294
     Eigenvalues ---    1.02808   1.06586   1.08539   1.10859   1.14682
     Eigenvalues ---    1.14962   1.15644   1.20261   1.26617   1.30074
     Eigenvalues ---    1.37200   1.41429   1.44398   1.48635   1.63938
     Eigenvalues ---    1.73539   2.08735   2.23405
 Quadratic step=8.202D+00 exceeds max=3.000D-01 adjusted using Lamda=-9.151D-02.
 Angle between NR and scaled steps=  69.54 degrees.
 Angle between quadratic step and forces=  44.91 degrees.
 Linear search not attempted -- first point.
 Variable       Old X    -DE/DX   Delta X   Delta X   Delta X     New X
                                 (Linear)    (Quad)   (Total)
    X1        6.42595  -0.00119   0.00000  -0.01938  -0.01938   6.40656
    Y1       -7.00342   0.00866   0.00000   0.01467   0.01467  -6.98875
    Z1       -1.07328  -0.00031   0.00000   0.00568   0.00568  -1.06760
    X2        6.58043  -0.00070   0.00000  -0.01939  -0.01939   6.56104
    Y2       -7.29903  -0.00055   0.00000   0.00090   0.00090  -7.29814
    Z2       -3.12260   0.00671   0.00000   0.02077   0.02077  -3.10183
    X3        8.13816  -0.00667   0.00000  -0.03594  -0.03594   8.10221
    Y3       -7.71306  -0.00136   0.00000  -0.01433  -0.01433  -7.72739
    Z3       -0.13215  -0.00331   0.00000  -0.01476  -0.01476  -0.14691
    X4        2.92607  -0.00774   0.00000  -0.00159  -0.00159   2.92448
    Y4       -2.66357  -0.00273   0.00000   0.00553   0.00553  -2.65804
    Z4        2.14285   0.00290   0.00000   0.00336   0.00336   2.14621
    X5        1.76661   0.00371   0.00000   0.00772   0.00772   1.77433
    Y5       -4.38602   0.00404   0.00000   0.01416   0.01416  -4.37185
    Z5        1.88535   0.00163   0.00000   0.01952   0.01952   1.90486
    X6        2.02401   0.00750   0.00000   0.04015   0.04015   2.06416
    Y6       -1.23201   0.00156   0.00000   0.01882   0.01882  -1.21319
    Z6        4.16254  -0.00559   0.00000  -0.00012  -0.00012   4.16241
    X7        0.84243  -0.00452   0.00000  -0.02999  -0.02999   0.81244
    Y7        0.02782  -0.00552   0.00000  -0.03186  -0.03186  -0.00404
    Z7        3.52772   0.00425   0.00000   0.03582   0.03582   3.56354
    X8        5.67993  -0.00359   0.00000  -0.00126  -0.00126   5.67868
    Y8       -3.52416  -0.01150   0.00000  -0.00141  -0.00141  -3.52557
    Z8        2.30956  -0.00123   0.00000  -0.00539  -0.00539   2.30417
    X9        5.91344  -0.00117   0.00000  -0.00288  -0.00288   5.91056
    Y9       -5.19670   0.00545   0.00000   0.01354   0.01354  -5.18316
    Z9        3.53942  -0.00406   0.00000  -0.01307  -0.01307   3.52635
   X10        7.16484   0.02671   0.00000   0.01333   0.01333   7.17816
   Y10       -1.51044   0.00166   0.00000   0.00722   0.00722  -1.50322
   Z10        3.16325  -0.00518   0.00000  -0.00663  -0.00663   3.15662
   X11        8.94644  -0.02473   0.00000  -0.03001  -0.03001   8.91642
   Y11       -1.84124   0.00456   0.00000   0.00526   0.00526  -1.83598
   Z11        2.69960   0.00770   0.00000   0.01073   0.01073   2.71033
   X12        2.99379   0.00088   0.00000   0.00053   0.00053   2.99431
   Y12       -1.29599   0.00675   0.00000   0.00587   0.00587  -1.29012
   Z12       -0.39340   0.00582   0.00000   0.00194   0.00194  -0.39146
   X13        4.11555  -0.00123   0.00000   0.00039   0.00039   4.11593
   Y13        0.43861  -0.00177   0.00000   0.00167   0.00167   0.44028
   Z13       -0.15246  -0.00235   0.00000  -0.01566  -0.01566  -0.16811
   X14        6.20731   0.00850   0.00000   0.00923   0.00923   6.21654
   Y14       -4.19108  -0.00168   0.00000   0.00523   0.00523  -4.18585
   Z14       -0.51183   0.00167   0.00000   0.00275   0.00275  -0.50907
   X15        8.01484  -0.00345   0.00000  -0.00788  -0.00788   8.00696
   Y15       -3.31522   0.00306   0.00000   0.02246   0.02246  -3.29277
   Z15       -1.05835   0.00115   0.00000   0.00053   0.00053  -1.05783
   X16        4.22369   0.00324   0.00000   0.00752   0.00752   4.23121
   Y16       -3.06016  -0.00391   0.00000  -0.00226  -0.00226  -3.06242
   Z16       -1.95182  -0.00688   0.00000  -0.00601  -0.00601  -1.95783
   X17        0.58191   0.00222   0.00000  -0.00253  -0.00253   0.57938
   Y17       -0.56159   0.00433   0.00000   0.00128   0.00128  -0.56031
   Z17       -1.38054  -0.00288   0.00000  -0.00387  -0.00387  -1.38441
   X18       -1.35731  -0.01081   0.00000  -0.01188  -0.01188  -1.36919
   Y18       -2.32789  -0.00364   0.00000   0.00374   0.00374  -2.32414
   Z18       -1.56815  -0.00252   0.00000   0.00214   0.00214  -1.56601
   X19       -0.86273  -0.00172   0.00000  -0.01280  -0.01280  -0.87553
   Y19       -4.26561   0.00796   0.00000   0.02755   0.02755  -4.23806
   Z19       -1.06981  -0.00063   0.00000   0.01724   0.01724  -1.05257
   X20       -3.65964   0.00629   0.00000   0.00588   0.00588  -3.65376
   Y20       -1.69983  -0.00626   0.00000  -0.00685  -0.00685  -1.70668
   Z20       -2.43221   0.00080   0.00000  -0.00468  -0.00468  -2.43689
   X21       -5.07109   0.00315   0.00000  -0.00071  -0.00071  -5.07179
   Y21       -3.18811   0.00556   0.00000   0.01976   0.01976  -3.16835
   Z21       -2.61075   0.00083   0.00000   0.01616   0.01616  -2.59459
   X22       -4.23515  -0.01608   0.00000   0.00439   0.00439  -4.23075
   Y22        0.93054   0.01481   0.00000  -0.01676  -0.01676   0.91378
   Z22       -3.21810   0.01948   0.00000  -0.00865  -0.00865  -3.22675
   X23       -5.69469   0.00417   0.00000   0.00958   0.00958  -5.68511
   Y23        1.07231  -0.00217   0.00000  -0.01010  -0.01010   1.06221
   Z23       -4.68617   0.00299   0.00000   0.00694   0.00694  -4.67923
   X24       -5.19467   0.01608   0.00000   0.04485   0.04485  -5.14981
   Y24        2.24956  -0.03776   0.00000  -0.16601  -0.16601   2.08356
   Z24       -1.44440  -0.03564   0.00000  -0.11009  -0.11009  -1.55449
   X25       -1.90894   0.00654   0.00000   0.00671   0.00671  -1.90223
   Y25        2.38029   0.00179   0.00000  -0.00441  -0.00441   2.37588
   Z25       -3.73100  -0.00068   0.00000   0.00272   0.00272  -3.72828
   X26        0.30850  -0.00372   0.00000  -0.00737  -0.00737   0.30113
   Y26        1.70724  -0.00047   0.00000  -0.00843  -0.00843   1.69881
   Z26       -2.64983  -0.00345   0.00000  -0.00307  -0.00307  -2.65290
   X27        1.99165  -0.00615   0.00000  -0.01990  -0.01990   1.97176
   Y27        2.88912  -0.00447   0.00000  -0.01319  -0.01319   2.87593
   Z27       -2.84699   0.00214   0.00000   0.01163   0.01163  -2.83536
   X28       -2.00932   0.01990   0.00000   0.02482   0.02482  -1.98450
   Y28        4.77703  -0.00240   0.00000  -0.00934  -0.00934   4.76769
   Z28       -5.21418   0.01980   0.00000   0.01337   0.01337  -5.20081
   X29       -0.63286  -0.00680   0.00000   0.00558   0.00558  -0.62728
   Y29        6.56597  -0.00463   0.00000   0.00025   0.00025   6.56622
   Z29       -4.72121  -0.00700   0.00000  -0.01556  -0.01556  -4.73677
   X30       -3.74049  -0.00724   0.00000   0.01516   0.01516  -3.72534
   Y30        4.86609   0.00122   0.00000   0.00819   0.00819   4.87428
   Z30       -7.10358  -0.02674   0.00000  -0.00959  -0.00959  -7.11316
   X31       -3.40354  -0.00535   0.00000  -0.02689  -0.02689  -3.43043
   Y31        6.31699  -0.00671   0.00000   0.00634   0.00634   6.32332
   Z31       -8.33360   0.00680   0.00000   0.01051   0.01051  -8.32309
   X32       -4.39665   0.00684   0.00000   0.01596   0.01596  -4.38069
   Y32        3.23990   0.01174   0.00000   0.02551   0.02551   3.26541
   Z32       -7.93170   0.01006   0.00000   0.03136   0.03136  -7.90034
   X33        0.93221  -0.00663   0.00000  -0.02148  -0.02148   0.91073
   Y33        4.18702  -0.01315   0.00000  -0.02443  -0.02443   4.16259
   Z33        7.29345  -0.00278   0.00000  -0.01270  -0.01270   7.28074
   X34       -2.19356   0.00122   0.00000  -0.00452  -0.00452  -2.19808
   Y34        4.21527  -0.01373   0.00000  -0.01198  -0.01198   4.20329
   Z34        3.11020   0.01167   0.00000   0.00872   0.00872   3.11892
   X35       -3.45591  -0.01163   0.00000  -0.01418  -0.01418  -3.47010
   Y35        5.41680   0.00040   0.00000   0.01563   0.01563   5.43243
   Z35        0.99413  -0.01112   0.00000   0.01662   0.01662   1.01076
   X36       -7.19921  -0.00233   0.00000  -0.00261  -0.00261  -7.20182
   Y36        6.09739   0.00249   0.00000   0.00127   0.00127   6.09866
   Z36       -1.77074  -0.00425   0.00000  -0.00457  -0.00457  -1.77531
   X37       -5.72287   0.00354   0.00000  -0.03182  -0.03182  -5.75468
   Y37        4.52530   0.02700   0.00000   0.09217   0.09217   4.61747
   Z37        0.09920   0.02536   0.00000   0.08179   0.08179   0.18099
   X38       -2.42774   0.00189   0.00000   0.00402   0.00402  -2.42372
   Y38        1.98779   0.01099   0.00000  -0.01165  -0.01165   1.97614
   Z38        3.71486  -0.00754   0.00000  -0.03430  -0.03430   3.68055
   X39       -0.32488   0.00613   0.00000   0.01080   0.01080  -0.31408
   Y39        6.32020   0.00294   0.00000  -0.01256  -0.01256   6.30764
   Z39        4.93086   0.00118   0.00000  -0.00616  -0.00616   4.92471
   X40       -0.64609   0.00534   0.00000  -0.00039  -0.00039  -0.64649
   Y40        3.32910   0.00270   0.00000  -0.00875  -0.00875   3.32035
   Z40        8.33360  -0.00330   0.00000  -0.00847  -0.00847   8.32513
   X41        2.00418  -0.00192   0.00000   0.00354   0.00354   2.00772
   Y41        2.67531   0.00563   0.00000   0.00155   0.00155   2.67685
   Z41        6.35953   0.00476   0.00000   0.01611   0.01611   6.37564
   X42       -7.73330  -0.00046   0.00000   0.01526   0.01526  -7.71804
   Y42        5.05696  -0.00058   0.00000  -0.04026  -0.04026   5.01670
   Z42       -3.48345   0.00541   0.00000   0.02340   0.02340  -3.46005
   X43       -6.06307  -0.00335   0.00000  -0.00437  -0.00437  -6.06744
   Y43        7.71306  -0.00429   0.00000  -0.01793  -0.01793   7.69514
   Z43       -2.41518   0.00339   0.00000  -0.00803  -0.00803  -2.42321
   X44       -8.94644   0.00595   0.00000   0.00677   0.00677  -8.93966
   Y44        6.80293  -0.00167   0.00000   0.00046   0.00046   6.80339
   Z44       -0.88696  -0.00273   0.00000  -0.03336  -0.03336  -0.92032
   X45       -6.76406   0.00334   0.00000   0.00322   0.00322  -6.76084
   Y45        3.20194   0.00255   0.00000   0.02295   0.02295   3.22489
   Z45        1.30695  -0.00403   0.00000   0.01051   0.01051   1.31746
   X46       -2.56294  -0.00324   0.00000   0.00139   0.00139  -2.56155
   Y46        7.07043  -0.00615   0.00000  -0.02084  -0.02084   7.04960
   Z46        0.12731   0.00372   0.00000   0.00628   0.00628   0.13359
   X47        4.74819   0.00142   0.00000  -0.00625  -0.00625   4.74194
   Y47       -7.95396  -0.00455   0.00000  -0.01647  -0.01647  -7.97042
   Z47       -0.34913  -0.00113   0.00000  -0.00418  -0.00418  -0.35330
   X48        2.15449  -0.00217   0.00000  -0.02946  -0.02946   2.12503
   Y48        5.19419   0.00381   0.00000   0.01953   0.01953   5.21372
   Z48        8.61042  -0.00487   0.00000  -0.03755  -0.03755   8.57287
         Item               Value     Threshold  Converged?
 Maximum Force            0.037761     0.000450     NO 
 RMS     Force            0.008974     0.000300     NO 
 Maximum Displacement     0.166008     0.001800     NO 
 RMS     Displacement     0.025002     0.001200     NO 
 Predicted change in Energy=-1.555859D-02
 GradGradGradGradGradGradGradGradGradGradGradGradGradGradGradGradGradGrad

 Leave Link  103 at Sun Feb 19 04:35:46 2023, MaxMem=  2684354560 cpu:               2.5 elap:               0.2
 (Enter /storage/apps/GAUSSIAN/G16_RevA03/g16/l9999.exe)

 Test job not archived.
 1\1\GINC-T044\Force\RM062X\def2TZVP\C16H24N2O5S1\LV87696\19-Feb-2023\0
 \\#P M062X/Def2TZVP scf=(direct,conver=8) EmpiricalDispersion=GD3 NoSy
 mm Force pop=(NBORead) Charge Prop=(Field,Read)\\Gaussian run using SA
 NDER external interface, route from template gau_job.tpl\\0,1\C,3.4004
 656422,-3.7060496576,-0.5679568427\H,3.4822159191,-3.8624816043,-1.652
 4062437\H,4.3065272533,-4.0815775379,-0.0699295873\C,1.5484102736,-1.4
 095008213,1.1339466731\H,0.9348499195,-2.3209797242,0.9976822646\O,1.0
 710613541,-0.6519518977,2.2027203409\H,0.4457942397,0.0147194171,1.866
 7865531\C,3.005692089,-1.8649064987,1.2221642308\H,3.1292577225,-2.749
 9747378,1.8729805975\O,3.7914683415,-0.799289552,1.6739179068\H,4.7342
 495316,-0.974342532,1.4285664557\C,1.5842429491,-0.6858082748,-0.20817
 79972\H,2.1778540544,0.232100643,-0.0806761405\C,3.2847663634,-2.21782
 56327,-0.2708463977\H,4.2412697073,-1.7543411116,-0.5600562203\O,2.235
 0814897,-1.6193651086,-1.0328574103\N,0.3079330633,-0.297181325,-0.730
 5480604\C,-0.7182576617,-1.2318637454,-0.8298314411\H,-0.4565353557,-2
 .2572643321,-0.5661207026\C,-1.9366004911,-0.8995126568,-1.2870721957\
 H,-2.6835050382,-1.6870746266,-1.3815483139\C,-2.241143027,0.492422347
 1,-1.7029455623\H,-3.0135020423,0.5674394147,-2.4798121785\H,-2.748898
 9207,1.1904176636,-0.7643439122\C,-1.0101670631,1.2595941211,-1.974359
 8052\C,0.1632536148,0.9034321916,-1.402227781\H,1.0539374638,1.5288577
 271,-1.5065601417\C,-1.0632870712,2.5278974235,-2.7592264543\O,-0.3348
 966884,3.4745618442,-2.4983573543\N,-1.9793829969,2.5750235047,-3.7590
 519417\H,-1.8010752048,3.3428057094,-4.4099511128\H,-2.326607056,1.714
 4805803,-4.1972737893\C,0.4933065697,2.2156763629,3.8595264042\C,-1.16
 07835027,2.2306249453,1.6458486224\C,-1.8287914028,2.8664468797,0.5260
 720433\C,-3.8096584554,3.2265993096,-0.9370352937\C,-3.0284110963,2.39
 46864301,0.052493012\O,-1.2847063003,1.0518917479,1.9658183874\S,-0.17
 19185498,3.3445059938,2.6093002189\H,-0.3418976366,1.7616856328,4.4099
 511128\H,1.0605689455,1.4157112854,3.3653180625\H,-4.0922868649,2.6760
 295285,-1.8433608087\H,-3.2084387105,4.0815775379,-1.2780597348\H,-4.7
 342495316,3.5999574853,-0.4693601531\H,-3.5793868668,1.6943938465,0.69
 16055686\H,-1.356250188,3.7415115748,0.0673694878\H,2.5126362088,-4.20
 90525262,-0.184750617\H,1.1401081113,2.7486481679,4.5564401872\\Versio
 n=ES64L-G16RevA.03\HF=-1507.86811\RMSD=6.290e-09\RMSF=8.974e-03\Dipole
 =0.0139642,-1.362339,-1.2892607\Quadrupole=12.1597055,-9.7868934,-2.37
 28121,-9.0220114,9.5839691,-1.1489151\PG=C01 [X(C16H24N2O5S1)]\\@


 ON A CLEAR DISK YOU CAN SEEK FOREVER.
 Job cpu time:       0 days  3 hours  5 minutes 55.1 seconds.
 Elapsed time:       0 days  0 hours 11 minutes 38.7 seconds.
 File lengths (MBytes):  RWF=    435 Int=      0 D2E=      0 Chk=     48 Scr=      1
 Normal termination of Gaussian 16 at Sun Feb 19 04:35:46 2023.
