 Entering Gaussian System, Link 0=g16
 Initial command:
 /storage/apps/GAUSSIAN/G16_RevA03/g16/l1.exe "/scratch/tmp/1267162/Gau-35625.inp" -scrdir="/scratch/tmp/1267162/"
 Entering Link 1 = /storage/apps/GAUSSIAN/G16_RevA03/g16/l1.exe PID=     35626.
  
 Copyright (c) 1988,1990,1992,1993,1995,1998,2003,2009,2016,
            Gaussian, Inc.  All Rights Reserved.
  
 This is part of the Gaussian(R) 16 program.  It is based on
 the Gaussian(R) 09 system (copyright 2009, Gaussian, Inc.),
 the Gaussian(R) 03 system (copyright 2003, Gaussian, Inc.),
 the Gaussian(R) 98 system (copyright 1998, Gaussian, Inc.),
 the Gaussian(R) 94 system (copyright 1995, Gaussian, Inc.),
 the Gaussian 92(TM) system (copyright 1992, Gaussian, Inc.),
 the Gaussian 90(TM) system (copyright 1990, Gaussian, Inc.),
 the Gaussian 88(TM) system (copyright 1988, Gaussian, Inc.),
 the Gaussian 86(TM) system (copyright 1986, Carnegie Mellon
 University), and the Gaussian 82(TM) system (copyright 1983,
 Carnegie Mellon University). Gaussian is a federally registered
 trademark of Gaussian, Inc.
  
 This software contains proprietary and confidential information,
 including trade secrets, belonging to Gaussian, Inc.
  
 This software is provided under written license and may be
 used, copied, transmitted, or stored only in accord with that
 written license.
  
 The following legend is applicable only to US Government
 contracts under FAR:
  
                    RESTRICTED RIGHTS LEGEND
  
 Use, reproduction and disclosure by the US Government is
 subject to restrictions as set forth in subparagraphs (a)
 and (c) of the Commercial Computer Software - Restricted
 Rights clause in FAR 52.227-19.
  
 Gaussian, Inc.
 340 Quinnipiac St., Bldg. 40, Wallingford CT 06492
  
  
 ---------------------------------------------------------------
 Warning -- This program may not be used in any manner that
 competes with the business of Gaussian, Inc. or will provide
 assistance to any competitor of Gaussian, Inc.  The licensee
 of this program is prohibited from giving any competitor of
 Gaussian, Inc. access to this program.  By using this program,
 the user acknowledges that Gaussian, Inc. is engaged in the
 business of creating and licensing software in the field of
 computational chemistry and represents and warrants to the
 licensee that it is not a competitor of Gaussian, Inc. and that
 it will not use this program in any manner prohibited above.
 ---------------------------------------------------------------
  

 Cite this work as:
 Gaussian 16, Revision A.03,
 M. J. Frisch, G. W. Trucks, H. B. Schlegel, G. E. Scuseria, 
 M. A. Robb, J. R. Cheeseman, G. Scalmani, V. Barone, 
 G. A. Petersson, H. Nakatsuji, X. Li, M. Caricato, A. V. Marenich, 
 J. Bloino, B. G. Janesko, R. Gomperts, B. Mennucci, H. P. Hratchian, 
 J. V. Ortiz, A. F. Izmaylov, J. L. Sonnenberg, D. Williams-Young, 
 F. Ding, F. Lipparini, F. Egidi, J. Goings, B. Peng, A. Petrone, 
 T. Henderson, D. Ranasinghe, V. G. Zakrzewski, J. Gao, N. Rega, 
 G. Zheng, W. Liang, M. Hada, M. Ehara, K. Toyota, R. Fukuda, 
 J. Hasegawa, M. Ishida, T. Nakajima, Y. Honda, O. Kitao, H. Nakai, 
 T. Vreven, K. Throssell, J. A. Montgomery, Jr., J. E. Peralta, 
 F. Ogliaro, M. J. Bearpark, J. J. Heyd, E. N. Brothers, K. N. Kudin, 
 V. N. Staroverov, T. A. Keith, R. Kobayashi, J. Normand, 
 K. Raghavachari, A. P. Rendell, J. C. Burant, S. S. Iyengar, 
 J. Tomasi, M. Cossi, J. M. Millam, M. Klene, C. Adamo, R. Cammi, 
 J. W. Ochterski, R. L. Martin, K. Morokuma, O. Farkas, 
 J. B. Foresman, and D. J. Fox, Gaussian, Inc., Wallingford CT, 2016.
 
 ******************************************
 Gaussian 16:  ES64L-G16RevA.03 25-Dec-2016
                19-Feb-2023 
 ******************************************
 %chk=gau_job.chk
 %NProcShared=16
 Will use up to   16 processors via shared memory.
 %mem=20GB
 ----------------------------------------------------------------------
 #P M062X/Def2TZVP scf=(direct,conver=8) EmpiricalDispersion=GD3 NoSymm
  Force pop=(NBORead) Charge Prop=(Field,Read)
 ----------------------------------------------------------------------
 1/10=7,18=10,28=-2,30=1,38=1,125=101/1,3;
 2/12=2,15=1,17=6,18=5,29=2,40=1/2;
 3/5=44,7=101,11=2,25=1,30=1,71=1,74=-55,124=31/1,2,3;
 4//1;
 5/5=2,6=8,38=5/2;
 6/7=2,8=2,9=2,10=2,14=2,15=1,28=1,40=2/1,2,7;
 7/7=1,16=-2,29=1,30=1/1,2,3,16;
 1/10=7,18=10,28=-2,30=1/3;
 99/12=1/99;
 Leave Link    1 at Sun Feb 19 04:26:07 2023, MaxMem=  2684354560 cpu:               0.7 elap:               0.0
 (Enter /storage/apps/GAUSSIAN/G16_RevA03/g16/l101.exe)
 ----------------------------------------------------------------------
 Gaussian run using SANDER external interface, route from template gau_
 job.tpl
 ----------------------------------------------------------------------
 Symbolic Z-matrix:
 Charge =  0 Multiplicity = 1
 C                     3.39198  -3.69728  -0.56209 
 H                     3.47194  -3.85313  -1.64667 
 H                     4.29915  -4.07188  -0.06564 
 C                     1.53888  -1.39856   1.14256 
 H                     0.9266   -2.31117   1.00561 
 O                     1.06491  -0.64286   2.21135 
 H                     0.42876   0.02154   1.88706 
 C                     2.99726  -1.85571   1.22868 
 H                     3.11969  -2.74067   1.87973 
 O                     3.78394  -0.79086   1.67912 
 H                     4.72659  -0.9666    1.43373 
 C                     1.57834  -0.67708  -0.20097 
 H                     2.16996   0.24228  -0.07355 
 C                     3.27643  -2.20993  -0.26348 
 H                     4.23117  -1.7445   -0.55465 
 O                     2.22472  -1.61033  -1.02573 
 N                     0.2998   -0.28902  -0.73205 
 C                    -0.72391  -1.21906  -0.81838 
 H                    -0.46908  -2.24049  -0.53836 
 C                    -1.94328  -0.88444  -1.28527 
 H                    -2.69437  -1.66852  -1.36826 
 C                    -2.22391   0.48803  -1.73058 
 H                    -3.02366   0.58751  -2.47519 
 H                    -2.75929   1.25164  -0.7366 
 C                    -1.01643   1.2671   -1.97339 
 C                     0.15948   0.91288  -1.39092 
 H                     1.04711   1.54311  -1.4898 
 C                    -1.06514   2.53753  -2.76054 
 O                    -0.33414   3.47968  -2.49869 
 N                    -1.97767   2.58186  -3.76175 
 H                    -1.79664   3.34749  -4.41496 
 H                    -2.32661   1.72195  -4.19888 
 C                     0.48905   2.22199   3.86446 
 C                    -1.16452   2.23091   1.64318 
 C                    -1.8216    2.85303   0.53031 
 C                    -3.81273   3.22271  -0.93056 
 C                    -3.02458   2.35331   0.03162 
 O                    -1.28372   1.04792   1.98075 
 S                    -0.17558   3.34978   2.61322 
 H                    -0.34623   1.76788   4.41496 
 H                     1.05692   1.42137   3.37272 
 H                    -4.10959   2.68459  -1.83876 
 H                    -3.20295   4.07188  -1.26935 
 H                    -4.72659   3.60733  -0.45308 
 H                    -3.59325   1.70364   0.71032 
 H                    -1.37391   3.74938   0.09073 
 H                     2.5053   -4.20113  -0.17737 
 H                     1.13544   2.75553   4.56132 
 
 ITRead=  0  0  0  0  0  0  0  0  0  0  0  0  0  0  0  0  0  0  0  0
 ITRead=  0  0  0  0  0  0  0  0  0  0  0  0  0  0  0  0  0  0  0  0
 ITRead=  0  0  0  0  0  0  0  0
 MicOpt= -1 -1 -1 -1 -1 -1 -1 -1 -1 -1 -1 -1 -1 -1 -1 -1 -1 -1 -1 -1
 MicOpt= -1 -1 -1 -1 -1 -1 -1 -1 -1 -1 -1 -1 -1 -1 -1 -1 -1 -1 -1 -1
 MicOpt= -1 -1 -1 -1 -1 -1 -1 -1
 NAtoms=     48 NQM=       48 NQMF=       0 NMMI=      0 NMMIF=      0
                NMic=       0 NMicF=      0.
                    Isotopes and Nuclear Properties:
 (Nuclear quadrupole moments (NQMom) in fm**2, nuclear magnetic moments (NMagM)
  in nuclear magnetons)

  Atom         1           2           3           4           5           6           7           8           9          10
 IAtWgt=          12           1           1          12           1          16           1          12           1          16
 AtmWgt=  12.0000000   1.0078250   1.0078250  12.0000000   1.0078250  15.9949146   1.0078250  12.0000000   1.0078250  15.9949146
 NucSpn=           0           1           1           0           1           0           1           0           1           0
 AtZEff=  -0.0000000  -0.0000000  -0.0000000  -0.0000000  -0.0000000  -0.0000000  -0.0000000  -0.0000000  -0.0000000  -0.0000000
 NQMom=    0.0000000   0.0000000   0.0000000   0.0000000   0.0000000   0.0000000   0.0000000   0.0000000   0.0000000   0.0000000
 NMagM=    0.0000000   2.7928460   2.7928460   0.0000000   2.7928460   0.0000000   2.7928460   0.0000000   2.7928460   0.0000000
 AtZNuc=   6.0000000   1.0000000   1.0000000   6.0000000   1.0000000   8.0000000   1.0000000   6.0000000   1.0000000   8.0000000

  Atom        11          12          13          14          15          16          17          18          19          20
 IAtWgt=           1          12           1          12           1          16          14          12           1          12
 AtmWgt=   1.0078250  12.0000000   1.0078250  12.0000000   1.0078250  15.9949146  14.0030740  12.0000000   1.0078250  12.0000000
 NucSpn=           1           0           1           0           1           0           2           0           1           0
 AtZEff=  -0.0000000  -0.0000000  -0.0000000  -0.0000000  -0.0000000  -0.0000000  -0.0000000  -0.0000000  -0.0000000  -0.0000000
 NQMom=    0.0000000   0.0000000   0.0000000   0.0000000   0.0000000   0.0000000   2.0440000   0.0000000   0.0000000   0.0000000
 NMagM=    2.7928460   0.0000000   2.7928460   0.0000000   2.7928460   0.0000000   0.4037610   0.0000000   2.7928460   0.0000000
 AtZNuc=   1.0000000   6.0000000   1.0000000   6.0000000   1.0000000   8.0000000   7.0000000   6.0000000   1.0000000   6.0000000

  Atom        21          22          23          24          25          26          27          28          29          30
 IAtWgt=           1          12           1           1          12          12           1          12          16          14
 AtmWgt=   1.0078250  12.0000000   1.0078250   1.0078250  12.0000000  12.0000000   1.0078250  12.0000000  15.9949146  14.0030740
 NucSpn=           1           0           1           1           0           0           1           0           0           2
 AtZEff=  -0.0000000  -0.0000000  -0.0000000  -0.0000000  -0.0000000  -0.0000000  -0.0000000  -0.0000000  -0.0000000  -0.0000000
 NQMom=    0.0000000   0.0000000   0.0000000   0.0000000   0.0000000   0.0000000   0.0000000   0.0000000   0.0000000   2.0440000
 NMagM=    2.7928460   0.0000000   2.7928460   2.7928460   0.0000000   0.0000000   2.7928460   0.0000000   0.0000000   0.4037610
 AtZNuc=   1.0000000   6.0000000   1.0000000   1.0000000   6.0000000   6.0000000   1.0000000   6.0000000   8.0000000   7.0000000

  Atom        31          32          33          34          35          36          37          38          39          40
 IAtWgt=           1           1          12          12          12          12          12          16          32           1
 AtmWgt=   1.0078250   1.0078250  12.0000000  12.0000000  12.0000000  12.0000000  12.0000000  15.9949146  31.9720718   1.0078250
 NucSpn=           1           1           0           0           0           0           0           0           0           1
 AtZEff=  -0.0000000  -0.0000000  -0.0000000  -0.0000000  -0.0000000  -0.0000000  -0.0000000  -0.0000000  -0.0000000  -0.0000000
 NQMom=    0.0000000   0.0000000   0.0000000   0.0000000   0.0000000   0.0000000   0.0000000   0.0000000   0.0000000   0.0000000
 NMagM=    2.7928460   2.7928460   0.0000000   0.0000000   0.0000000   0.0000000   0.0000000   0.0000000   0.0000000   2.7928460
 AtZNuc=   1.0000000   1.0000000   6.0000000   6.0000000   6.0000000   6.0000000   6.0000000   8.0000000  16.0000000   1.0000000

  Atom        41          42          43          44          45          46          47          48
 IAtWgt=           1           1           1           1           1           1           1           1
 AtmWgt=   1.0078250   1.0078250   1.0078250   1.0078250   1.0078250   1.0078250   1.0078250   1.0078250
 NucSpn=           1           1           1           1           1           1           1           1
 AtZEff=  -0.0000000  -0.0000000  -0.0000000  -0.0000000  -0.0000000  -0.0000000  -0.0000000  -0.0000000
 NQMom=    0.0000000   0.0000000   0.0000000   0.0000000   0.0000000   0.0000000   0.0000000   0.0000000
 NMagM=    2.7928460   2.7928460   2.7928460   2.7928460   2.7928460   2.7928460   2.7928460   2.7928460
 AtZNuc=   1.0000000   1.0000000   1.0000000   1.0000000   1.0000000   1.0000000   1.0000000   1.0000000
 Background charge distribution read from input stream:
 Leave Link  101 at Sun Feb 19 04:26:07 2023, MaxMem=  2684354560 cpu:               1.7 elap:               0.1
 (Enter /storage/apps/GAUSSIAN/G16_RevA03/g16/l103.exe)

 GradGradGradGradGradGradGradGradGradGradGradGradGradGradGradGradGradGrad
 Berny optimization.
 Initialization pass.
 Trust Radius=3.00D-01 FncErr=1.00D-07 GrdErr=1.00D-07 EigMax=2.50D+02 EigMin=1.00D-04
 Number of steps in this run=      2 maximum allowed number of steps=      2.
 GradGradGradGradGradGradGradGradGradGradGradGradGradGradGradGradGradGrad

 Leave Link  103 at Sun Feb 19 04:26:07 2023, MaxMem=  2684354560 cpu:               0.3 elap:               0.0
 (Enter /storage/apps/GAUSSIAN/G16_RevA03/g16/l202.exe)
 ---------------------------------------------------------------------------------------------------
                            Z-MATRIX (ANGSTROMS AND DEGREES)
   CD    Cent   Atom    N1       Length/X        N2       Alpha/Y        N3        Beta/Z          J
 ---------------------------------------------------------------------------------------------------
      1      1  C        0   3.391983         -3.697276         -0.562091
      2      2  H        0   3.471943         -3.853131         -1.646666
      3      3  H        0   4.299152         -4.071882         -0.065643
      4      4  C        0   1.538879         -1.398563          1.142560
      5      5  H        0   0.926601         -2.311175          1.005615
      6      6  O        0   1.064908         -0.642856          2.211349
      7      7  H        0   0.428759          0.021541          1.887059
      8      8  C        0   2.997264         -1.855715          1.228683
      9      9  H        0   3.119694         -2.740674          1.879733
     10     10  O        0   3.783938         -0.790860          1.679123
     11     11  H        0   4.726594         -0.966602          1.433732
     12     12  C        0   1.578337         -0.677076         -0.200969
     13     13  H        0   2.169958          0.242277         -0.073551
     14     14  C        0   3.276429         -2.209927         -0.263483
     15     15  H        0   4.231174         -1.744496         -0.554645
     16     16  O        0   2.224723         -1.610334         -1.025727
     17     17  N        0   0.299799         -0.289017         -0.732051
     18     18  C        0  -0.723912         -1.219058         -0.818379
     19     19  H        0  -0.469081         -2.240488         -0.538361
     20     20  C        0  -1.943278         -0.884438         -1.285267
     21     21  H        0  -2.694367         -1.668518         -1.368260
     22     22  C        0  -2.223915          0.488034         -1.730584
     23     23  H        0  -3.023661          0.587511         -2.475193
     24     24  H        0  -2.759291          1.251636         -0.736602
     25     25  C        0  -1.016426          1.267099         -1.973389
     26     26  C        0   0.159478          0.912885         -1.390923
     27     27  H        0   1.047106          1.543114         -1.489803
     28     28  C        0  -1.065139          2.537525         -2.760536
     29     29  O        0  -0.334141          3.479683         -2.498691
     30     30  N        0  -1.977666          2.581855         -3.761749
     31     31  H        0  -1.796636          3.347492         -4.414960
     32     32  H        0  -2.326608          1.721950         -4.198876
     33     33  C        0   0.489046          2.221994          3.864461
     34     34  C        0  -1.164520          2.230912          1.643178
     35     35  C        0  -1.821603          2.853035          0.530312
     36     36  C        0  -3.812730          3.222710         -0.930563
     37     37  C        0  -3.024578          2.353308          0.031621
     38     38  O        0  -1.283725          1.047916          1.980750
     39     39  S        0  -0.175577          3.349782          2.613217
     40     40  H        0  -0.346226          1.767878          4.414960
     41     41  H        0   1.056924          1.421366          3.372718
     42     42  H        0  -4.109588          2.684594         -1.838756
     43     43  H        0  -3.202949          4.071882         -1.269348
     44     44  H        0  -4.726594          3.607326         -0.453077
     45     45  H        0  -3.593254          1.703637          0.710323
     46     46  H        0  -1.373908          3.749380          0.090729
     47     47  H        0   2.505296         -4.201135         -0.177368
     48     48  H        0   1.135437          2.755530          4.561324
 ---------------------------------------------------------------------------------------------------
                         Z-Matrix orientation:                         
 ---------------------------------------------------------------------
 Center     Atomic      Atomic             Coordinates (Angstroms)
 Number     Number       Type             X           Y           Z
 ---------------------------------------------------------------------
      1          6           0        3.391983   -3.697276   -0.562091
      2          1           0        3.471943   -3.853131   -1.646666
      3          1           0        4.299152   -4.071882   -0.065643
      4          6           0        1.538879   -1.398563    1.142560
      5          1           0        0.926601   -2.311175    1.005615
      6          8           0        1.064908   -0.642856    2.211349
      7          1           0        0.428759    0.021541    1.887059
      8          6           0        2.997264   -1.855715    1.228683
      9          1           0        3.119694   -2.740674    1.879733
     10          8           0        3.783938   -0.790860    1.679123
     11          1           0        4.726594   -0.966602    1.433732
     12          6           0        1.578337   -0.677076   -0.200969
     13          1           0        2.169958    0.242277   -0.073551
     14          6           0        3.276429   -2.209927   -0.263483
     15          1           0        4.231174   -1.744496   -0.554645
     16          8           0        2.224723   -1.610334   -1.025727
     17          7           0        0.299799   -0.289017   -0.732051
     18          6           0       -0.723912   -1.219058   -0.818379
     19          1           0       -0.469081   -2.240488   -0.538361
     20          6           0       -1.943278   -0.884438   -1.285267
     21          1           0       -2.694367   -1.668518   -1.368260
     22          6           0       -2.223915    0.488034   -1.730584
     23          1           0       -3.023661    0.587511   -2.475193
     24          1           0       -2.759291    1.251636   -0.736602
     25          6           0       -1.016426    1.267099   -1.973389
     26          6           0        0.159478    0.912885   -1.390923
     27          1           0        1.047106    1.543114   -1.489803
     28          6           0       -1.065139    2.537525   -2.760536
     29          8           0       -0.334141    3.479683   -2.498691
     30          7           0       -1.977666    2.581855   -3.761749
     31          1           0       -1.796636    3.347492   -4.414960
     32          1           0       -2.326608    1.721950   -4.198876
     33          6           0        0.489046    2.221994    3.864461
     34          6           0       -1.164520    2.230912    1.643178
     35          6           0       -1.821603    2.853035    0.530312
     36          6           0       -3.812730    3.222710   -0.930563
     37          6           0       -3.024578    2.353308    0.031621
     38          8           0       -1.283725    1.047916    1.980750
     39         16           0       -0.175577    3.349782    2.613217
     40          1           0       -0.346226    1.767878    4.414960
     41          1           0        1.056924    1.421366    3.372718
     42          1           0       -4.109588    2.684594   -1.838756
     43          1           0       -3.202949    4.071882   -1.269348
     44          1           0       -4.726594    3.607326   -0.453077
     45          1           0       -3.593254    1.703637    0.710323
     46          1           0       -1.373908    3.749380    0.090729
     47          1           0        2.505296   -4.201135   -0.177368
     48          1           0        1.135437    2.755530    4.561324
 ---------------------------------------------------------------------
                    Distance matrix (angstroms):
                    1          2          3          4          5
     1  C    0.000000
     2  H    1.098629   0.000000
     3  H    1.099884   1.797710   0.000000
     4  C    3.409386   4.188247   4.028088   0.000000
     5  H    3.233742   3.986350   3.952441   1.107474   0.000000
     6  O    4.736743   5.566324   5.234811   1.392139   2.063059
     7  H    5.348704   6.063107   5.962307   1.950216   2.542902
     8  C    2.598850   3.533075   2.877775   1.530781   2.131865
     9  H    2.636614   3.714449   2.635854   2.200832   2.399628
    10  O    3.691060   4.531635   3.751634   2.386942   3.305956
    11  H    3.636080   4.403981   3.474708   3.229999   4.053530
    12  C    3.541374   3.970278   4.352684   1.525507   2.133280
    13  H    4.153564   4.576267   4.810977   2.137649   3.038199
    14  C    1.521423   2.156743   2.133537   2.377887   2.672555
    15  H    2.125476   2.493047   2.379174   3.201348   3.698073
    16  O    2.435731   2.640315   3.359202   2.284009   2.510508
    17  N    4.605075   4.858181   5.545177   2.506109   2.738884
    18  C    4.811220   5.022907   5.825495   2.999621   2.691442
    19  H    4.126816   4.400071   5.129670   2.750680   2.082495
    20  C    6.074541   6.186143   7.114437   4.275989   3.939533
    21  H    6.466021   6.547780   7.508814   4.929247   4.377179
    22  C    7.100740   7.162091   8.131129   5.096354   5.024749
    23  H    7.948576   7.911930   9.007745   6.152187   6.010239
    24  H    7.896858   8.106488   8.866321   5.387864   5.414309
    25  C    6.787551   6.816814   7.771717   4.831612   5.045181
    26  C    5.691190   5.809711   6.613711   3.696495   4.089796
    27  H    5.815564   5.918099   6.643208   3.978019   4.593165
    28  C    7.973195   7.916205   8.928736   6.124366   6.454518
    29  O    8.315237   8.305563   9.187669   6.369003   6.885032
    30  N    8.859934   8.693725   9.865691   7.229251   7.423225
    31  H    9.560080   9.341859  10.541456   8.033476   8.295731
    32  H    8.677356   8.439105   9.723827   7.294555   7.344126
    33  C    7.940980   8.727963   8.341193   4.649659   5.377181
    34  C    7.795406   8.326790   8.514517   4.553249   5.040816
    35  C    8.442831   8.816661   9.261386   5.453785   5.869207
    36  C    9.996493  10.180706  10.943573   7.368427   7.538827
    37  C    8.839362   9.140094   9.743179   6.011311   6.190143
    38  O    7.130578   7.732709   7.846564   3.828174   4.137622
    39  S    8.512996   9.128689   9.070865   5.258229   5.987121
    40  H    8.283306   9.105903   8.703915   4.928344   5.466479
    41  H    6.865545   7.671169   7.246388   3.627379   4.421766
    42  H    9.931350  10.012909  10.931643   7.580607   7.642732
    43  H   10.215339  10.368335  11.137833   7.630728   7.935493
    44  H   10.921556  11.148949  11.856831   8.176866   8.313545
    45  H    8.920899   9.292474   9.810648   6.012426   6.052685
    46  H    8.865246   9.181448   9.663344   6.007662   6.546731
    47  H    1.090000   1.792861   1.801974   3.245085   2.731973
    48  H    8.542839   9.363375   8.833543   5.395109   6.193398
                    6          7          8          9         10
     6  O    0.000000
     7  H    0.975333   0.000000
     8  C    2.484080   3.248810   0.000000
     9  H    2.955157   3.856296   1.105445   0.000000
    10  O    2.774579   3.458390   1.398452   2.069598   0.000000
    11  H    3.757318   4.433207   1.955288   2.434825   0.989799
    12  C    2.466589   2.483839   2.333763   3.311124   2.900409
    13  H    2.688004   2.631443   2.604192   3.689894   2.596954
    14  C    3.670331   4.208742   1.558832   2.213512   2.458665
    15  H    4.346214   4.851718   2.171443   2.855514   2.469648
    16  O    3.572092   3.791151   2.395703   3.243508   3.227832
    17  N    3.061732   2.640610   3.684472   4.558931   4.266712
    18  C    3.565268   3.191728   4.294524   4.936439   5.171226
    19  H    3.530787   3.435921   3.909737   4.356223   5.010672
    20  C    4.618860   4.063374   5.627812   6.252721   6.449602
    21  H    5.291289   4.817398   6.258899   6.745539   7.212854
    22  C    5.256816   4.510171   6.442913   7.212011   7.025380
    23  H    6.339865   5.591849   7.479277   8.233045   8.093310
    24  H    5.186909   4.308178   6.830512   7.572729   7.267831
    25  C    5.048952   4.306163   6.009570   6.929379   6.373346
    26  C    4.026972   3.407664   4.751895   5.727876   5.046250
    27  H    4.298524   3.755094   4.769205   5.830972   4.793722
    28  C    6.274677   5.491999   7.191491   8.179506   7.369007
    29  O    6.413825   5.636982   7.311501   8.354186   7.256049
    30  N    7.438678   6.652453   8.327447   9.281095   8.612455
    31  H    8.247381   7.465238   9.050168  10.042870   9.241570
    32  H    7.627954   6.893624   8.402482   9.301974   8.843295
    33  C    3.357345   2.959011   5.464997   5.957141   4.970846
    34  C    3.681265   2.734838   5.847458   6.567124   5.798244
    35  C    4.835193   3.862933   6.773590   7.584651   6.783791
    36  C    6.971769   6.014707   8.765201   9.566515   8.979341
    37  C    5.518343   4.561285   7.443884   8.192451   7.678277
    38  O    2.903096   1.998705   5.227192   5.809795   5.399378
    39  S    4.200174   3.459728   6.251484   6.963510   5.804758
    40  H    3.557927   3.168687   5.870410   6.226317   5.575859
    41  H    2.368513   2.135716   4.370475   4.879200   3.898565
    42  H    7.365507   6.447492   8.973903   9.773598   9.314613
    43  H    7.249732   6.289473   8.934159   9.813432   9.008681
    44  H    7.661900   6.701623   9.608908  10.358733   9.814248
    45  H    5.427484   4.515611   7.508169   8.135299   7.847551
    46  H    5.453128   4.513668   7.198554   8.094060   7.052670
    47  H    4.521286   5.138565   2.778490   2.596555   4.087965
    48  H    4.132358   3.889188   5.986357   6.429344   5.281906
                   11         12         13         14         15
    11  H    0.000000
    12  C    3.559157   0.000000
    13  H    3.204634   1.100664   0.000000
    14  C    2.555264   2.288462   2.696972   0.000000
    15  H    2.191849   2.881323   2.902987   1.101336   0.000000
    16  O    3.566887   1.403214   2.083700   1.430599   2.065372
    17  N    4.974561   1.437810   2.052654   3.573482   4.195903
    18  C    5.902859   2.444440   3.326372   4.158420   4.989842
    19  H    5.701489   2.598078   3.653040   3.755707   4.726381
    20  C    7.203256   3.690592   4.433559   5.481450   6.276732
    21  H    7.963323   4.538890   5.384150   6.096233   6.973584
    22  C    7.774216   4.260789   4.702369   6.299616   6.930743
    23  H    8.818244   5.286744   5.732430   7.239369   7.858715
    24  H    8.103667   4.777222   5.075031   6.973964   7.607662
    25  C    7.041319   3.695143   3.848725   5.782913   6.214487
    26  C    5.689437   2.440722   2.495439   4.553950   4.933533
    27  H    5.327697   2.621553   2.226823   4.534209   4.671315
    28  C    7.963351   4.886001   4.791023   6.900926   7.159091
    29  O    7.800285   5.120131   4.757375   7.099580   7.205100
    30  N    9.194111   5.995410   6.023223   7.924933   8.219035
    31  H    9.765815   6.733892   6.650117   8.593931   8.784353
    32  H    9.418187   6.081709   6.279080   7.895632   8.264453
    33  C    5.833730   5.110664   4.717275   6.667185   7.018908
    34  C    6.706205   4.402333   4.245064   6.563416   7.053213
    35  C    7.634440   4.955405   4.807625   7.228666   7.677925
    36  C    9.801034   6.693596   6.738694   8.956266   9.461439
    37  C    8.548004   5.515809   5.608093   7.785428   8.353541
    38  O    6.362503   3.990851   4.098430   6.036980   6.681310
    39  S    6.637292   5.216459   4.730417   7.148574   7.443553
    40  H    6.488344   5.566736   5.367063   7.129824   7.614876
    41  H    4.788374   4.176908   3.808656   5.597717   5.960094
    42  H   10.105371   6.807030   6.965167   8.999504   9.530692
    43  H    9.776022   6.823102   6.705515   9.080486   9.466110
    44  H   10.669753   7.627044   7.683100   9.895693  10.435225
    45  H    8.767746   5.765726   5.997052   7.965979   8.643578
    46  H    7.826894   5.328635   4.988562   7.567327   7.875032
    47  H    4.241699   3.644009   4.457257   2.137047   3.025900
    48  H    6.044213   5.887137   5.372964   7.246956   7.483780
                   16         17         18         19         20
    16  O    0.000000
    17  N    2.353180   0.000000
    18  C    2.981701   1.385789   0.000000
    19  H    2.809129   2.106403   1.089343   0.000000
    20  C    4.238693   2.385784   1.347890   2.137755   0.000000
    21  H    4.931345   3.357501   2.094535   2.442904   1.088947
    22  C    4.968939   2.823120   2.448732   3.456251   1.469946
    23  H    5.871713   3.853860   3.361187   4.274901   2.179401
    24  H    5.754552   3.425152   3.202154   4.180825   2.351536
    25  C    4.436522   2.386392   2.756917   3.829107   2.441654
    26  C    3.281042   1.377814   2.377680   3.326516   2.768232
    27  H    3.397996   2.118811   3.349165   4.185655   3.857102
    28  C    5.571130   3.737265   4.242679   5.303089   3.828495
    29  O    5.884359   4.210225   5.005351   6.048261   4.807002
    30  N    6.536080   4.754769   4.968126   5.993418   4.260203
    31  H    7.227604   5.584179   5.910966   6.929354   5.265521
    32  H    6.472064   4.791751   4.758774   5.705322   3.928017
    33  C    6.450833   5.241080   5.936421   6.341656   6.487358
    34  C    5.776261   3.759786   4.260949   5.023561   4.345993
    35  C    6.222191   3.995798   4.427847   5.377300   4.156902
    36  C    7.734223   5.411518   5.411348   6.417191   4.526514
    37  C    6.662102   4.314691   4.333286   5.287571   3.658743
    38  O    5.330516   3.413830   3.645228   4.221749   3.851736
    39  S    6.603491   4.965648   5.740280   6.424150   6.020926
    40  H    6.900954   5.580313   6.037572   6.373185   6.486751
    41  H    5.468205   4.510851   5.263887   5.570853   6.001230
    42  H    7.696163   5.432297   5.267112   6.261050   4.211560
    43  H    7.861714   5.619197   5.860294   6.917687   5.113915
    44  H    8.710494   6.365842   6.280835   7.233990   5.349330
    45  H    6.917017   4.605103   4.371750   5.184186   3.661001
    46  H    6.551577   4.448249   5.092578   6.090402   4.867218
    47  H    2.740562   4.525102   4.442010   3.580694   5.658420
    48  H    7.173733   6.163391   6.942314   7.317203   7.543903
                   21         22         23         24         25
    21  H    0.000000
    22  C    2.236810   0.000000
    23  H    2.534444   1.097239   0.000000
    24  H    2.988396   1.362981   1.879801   0.000000
    25  C    3.435042   1.457370   2.177760   2.137162   0.000000
    26  C    3.848192   2.444673   3.378444   3.010332   1.359222
    27  H    4.932340   3.445395   4.295965   3.891135   2.137336
    28  C    4.720552   2.569821   2.778450   2.935979   1.495311
    29  O    5.775164   3.620939   3.949522   3.735037   2.374233
    30  N    4.930327   2.927517   2.593596   3.395871   2.418842
    31  H    5.937058   3.945243   3.589677   4.341617   3.301217
    32  H    4.432032   2.761442   2.178054   3.520761   2.622262
    33  C    7.256141   6.455332   7.429795   5.715161   6.103996
    34  C    5.158948   3.942361   4.808134   3.027479   3.745721
    35  C    4.981038   3.296473   3.951025   2.246955   3.071160
    36  C    5.036509   3.262334   3.154803   2.243320   3.568083
    37  C    4.271276   2.688062   3.066294   1.369023   3.038518
    38  O    4.537048   3.869294   4.805703   3.098839   3.969221
    39  S    6.883299   5.590519   6.452413   4.722190   5.107010
    40  H    7.125183   6.552209   7.485729   5.712091   6.442900
    41  H    6.789436   6.138298   7.179453   5.610599   5.736152
    42  H    4.601500   2.896954   2.445822   2.256416   3.405154
    43  H    5.763734   3.743690   3.691483   2.904210   3.625378
    44  H    5.727306   4.198263   4.013504   3.082197   4.642560
    45  H    4.062011   3.051362   3.423110   1.730141   3.746054
    46  H    5.764190   3.830937   4.393524   2.973632   3.248092
    47  H    5.904986   6.838582   7.666844   7.600087   6.747576
    48  H    8.330641   7.484310   8.456416   6.745267   7.039064
                   26         27         28         29         30
    26  C    0.000000
    27  H    1.093092   0.000000
    28  C    2.452546   2.658043   0.000000
    29  O    2.838884   2.583796   1.220894   0.000000
    30  N    3.601897   3.923005   1.355396   2.258890   0.000000
    31  H    4.347240   4.460851   1.981982   2.414219   1.022573
    32  H    3.836641   4.330475   2.079733   3.154391   1.025806
    33  C    5.425997   5.425905   6.812168   6.538281   8.023294
    34  C    3.563135   3.896142   4.415494   4.405001   5.477007
    35  C    3.373426   3.745163   3.391380   3.432213   4.303450
    36  C    4.617971   5.172214   3.371578   3.824348   3.434206
    37  C    3.773150   4.421510   3.416062   3.861301   3.941816
    38  O    3.670047   4.209837   4.974587   5.184650   5.984215
    39  S    4.699347   4.646910   5.507113   5.116015   6.669140
    40  H    5.890248   6.071089   7.252375   7.122429   8.377514
    41  H    4.874036   4.864054   6.585269   6.375356   7.839393
    42  H    4.643752   5.293037   3.184333   3.914292   2.872899
    43  H    4.615187   4.950377   3.024587   3.176797   3.151755
    44  H    5.658026   6.218632   4.458149   4.847109   4.422161
    45  H    4.373044   5.138021   4.374197   4.906518   4.835372
    46  H    3.548559   3.636895   3.113462   2.803381   4.070532
    47  H    5.755760   6.070024   8.051726   8.511516   8.885588
    48  H    6.306907   6.172025   7.648509   7.247611   8.887920
                   31         32         33         34         35
    31  H    0.000000
    32  H    1.723354   0.000000
    33  C    8.662558   8.555429   0.000000
    34  C    6.192525   5.978218   2.769198   0.000000
    35  C    4.969993   4.888722   4.105345   1.434317   0.000000
    36  C    4.027559   3.891364   6.519122   3.823717   2.497078
    37  C    4.718933   4.333923   5.201293   2.464124   1.394836
    38  O    6.815882   6.303151   2.840693   1.235979   2.377297
    39  S    7.212705   7.326758   1.810868   1.780689   2.700861
    40  H    9.086604   8.838677   1.098613   2.926907   4.294741
    41  H    8.514734   8.298655   1.097863   2.929418   4.291255
    42  H    3.525054   3.110606   7.340853   4.582916   3.297838
    43  H    3.520985   3.856461   6.588544   4.003395   2.575360
    44  H    4.934439   4.831727   6.911091   4.356279   3.158320
    45  H    5.674383   5.070006   5.184829   2.654616   2.119497
    46  H    4.543286   4.839300   4.477115   2.181671   1.094120
    47  H    9.666724   8.637288   7.852275   7.625822   8.305671
    48  H    9.461562   9.476031   1.090000   3.752413   5.000265
                   36         37         38         39         40
    36  C    0.000000
    37  C    1.517511   0.000000
    38  O    4.427340   2.921253   0.000000
    39  S    5.079704   3.971700   2.631842   0.000000
    40  H    6.535120   5.170102   2.706035   2.403710   0.000000
    41  H    6.743633   5.356314   2.748759   2.411367   1.781901
    42  H    1.096590   2.187535   5.025222   5.978209   7.356102
    43  H    1.098955   2.162830   4.836417   4.976014   6.766141
    44  H    1.100486   2.168952   4.932286   5.493655   6.802131
    45  H    2.246833   1.098226   2.716226   4.243974   4.926627
    46  H    2.695973   2.162688   3.298215   2.821102   4.866360
    47  H    9.777434   8.578105   6.823978   8.484738   8.052935
    48  H    7.406985   6.163255   3.927804   2.422192   1.786674
                   41         42         43         44         45
    41  H    0.000000
    42  H    7.446345   0.000000
    43  H    6.835242   1.752366   0.000000
    44  H    7.270778   1.775454   1.789862   0.000000
    45  H    5.365835   2.779691   3.111273   2.502397   0.000000
    46  H    4.701069   3.512923   2.302001   3.399472   3.081308
    47  H    6.805395   9.691757  10.110355  10.646516   8.535023
    48  H    1.788559   8.275044   7.385872   7.761004   6.188474
                   46         47         48
    46  H    0.000000
    47  H    8.850468   0.000000
    48  H    5.222142   8.528007   0.000000
 Symmetry turned off by external request.
 Stoichiometry    C16H24N2O5S
 Framework group  C1[X(C16H24N2O5S)]
 Deg. of freedom   138
 Full point group                 C1      NOp   1
 Rotational constants (GHZ):           0.2896407           0.1663606           0.1253110
 Leave Link  202 at Sun Feb 19 04:26:07 2023, MaxMem=  2684354560 cpu:               0.2 elap:               0.0
 (Enter /storage/apps/GAUSSIAN/G16_RevA03/g16/l301.exe)
 Standard basis: def2TZVP (5D, 7F)
 Ernie: Thresh=  0.10000D-02 Tol=  0.10000D-05 Strict=F.
   894 basis functions,  1434 primitive gaussians,  1014 cartesian basis functions
    95 alpha electrons       95 beta electrons
       nuclear repulsion energy      2437.2950291316 Hartrees.
 IExCor= 4336 DFT=T Ex+Corr=M062X ExCW=0 ScaHFX=  0.540000
 ScaDFX=  1.000000  1.000000  1.000000  1.000000 ScalE2=  1.000000  1.000000
 IRadAn=      5 IRanWt=     -1 IRanGd=            0 ICorTp=0 IEmpDi=131
 NAtoms=   48 NActive=   48 NUniq=   48 SFac= 1.00D+00 NAtFMM=   60 NAOKFM=F Big=F
 Integral buffers will be    131072 words long.
 Raffenetti 2 integral format.
 Two-electron integral symmetry is turned off.
 R6Disp:  Grimme-D3 Dispersion energy=       -0.0041084747 Hartrees.
 Nuclear repulsion after empirical dispersion term =     2437.2909206570 Hartrees.
 Leave Link  301 at Sun Feb 19 04:26:07 2023, MaxMem=  2684354560 cpu:               0.8 elap:               0.1
 (Enter /storage/apps/GAUSSIAN/G16_RevA03/g16/l302.exe)
 NPDir=0 NMtPBC=     1 NCelOv=     1 NCel=       1 NClECP=     1 NCelD=      1
         NCelK=      1 NCelE2=     1 NClLst=     1 CellRange=     0.0.
 One-electron integrals computed using PRISM.
   1 Symmetry operations used in ECPInt.
 ECPInt:  NShTT=   65703 NPrTT=  200010 LenC2=   56029 LenP2D=  118819.
 LDataN:  DoStor=T MaxTD1= 6 Len=  172
 NBasis=   894 RedAO= T EigKep=  3.12D-05  NBF=   894
 NBsUse=   894 1.00D-06 EigRej= -1.00D+00 NBFU=   894
 Precomputing XC quadrature grid using
 IXCGrd= 4 IRadAn=           5 IRanWt=          -1 IRanGd=           0 AccXCQ= 0.00D+00.
 Generated NRdTot=       0 NPtTot=           0 NUsed=           0 NTot=          32
 NSgBfM=   998   998   998   998   998 MxSgAt=    48 MxSgA2=    48.
 Leave Link  302 at Sun Feb 19 04:26:09 2023, MaxMem=  2684354560 cpu:              18.0 elap:               1.1
 (Enter /storage/apps/GAUSSIAN/G16_RevA03/g16/l303.exe)
 DipDrv:  MaxL=1.
 Leave Link  303 at Sun Feb 19 04:26:09 2023, MaxMem=  2684354560 cpu:               2.0 elap:               0.2
 (Enter /storage/apps/GAUSSIAN/G16_RevA03/g16/l401.exe)
 ExpMin= 9.52D-02 ExpMax= 6.07D+04 ExpMxC= 2.07D+03 IAcc=3 IRadAn=         5 AccDes= 0.00D+00
 Harris functional with IExCor= 1009 and IRadAn=       5 diagonalized for initial guess.
 HarFok:  IExCor= 1009 AccDes= 0.00D+00 IRadAn=         5 IDoV= 1 UseB2=F ITyADJ=14
 ICtDFT=  3500011 ScaDFX=  1.000000  1.000000  1.000000  1.000000
 FoFCou: FMM=F IPFlag=           0 FMFlag=      100000 FMFlg1=           0
         NFxFlg=           0 DoJE=T BraDBF=F KetDBF=T FulRan=T
         wScrn=  0.000000 ICntrl=       500 IOpCl=  0 I1Cent=   200000004 NGrid=           0
         NMat0=    1 NMatS0=      1 NMatT0=    0 NMatD0=    1 NMtDS0=    0 NMtDT0=    0
 Symmetry not used in FoFCou.
 Harris En= -1507.18167527807    
 JPrj=0 DoOrth=F DoCkMO=F.
 Leave Link  401 at Sun Feb 19 04:26:12 2023, MaxMem=  2684354560 cpu:              57.4 elap:               3.6
 (Enter /storage/apps/GAUSSIAN/G16_RevA03/g16/l502.exe)
 Two-electron integral symmetry not used.
 Closed shell SCF:
 Using DIIS extrapolation, IDIIS=  1040.
 NGot=  2684354560 LenX=  2682275214 LenY=  2681246004
 Requested convergence on RMS density matrix=1.00D-08 within 128 cycles.
 Requested convergence on MAX density matrix=1.00D-06.
 Requested convergence on             energy=1.00D-06.
 No special actions if energy rises.
 Fock matrices will be formed incrementally for  20 cycles.
 Integral accuracy reduced to 1.0D-05 until final iterations.

 Cycle   1  Pass 0  IDiag  1:
 FoFJK:  IHMeth= 1 ICntrl=       0 DoSepK=F KAlg= 0 I1Cent=           0 FoldK=F
 IRaf= 780000000 NMat=       1 IRICut=       1 DoRegI=T DoRafI=F ISym2E= 0 IDoP0=0 IntGTp=1.
 FoFCou: FMM=F IPFlag=           0 FMFlag=      100000 FMFlg1=           0
         NFxFlg=           0 DoJE=F BraDBF=F KetDBF=F FulRan=T
         wScrn=  0.000000 ICntrl=         0 IOpCl=  0 I1Cent=           0 NGrid=           0
         NMat0=    1 NMatS0=      1 NMatT0=    0 NMatD0=    1 NMtDS0=    0 NMtDT0=    0
 Symmetry not used in FoFCou.
 E= -1507.12085683072    
 DIIS: error= 1.69D-02 at cycle   1 NSaved=   1.
 NSaved= 1 IEnMin= 1 EnMin= -1507.12085683072     IErMin= 1 ErrMin= 1.69D-02
 ErrMax= 1.69D-02  0.00D+00 EMaxC= 1.00D-01 BMatC= 9.84D-01 BMatP= 9.84D-01
 IDIUse=3 WtCom= 8.31D-01 WtEn= 1.69D-01
 Coeff-Com:  0.100D+01
 Coeff-En:   0.100D+01
 Coeff:      0.100D+01
 Gap=     0.286 Goal=   None    Shift=    0.000
 GapD=    0.286 DampG=1.000 DampE=0.500 DampFc=0.5000 IDamp=-1.
 Damping current iteration by 5.00D-01
 RMSDP=4.14D-03 MaxDP=1.19D+00              OVMax= 2.48D-01

 Cycle   2  Pass 0  IDiag  1:
 RMSU=  2.06D-03    CP:  1.02D+00
 E= -1507.44589884549     Delta-E=       -0.325042014765 Rises=F Damp=T
 DIIS: error= 4.75D-03 at cycle   2 NSaved=   2.
 NSaved= 2 IEnMin= 2 EnMin= -1507.44589884549     IErMin= 2 ErrMin= 4.75D-03
 ErrMax= 4.75D-03  0.00D+00 EMaxC= 1.00D-01 BMatC= 9.22D-02 BMatP= 9.84D-01
 IDIUse=3 WtCom= 9.53D-01 WtEn= 4.75D-02
 Coeff-Com:  0.137D-01 0.986D+00
 Coeff-En:   0.794D-01 0.921D+00
 Coeff:      0.169D-01 0.983D+00
 Gap=     0.303 Goal=   None    Shift=    0.000
 RMSDP=1.33D-03 MaxDP=3.90D-01 DE=-3.25D-01 OVMax= 1.92D-01

 Cycle   3  Pass 0  IDiag  1:
 RMSU=  1.09D-03    CP:  1.00D+00  6.34D-01
 E= -1507.81095760121     Delta-E=       -0.365058755724 Rises=F Damp=F
 DIIS: error= 3.91D-03 at cycle   3 NSaved=   3.
 NSaved= 3 IEnMin= 3 EnMin= -1507.81095760121     IErMin= 3 ErrMin= 3.91D-03
 ErrMax= 3.91D-03  0.00D+00 EMaxC= 1.00D-01 BMatC= 5.53D-02 BMatP= 9.22D-02
 IDIUse=3 WtCom= 9.61D-01 WtEn= 3.91D-02
 Coeff-Com: -0.749D-01 0.449D+00 0.626D+00
 Coeff-En:   0.000D+00 0.000D+00 0.100D+01
 Coeff:     -0.719D-01 0.432D+00 0.640D+00
 Gap=     0.195 Goal=   None    Shift=    0.000
 RMSDP=3.88D-04 MaxDP=4.60D-02 DE=-3.65D-01 OVMax= 8.30D-02

 Cycle   4  Pass 0  IDiag  1:
 RMSU=  3.33D-04    CP:  1.00D+00  7.21D-01  9.21D-01
 E= -1507.84938610583     Delta-E=       -0.038428504619 Rises=F Damp=F
 DIIS: error= 1.67D-03 at cycle   4 NSaved=   4.
 NSaved= 4 IEnMin= 4 EnMin= -1507.84938610583     IErMin= 4 ErrMin= 1.67D-03
 ErrMax= 1.67D-03  0.00D+00 EMaxC= 1.00D-01 BMatC= 1.01D-02 BMatP= 5.53D-02
 IDIUse=3 WtCom= 9.83D-01 WtEn= 1.67D-02
 Coeff-Com: -0.354D-01 0.956D-01 0.339D+00 0.601D+00
 Coeff-En:   0.000D+00 0.000D+00 0.117D+00 0.883D+00
 Coeff:     -0.348D-01 0.941D-01 0.335D+00 0.606D+00
 Gap=     0.192 Goal=   None    Shift=    0.000
 RMSDP=1.30D-04 MaxDP=1.10D-02 DE=-3.84D-02 OVMax= 1.69D-02

 Cycle   5  Pass 0  IDiag  1:
 RMSU=  9.16D-05    CP:  1.00D+00  7.15D-01  9.48D-01  7.39D-01
 E= -1507.85722654253     Delta-E=       -0.007840436705 Rises=F Damp=F
 DIIS: error= 3.97D-04 at cycle   5 NSaved=   5.
 NSaved= 5 IEnMin= 5 EnMin= -1507.85722654253     IErMin= 5 ErrMin= 3.97D-04
 ErrMax= 3.97D-04  0.00D+00 EMaxC= 1.00D-01 BMatC= 4.33D-04 BMatP= 1.01D-02
 IDIUse=3 WtCom= 9.96D-01 WtEn= 3.97D-03
 Coeff-Com: -0.106D-01 0.183D-01 0.120D+00 0.270D+00 0.602D+00
 Coeff-En:   0.000D+00 0.000D+00 0.000D+00 0.000D+00 0.100D+01
 Coeff:     -0.106D-01 0.182D-01 0.119D+00 0.269D+00 0.604D+00
 Gap=     0.193 Goal=   None    Shift=    0.000
 RMSDP=4.84D-05 MaxDP=1.00D-02 DE=-7.84D-03 OVMax= 6.43D-03

 Cycle   6  Pass 0  IDiag  1:
 RMSU=  3.69D-05    CP:  1.00D+00  7.03D-01  9.60D-01  7.59D-01  9.16D-01
 E= -1507.85759818896     Delta-E=       -0.000371646431 Rises=F Damp=F
 DIIS: error= 1.56D-04 at cycle   6 NSaved=   6.
 NSaved= 6 IEnMin= 6 EnMin= -1507.85759818896     IErMin= 6 ErrMin= 1.56D-04
 ErrMax= 1.56D-04  0.00D+00 EMaxC= 1.00D-01 BMatC= 7.31D-05 BMatP= 4.33D-04
 IDIUse=3 WtCom= 9.98D-01 WtEn= 1.56D-03
 Coeff-Com:  0.223D-03-0.465D-02 0.125D-01 0.420D-01 0.296D+00 0.654D+00
 Coeff-En:   0.000D+00 0.000D+00 0.000D+00 0.000D+00 0.000D+00 0.100D+01
 Coeff:      0.222D-03-0.464D-02 0.124D-01 0.419D-01 0.295D+00 0.655D+00
 Gap=     0.194 Goal=   None    Shift=    0.000
 RMSDP=2.45D-05 MaxDP=2.77D-03 DE=-3.72D-04 OVMax= 4.97D-03

 Cycle   7  Pass 0  IDiag  1:
 RMSU=  2.17D-05    CP:  1.00D+00  7.03D-01  9.64D-01  7.66D-01  1.02D+00
                    CP:  9.69D-01
 E= -1507.85769417455     Delta-E=       -0.000095985583 Rises=F Damp=F
 DIIS: error= 7.15D-05 at cycle   7 NSaved=   7.
 NSaved= 7 IEnMin= 7 EnMin= -1507.85769417455     IErMin= 7 ErrMin= 7.15D-05
 ErrMax= 7.15D-05  0.00D+00 EMaxC= 1.00D-01 BMatC= 1.30D-05 BMatP= 7.31D-05
 IDIUse=1 WtCom= 1.00D+00 WtEn= 0.00D+00
 Coeff-Com:  0.203D-02-0.566D-02-0.133D-01-0.290D-01 0.283D-01 0.308D+00
 Coeff-Com:  0.709D+00
 Coeff:      0.203D-02-0.566D-02-0.133D-01-0.290D-01 0.283D-01 0.308D+00
 Coeff:      0.709D+00
 Gap=     0.194 Goal=   None    Shift=    0.000
 RMSDP=1.95D-05 MaxDP=2.62D-03 DE=-9.60D-05 OVMax= 2.50D-03

 Cycle   8  Pass 0  IDiag  1:
 RMSU=  1.25D-05    CP:  1.00D+00  7.01D-01  9.67D-01  7.74D-01  1.11D+00
                    CP:  1.21D+00  1.33D+00
 E= -1507.85771275324     Delta-E=       -0.000018578688 Rises=F Damp=F
 DIIS: error= 2.96D-05 at cycle   8 NSaved=   8.
 NSaved= 8 IEnMin= 8 EnMin= -1507.85771275324     IErMin= 8 ErrMin= 2.96D-05
 ErrMax= 2.96D-05  0.00D+00 EMaxC= 1.00D-01 BMatC= 2.45D-06 BMatP= 1.30D-05
 IDIUse=1 WtCom= 1.00D+00 WtEn= 0.00D+00
 Coeff-Com:  0.101D-02-0.186D-02-0.833D-02-0.246D-01-0.480D-01 0.128D-01
 Coeff-Com:  0.331D+00 0.738D+00
 Coeff:      0.101D-02-0.186D-02-0.833D-02-0.246D-01-0.480D-01 0.128D-01
 Coeff:      0.331D+00 0.738D+00
 Gap=     0.194 Goal=   None    Shift=    0.000
 RMSDP=2.29D-05 MaxDP=3.78D-03 DE=-1.86D-05 OVMax= 1.09D-03

 Cycle   9  Pass 0  IDiag  1:
 RMSU=  9.82D-06    CP:  1.00D+00  7.01D-01  9.68D-01  7.77D-01  1.18D+00
                    CP:  1.39D+00  1.99D+00  1.93D+00
 E= -1507.85770970021     Delta-E=        0.000003053026 Rises=F Damp=F
 DIIS: error= 2.19D-05 at cycle   9 NSaved=   9.
 NSaved= 9 IEnMin= 8 EnMin= -1507.85771275324     IErMin= 9 ErrMin= 2.19D-05
 ErrMax= 2.19D-05  0.00D+00 EMaxC= 1.00D-01 BMatC= 5.58D-07 BMatP= 2.45D-06
 IDIUse=1 WtCom= 1.00D+00 WtEn= 0.00D+00
 Coeff-Com:  0.307D-03-0.404D-03-0.243D-02-0.944D-02-0.240D-01-0.193D-01
 Coeff-Com:  0.910D-01 0.351D+00 0.614D+00
 Coeff:      0.307D-03-0.404D-03-0.243D-02-0.944D-02-0.240D-01-0.193D-01
 Coeff:      0.910D-01 0.351D+00 0.614D+00
 Gap=     0.194 Goal=   None    Shift=    0.000
 RMSDP=2.52D-05 MaxDP=4.37D-03 DE= 3.05D-06 OVMax= 2.75D-04

 Cycle  10  Pass 0  IDiag  1:
 RMSU=  5.18D-06    CP:  1.00D+00  7.02D-01  9.70D-01  7.81D-01  1.23D+00
                    CP:  1.54D+00  2.66D+00  3.00D+00  2.09D+00
 E= -1507.85770364319     Delta-E=        0.000006057022 Rises=F Damp=F
 DIIS: error= 3.35D-05 at cycle  10 NSaved=  10.
 NSaved=10 IEnMin= 8 EnMin= -1507.85771275324     IErMin= 9 ErrMin= 2.19D-05
 ErrMax= 3.35D-05  0.00D+00 EMaxC= 1.00D-01 BMatC= 6.81D-07 BMatP= 5.58D-07
 IDIUse=1 WtCom= 1.00D+00 WtEn= 0.00D+00
 Coeff-Com:  0.352D-03-0.429D-03-0.284D-02-0.111D-01-0.293D-01-0.260D-01
 Coeff-Com:  0.105D+00 0.426D+00 0.805D+00-0.266D+00
 Coeff:      0.352D-03-0.429D-03-0.284D-02-0.111D-01-0.293D-01-0.260D-01
 Coeff:      0.105D+00 0.426D+00 0.805D+00-0.266D+00
 Gap=     0.194 Goal=   None    Shift=    0.000
 RMSDP=1.37D-05 MaxDP=2.32D-03 DE= 6.06D-06 OVMax= 3.24D-05

 Cycle  11  Pass 0  IDiag  1:
 RMSU=  1.87D-06    CP:  1.00D+00  7.01D-01  9.69D-01  7.78D-01  1.21D+00
                    CP:  1.46D+00  2.31D+00  2.50D+00  1.46D+00  2.97D-01
 E= -1507.85770041385     Delta-E=        0.000003229334 Rises=F Damp=F
 DIIS: error= 2.58D-05 at cycle  11 NSaved=  11.
 NSaved=11 IEnMin= 8 EnMin= -1507.85771275324     IErMin= 9 ErrMin= 2.19D-05
 ErrMax= 2.58D-05  0.00D+00 EMaxC= 1.00D-01 BMatC= 4.65D-07 BMatP= 5.58D-07
 IDIUse=1 WtCom= 1.00D+00 WtEn= 0.00D+00
 Coeff-Com:  0.797D-04 0.434D-04-0.515D-03-0.446D-02-0.162D-01-0.294D-01
 Coeff-Com:  0.123D-01 0.216D+00 0.766D+00-0.158D+01 0.163D+01
 Coeff:      0.797D-04 0.434D-04-0.515D-03-0.446D-02-0.162D-01-0.294D-01
 Coeff:      0.123D-01 0.216D+00 0.766D+00-0.158D+01 0.163D+01
 Gap=     0.194 Goal=   None    Shift=    0.000
 RMSDP=2.02D-05 MaxDP=2.09D-03 DE= 3.23D-06 OVMax= 9.51D-05

 Cycle  12  Pass 0  IDiag  1:
 RMSU=  9.72D-06    CP:  1.00D+00  7.00D-01  9.67D-01  7.74D-01  1.19D+00
                    CP:  1.40D+00  1.93D+00  1.88D+00  7.18D-01 -1.24D+00
                    CP:  3.00D+00
 E= -1507.85768411936     Delta-E=        0.000016294489 Rises=F Damp=F
 DIIS: error= 3.10D-05 at cycle  12 NSaved=  12.
 NSaved=12 IEnMin= 8 EnMin= -1507.85771275324     IErMin= 9 ErrMin= 2.19D-05
 ErrMax= 3.10D-05  0.00D+00 EMaxC= 1.00D-01 BMatC= 3.26D-07 BMatP= 4.65D-07
 IDIUse=1 WtCom= 1.00D+00 WtEn= 0.00D+00
 Coeff-Com:  0.806D-04 0.482D-04-0.525D-03-0.459D-02-0.168D-01-0.306D-01
 Coeff-Com:  0.122D-01 0.223D+00 0.796D+00-0.164D+01 0.171D+01-0.431D-01
 Coeff:      0.806D-04 0.482D-04-0.525D-03-0.459D-02-0.168D-01-0.306D-01
 Coeff:      0.122D-01 0.223D+00 0.796D+00-0.164D+01 0.171D+01-0.431D-01
 Gap=     0.194 Goal=   None    Shift=    0.000
 RMSDP=1.24D-06 MaxDP=1.60D-04 DE= 1.63D-05 OVMax= 5.94D-06

 Initial convergence to 1.0D-05 achieved.  Increase integral accuracy.
 Cycle  13  Pass 1  IDiag  1:
 E= -1507.85750483336     Delta-E=        0.000179286007 Rises=F Damp=F
 DIIS: error= 3.49D-04 at cycle   1 NSaved=   1.
 NSaved= 1 IEnMin= 1 EnMin= -1507.85750483336     IErMin= 1 ErrMin= 3.49D-04
 ErrMax= 3.49D-04  0.00D+00 EMaxC= 1.00D-01 BMatC= 9.21D-05 BMatP= 9.21D-05
 IDIUse=3 WtCom= 9.97D-01 WtEn= 3.49D-03
 Coeff-Com:  0.100D+01
 Coeff-En:   0.100D+01
 Coeff:      0.100D+01
 Gap=     0.194 Goal=   None    Shift=    0.000
 RMSDP=1.24D-06 MaxDP=1.60D-04 DE= 1.79D-04 OVMax= 1.08D-03

 Cycle  14  Pass 1  IDiag  1:
 RMSU=  4.82D-04    CP:  9.93D-01
 E= -1507.85756583400     Delta-E=       -0.000061000645 Rises=F Damp=F
 DIIS: error= 6.76D-06 at cycle   2 NSaved=   2.
 NSaved= 2 IEnMin= 2 EnMin= -1507.85756583400     IErMin= 2 ErrMin= 6.76D-06
 ErrMax= 6.76D-06  0.00D+00 EMaxC= 1.00D-01 BMatC= 1.24D-07 BMatP= 9.21D-05
 IDIUse=1 WtCom= 1.00D+00 WtEn= 0.00D+00
 Coeff-Com: -0.160D-01 0.102D+01
 Coeff:     -0.160D-01 0.102D+01
 Gap=     0.194 Goal=   None    Shift=    0.000
 RMSDP=1.70D-05 MaxDP=1.77D-03 DE=-6.10D-05 OVMax= 1.67D-04

 Cycle  15  Pass 1  IDiag  1:
 RMSU=  5.16D-06    CP:  9.93D-01  1.03D+00
 E= -1507.85756584631     Delta-E=       -0.000000012306 Rises=F Damp=F
 DIIS: error= 6.94D-06 at cycle   3 NSaved=   3.
 NSaved= 3 IEnMin= 3 EnMin= -1507.85756584631     IErMin= 2 ErrMin= 6.76D-06
 ErrMax= 6.94D-06  0.00D+00 EMaxC= 1.00D-01 BMatC= 1.65D-07 BMatP= 1.24D-07
 IDIUse=1 WtCom= 1.00D+00 WtEn= 0.00D+00
 Coeff-Com: -0.100D-01 0.578D+00 0.432D+00
 Coeff:     -0.100D-01 0.578D+00 0.432D+00
 Gap=     0.194 Goal=   None    Shift=    0.000
 RMSDP=6.55D-07 MaxDP=6.32D-05 DE=-1.23D-08 OVMax= 1.10D-04

 Cycle  16  Pass 1  IDiag  1:
 RMSU=  6.04D-07    CP:  9.93D-01  1.03D+00  1.01D+00
 E= -1507.85756598305     Delta-E=       -0.000000136743 Rises=F Damp=F
 DIIS: error= 1.49D-06 at cycle   4 NSaved=   4.
 NSaved= 4 IEnMin= 4 EnMin= -1507.85756598305     IErMin= 4 ErrMin= 1.49D-06
 ErrMax= 1.49D-06  0.00D+00 EMaxC= 1.00D-01 BMatC= 5.66D-09 BMatP= 1.24D-07
 IDIUse=1 WtCom= 1.00D+00 WtEn= 0.00D+00
 Coeff-Com: -0.116D-02 0.541D-01 0.156D+00 0.791D+00
 Coeff:     -0.116D-02 0.541D-01 0.156D+00 0.791D+00
 Gap=     0.194 Goal=   None    Shift=    0.000
 RMSDP=3.69D-07 MaxDP=4.01D-05 DE=-1.37D-07 OVMax= 2.65D-05

 Cycle  17  Pass 1  IDiag  1:
 RMSU=  1.99D-07    CP:  9.93D-01  1.03D+00  1.05D+00  1.01D+00
 E= -1507.85756598807     Delta-E=       -0.000000005017 Rises=F Damp=F
 DIIS: error= 6.21D-07 at cycle   5 NSaved=   5.
 NSaved= 5 IEnMin= 5 EnMin= -1507.85756598807     IErMin= 5 ErrMin= 6.21D-07
 ErrMax= 6.21D-07  0.00D+00 EMaxC= 1.00D-01 BMatC= 1.25D-09 BMatP= 5.66D-09
 IDIUse=1 WtCom= 1.00D+00 WtEn= 0.00D+00
 Coeff-Com:  0.531D-03-0.372D-01 0.312D-01 0.407D+00 0.599D+00
 Coeff:      0.531D-03-0.372D-01 0.312D-01 0.407D+00 0.599D+00
 Gap=     0.194 Goal=   None    Shift=    0.000
 RMSDP=1.00D-07 MaxDP=1.08D-05 DE=-5.02D-09 OVMax= 9.05D-06

 Cycle  18  Pass 1  IDiag  1:
 RMSU=  6.70D-08    CP:  9.93D-01  1.03D+00  1.06D+00  1.05D+00  1.02D+00
 E= -1507.85756598930     Delta-E=       -0.000000001234 Rises=F Damp=F
 DIIS: error= 1.68D-07 at cycle   6 NSaved=   6.
 NSaved= 6 IEnMin= 6 EnMin= -1507.85756598930     IErMin= 6 ErrMin= 1.68D-07
 ErrMax= 1.68D-07  0.00D+00 EMaxC= 1.00D-01 BMatC= 7.17D-11 BMatP= 1.25D-09
 IDIUse=1 WtCom= 1.00D+00 WtEn= 0.00D+00
 Coeff-Com:  0.283D-03-0.175D-01-0.338D-02 0.670D-01 0.211D+00 0.742D+00
 Coeff:      0.283D-03-0.175D-01-0.338D-02 0.670D-01 0.211D+00 0.742D+00
 Gap=     0.194 Goal=   None    Shift=    0.000
 RMSDP=2.96D-08 MaxDP=3.89D-06 DE=-1.23D-09 OVMax= 8.41D-06

 Cycle  19  Pass 1  IDiag  1:
 RMSU=  1.95D-08    CP:  9.93D-01  1.03D+00  1.06D+00  1.06D+00  1.13D+00
                    CP:  1.05D+00
 E= -1507.85756598937     Delta-E=       -0.000000000062 Rises=F Damp=F
 DIIS: error= 1.15D-07 at cycle   7 NSaved=   7.
 NSaved= 7 IEnMin= 7 EnMin= -1507.85756598937     IErMin= 7 ErrMin= 1.15D-07
 ErrMax= 1.15D-07  0.00D+00 EMaxC= 1.00D-01 BMatC= 2.32D-11 BMatP= 7.17D-11
 IDIUse=1 WtCom= 1.00D+00 WtEn= 0.00D+00
 Coeff-Com:  0.130D-04 0.250D-03-0.899D-02-0.647D-01-0.406D-01 0.373D+00
 Coeff-Com:  0.741D+00
 Coeff:      0.130D-04 0.250D-03-0.899D-02-0.647D-01-0.406D-01 0.373D+00
 Coeff:      0.741D+00
 Gap=     0.194 Goal=   None    Shift=    0.000
 RMSDP=1.71D-08 MaxDP=1.14D-06 DE=-6.23D-11 OVMax= 2.76D-06

 Cycle  20  Pass 1  IDiag  1:
 RMSU=  1.27D-08    CP:  9.93D-01  1.03D+00  1.06D+00  1.06D+00  1.16D+00
                    CP:  1.17D+00  1.07D+00
 E= -1507.85756598940     Delta-E=       -0.000000000031 Rises=F Damp=F
 DIIS: error= 5.28D-08 at cycle   8 NSaved=   8.
 NSaved= 8 IEnMin= 8 EnMin= -1507.85756598940     IErMin= 8 ErrMin= 5.28D-08
 ErrMax= 5.28D-08  0.00D+00 EMaxC= 1.00D-01 BMatC= 4.82D-12 BMatP= 2.32D-11
 IDIUse=1 WtCom= 1.00D+00 WtEn= 0.00D+00
 Coeff-Com: -0.448D-04 0.337D-02-0.438D-02-0.486D-01-0.625D-01 0.869D-01
 Coeff-Com:  0.402D+00 0.624D+00
 Coeff:     -0.448D-04 0.337D-02-0.438D-02-0.486D-01-0.625D-01 0.869D-01
 Coeff:      0.402D+00 0.624D+00
 Gap=     0.194 Goal=   None    Shift=    0.000
 RMSDP=6.76D-09 MaxDP=8.72D-07 DE=-3.14D-11 OVMax= 1.96D-06

 SCF Done:  E(RM062X) =  -1507.85756599     A.U. after   20 cycles
            NFock= 20  Conv=0.68D-08     -V/T= 2.0041
 KE= 1.501733703816D+03 PE=-8.412849667735D+03 EE= 2.965967477273D+03
 Leave Link  502 at Sun Feb 19 04:34:29 2023, MaxMem=  2684354560 cpu:            7936.3 elap:             496.5
 (Enter /storage/apps/GAUSSIAN/G16_RevA03/g16/l601.exe)
 Copying SCF densities to generalized density rwf, IOpCl= 0 IROHF=0.

 **********************************************************************

            Population analysis using the SCF density.

 **********************************************************************

 Alpha  occ. eigenvalues --  -89.89101 -19.64893 -19.64004 -19.61960 -19.60092
 Alpha  occ. eigenvalues --  -19.59621 -14.81285 -14.77772 -10.65160 -10.63860
 Alpha  occ. eigenvalues --  -10.62980 -10.60774 -10.60337 -10.60289 -10.59908
 Alpha  occ. eigenvalues --  -10.58919 -10.57093 -10.56055 -10.55591 -10.55076
 Alpha  occ. eigenvalues --  -10.54548 -10.54500 -10.53442 -10.52820  -8.25003
 Alpha  occ. eigenvalues --   -6.16946  -6.16726  -6.16507  -1.20606  -1.16622
 Alpha  occ. eigenvalues --   -1.16216  -1.14692  -1.14040  -1.09990  -1.02361
 Alpha  occ. eigenvalues --   -0.93647  -0.90177  -0.88929  -0.88421  -0.87060
 Alpha  occ. eigenvalues --   -0.86556  -0.80432  -0.79430  -0.76121  -0.73968
 Alpha  occ. eigenvalues --   -0.73378  -0.71118  -0.68901  -0.67379  -0.66592
 Alpha  occ. eigenvalues --   -0.64462  -0.63364  -0.61430  -0.60467  -0.59793
 Alpha  occ. eigenvalues --   -0.58660  -0.57546  -0.55476  -0.54396  -0.54331
 Alpha  occ. eigenvalues --   -0.53588  -0.52907  -0.51967  -0.51696  -0.50948
 Alpha  occ. eigenvalues --   -0.50399  -0.49980  -0.49378  -0.48845  -0.48678
 Alpha  occ. eigenvalues --   -0.48393  -0.47822  -0.47327  -0.46434  -0.45685
 Alpha  occ. eigenvalues --   -0.45433  -0.44833  -0.44462  -0.43500  -0.43360
 Alpha  occ. eigenvalues --   -0.42803  -0.42434  -0.41745  -0.38751  -0.38409
 Alpha  occ. eigenvalues --   -0.36040  -0.35604  -0.35115  -0.34803  -0.34678
 Alpha  occ. eigenvalues --   -0.32910  -0.31167  -0.30472  -0.28906  -0.23061
 Alpha virt. eigenvalues --   -0.03633  -0.00434   0.04334   0.04579   0.05689
 Alpha virt. eigenvalues --    0.05838   0.06894   0.07489   0.08202   0.08504
 Alpha virt. eigenvalues --    0.08931   0.09563   0.09835   0.11102   0.11143
 Alpha virt. eigenvalues --    0.11258   0.12440   0.12730   0.12934   0.13471
 Alpha virt. eigenvalues --    0.13896   0.14138   0.14397   0.14935   0.15324
 Alpha virt. eigenvalues --    0.15587   0.16149   0.16288   0.16851   0.17878
 Alpha virt. eigenvalues --    0.18771   0.19040   0.19474   0.19727   0.20001
 Alpha virt. eigenvalues --    0.20541   0.21090   0.21356   0.21776   0.22240
 Alpha virt. eigenvalues --    0.22651   0.23396   0.23700   0.24248   0.24920
 Alpha virt. eigenvalues --    0.25339   0.25571   0.25971   0.26330   0.26847
 Alpha virt. eigenvalues --    0.27353   0.27664   0.28000   0.28380   0.29001
 Alpha virt. eigenvalues --    0.29296   0.29686   0.30002   0.30721   0.31497
 Alpha virt. eigenvalues --    0.31875   0.32118   0.32327   0.32475   0.33406
 Alpha virt. eigenvalues --    0.33665   0.33997   0.34509   0.35136   0.35825
 Alpha virt. eigenvalues --    0.36685   0.37482   0.37648   0.37926   0.38316
 Alpha virt. eigenvalues --    0.38857   0.39210   0.40014   0.40200   0.40446
 Alpha virt. eigenvalues --    0.40748   0.40868   0.41066   0.41313   0.42098
 Alpha virt. eigenvalues --    0.42306   0.42772   0.43275   0.43328   0.43628
 Alpha virt. eigenvalues --    0.43882   0.44142   0.44798   0.45378   0.45791
 Alpha virt. eigenvalues --    0.46149   0.46410   0.46687   0.47134   0.47339
 Alpha virt. eigenvalues --    0.47795   0.48505   0.48874   0.49100   0.49266
 Alpha virt. eigenvalues --    0.49419   0.49937   0.50316   0.50471   0.50685
 Alpha virt. eigenvalues --    0.51010   0.51192   0.51646   0.51787   0.52534
 Alpha virt. eigenvalues --    0.52829   0.53350   0.53675   0.53917   0.54841
 Alpha virt. eigenvalues --    0.55204   0.55588   0.55812   0.56328   0.57777
 Alpha virt. eigenvalues --    0.57981   0.58067   0.58425   0.58937   0.59392
 Alpha virt. eigenvalues --    0.60060   0.60565   0.60864   0.61443   0.61613
 Alpha virt. eigenvalues --    0.62664   0.62781   0.63424   0.63607   0.64237
 Alpha virt. eigenvalues --    0.65279   0.65857   0.66351   0.66794   0.67414
 Alpha virt. eigenvalues --    0.67760   0.68116   0.68510   0.69493   0.69664
 Alpha virt. eigenvalues --    0.71074   0.71954   0.72939   0.73241   0.73894
 Alpha virt. eigenvalues --    0.74040   0.75067   0.75961   0.76843   0.77192
 Alpha virt. eigenvalues --    0.77825   0.79043   0.79794   0.80358   0.81259
 Alpha virt. eigenvalues --    0.81667   0.82797   0.82842   0.83381   0.83892
 Alpha virt. eigenvalues --    0.84215   0.85650   0.86279   0.86709   0.87570
 Alpha virt. eigenvalues --    0.88146   0.88264   0.88807   0.89789   0.90282
 Alpha virt. eigenvalues --    0.90776   0.91950   0.92846   0.93040   0.93668
 Alpha virt. eigenvalues --    0.95173   0.95323   0.95673   0.96466   0.96794
 Alpha virt. eigenvalues --    0.97552   0.97951   0.98245   0.98875   0.99634
 Alpha virt. eigenvalues --    1.00454   1.01053   1.02789   1.03532   1.04035
 Alpha virt. eigenvalues --    1.04610   1.04977   1.05559   1.05966   1.06444
 Alpha virt. eigenvalues --    1.07196   1.08473   1.08893   1.09638   1.09724
 Alpha virt. eigenvalues --    1.10067   1.10986   1.11959   1.12331   1.13174
 Alpha virt. eigenvalues --    1.13798   1.14080   1.14807   1.15667   1.16571
 Alpha virt. eigenvalues --    1.16848   1.17260   1.18204   1.18245   1.19790
 Alpha virt. eigenvalues --    1.20514   1.21161   1.21969   1.22722   1.23437
 Alpha virt. eigenvalues --    1.24388   1.25773   1.26793   1.27246   1.28165
 Alpha virt. eigenvalues --    1.28342   1.29584   1.30429   1.30852   1.32034
 Alpha virt. eigenvalues --    1.32617   1.33450   1.33767   1.34939   1.35533
 Alpha virt. eigenvalues --    1.36458   1.36926   1.37477   1.38466   1.40361
 Alpha virt. eigenvalues --    1.41113   1.42151   1.42664   1.43337   1.43905
 Alpha virt. eigenvalues --    1.44748   1.45811   1.47327   1.48934   1.49914
 Alpha virt. eigenvalues --    1.50557   1.51194   1.51278   1.51985   1.52432
 Alpha virt. eigenvalues --    1.53943   1.54903   1.54975   1.55629   1.56154
 Alpha virt. eigenvalues --    1.56417   1.57068   1.57555   1.57876   1.58029
 Alpha virt. eigenvalues --    1.58599   1.58834   1.59261   1.60057   1.60293
 Alpha virt. eigenvalues --    1.61074   1.61728   1.62140   1.62420   1.62829
 Alpha virt. eigenvalues --    1.63622   1.63741   1.64391   1.65175   1.66110
 Alpha virt. eigenvalues --    1.66386   1.66741   1.67151   1.67511   1.68639
 Alpha virt. eigenvalues --    1.68788   1.70047   1.70309   1.70499   1.70888
 Alpha virt. eigenvalues --    1.72024   1.72485   1.73372   1.73524   1.74001
 Alpha virt. eigenvalues --    1.75110   1.75671   1.76235   1.77458   1.78065
 Alpha virt. eigenvalues --    1.78523   1.78838   1.79641   1.80027   1.81043
 Alpha virt. eigenvalues --    1.81780   1.82612   1.83410   1.84459   1.84908
 Alpha virt. eigenvalues --    1.85256   1.85674   1.86336   1.86990   1.87607
 Alpha virt. eigenvalues --    1.88144   1.88279   1.89412   1.90041   1.90289
 Alpha virt. eigenvalues --    1.91826   1.92324   1.93355   1.93550   1.94924
 Alpha virt. eigenvalues --    1.95121   1.95335   1.95532   1.96346   1.97142
 Alpha virt. eigenvalues --    1.97486   1.97805   1.98671   1.99981   2.01207
 Alpha virt. eigenvalues --    2.01996   2.02485   2.02639   2.03109   2.04255
 Alpha virt. eigenvalues --    2.05863   2.06403   2.06994   2.07673   2.08454
 Alpha virt. eigenvalues --    2.09194   2.09963   2.11144   2.12073   2.13080
 Alpha virt. eigenvalues --    2.13363   2.13808   2.14427   2.15389   2.16359
 Alpha virt. eigenvalues --    2.16906   2.17636   2.18410   2.19209   2.19972
 Alpha virt. eigenvalues --    2.20921   2.21450   2.21887   2.22535   2.22969
 Alpha virt. eigenvalues --    2.23630   2.24923   2.25227   2.26682   2.26872
 Alpha virt. eigenvalues --    2.27232   2.28068   2.28583   2.29209   2.29303
 Alpha virt. eigenvalues --    2.30012   2.30898   2.31678   2.32116   2.32653
 Alpha virt. eigenvalues --    2.33367   2.33637   2.34565   2.34966   2.35632
 Alpha virt. eigenvalues --    2.36497   2.36967   2.38382   2.38999   2.39842
 Alpha virt. eigenvalues --    2.40754   2.41612   2.42236   2.43116   2.44069
 Alpha virt. eigenvalues --    2.44572   2.45677   2.45909   2.46869   2.47846
 Alpha virt. eigenvalues --    2.48329   2.49114   2.49632   2.51130   2.51616
 Alpha virt. eigenvalues --    2.51851   2.52405   2.53796   2.54575   2.55261
 Alpha virt. eigenvalues --    2.56037   2.56816   2.57443   2.57841   2.58151
 Alpha virt. eigenvalues --    2.58834   2.59148   2.59656   2.60311   2.60829
 Alpha virt. eigenvalues --    2.61954   2.62460   2.62851   2.63468   2.63800
 Alpha virt. eigenvalues --    2.64947   2.65410   2.66260   2.66609   2.67840
 Alpha virt. eigenvalues --    2.68417   2.68831   2.69623   2.70356   2.70807
 Alpha virt. eigenvalues --    2.71282   2.71813   2.72155   2.72983   2.73655
 Alpha virt. eigenvalues --    2.74609   2.75242   2.76343   2.77042   2.77472
 Alpha virt. eigenvalues --    2.77909   2.79043   2.79301   2.80680   2.81447
 Alpha virt. eigenvalues --    2.81906   2.82321   2.83262   2.84643   2.84944
 Alpha virt. eigenvalues --    2.85418   2.86585   2.86978   2.87629   2.88850
 Alpha virt. eigenvalues --    2.90317   2.91266   2.91737   2.92557   2.93155
 Alpha virt. eigenvalues --    2.94345   2.95104   2.96011   2.96305   2.97136
 Alpha virt. eigenvalues --    2.97842   2.97938   2.98530   3.00185   3.00277
 Alpha virt. eigenvalues --    3.01313   3.02083   3.02967   3.03088   3.03764
 Alpha virt. eigenvalues --    3.04866   3.05488   3.05901   3.06915   3.07168
 Alpha virt. eigenvalues --    3.07898   3.08743   3.08877   3.09718   3.09908
 Alpha virt. eigenvalues --    3.11031   3.11477   3.12090   3.12597   3.12810
 Alpha virt. eigenvalues --    3.13502   3.14738   3.14983   3.15475   3.15889
 Alpha virt. eigenvalues --    3.16877   3.17068   3.17634   3.18472   3.18813
 Alpha virt. eigenvalues --    3.19770   3.20008   3.20533   3.21686   3.22191
 Alpha virt. eigenvalues --    3.22538   3.23384   3.24055   3.25682   3.26121
 Alpha virt. eigenvalues --    3.26450   3.26654   3.27372   3.28261   3.29247
 Alpha virt. eigenvalues --    3.29478   3.30435   3.30646   3.31266   3.32146
 Alpha virt. eigenvalues --    3.32533   3.32703   3.33191   3.33866   3.34468
 Alpha virt. eigenvalues --    3.35062   3.36045   3.36480   3.37114   3.37730
 Alpha virt. eigenvalues --    3.38211   3.38512   3.39144   3.39444   3.39921
 Alpha virt. eigenvalues --    3.40769   3.41369   3.41988   3.42829   3.43143
 Alpha virt. eigenvalues --    3.43737   3.44207   3.45439   3.45759   3.46225
 Alpha virt. eigenvalues --    3.47202   3.47575   3.48080   3.48649   3.49291
 Alpha virt. eigenvalues --    3.49940   3.50396   3.51024   3.51589   3.52848
 Alpha virt. eigenvalues --    3.53309   3.54363   3.55037   3.55542   3.57231
 Alpha virt. eigenvalues --    3.57639   3.57873   3.58577   3.58734   3.61463
 Alpha virt. eigenvalues --    3.61705   3.62973   3.63323   3.64235   3.64916
 Alpha virt. eigenvalues --    3.65842   3.67519   3.67868   3.68918   3.70155
 Alpha virt. eigenvalues --    3.70883   3.71503   3.72253   3.73080   3.73490
 Alpha virt. eigenvalues --    3.75287   3.76125   3.76902   3.77760   3.77899
 Alpha virt. eigenvalues --    3.79143   3.79507   3.80680   3.80825   3.81546
 Alpha virt. eigenvalues --    3.82463   3.84541   3.86067   3.89129   3.89679
 Alpha virt. eigenvalues --    3.90261   3.91195   3.92088   3.92858   3.93377
 Alpha virt. eigenvalues --    3.93671   3.94620   3.96651   3.97507   3.98865
 Alpha virt. eigenvalues --    3.99771   4.01076   4.03796   4.06005   4.06434
 Alpha virt. eigenvalues --    4.07159   4.07845   4.09480   4.10271   4.11313
 Alpha virt. eigenvalues --    4.11442   4.11650   4.13965   4.15498   4.15806
 Alpha virt. eigenvalues --    4.18421   4.20925   4.22202   4.22877   4.23870
 Alpha virt. eigenvalues --    4.25169   4.27352   4.27596   4.28266   4.28787
 Alpha virt. eigenvalues --    4.29736   4.32367   4.34139   4.35389   4.37885
 Alpha virt. eigenvalues --    4.38367   4.39055   4.39576   4.40494   4.41334
 Alpha virt. eigenvalues --    4.42513   4.45282   4.46832   4.47214   4.49187
 Alpha virt. eigenvalues --    4.50198   4.51023   4.53078   4.54173   4.56490
 Alpha virt. eigenvalues --    4.60090   4.61020   4.65391   4.65566   4.67790
 Alpha virt. eigenvalues --    4.70567   4.71665   4.73521   4.74319   4.75625
 Alpha virt. eigenvalues --    4.76502   4.78047   4.79772   4.80985   4.82607
 Alpha virt. eigenvalues --    4.84149   4.86446   4.88302   4.88641   4.90767
 Alpha virt. eigenvalues --    4.92473   4.93459   4.95004   4.97299   4.98248
 Alpha virt. eigenvalues --    4.99123   5.01185   5.02220   5.03671   5.06562
 Alpha virt. eigenvalues --    5.08200   5.12825   5.14538   5.16071   5.19349
 Alpha virt. eigenvalues --    5.22514   5.23719   5.23922   5.25031   5.28252
 Alpha virt. eigenvalues --    5.28641   5.29612   5.31049   5.34070   5.35056
 Alpha virt. eigenvalues --    5.36734   5.41025   5.42637   5.43845   5.46395
 Alpha virt. eigenvalues --    5.46955   5.49105   5.53572   5.57200   5.57981
 Alpha virt. eigenvalues --    5.62632   5.66001   5.73836   5.75734   5.77232
 Alpha virt. eigenvalues --    5.79234   5.79343   5.82846   5.83902   5.86011
 Alpha virt. eigenvalues --    5.87404   5.88528   5.90244   5.92371   5.93153
 Alpha virt. eigenvalues --    5.98612   6.02423   6.06798   6.16898   6.19978
 Alpha virt. eigenvalues --    6.22298   6.25167   6.27563   6.31251   6.34220
 Alpha virt. eigenvalues --    6.37768   6.44255   6.45646   6.47675   6.52266
 Alpha virt. eigenvalues --    6.58133   6.58736   6.69217   6.73827   6.74158
 Alpha virt. eigenvalues --    6.78184   6.80633   6.82555   6.85889   6.86164
 Alpha virt. eigenvalues --    6.87982   6.91758   6.98574   7.02150   7.07161
 Alpha virt. eigenvalues --    7.08268   7.08581   7.09787   7.15635   7.24091
 Alpha virt. eigenvalues --    7.25336   7.33360   9.00646   9.40153   9.52693
 Alpha virt. eigenvalues --   19.81951  22.29474  22.41893  22.48154  22.51557
 Alpha virt. eigenvalues --   22.64667  22.68354  22.71160  22.72029  22.81535
 Alpha virt. eigenvalues --   22.83650  22.86266  23.02242  23.03277  23.05106
 Alpha virt. eigenvalues --   23.19418  23.49178  32.14622  33.18359  44.13957
 Alpha virt. eigenvalues --   44.17996  44.23614  44.27899  44.56527
          Condensed to atoms (all electrons):
               1          2          3          4          5          6
     1  C    5.114582   0.421023   0.414098  -0.018241   0.000038  -0.000129
     2  H    0.421023   0.509351  -0.022501  -0.001521   0.000414  -0.000005
     3  H    0.414098  -0.022501   0.538532   0.001548  -0.000014  -0.000006
     4  C   -0.018241  -0.001521   0.001548   5.657843   0.472583   0.241880
     5  H    0.000038   0.000414  -0.000014   0.472583   0.552476  -0.031377
     6  O   -0.000129  -0.000005  -0.000006   0.241880  -0.031377   8.016969
     7  H   -0.000011  -0.000008   0.000004  -0.063737  -0.003722   0.290935
     8  C    0.012013   0.013605  -0.010217  -0.179336  -0.081923  -0.053491
     9  H    0.011259   0.000035  -0.002230  -0.135251   0.003339   0.002338
    10  O    0.007492  -0.000363   0.000327  -0.045597   0.002149   0.000658
    11  H   -0.000639  -0.000194   0.000484   0.012317  -0.000883  -0.000549
    12  C   -0.003204  -0.000130   0.001173  -0.062650  -0.055530  -0.001285
    13  H   -0.000106   0.000044   0.000118  -0.109274   0.006093   0.001188
    14  C    0.178201  -0.048377  -0.039853   0.159964   0.018814   0.009413
    15  H   -0.071938  -0.006759  -0.003341  -0.014417  -0.000121   0.000066
    16  O   -0.032744   0.000710   0.005150  -0.083791  -0.002805   0.005728
    17  N    0.000032  -0.000098  -0.000032   0.031886  -0.016181  -0.007221
    18  C   -0.001152  -0.000010   0.000011   0.005571  -0.005443   0.004488
    19  H    0.000043  -0.000054   0.000036  -0.013436  -0.002624   0.001338
    20  C   -0.000025   0.000006  -0.000002   0.004091   0.006025  -0.002894
    21  H    0.000004   0.000000  -0.000000  -0.000036   0.000153  -0.000051
    22  C   -0.000011  -0.000001   0.000000   0.001139  -0.000262   0.000147
    23  H   -0.000000   0.000000   0.000000   0.000041   0.000004   0.000001
    24  H    0.000000  -0.000000  -0.000000  -0.000612  -0.000067  -0.000004
    25  C   -0.000063  -0.000006   0.000001  -0.003600  -0.000629  -0.000525
    26  C   -0.000332   0.000028  -0.000003   0.028049  -0.000785  -0.003351
    27  H   -0.000015   0.000001  -0.000000   0.000794  -0.000046   0.000130
    28  C    0.000000  -0.000000  -0.000000   0.000113  -0.000003  -0.000018
    29  O   -0.000000   0.000000  -0.000000  -0.000001   0.000000  -0.000000
    30  N   -0.000000  -0.000000   0.000000   0.000001  -0.000000  -0.000000
    31  H   -0.000000   0.000000   0.000000   0.000000   0.000000  -0.000000
    32  H    0.000000   0.000000  -0.000000   0.000000   0.000000   0.000000
    33  C    0.000001  -0.000000   0.000000  -0.000346  -0.000356  -0.013462
    34  C    0.000001  -0.000000  -0.000000   0.000723   0.000049  -0.000842
    35  C    0.000000   0.000000  -0.000000   0.000352   0.000109   0.000326
    36  C   -0.000000   0.000000   0.000000   0.000003   0.000000   0.000001
    37  C   -0.000000   0.000000   0.000000   0.000345   0.000003   0.000073
    38  O   -0.000000   0.000000  -0.000000  -0.001169  -0.000079  -0.019189
    39  S   -0.000000  -0.000000  -0.000000   0.000273   0.000016   0.000693
    40  H   -0.000000   0.000000  -0.000000   0.000176   0.000021   0.000275
    41  H   -0.000001   0.000000  -0.000000  -0.003605   0.000531   0.014478
    42  H    0.000000   0.000000  -0.000000  -0.000000   0.000000  -0.000000
    43  H    0.000000  -0.000000  -0.000000  -0.000000  -0.000000  -0.000000
    44  H    0.000000  -0.000000  -0.000000  -0.000000  -0.000000  -0.000000
    45  H   -0.000000   0.000000   0.000000   0.000033   0.000004   0.000018
    46  H    0.000000  -0.000000  -0.000000  -0.000047   0.000000   0.000010
    47  H    0.380622  -0.022242  -0.024844   0.003074  -0.001022   0.000056
    48  H    0.000000   0.000000  -0.000000   0.000079   0.000002   0.000413
               7          8          9         10         11         12
     1  C   -0.000011   0.012013   0.011259   0.007492  -0.000639  -0.003204
     2  H   -0.000008   0.013605   0.000035  -0.000363  -0.000194  -0.000130
     3  H    0.000004  -0.010217  -0.002230   0.000327   0.000484   0.001173
     4  C   -0.063737  -0.179336  -0.135251  -0.045597   0.012317  -0.062650
     5  H   -0.003722  -0.081923   0.003339   0.002149  -0.000883  -0.055530
     6  O    0.290935  -0.053491   0.002338   0.000658  -0.000549  -0.001285
     7  H    0.431969   0.003115  -0.000944  -0.001187   0.000277  -0.000299
     8  C    0.003115   5.605044   0.536825   0.264195  -0.039587   0.024466
     9  H   -0.000944   0.536825   0.569783  -0.057031  -0.001633   0.016121
    10  O   -0.001187   0.264195  -0.057031   8.034544   0.288281  -0.014280
    11  H    0.000277  -0.039587  -0.001633   0.288281   0.426958  -0.001869
    12  C   -0.000299   0.024466   0.016121  -0.014280  -0.001869   5.589803
    13  H   -0.003101   0.018306   0.002922   0.016551  -0.001578   0.477502
    14  C    0.000003   0.028721  -0.111593  -0.048134  -0.004881  -0.108232
    15  H    0.000125  -0.038229   0.011144  -0.007224   0.005661   0.000275
    16  O    0.001481  -0.042180   0.004920   0.007809   0.000340   0.284710
    17  N    0.019702   0.000204  -0.001031  -0.000642   0.000038   0.135809
    18  C   -0.003349  -0.004981  -0.000462  -0.000527   0.000021  -0.116086
    19  H    0.000686   0.001125   0.000030  -0.000005   0.000004   0.016694
    20  C   -0.001388  -0.002123   0.000012   0.000011  -0.000001   0.021934
    21  H    0.000013  -0.000010   0.000000   0.000000  -0.000000   0.000653
    22  C    0.000526  -0.000007  -0.000003  -0.000005   0.000000  -0.016145
    23  H   -0.000032   0.000000   0.000000   0.000000  -0.000000  -0.000001
    24  H    0.001213   0.000019  -0.000000   0.000000   0.000000   0.001489
    25  C   -0.000561  -0.000207  -0.000002  -0.000048   0.000001  -0.021705
    26  C   -0.004897  -0.003719  -0.000147  -0.000876  -0.000044  -0.084963
    27  H    0.000159  -0.000098  -0.000007  -0.000126   0.000006  -0.000601
    28  C    0.000062   0.000007   0.000000  -0.000000  -0.000000  -0.001246
    29  O    0.000021   0.000001   0.000000  -0.000000  -0.000000   0.000454
    30  N   -0.000000  -0.000000  -0.000000  -0.000000  -0.000000  -0.000016
    31  H   -0.000000  -0.000000   0.000000  -0.000000  -0.000000  -0.000006
    32  H   -0.000000  -0.000000  -0.000000  -0.000000  -0.000000  -0.000006
    33  C    0.005440   0.000744   0.000004  -0.000548   0.000042  -0.000604
    34  C   -0.002855  -0.000095  -0.000000   0.000024  -0.000002  -0.002620
    35  C    0.000770  -0.000081  -0.000000   0.000001  -0.000000   0.001040
    36  C   -0.000019  -0.000000  -0.000000  -0.000000  -0.000000   0.000002
    37  C   -0.001799   0.000003  -0.000000  -0.000000   0.000000  -0.000967
    38  O    0.032405   0.000014   0.000004   0.000004  -0.000000  -0.000693
    39  S   -0.001418  -0.000018  -0.000001  -0.000001  -0.000000  -0.000106
    40  H   -0.001403  -0.000017  -0.000000   0.000009  -0.000001   0.000024
    41  H   -0.002603  -0.001765   0.000036   0.001851  -0.000142   0.001467
    42  H    0.000002   0.000000  -0.000000   0.000000  -0.000000  -0.000001
    43  H    0.000001   0.000000  -0.000000   0.000000   0.000000   0.000002
    44  H    0.000000  -0.000000  -0.000000   0.000000   0.000000   0.000000
    45  H   -0.000221  -0.000000   0.000000  -0.000000  -0.000000  -0.000040
    46  H    0.000078  -0.000001  -0.000000   0.000000   0.000000   0.000212
    47  H    0.000041  -0.016724   0.001425   0.000113   0.000144  -0.001179
    48  H   -0.000257  -0.000005   0.000001   0.000004  -0.000001  -0.000018
              13         14         15         16         17         18
     1  C   -0.000106   0.178201  -0.071938  -0.032744   0.000032  -0.001152
     2  H    0.000044  -0.048377  -0.006759   0.000710  -0.000098  -0.000010
     3  H    0.000118  -0.039853  -0.003341   0.005150  -0.000032   0.000011
     4  C   -0.109274   0.159964  -0.014417  -0.083791   0.031886   0.005571
     5  H    0.006093   0.018814  -0.000121  -0.002805  -0.016181  -0.005443
     6  O    0.001188   0.009413   0.000066   0.005728  -0.007221   0.004488
     7  H   -0.003101   0.000003   0.000125   0.001481   0.019702  -0.003349
     8  C    0.018306   0.028721  -0.038229  -0.042180   0.000204  -0.004981
     9  H    0.002922  -0.111593   0.011144   0.004920  -0.001031  -0.000462
    10  O    0.016551  -0.048134  -0.007224   0.007809  -0.000642  -0.000527
    11  H   -0.001578  -0.004881   0.005661   0.000340   0.000038   0.000021
    12  C    0.477502  -0.108232   0.000275   0.284710   0.135809  -0.116086
    13  H    0.513200  -0.008849   0.006280  -0.038833  -0.067849   0.013065
[...]
      4        6          -0.007605800   -0.002710588    0.002549827
      5        1           0.003681419    0.004049705    0.001630284
      6        8           0.007409487    0.001708706   -0.005408076
      7        1          -0.004574964   -0.005692298    0.004448580
      8        6          -0.003767401   -0.011465047   -0.001114159
      9        1          -0.001211257    0.005444183   -0.004001969
     10        8           0.026717638    0.001712504   -0.005241675
     11        1          -0.024696645    0.004588905    0.007790461
     12        6           0.000518579    0.007063424    0.006029142
     13        1          -0.001374508   -0.001926770   -0.002415279
     14        6           0.008026743   -0.001193338    0.001317459
     15        1          -0.003447760    0.002957507    0.001188725
     16        8           0.003494148   -0.004029628   -0.006675047
     17        7           0.004695072    0.003710338   -0.002288027
     18        6          -0.012891740   -0.002688550   -0.002982693
     19        1          -0.001544170    0.007494869   -0.000355585
     20        6           0.007654349   -0.006511645    0.000768732
     21        1           0.002745980    0.005700765    0.000909788
     22        6          -0.014422708    0.011097654    0.013368662
     23        1           0.004311904   -0.001776831    0.004135224
     24        1           0.012690954   -0.027727842   -0.026202512
     25        6           0.008935866    0.001427658   -0.000452575
     26        6          -0.006110902    0.000794597   -0.004036917
     27        1          -0.006173185   -0.004507233    0.002709381
     28        6           0.019296533   -0.002873527    0.020224665
     29        8          -0.006231806   -0.004406693   -0.006931775
     30        7          -0.007129251    0.001661845   -0.027567466
     31        1          -0.005616196   -0.006691503    0.007027246
     32        1           0.006746309    0.011447736    0.010018313
     33        6          -0.006657266   -0.013138350   -0.002817272
     34        6           0.003026032   -0.017901781    0.015048883
     35        6          -0.012961167    0.000570839   -0.013292534
     36        6          -0.001976929    0.001704765   -0.003991745
     37        6           0.004166241    0.019912419    0.021090169
     38        8           0.002143144    0.014359730   -0.009382853
     39       16           0.005920440    0.002828059    0.000803831
     40        1           0.005423455    0.002749785   -0.003329221
     41        1          -0.001820882    0.005599946    0.004767478
     42        1          -0.001144738   -0.000063884    0.004531825
     43        1          -0.003020743   -0.004033721    0.003317531
     44        1           0.006022766   -0.001898497   -0.002093343
     45        1           0.002928076    0.002808375   -0.003829941
     46        1          -0.002928807   -0.006060440    0.003518539
     47        1           0.001446575   -0.004557120   -0.001130199
     48        1          -0.002125042    0.003840923   -0.004781586
 -------------------------------------------------------------------
 Cartesian Forces:  Max     0.027727842 RMS     0.008312569
 Leave Link  716 at Sun Feb 19 04:37:29 2023, MaxMem=  2684354560 cpu:               0.4 elap:               0.0
 (Enter /storage/apps/GAUSSIAN/G16_RevA03/g16/l103.exe)

 GradGradGradGradGradGradGradGradGradGradGradGradGradGradGradGradGradGrad
 Berny optimization.
 Search for a local minimum.
 Step number   1 out of a maximum of    2
 All quantities printed in internal units (Hartrees-Bohrs-Radians)
 Second derivative matrix not updated -- first step.
 ITU=  0
     Eigenvalues ---    0.00013   0.00045   0.00050   0.00077   0.00083
     Eigenvalues ---    0.00129   0.00147   0.00222   0.00286   0.00372
     Eigenvalues ---    0.00399   0.00443   0.00487   0.00628   0.00757
     Eigenvalues ---    0.00854   0.00908   0.01081   0.01097   0.01164
     Eigenvalues ---    0.01317   0.01369   0.01496   0.01748   0.01825
     Eigenvalues ---    0.02089   0.02195   0.02552   0.02836   0.03126
     Eigenvalues ---    0.03253   0.03461   0.03709   0.03912   0.04169
     Eigenvalues ---    0.04560   0.04957   0.05076   0.05251   0.05450
     Eigenvalues ---    0.05568   0.05949   0.06043   0.06295   0.06347
     Eigenvalues ---    0.06507   0.06595   0.06885   0.07036   0.07258
     Eigenvalues ---    0.07562   0.07713   0.07904   0.08336   0.08998
     Eigenvalues ---    0.09456   0.09884   0.10284   0.10468   0.11376
     Eigenvalues ---    0.11734   0.12223   0.12364   0.12628   0.12787
     Eigenvalues ---    0.13024   0.13400   0.13520   0.13812   0.14285
     Eigenvalues ---    0.14639   0.15634   0.16266   0.17015   0.17373
     Eigenvalues ---    0.17892   0.18878   0.19099   0.19657   0.21075
     Eigenvalues ---    0.21404   0.21735   0.22919   0.24404   0.26006
     Eigenvalues ---    0.27192   0.27629   0.27760   0.31108   0.33356
     Eigenvalues ---    0.34290   0.35117   0.36628   0.40676   0.41056
     Eigenvalues ---    0.44984   0.47395   0.50113   0.54410   0.55606
     Eigenvalues ---    0.60106   0.64524   0.65950   0.68341   0.70918
     Eigenvalues ---    0.74920   0.78964   0.81351   0.87264   0.87526
     Eigenvalues ---    0.89105   0.90577   0.91923   0.92403   0.92547
     Eigenvalues ---    0.93199   0.96880   0.99807   1.00510   1.00932
     Eigenvalues ---    1.03748   1.06661   1.09023   1.11073   1.15539
     Eigenvalues ---    1.16837   1.19770   1.20880   1.26733   1.30407
     Eigenvalues ---    1.37735   1.41622   1.42482   1.48997   1.65224
     Eigenvalues ---    1.72841   2.03276   2.25113
 Quadratic step=8.348D+00 exceeds max=3.000D-01 adjusted using Lamda=-2.915D-02.
 Angle between NR and scaled steps=  73.07 degrees.
 Angle between quadratic step and forces=  57.19 degrees.
 Linear search not attempted -- first point.
 Variable       Old X    -DE/DX   Delta X   Delta X   Delta X     New X
                                 (Linear)    (Quad)   (Total)
    X1        6.40992  -0.00128   0.00000  -0.02401  -0.02401   6.38591
    Y1       -6.98684   0.00861   0.00000   0.02296   0.02296  -6.96388
    Z1       -1.06220  -0.00023   0.00000   0.00457   0.00457  -1.05762
    X2        6.56102  -0.00064   0.00000  -0.01448  -0.01448   6.54654
    Y2       -7.28136  -0.00056   0.00000   0.01152   0.01152  -7.26984
    Z2       -3.11175   0.00667   0.00000   0.02329   0.02329  -3.08846
    X3        8.12422  -0.00664   0.00000  -0.04706  -0.04706   8.07717
    Y3       -7.69474  -0.00143   0.00000  -0.01898  -0.01898  -7.71372
    Z3       -0.12405  -0.00331   0.00000  -0.01889  -0.01889  -0.14294
    X4        2.90806  -0.00761   0.00000  -0.00296  -0.00296   2.90510
    Y4       -2.64290  -0.00271   0.00000   0.00630   0.00630  -2.63660
    Z4        2.15913   0.00255   0.00000   0.00400   0.00400   2.16313
    X5        1.75102   0.00368   0.00000   0.01749   0.01749   1.76851
    Y5       -4.36749   0.00405   0.00000   0.00810   0.00810  -4.35939
    Z5        1.90034   0.00163   0.00000   0.03018   0.03018   1.93052
    X6        2.01239   0.00741   0.00000   0.04856   0.04856   2.06094
    Y6       -1.21482   0.00171   0.00000   0.01029   0.01029  -1.20453
    Z6        4.17884  -0.00541   0.00000   0.01121   0.01121   4.19005
    X7        0.81024  -0.00457   0.00000  -0.08878  -0.08878   0.72146
    Y7        0.04071  -0.00569   0.00000  -0.09372  -0.09372  -0.05302
    Z7        3.56603   0.00445   0.00000   0.07675   0.07675   3.64277
    X8        5.66401  -0.00377   0.00000  -0.00557  -0.00557   5.65844
    Y8       -3.50679  -0.01147   0.00000   0.00636   0.00636  -3.50043
    Z8        2.32187  -0.00111   0.00000  -0.00918  -0.00918   2.31270
    X9        5.89537  -0.00121   0.00000  -0.00432  -0.00432   5.89105
    Y9       -5.17912   0.00544   0.00000   0.02058   0.02058  -5.15854
    Z9        3.55218  -0.00400   0.00000  -0.02171  -0.02171   3.53047
   X10        7.15061   0.02672   0.00000  -0.00504  -0.00504   7.14556
   Y10       -1.49451   0.00171   0.00000   0.02021   0.02021  -1.47430
   Z10        3.17308  -0.00524   0.00000  -0.00067  -0.00067   3.17242
   X11        8.93197  -0.02470   0.00000  -0.04642  -0.04642   8.88555
   Y11       -1.82661   0.00459   0.00000   0.02044   0.02044  -1.80617
   Z11        2.70936   0.00779   0.00000   0.03617   0.03617   2.74553
   X12        2.98262   0.00052   0.00000  -0.00712  -0.00712   2.97550
   Y12       -1.27949   0.00706   0.00000   0.00509   0.00509  -1.27440
   Z12       -0.37978   0.00603   0.00000   0.00058   0.00058  -0.37920
   X13        4.10063  -0.00137   0.00000  -0.00690  -0.00690   4.09372
   Y13        0.45784  -0.00193   0.00000   0.00121   0.00121   0.45904
   Z13       -0.13899  -0.00242   0.00000  -0.02909  -0.02909  -0.16808
   X14        6.19155   0.00803   0.00000   0.00856   0.00856   6.20011
   Y14       -4.17616  -0.00119   0.00000   0.01659   0.01659  -4.15957
   Z14       -0.49791   0.00132   0.00000   0.00106   0.00106  -0.49685
   X15        7.99576  -0.00345   0.00000  -0.01088  -0.01088   7.98488
   Y15       -3.29662   0.00296   0.00000   0.04611   0.04611  -3.25051
   Z15       -1.04813   0.00119   0.00000   0.00560   0.00560  -1.04252
   X16        4.20412   0.00349   0.00000   0.00466   0.00466   4.20878
   Y16       -3.04309  -0.00403   0.00000   0.00142   0.00142  -3.04167
   Z16       -1.93834  -0.00668   0.00000  -0.00878  -0.00878  -1.94712
   X17        0.56654   0.00470   0.00000  -0.00973  -0.00973   0.55680
   Y17       -0.54616   0.00371   0.00000  -0.00160  -0.00160  -0.54777
   Z17       -1.38338  -0.00229   0.00000  -0.00194  -0.00194  -1.38532
   X18       -1.36800  -0.01289   0.00000  -0.02525  -0.02525  -1.39324
   Y18       -2.30369  -0.00269   0.00000   0.00894   0.00894  -2.29474
   Z18       -1.54651  -0.00298   0.00000   0.00220   0.00220  -1.54431
   X19       -0.88644  -0.00154   0.00000  -0.02560  -0.02560  -0.91204
   Y19       -4.23391   0.00749   0.00000   0.03259   0.03259  -4.20132
   Z19       -1.01735  -0.00036   0.00000   0.01509   0.01509  -1.00227
   X20       -3.67226   0.00765   0.00000  -0.00309  -0.00309  -3.67535
   Y20       -1.67134  -0.00651   0.00000   0.00702   0.00702  -1.66432
   Z20       -2.42880   0.00077   0.00000  -0.00107  -0.00107  -2.42987
   X21       -5.09162   0.00275   0.00000  -0.00489  -0.00489  -5.09650
   Y21       -3.15304   0.00570   0.00000   0.03149   0.03149  -3.12155
   Z21       -2.58564   0.00091   0.00000   0.00419   0.00419  -2.58144
   X22       -4.20259  -0.01442   0.00000  -0.00561  -0.00561  -4.20820
   Y22        0.92225   0.01110   0.00000   0.00846   0.00846   0.93071
   Z22       -3.27033   0.01337   0.00000   0.01631   0.01631  -3.25402
   X23       -5.71389   0.00431   0.00000   0.00971   0.00971  -5.70418
   Y23        1.11024  -0.00178   0.00000  -0.00146  -0.00146   1.10877
   Z23       -4.67744   0.00414   0.00000   0.02277   0.02277  -4.65467
   X24       -5.21431   0.01269   0.00000   0.04099   0.04099  -5.17332
   Y24        2.36525  -0.02773   0.00000  -0.07443  -0.07443   2.29082
   Z24       -1.39198  -0.02620   0.00000  -0.06023  -0.06023  -1.45220
   X25       -1.92077   0.00894   0.00000   0.00640   0.00640  -1.91436
   Y25        2.39447   0.00143   0.00000  -0.00105  -0.00105   2.39342
   Z25       -3.72917  -0.00045   0.00000   0.00693   0.00693  -3.72224
   X26        0.30137  -0.00611   0.00000  -0.01666  -0.01666   0.28470
   Y26        1.72510   0.00079   0.00000  -0.01136  -0.01136   1.71374
   Z26       -2.62846  -0.00404   0.00000   0.00227   0.00227  -2.62620
   X27        1.97874  -0.00617   0.00000  -0.02792  -0.02792   1.95083
   Y27        2.91606  -0.00451   0.00000  -0.02366  -0.02366   2.89240
   Z27       -2.81532   0.00271   0.00000   0.02468   0.02468  -2.79064
   X28       -2.01282   0.01930   0.00000   0.03748   0.03748  -1.97534
   Y28        4.79523  -0.00287   0.00000  -0.00886  -0.00886   4.78636
   Z28       -5.21666   0.02022   0.00000   0.01265   0.01265  -5.20401
   X29       -0.63144  -0.00623   0.00000   0.01997   0.01997  -0.61147
   Y29        6.57565  -0.00441   0.00000   0.00068   0.00068   6.57632
   Z29       -4.72184  -0.00693   0.00000  -0.01919  -0.01919  -4.74103
   X30       -3.73725  -0.00713   0.00000   0.03146   0.03146  -3.70579
   Y30        4.87900   0.00166   0.00000   0.00825   0.00825   4.88725
   Z30       -7.10868  -0.02757   0.00000  -0.01453  -0.01453  -7.12321
   X31       -3.39515  -0.00562   0.00000  -0.03554  -0.03554  -3.43069
   Y31        6.32584  -0.00669   0.00000   0.00926   0.00926   6.33510
   Z31       -8.34307   0.00703   0.00000   0.00407   0.00407  -8.33899
   X32       -4.39665   0.00675   0.00000   0.04909   0.04909  -4.34756
   Y32        3.25401   0.01145   0.00000   0.01933   0.01933   3.27334
   Z32       -7.93473   0.01002   0.00000   0.03038   0.03038  -7.90435
   X33        0.92416  -0.00666   0.00000  -0.01591  -0.01591   0.90825
   Y33        4.19896  -0.01314   0.00000  -0.02342  -0.02342   4.17554
   Z33        7.30277  -0.00282   0.00000  -0.02678  -0.02678   7.27599
   X34       -2.20062   0.00303   0.00000  -0.00615  -0.00615  -2.20678
   Y34        4.21581  -0.01790   0.00000  -0.01278  -0.01278   4.20303
   Z34        3.10516   0.01505   0.00000   0.01458   0.01458   3.11973
   X35       -3.44233  -0.01296   0.00000  -0.02277  -0.02277  -3.46510
   Y35        5.39145   0.00057   0.00000  -0.00602  -0.00602   5.38543
   Z35        1.00214  -0.01329   0.00000   0.00827   0.00827   1.01041
   X36       -7.20501  -0.00198   0.00000   0.00188   0.00188  -7.20314
   Y36        6.09004   0.00170   0.00000  -0.01216  -0.01216   6.07788
   Z36       -1.75851  -0.00399   0.00000   0.00730   0.00730  -1.75121
   X37       -5.71562   0.00417   0.00000   0.00042   0.00042  -5.71521
   Y37        4.44711   0.01991   0.00000   0.00868   0.00868   4.45579
   Z37        0.05976   0.02109   0.00000   0.02099   0.02099   0.08075
   X38       -2.42589   0.00214   0.00000   0.02383   0.02383  -2.40206
   Y38        1.98027   0.01436   0.00000  -0.01402  -0.01402   1.96625
   Z38        3.74308  -0.00938   0.00000  -0.04558  -0.04558   3.69749
   X39       -0.33179   0.00592   0.00000   0.02013   0.02013  -0.31166
   Y39        6.33017   0.00283   0.00000  -0.01027  -0.01027   6.31990
   Z39        4.93826   0.00080   0.00000  -0.01458  -0.01458   4.92368
   X40       -0.65427   0.00542   0.00000   0.01060   0.01060  -0.64367
   Y40        3.34080   0.00275   0.00000  -0.01164  -0.01164   3.32917
   Z40        8.34307  -0.00333   0.00000  -0.01975  -0.01975   8.32332
   X41        1.99730  -0.00182   0.00000   0.02409   0.02409   2.02139
   Y41        2.68599   0.00560   0.00000   0.00680   0.00680   2.69279
   Z41        6.37351   0.00477   0.00000   0.01513   0.01513   6.38864
   X42       -7.76600  -0.00114   0.00000  -0.02109  -0.02109  -7.78709
   Y42        5.07315  -0.00006   0.00000  -0.02735  -0.02735   5.04580
   Z42       -3.47475   0.00453   0.00000   0.03506   0.03506  -3.43968
   X43       -6.05270  -0.00302   0.00000  -0.00049  -0.00049  -6.05319
   Y43        7.69474  -0.00403   0.00000  -0.02851  -0.02851   7.66623
   Z43       -2.39872   0.00332   0.00000   0.00610   0.00610  -2.39262
   X44       -8.93197   0.00602   0.00000   0.03167   0.03167  -8.90030
   Y44        6.81686  -0.00190   0.00000   0.00368   0.00368   6.82054
   Z44       -0.85619  -0.00209   0.00000   0.00766   0.00766  -0.84853
   X45       -6.79027   0.00293   0.00000   0.01339   0.01339  -6.77688
   Y45        3.21941   0.00281   0.00000   0.00387   0.00387   3.22327
   Z45        1.34232  -0.00383   0.00000  -0.00050  -0.00050   1.34182
   X46       -2.59631  -0.00293   0.00000  -0.02249  -0.02249  -2.61880
   Y46        7.08530  -0.00606   0.00000  -0.02258  -0.02258   7.06272
   Z46        0.17145   0.00352   0.00000   0.01871   0.01871   0.19016
   X47        4.73432   0.00145   0.00000  -0.00617  -0.00617   4.72815
   Y47       -7.93899  -0.00456   0.00000  -0.02415  -0.02415  -7.96314
   Z47       -0.33518  -0.00113   0.00000  -0.01722  -0.01722  -0.35240
   X48        2.14566  -0.00213   0.00000  -0.03529  -0.03529   2.11038
   Y48        5.20720   0.00384   0.00000   0.04639   0.04639   5.25358
   Z48        8.61965  -0.00478   0.00000  -0.06674  -0.06674   8.55292
         Item               Value     Threshold  Converged?
 Maximum Force            0.027728     0.000450     NO 
 RMS     Force            0.008313     0.000300     NO 
 Maximum Displacement     0.093722     0.001800     NO 
 RMS     Displacement     0.025059     0.001200     NO 
 Predicted change in Energy=-9.444888D-03
 GradGradGradGradGradGradGradGradGradGradGradGradGradGradGradGradGradGrad

 Leave Link  103 at Sun Feb 19 04:37:29 2023, MaxMem=  2684354560 cpu:               2.6 elap:               0.2
 (Enter /storage/apps/GAUSSIAN/G16_RevA03/g16/l9999.exe)

 Test job not archived.
 1\1\GINC-T065\Force\RM062X\def2TZVP\C16H24N2O5S1\LV87696\19-Feb-2023\0
 \\#P M062X/Def2TZVP scf=(direct,conver=8) EmpiricalDispersion=GD3 NoSy
 mm Force pop=(NBORead) Charge Prop=(Field,Read)\\Gaussian run using SA
 NDER external interface, route from template gau_job.tpl\\0,1\C,3.3919
 833031,-3.6972761475,-0.5620910614\H,3.4719430011,-3.8531307329,-1.646
 6657611\H,4.2991522067,-4.0718819565,-0.0656430673\C,1.5388794174,-1.3
 98563311,1.1425600812\H,0.9266006222,-2.3111746408,1.0056146596\O,1.06
 49084838,-0.6428563449,2.21134943\H,0.4287587435,0.0215407993,1.887059
 404\C,2.9972636794,-1.8557147181,1.2286829969\H,3.1196944255,-2.740674
 086,1.8797334526\O,3.7839379622,-0.7908603172,1.6791231505\H,4.7265940
 092,-0.9666022205,1.4337320043\C,1.5783365892,-0.6770760342,-0.2009690
 085\H,2.1699577101,0.2422770479,-0.0735506592\C,3.2764288008,-2.209927
 0141,-0.2634828155\H,4.2311744131,-1.744495765,-0.554645121\O,2.224723
 2883,-1.610333588,-1.0257266423\N,0.2997991083,-0.289017311,-0.7320514
 79\C,-0.7239118361,-1.2190581123,-0.8183785825\H,-0.4690812821,-2.2404
 882756,-0.5383608164\C,-1.9432775297,-0.8844376247,-1.2852667276\H,-2.
 6943670743,-1.6685182125,-1.3682604921\C,-2.2239148136,0.4880335248,-1
 .7305843236\H,-3.0236612162,0.5875114642,-2.4751931664\H,-2.7592914566
 ,1.2516360989,-0.736601698\C,-1.0164258077,1.2670986157,-1.9733893745\
 C,0.1594775481,0.9128848825,-1.3909225691\H,1.0471060392,1.5431137068,
 -1.4898026049\C,-1.0651387767,2.5375250183,-2.7605359073\O,-0.33414125
 76,3.4796830559,-2.4986907235\N,-1.977666159,2.5818551386,-3.761749066
 5\H,-1.7966355875,3.3474915525,-4.4149604637\H,-2.3266081075,1.7219499
 359,-4.1988763421\C,0.4890457397,2.2219940637,3.8644611393\C,-1.164520
 3993,2.2309117452,1.6431779007\C,-1.8216025381,2.8530349422,0.53031153
 65\C,-3.8127295411,3.22270988,-0.9305625117\C,-3.0245775901,2.35330815
 02,0.0316214696\O,-1.283724535,1.0479160434,1.9807504843\S,-0.17557715
 48,3.3497822164,2.6132165775\H,-0.346225928,1.7678777997,4.4149604637\
 H,1.0569243582,1.4213655378,3.3727175232\H,-4.1095879876,2.6845939274,
 -1.8387564456\H,-3.2029488939,4.0718819565,-1.2693481628\H,-4.72659400
 92,3.60732572,-0.4530772213\H,-3.5932538941,1.7036367958,0.7103227778\
 H,-1.3739082008,3.7493803865,0.090729081\H,2.5052955943,-4.201134554,-
 0.1773682866\H,1.1354366709,2.7555301361,4.5613241269\\Version=ES64L-G
 16RevA.03\HF=-1507.857566\RMSD=6.761e-09\RMSF=8.313e-03\Dipole=0.12864
 09,-1.6428381,-1.6279372\Quadrupole=12.4145658,-10.238886,-2.1756798,-
 8.416207,10.0695041,-2.3485088\PG=C01 [X(C16H24N2O5S1)]\\@


 LEARN FROM YESTERDAY,
 LIVE FOR TODAY,
 LOOK TO TOMORROW,
 REST THIS AFTERNOON.

           -- SNOOPY
 Job cpu time:       0 days  3 hours  1 minutes 35.4 seconds.
 Elapsed time:       0 days  0 hours 11 minutes 22.1 seconds.
 File lengths (MBytes):  RWF=    435 Int=      0 D2E=      0 Chk=     48 Scr=      1
 Normal termination of Gaussian 16 at Sun Feb 19 04:37:29 2023.
