 Entering Gaussian System, Link 0=g16
 Initial command:
 /storage/apps/GAUSSIAN/G16_RevA03/g16/l1.exe "/scratch/tmp/1267145/Gau-212161.inp" -scrdir="/scratch/tmp/1267145/"
 Entering Link 1 = /storage/apps/GAUSSIAN/G16_RevA03/g16/l1.exe PID=    212162.
  
 Copyright (c) 1988,1990,1992,1993,1995,1998,2003,2009,2016,
            Gaussian, Inc.  All Rights Reserved.
  
 This is part of the Gaussian(R) 16 program.  It is based on
 the Gaussian(R) 09 system (copyright 2009, Gaussian, Inc.),
 the Gaussian(R) 03 system (copyright 2003, Gaussian, Inc.),
 the Gaussian(R) 98 system (copyright 1998, Gaussian, Inc.),
 the Gaussian(R) 94 system (copyright 1995, Gaussian, Inc.),
 the Gaussian 92(TM) system (copyright 1992, Gaussian, Inc.),
 the Gaussian 90(TM) system (copyright 1990, Gaussian, Inc.),
 the Gaussian 88(TM) system (copyright 1988, Gaussian, Inc.),
 the Gaussian 86(TM) system (copyright 1986, Carnegie Mellon
 University), and the Gaussian 82(TM) system (copyright 1983,
 Carnegie Mellon University). Gaussian is a federally registered
 trademark of Gaussian, Inc.
  
 This software contains proprietary and confidential information,
 including trade secrets, belonging to Gaussian, Inc.
  
 This software is provided under written license and may be
 used, copied, transmitted, or stored only in accord with that
 written license.
  
 The following legend is applicable only to US Government
 contracts under FAR:
  
                    RESTRICTED RIGHTS LEGEND
  
 Use, reproduction and disclosure by the US Government is
 subject to restrictions as set forth in subparagraphs (a)
 and (c) of the Commercial Computer Software - Restricted
 Rights clause in FAR 52.227-19.
  
 Gaussian, Inc.
 340 Quinnipiac St., Bldg. 40, Wallingford CT 06492
  
  
 ---------------------------------------------------------------
 Warning -- This program may not be used in any manner that
 competes with the business of Gaussian, Inc. or will provide
 assistance to any competitor of Gaussian, Inc.  The licensee
 of this program is prohibited from giving any competitor of
 Gaussian, Inc. access to this program.  By using this program,
 the user acknowledges that Gaussian, Inc. is engaged in the
 business of creating and licensing software in the field of
 computational chemistry and represents and warrants to the
 licensee that it is not a competitor of Gaussian, Inc. and that
 it will not use this program in any manner prohibited above.
 ---------------------------------------------------------------
  

 Cite this work as:
 Gaussian 16, Revision A.03,
 M. J. Frisch, G. W. Trucks, H. B. Schlegel, G. E. Scuseria, 
 M. A. Robb, J. R. Cheeseman, G. Scalmani, V. Barone, 
 G. A. Petersson, H. Nakatsuji, X. Li, M. Caricato, A. V. Marenich, 
 J. Bloino, B. G. Janesko, R. Gomperts, B. Mennucci, H. P. Hratchian, 
 J. V. Ortiz, A. F. Izmaylov, J. L. Sonnenberg, D. Williams-Young, 
 F. Ding, F. Lipparini, F. Egidi, J. Goings, B. Peng, A. Petrone, 
 T. Henderson, D. Ranasinghe, V. G. Zakrzewski, J. Gao, N. Rega, 
 G. Zheng, W. Liang, M. Hada, M. Ehara, K. Toyota, R. Fukuda, 
 J. Hasegawa, M. Ishida, T. Nakajima, Y. Honda, O. Kitao, H. Nakai, 
 T. Vreven, K. Throssell, J. A. Montgomery, Jr., J. E. Peralta, 
 F. Ogliaro, M. J. Bearpark, J. J. Heyd, E. N. Brothers, K. N. Kudin, 
 V. N. Staroverov, T. A. Keith, R. Kobayashi, J. Normand, 
 K. Raghavachari, A. P. Rendell, J. C. Burant, S. S. Iyengar, 
 J. Tomasi, M. Cossi, J. M. Millam, M. Klene, C. Adamo, R. Cammi, 
 J. W. Ochterski, R. L. Martin, K. Morokuma, O. Farkas, 
 J. B. Foresman, and D. J. Fox, Gaussian, Inc., Wallingford CT, 2016.
 
 ******************************************
 Gaussian 16:  ES64L-G16RevA.03 25-Dec-2016
                19-Feb-2023 
 ******************************************
 %chk=gau_job.chk
 %NProcShared=16
 Will use up to   16 processors via shared memory.
 %mem=20GB
 ----------------------------------------------------------------------
 #P M062X/Def2TZVP scf=(direct,conver=8) EmpiricalDispersion=GD3 NoSymm
  Force pop=(NBORead) Charge Prop=(Field,Read)
 ----------------------------------------------------------------------
 1/10=7,18=10,28=-2,30=1,38=1,125=101/1,3;
 2/12=2,15=1,17=6,18=5,29=2,40=1/2;
 3/5=44,7=101,11=2,25=1,30=1,71=1,74=-55,124=31/1,2,3;
 4//1;
 5/5=2,6=8,38=5/2;
 6/7=2,8=2,9=2,10=2,14=2,15=1,28=1,40=2/1,2,7;
 7/7=1,16=-2,29=1,30=1/1,2,3,16;
 1/10=7,18=10,28=-2,30=1/3;
 99/12=1/99;
 Leave Link    1 at Sun Feb 19 03:52:03 2023, MaxMem=  2684354560 cpu:               0.7 elap:               0.0
 (Enter /storage/apps/GAUSSIAN/G16_RevA03/g16/l101.exe)
 ----------------------------------------------------------------------
 Gaussian run using SANDER external interface, route from template gau_
 job.tpl
 ----------------------------------------------------------------------
 Symbolic Z-matrix:
 Charge =  0 Multiplicity = 1
 C                     3.41527  -3.83634  -0.74684 
 H                     3.47196  -3.96257  -1.83712 
 H                     4.32219  -4.24565  -0.2779 
 C                     1.59516  -1.553     0.99189 
 H                     0.97475  -2.46211   0.8752 
 O                     1.12574  -0.78305   2.05867 
 H                     0.53976  -0.09103   1.70561 
 C                     3.05264  -2.01436   1.07776 
 H                     3.17391  -2.90661   1.7212 
 O                     3.84107  -0.95438   1.53916 
 H                     4.78316  -1.13696   1.30024 
 C                     1.60987  -0.82387  -0.34918 
 H                     2.15572   0.12202  -0.20349 
 C                     3.33726  -2.35167  -0.4144 
 H                     4.30903  -1.91105  -0.68731 
 O                     2.3151   -1.71711  -1.17717 
 N                     0.32889  -0.50771  -0.88903 
 C                    -0.59147  -1.53566  -1.11091 
 H                    -0.28455  -2.5239   -0.77554 
 C                    -1.758    -1.33966  -1.7304 
 H                    -2.42461  -2.19218  -1.87077 
 C                    -2.18732   0.00408  -2.25449 
 H                    -2.54785  -0.11148  -3.28917 
 H                    -3.06844   0.37205  -1.69424 
 C                    -1.04239   0.98671  -2.17678 
 C                     0.10084   0.70604  -1.52284 
 H                     0.90954   1.4397   -1.48342 
 C                    -1.17849   2.33479  -2.7958 
 O                    -0.46535   3.27843  -2.47387 
 N                    -2.17863   2.47735  -3.70532 
 H                    -2.14845   3.36231  -4.20483 
 H                    -2.53083   1.6808   -4.23918 
 C                     0.52563   2.10868   3.7138 
 C                    -1.0725    2.22634   1.46407 
 C                    -1.80585   2.9823    0.4302 
 C                    -3.87149   3.38226  -0.91672 
 C                    -3.01957   2.59361   0.01978 
 O                    -1.14342   1.02275   1.6436 
 S                    -0.12555   3.28829   2.50801 
 H                    -0.31589   1.63556   4.23918 
 H                     1.10441   1.32946   3.19899 
 H                    -4.19034   2.77682  -1.77542 
 H                    -3.32403   4.24565  -1.31611 
 H                    -4.78316   3.7275   -0.40188 
 H                    -3.41754   1.65016   0.41681 
 H                    -1.34897   3.90248   0.05434 
 H                     2.52178  -4.32961  -0.36412 
 H                     1.15897   2.62325   4.43643 
 
 ITRead=  0  0  0  0  0  0  0  0  0  0  0  0  0  0  0  0  0  0  0  0
 ITRead=  0  0  0  0  0  0  0  0  0  0  0  0  0  0  0  0  0  0  0  0
 ITRead=  0  0  0  0  0  0  0  0
 MicOpt= -1 -1 -1 -1 -1 -1 -1 -1 -1 -1 -1 -1 -1 -1 -1 -1 -1 -1 -1 -1
 MicOpt= -1 -1 -1 -1 -1 -1 -1 -1 -1 -1 -1 -1 -1 -1 -1 -1 -1 -1 -1 -1
 MicOpt= -1 -1 -1 -1 -1 -1 -1 -1
 NAtoms=     48 NQM=       48 NQMF=       0 NMMI=      0 NMMIF=      0
                NMic=       0 NMicF=      0.
                    Isotopes and Nuclear Properties:
 (Nuclear quadrupole moments (NQMom) in fm**2, nuclear magnetic moments (NMagM)
  in nuclear magnetons)

  Atom         1           2           3           4           5           6           7           8           9          10
 IAtWgt=          12           1           1          12           1          16           1          12           1          16
 AtmWgt=  12.0000000   1.0078250   1.0078250  12.0000000   1.0078250  15.9949146   1.0078250  12.0000000   1.0078250  15.9949146
 NucSpn=           0           1           1           0           1           0           1           0           1           0
 AtZEff=  -0.0000000  -0.0000000  -0.0000000  -0.0000000  -0.0000000  -0.0000000  -0.0000000  -0.0000000  -0.0000000  -0.0000000
 NQMom=    0.0000000   0.0000000   0.0000000   0.0000000   0.0000000   0.0000000   0.0000000   0.0000000   0.0000000   0.0000000
 NMagM=    0.0000000   2.7928460   2.7928460   0.0000000   2.7928460   0.0000000   2.7928460   0.0000000   2.7928460   0.0000000
 AtZNuc=   6.0000000   1.0000000   1.0000000   6.0000000   1.0000000   8.0000000   1.0000000   6.0000000   1.0000000   8.0000000

  Atom        11          12          13          14          15          16          17          18          19          20
 IAtWgt=           1          12           1          12           1          16          14          12           1          12
 AtmWgt=   1.0078250  12.0000000   1.0078250  12.0000000   1.0078250  15.9949146  14.0030740  12.0000000   1.0078250  12.0000000
 NucSpn=           1           0           1           0           1           0           2           0           1           0
 AtZEff=  -0.0000000  -0.0000000  -0.0000000  -0.0000000  -0.0000000  -0.0000000  -0.0000000  -0.0000000  -0.0000000  -0.0000000
 NQMom=    0.0000000   0.0000000   0.0000000   0.0000000   0.0000000   0.0000000   2.0440000   0.0000000   0.0000000   0.0000000
 NMagM=    2.7928460   0.0000000   2.7928460   0.0000000   2.7928460   0.0000000   0.4037610   0.0000000   2.7928460   0.0000000
 AtZNuc=   1.0000000   6.0000000   1.0000000   6.0000000   1.0000000   8.0000000   7.0000000   6.0000000   1.0000000   6.0000000

  Atom        21          22          23          24          25          26          27          28          29          30
 IAtWgt=           1          12           1           1          12          12           1          12          16          14
 AtmWgt=   1.0078250  12.0000000   1.0078250   1.0078250  12.0000000  12.0000000   1.0078250  12.0000000  15.9949146  14.0030740
 NucSpn=           1           0           1           1           0           0           1           0           0           2
 AtZEff=  -0.0000000  -0.0000000  -0.0000000  -0.0000000  -0.0000000  -0.0000000  -0.0000000  -0.0000000  -0.0000000  -0.0000000
 NQMom=    0.0000000   0.0000000   0.0000000   0.0000000   0.0000000   0.0000000   0.0000000   0.0000000   0.0000000   2.0440000
 NMagM=    2.7928460   0.0000000   2.7928460   2.7928460   0.0000000   0.0000000   2.7928460   0.0000000   0.0000000   0.4037610
 AtZNuc=   1.0000000   6.0000000   1.0000000   1.0000000   6.0000000   6.0000000   1.0000000   6.0000000   8.0000000   7.0000000

  Atom        31          32          33          34          35          36          37          38          39          40
 IAtWgt=           1           1          12          12          12          12          12          16          32           1
 AtmWgt=   1.0078250   1.0078250  12.0000000  12.0000000  12.0000000  12.0000000  12.0000000  15.9949146  31.9720718   1.0078250
 NucSpn=           1           1           0           0           0           0           0           0           0           1
 AtZEff=  -0.0000000  -0.0000000  -0.0000000  -0.0000000  -0.0000000  -0.0000000  -0.0000000  -0.0000000  -0.0000000  -0.0000000
 NQMom=    0.0000000   0.0000000   0.0000000   0.0000000   0.0000000   0.0000000   0.0000000   0.0000000   0.0000000   0.0000000
 NMagM=    2.7928460   2.7928460   0.0000000   0.0000000   0.0000000   0.0000000   0.0000000   0.0000000   0.0000000   2.7928460
 AtZNuc=   1.0000000   1.0000000   6.0000000   6.0000000   6.0000000   6.0000000   6.0000000   8.0000000  16.0000000   1.0000000

  Atom        41          42          43          44          45          46          47          48
 IAtWgt=           1           1           1           1           1           1           1           1
 AtmWgt=   1.0078250   1.0078250   1.0078250   1.0078250   1.0078250   1.0078250   1.0078250   1.0078250
 NucSpn=           1           1           1           1           1           1           1           1
 AtZEff=  -0.0000000  -0.0000000  -0.0000000  -0.0000000  -0.0000000  -0.0000000  -0.0000000  -0.0000000
 NQMom=    0.0000000   0.0000000   0.0000000   0.0000000   0.0000000   0.0000000   0.0000000   0.0000000
 NMagM=    2.7928460   2.7928460   2.7928460   2.7928460   2.7928460   2.7928460   2.7928460   2.7928460
 AtZNuc=   1.0000000   1.0000000   1.0000000   1.0000000   1.0000000   1.0000000   1.0000000   1.0000000
 Background charge distribution read from input stream:
 Leave Link  101 at Sun Feb 19 03:52:03 2023, MaxMem=  2684354560 cpu:               1.5 elap:               0.1
 (Enter /storage/apps/GAUSSIAN/G16_RevA03/g16/l103.exe)

 GradGradGradGradGradGradGradGradGradGradGradGradGradGradGradGradGradGrad
 Berny optimization.
 Initialization pass.
 Trust Radius=3.00D-01 FncErr=1.00D-07 GrdErr=1.00D-07 EigMax=2.50D+02 EigMin=1.00D-04
 Number of steps in this run=      2 maximum allowed number of steps=      2.
 GradGradGradGradGradGradGradGradGradGradGradGradGradGradGradGradGradGrad

 Leave Link  103 at Sun Feb 19 03:52:03 2023, MaxMem=  2684354560 cpu:               0.3 elap:               0.0
 (Enter /storage/apps/GAUSSIAN/G16_RevA03/g16/l202.exe)
 ---------------------------------------------------------------------------------------------------
                            Z-MATRIX (ANGSTROMS AND DEGREES)
   CD    Cent   Atom    N1       Length/X        N2       Alpha/Y        N3        Beta/Z          J
 ---------------------------------------------------------------------------------------------------
      1      1  C        0   3.415266         -3.836340         -0.746840
      2      2  H        0   3.471959         -3.962572         -1.837118
      3      3  H        0   4.322187         -4.245654         -0.277900
      4      4  C        0   1.595163         -1.552998          0.991889
      5      5  H        0   0.974753         -2.462114          0.875200
      6      6  O        0   1.125744         -0.783047          2.058673
      7      7  H        0   0.539759         -0.091029          1.705615
      8      8  C        0   3.052637         -2.014364          1.077757
      9      9  H        0   3.173907         -2.906609          1.721200
     10     10  O        0   3.841070         -0.954378          1.539157
     11     11  H        0   4.783161         -1.136964          1.300240
     12     12  C        0   1.609868         -0.823867         -0.349183
     13     13  H        0   2.155715          0.122016         -0.203494
     14     14  C        0   3.337264         -2.351672         -0.414401
     15     15  H        0   4.309033         -1.911047         -0.687313
     16     16  O        0   2.315104         -1.717112         -1.177173
     17     17  N        0   0.328892         -0.507708         -0.889029
     18     18  C        0  -0.591469         -1.535659         -1.110907
     19     19  H        0  -0.284550         -2.523902         -0.775537
     20     20  C        0  -1.757996         -1.339664         -1.730401
     21     21  H        0  -2.424611         -2.192177         -1.870773
     22     22  C        0  -2.187322          0.004083         -2.254488
     23     23  H        0  -2.547849         -0.111478         -3.289175
     24     24  H        0  -3.068438          0.372050         -1.694240
     25     25  C        0  -1.042388          0.986713         -2.176785
     26     26  C        0   0.100844          0.706040         -1.522844
     27     27  H        0   0.909544          1.439700         -1.483421
     28     28  C        0  -1.178489          2.334786         -2.795801
     29     29  O        0  -0.465351          3.278429         -2.473867
     30     30  N        0  -2.178629          2.477346         -3.705321
     31     31  H        0  -2.148449          3.362313         -4.204830
     32     32  H        0  -2.530835          1.680798         -4.239177
     33     33  C        0   0.525627          2.108681          3.713798
     34     34  C        0  -1.072499          2.226337          1.464066
     35     35  C        0  -1.805848          2.982301          0.430199
     36     36  C        0  -3.871491          3.382260         -0.916723
     37     37  C        0  -3.019574          2.593611          0.019783
     38     38  O        0  -1.143417          1.022750          1.643602
     39     39  S        0  -0.125552          3.288285          2.508010
     40     40  H        0  -0.315894          1.635558          4.239177
     41     41  H        0   1.104414          1.329457          3.198989
     42     42  H        0  -4.190344          2.776821         -1.775424
     43     43  H        0  -3.324033          4.245654         -1.316111
     44     44  H        0  -4.783161          3.727501         -0.401883
     45     45  H        0  -3.417540          1.650159          0.416805
     46     46  H        0  -1.348972          3.902476          0.054342
     47     47  H        0   2.521785         -4.329614         -0.364122
     48     48  H        0   1.158967          2.623253          4.436428
 ---------------------------------------------------------------------------------------------------
                         Z-Matrix orientation:                         
 ---------------------------------------------------------------------
 Center     Atomic      Atomic             Coordinates (Angstroms)
 Number     Number       Type             X           Y           Z
 ---------------------------------------------------------------------
      1          6           0        3.415266   -3.836340   -0.746840
      2          1           0        3.471959   -3.962572   -1.837118
      3          1           0        4.322187   -4.245654   -0.277900
      4          6           0        1.595163   -1.552998    0.991889
      5          1           0        0.974753   -2.462114    0.875200
      6          8           0        1.125744   -0.783047    2.058673
      7          1           0        0.539759   -0.091029    1.705615
      8          6           0        3.052637   -2.014364    1.077757
      9          1           0        3.173907   -2.906609    1.721200
     10          8           0        3.841070   -0.954378    1.539157
     11          1           0        4.783161   -1.136964    1.300240
     12          6           0        1.609868   -0.823867   -0.349183
     13          1           0        2.155715    0.122016   -0.203494
     14          6           0        3.337264   -2.351672   -0.414401
     15          1           0        4.309033   -1.911047   -0.687313
     16          8           0        2.315104   -1.717112   -1.177173
     17          7           0        0.328892   -0.507708   -0.889029
     18          6           0       -0.591469   -1.535659   -1.110907
     19          1           0       -0.284550   -2.523902   -0.775537
     20          6           0       -1.757996   -1.339664   -1.730401
     21          1           0       -2.424611   -2.192177   -1.870773
     22          6           0       -2.187322    0.004083   -2.254488
     23          1           0       -2.547849   -0.111478   -3.289175
     24          1           0       -3.068438    0.372050   -1.694240
     25          6           0       -1.042388    0.986713   -2.176785
     26          6           0        0.100844    0.706040   -1.522844
     27          1           0        0.909544    1.439700   -1.483421
     28          6           0       -1.178489    2.334786   -2.795801
     29          8           0       -0.465351    3.278429   -2.473867
     30          7           0       -2.178629    2.477346   -3.705321
     31          1           0       -2.148449    3.362313   -4.204830
     32          1           0       -2.530835    1.680798   -4.239177
     33          6           0        0.525627    2.108681    3.713798
     34          6           0       -1.072499    2.226337    1.464066
     35          6           0       -1.805848    2.982301    0.430199
     36          6           0       -3.871491    3.382260   -0.916723
     37          6           0       -3.019574    2.593611    0.019783
     38          8           0       -1.143417    1.022750    1.643602
     39         16           0       -0.125552    3.288285    2.508010
     40          1           0       -0.315894    1.635558    4.239177
     41          1           0        1.104414    1.329457    3.198989
     42          1           0       -4.190344    2.776821   -1.775424
     43          1           0       -3.324033    4.245654   -1.316111
     44          1           0       -4.783161    3.727501   -0.401883
     45          1           0       -3.417540    1.650159    0.416805
     46          1           0       -1.348972    3.902476    0.054342
     47          1           0        2.521785   -4.329614   -0.364122
     48          1           0        1.158967    2.623253    4.436428
 ---------------------------------------------------------------------
                    Distance matrix (angstroms):
                    1          2          3          4          5
     1  C    0.000000
     2  H    1.099025   0.000000
     3  H    1.099977   1.798384   0.000000
     4  C    3.398470   4.163135   4.037254   0.000000
     5  H    3.236605   3.980463   3.964337   1.106805   0.000000
     6  O    4.736603   5.548991   5.259893   1.396856   2.059775
     7  H    5.320754   6.011456   5.958356   1.939236   2.549677
     8  C    2.603891   3.530984   2.903139   1.531164   2.135208
     9  H    2.648372   3.723644   2.666082   2.203767   2.397826
    10  O    3.703079   4.537038   3.790207   2.387875   3.306037
    11  H    3.653533   4.421123   3.516671   3.229783   4.054708
    12  C    3.534485   3.941168   4.366965   1.526539   2.141574
    13  H    4.189304   4.591850   4.876031   2.132799   3.039076
    14  C    1.523430   2.153432   2.139129   2.377067   2.693831
    15  H    2.123468   2.496297   2.370270   3.211387   3.723244
    16  O    2.426246   2.610734   3.351209   2.291305   2.561992
    17  N    4.541554   4.765903   5.503828   2.496783   2.710967
    18  C    4.634609   4.788396   5.672917   3.033712   2.693695
    19  H    3.925806   4.160299   4.943086   2.756768   2.077160
    20  C    5.827815   5.851792   6.893705   4.324356   3.939159
    21  H    6.170143   6.156702   7.230028   4.976140   4.378232
    22  C    6.957790   6.923584   8.021276   5.222131   5.086825
    23  H    7.476416   7.292289   8.564846   6.129440   5.939380
    24  H    7.787587   7.847685   8.828960   5.715791   5.566138
    25  C    6.721403   6.707468   7.730595   4.842241   5.027711
    26  C    5.676335   5.767072   6.624869   3.695960   4.068357
    27  H    5.887087   5.989626   6.739634   3.943789   4.559770
    28  C    7.961382   7.886853   8.938649   6.095457   6.412717
    29  O    8.286238   8.266799   9.184477   6.292843   6.800294
    30  N    8.939066   8.768802   9.960249   7.249066   7.437961
    31  H    9.733099   9.531474  10.731779   8.073463   8.335769
    32  H    8.831270   8.582019   9.888299   7.405764   7.457193
    33  C    7.974369   8.738058   8.409821   4.686212   5.399215
    34  C    7.860292   8.357782   8.603706   4.650027   5.149717
    35  C    8.668294   9.012616   9.502503   5.696605   6.129554
    36  C   10.258355  10.426885  11.212917   7.608145   7.800883
    37  C    9.129027   9.411250  10.038208   6.279742   6.499750
    38  O    7.078598   7.633515   7.830777   3.815629   4.149863
    39  S    8.596029   9.186793   9.181716   5.357005   6.078144
    40  H    8.289969   9.088909   8.746682   4.935981   5.456467
    41  H    6.898917   7.679403   7.316056   3.663423   4.448912
    42  H   10.131000  10.204612  11.136468   7.738051   7.819877
    43  H   10.538540  10.669205  11.473660   7.946679   8.262902
    44  H   11.159968  11.372957  12.103468   8.396981   8.549611
    45  H    8.839851   9.167776   9.754312   5.976464   6.034331
    46  H    9.123000   9.416899   9.932998   6.269699   6.825065
    47  H    1.090000   1.790885   1.804420   3.225987   2.723377
    48  H    8.583908   9.385117   8.911382   5.431039   6.211058
                    6          7          8          9         10
     6  O    0.000000
     7  H    0.973096   0.000000
     8  C    2.488223   3.226140   0.000000
     9  H    2.969575   3.855706   1.106719   0.000000
    10  O    2.769883   3.416392   1.399317   2.071099   0.000000
    11  H    3.751957   4.389165   1.952958   2.428694   0.988916
    12  C    2.456382   2.429892   2.352663   3.327238   2.925940
    13  H    2.645256   2.510259   2.647677   3.730111   2.652523
    14  C    3.669809   4.175046   1.556060   2.212562   2.454107
    15  H    4.352718   4.821410   2.169027   2.842638   2.468071
    16  O    3.571800   3.755857   2.391030   3.248540   3.207614
    17  N    3.065897   2.636334   3.681989   4.545561   4.293133
    18  C    3.682591   3.361462   4.277723   4.906973   5.196935
    19  H    3.612790   3.571340   3.851122   4.282649   4.984171
    20  C    4.794044   4.317983   5.610986   6.220332   6.495229
    21  H    5.480074   5.098320   6.222997   6.689999   7.240065
    22  C    5.495392   4.809203   6.529560   7.281552   7.186926
    23  H    6.522711   5.872109   7.352313   8.102783   8.052425
    24  H    5.745412   4.979210   7.130672   7.834647   7.743098
    25  C    5.076607   4.328711   6.030566   6.937534   6.436165
    26  C    4.011865   3.354238   4.782970   5.746195   5.110981
    27  H    4.187335   3.556659   4.804481   5.855539   4.843700
    28  C    6.212590   5.394413   7.198748   8.174280   7.403136
    29  O    6.290556   5.461828   7.280380   8.312489   7.250261
    30  N    7.400856   6.577569   8.391629   9.331867   8.690113
    31  H    8.193645   7.354277   9.157821  10.136305   9.354226
    32  H    7.687913   6.921594   8.549805   9.440046   8.996359
    33  C    3.385509   2.978544   5.507630   6.011403   5.010345
    34  C    3.773887   2.833357   5.928704   6.666725   5.853696
    35  C    5.042222   4.071108   6.999348   7.819457   6.972440
    36  C    7.153678   6.196734   9.002502   9.805413   9.182667
    37  C    5.722111   4.766358   7.695745   8.456148   7.871795
    38  O    2.929552   2.019265   5.210672   5.838250   5.363306
    39  S    4.282918   3.536416   6.345439   7.062734   5.888375
    40  H    3.561260   3.183109   5.887573   6.257012   5.592694
    41  H    2.400719   2.137004   4.413200   4.940740   3.931950
    42  H    7.458803   6.535753   9.140944   9.937803   9.455787
    43  H    7.515152   6.547254   9.250964  10.129330   9.302235
    44  H    7.830360   6.881584   9.826397  10.575151  10.003249
    45  H    5.409033   4.511427   7.465170   8.118666   7.792991
    46  H    5.665305   4.716152   7.445169   8.342571   7.261559
    47  H    4.516304   5.116428   2.778705   2.607446   4.093312
    48  H    4.154239   3.899755   6.031098   6.481652   5.327973
                   11         12         13         14         15
    11  H    0.000000
    12  C    3.590044   0.000000
    13  H    3.278676   1.101757   0.000000
    14  C    2.550711   2.307019   2.749486   0.000000
    15  H    2.185033   2.929468   3.000701   1.101348   0.000000
    16  O    3.544778   1.407413   2.087067   1.424535   2.062360
    17  N    5.002936   1.425584   2.050315   3.560305   4.225112
    18  C    5.904171   2.435725   3.334412   4.072584   4.933079
    19  H    5.649261   2.580837   3.644586   3.643846   4.635125
    20  C    7.211977   3.676455   4.448043   5.358889   6.182504
    21  H    7.944859   4.523774   5.395804   5.945222   6.842630
    22  C    7.907320   4.328319   4.804421   6.281445   6.951719
    23  H    8.709653   5.141757   5.630227   6.922235   7.551488
    24  H    8.537660   5.012578   5.438438   7.077405   7.788036
    25  C    7.108919   3.694968   3.856091   5.782055   6.265241
    26  C    5.769797   2.448519   2.510829   4.588317   5.025546
    27  H    5.421520   2.626916   2.219785   4.627216   4.839197
    28  C    8.023208   4.872162   4.767947   6.930077   7.251601
    29  O    7.828567   5.064549   4.689086   7.099248   7.274420
    30  N    9.305128   6.042713   6.049538   8.035835   8.393815
    31  H    9.929578   6.820196   6.710890   8.781231   9.048775
    32  H    9.597888   6.208931   6.378110   8.082345   8.502993
    33  C    5.872484   5.126717   4.684997   6.696422   7.059898
    34  C    6.754805   4.448226   4.198844   6.628183   7.120904
    35  C    7.819231   5.173149   4.927148   7.457629   7.911098
    36  C   10.012058   6.932452   6.889491   9.224773   9.746420
    37  C    8.742965   5.766023   5.739534   8.065589   8.631362
    38  O    6.317166   3.868044   3.886818   5.974830   6.615855
    39  S    6.718408   5.299531   4.752020   7.234687   7.543785
    40  H    6.505736   5.550710   5.304431   7.134378   7.631426
    41  H    4.818886   4.181126   3.760325   5.620757   5.989474
    42  H   10.261638   6.974351   7.056303   9.209706   9.767267
    43  H   10.076927   7.139914   6.947657   9.418634   9.826701
    44  H   10.866221   7.847837   7.822205  10.143855  10.702462
    45  H    8.706320   5.655296   5.812156   7.895120   8.579114
    46  H    8.034381   5.590696   5.161510   7.829105   8.146173
    47  H    4.251698   3.622440   4.469543   2.140044   3.024595
    48  H    6.091772   5.915067   5.364566   7.281854   7.532298
                   16         17         18         19         20
    16  O    0.000000
    17  N    2.343229   0.000000
    18  C    2.912985   1.397490   0.000000
    19  H    2.751440   2.110505   1.087795   0.000000
    20  C    4.127793   2.398992   1.335280   2.117836   0.000000
    21  H    4.813696   3.373876   2.090173   2.426818   1.091265
    22  C    4.939125   2.908220   2.495061   3.492642   1.504873
    23  H    5.539578   3.767405   3.255851   4.154598   2.135903
    24  H    5.797799   3.600582   3.180409   4.120750   2.156044
    25  C    4.425228   2.402502   2.775209   3.855157   2.474547
    26  C    3.300621   1.388132   2.382058   3.337592   2.771871
    27  H    3.469128   2.117276   3.353292   4.199655   3.860264
    28  C    5.589545   3.740019   4.261901   5.337363   3.869429
    29  O    5.862404   4.180594   5.004899   6.048476   4.852881
    30  N    6.646702   4.809336   5.035303   6.097840   4.318194
    31  H    7.408817   5.666465   5.998890   7.062698   5.327648
    32  H    6.663691   4.918444   4.888027   5.892546   4.001803
    33  C    6.462238   5.298132   6.148731   6.501641   6.837055
    34  C    5.831191   3.869878   4.584157   5.310505   4.836413
    35  C    6.453711   4.298563   4.925616   5.838358   4.832170
    36  C    8.021557   5.725018   5.914573   6.911499   5.236935
    37  C    6.962315   4.653638   4.921893   5.856777   4.486132
    38  O    5.236886   3.305179   3.799661   4.378199   4.164445
    39  S    6.677678   5.114289   6.048477   6.677461   6.484360
    40  H    6.891981   5.595340   6.225429   6.515325   6.824037
    41  H    5.467920   4.548461   5.446110   5.707404   6.294163
    42  H    7.929324   5.656617   5.656055   6.659779   4.781609
    43  H    8.208151   6.010050   6.397858   7.440267   5.815486
    44  H    8.979435   6.656380   6.765637   7.710847   6.049193
    45  H    6.836847   4.516342   4.524380   5.353512   4.037774
    46  H    6.820693   4.811954   5.612925   6.566585   5.552715
    47  H    2.743890   4.437484   4.249261   3.362346   5.396577
    48  H    7.189433   6.233172   7.150770   7.466025   7.889434
                   21         22         23         24         25
    21  H    0.000000
    22  C    2.242120   0.000000
    23  H    2.521182   1.101776   0.000000
    24  H    2.649705   1.107087   1.746033   0.000000
    25  C    3.479875   1.510786   2.170218   2.171529   0.000000
    26  C    3.859876   2.502749   3.286919   3.191438   1.346624
    27  H    4.945419   3.499446   4.197674   4.124156   2.120375
    28  C    4.785592   2.596717   2.846536   2.938993   1.489632
    29  O    5.842085   3.706030   4.061157   3.978809   2.381846
    30  N    5.022999   2.867407   2.647925   3.044418   2.418565
    31  H    6.031289   3.883691   3.614577   4.011374   3.313580
    32  H    4.540986   2.620757   2.028557   2.911794   2.636416
    33  C    7.641251   6.885482   7.963478   6.721611   6.198100
    34  C    5.698476   4.473129   5.498666   4.170976   3.846214
    35  C    5.696716   4.027760   4.894464   3.594549   3.370699
    36  C    5.837638   4.004762   4.425693   3.211042   3.915382
    37  C    5.179957   3.545506   4.299911   2.806349   3.363970
    38  O    4.932347   4.162034   5.252731   3.907723   3.821892
    39  S    7.382065   6.141520   7.143757   5.901179   5.299540
    40  H    7.511973   6.952097   8.044243   6.661711   6.489481
    41  H    7.110444   6.506348   7.583640   6.501770   5.798722
    42  H    5.274262   3.453936   3.651232   2.654842   3.643515
    43  H    6.523977   4.490389   4.845621   3.900400   4.070302
    44  H    6.539341   4.902486   5.298192   3.983656   4.965438
    45  H    4.580662   3.370283   4.194522   2.492377   3.578856
    46  H    6.481348   4.607711   5.359873   4.298606   3.684236
    47  H    5.595129   6.673087   7.214554   7.424651   6.652248
    48  H    8.706962   7.926290   8.994675   7.779715   7.159526
                   26         27         28         29         30
    26  C    0.000000
    27  H    1.092615   0.000000
    28  C    2.431034   2.623623   0.000000
    29  O    2.800395   2.500449   1.225834   0.000000
    30  N    3.618941   3.943395   1.359350   2.256886   0.000000
    31  H    4.394105   4.522591   1.995495   2.415800   1.016655
    32  H    3.905682   4.414581   2.083237   3.151979   1.021538
    33  C    5.437854   5.254142   6.732756   6.374759   7.905203
    34  C    3.551010   3.637990   4.262565   4.121025   5.292361
    35  C    3.554043   3.662638   3.349617   3.212200   4.182879
    36  C    4.827937   5.191625   3.446795   3.746634   3.385399
    37  C    3.959752   4.362236   3.374033   3.634738   3.820616
    38  O    3.416851   3.763877   4.629359   4.743566   5.639015
    39  S    4.792393   4.518873   5.490742   4.993462   6.593803
    40  H    5.851373   5.855612   7.122072   6.912766   8.203258
    41  H    4.867393   4.687760   6.493061   6.200320   7.730817
    42  H    4.771396   5.280342   3.210581   3.822958   2.803780
    43  H    4.929644   5.081785   3.231758   3.232334   3.185465
    44  H    5.851435   6.229819   4.545785   4.810226   4.388528
    45  H    4.127060   4.730624   3.975286   4.441021   4.383042
    46  H    3.847946   3.678434   3.257305   2.749921   4.105411
    47  H    5.706259   6.094024   8.001206   8.441346   8.921446
    48  H    6.348878   6.042154   7.606053   7.128804   8.800507
                   31         32         33         34         35
    31  H    0.000000
    32  H    1.724787   0.000000
    33  C    8.451446   8.530818   0.000000
    34  C    5.880858   5.911966   2.762091   0.000000
    35  C    4.663184   4.901285   4.120802   1.475860   0.000000
    36  C    3.712266   3.966237   6.511403   3.852098   2.498208
    37  C    4.381452   4.383017   5.142893   2.451926   1.338899
    38  O    6.378699   6.079888   2.872397   1.218969   2.398125
    39  S    7.011407   7.341249   1.808155   1.764728   2.689669
    40  H    8.811425   8.763019   1.099102   2.936446   4.306042
    41  H    8.338475   8.286423   1.098732   2.924604   4.343699
    42  H    3.227096   3.166278   7.267623   4.529711   3.254661
    43  H    3.241449   3.968875   6.684797   4.108092   2.636388
    44  H    4.640849   4.897632   6.909605   4.416364   3.179949
    45  H    5.089359   4.739763   5.160326   2.632100   2.091012
    46  H    4.367092   4.976642   4.485915   2.207532   1.093950
    47  H    9.784061   8.756144   7.878179   7.696859   8.533666
    48  H    9.282056   9.474650   1.090000   3.737904   4.996891
                   36         37         38         39         40
    36  C    0.000000
    37  C    1.491567   0.000000
    38  O    4.423227   2.936726   0.000000
    39  S    5.076385   3.879331   2.629810   0.000000
    40  H    6.502041   5.102062   2.792372   2.400974   0.000000
    41  H    6.775892   5.358425   2.750645   2.413976   1.786887
    42  H    1.097994   2.151055   4.904107   5.927220   7.244948
    43  H    1.097575   2.146288   4.888977   5.076489   6.835402
    44  H    1.102450   2.138632   4.974678   5.509421   6.772898
    45  H    2.232609   1.098228   2.659005   4.230104   4.922494
    46  H    2.752579   2.122553   3.295576   2.809710   4.870217
    47  H   10.032563   8.876096   6.790615   8.560953   8.051463
    48  H    7.384973   6.080119   3.957583   2.410613   1.785963
                   41         42         43         44         45
    41  H    0.000000
    42  H    7.407707   0.000000
    43  H    6.964300   1.766051   0.000000
    44  H    7.306192   1.772524   1.798152   0.000000
    45  H    5.318972   2.583111   3.122232   2.617350   0.000000
    46  H    4.746403   3.562098   2.428328   3.468777   3.079494
    47  H    6.835918   9.876530  10.421856  10.875696   8.464225
    48  H    1.791128   8.199136   7.471357   7.741932   6.168363
                   46         47         48
    46  H    0.000000
    47  H    9.106326   0.000000
    48  H    5.208536   8.558324   0.000000
 Symmetry turned off by external request.
 Stoichiometry    C16H24N2O5S
 Framework group  C1[X(C16H24N2O5S)]
 Deg. of freedom   138
 Full point group                 C1      NOp   1
 Rotational constants (GHZ):           0.2864982           0.1631348           0.1204466
 Leave Link  202 at Sun Feb 19 03:52:03 2023, MaxMem=  2684354560 cpu:               0.2 elap:               0.0
 (Enter /storage/apps/GAUSSIAN/G16_RevA03/g16/l301.exe)
 Standard basis: def2TZVP (5D, 7F)
 Ernie: Thresh=  0.10000D-02 Tol=  0.10000D-05 Strict=F.
   894 basis functions,  1434 primitive gaussians,  1014 cartesian basis functions
    95 alpha electrons       95 beta electrons
       nuclear repulsion energy      2413.5618634323 Hartrees.
 IExCor= 4336 DFT=T Ex+Corr=M062X ExCW=0 ScaHFX=  0.540000
 ScaDFX=  1.000000  1.000000  1.000000  1.000000 ScalE2=  1.000000  1.000000
 IRadAn=      5 IRanWt=     -1 IRanGd=            0 ICorTp=0 IEmpDi=131
 NAtoms=   48 NActive=   48 NUniq=   48 SFac= 1.00D+00 NAtFMM=   60 NAOKFM=F Big=F
 Integral buffers will be    131072 words long.
 Raffenetti 2 integral format.
 Two-electron integral symmetry is turned off.
 R6Disp:  Grimme-D3 Dispersion energy=       -0.0041358394 Hartrees.
 Nuclear repulsion after empirical dispersion term =     2413.5577275930 Hartrees.
 Leave Link  301 at Sun Feb 19 03:52:03 2023, MaxMem=  2684354560 cpu:               0.9 elap:               0.1
 (Enter /storage/apps/GAUSSIAN/G16_RevA03/g16/l302.exe)
 NPDir=0 NMtPBC=     1 NCelOv=     1 NCel=       1 NClECP=     1 NCelD=      1
         NCelK=      1 NCelE2=     1 NClLst=     1 CellRange=     0.0.
 One-electron integrals computed using PRISM.
   1 Symmetry operations used in ECPInt.
 ECPInt:  NShTT=   65703 NPrTT=  200010 LenC2=   55697 LenP2D=  117696.
 LDataN:  DoStor=T MaxTD1= 6 Len=  172
 NBasis=   894 RedAO= T EigKep=  3.15D-05  NBF=   894
 NBsUse=   894 1.00D-06 EigRej= -1.00D+00 NBFU=   894
 Precomputing XC quadrature grid using
 IXCGrd= 4 IRadAn=           5 IRanWt=          -1 IRanGd=           0 AccXCQ= 0.00D+00.
 Generated NRdTot=       0 NPtTot=           0 NUsed=           0 NTot=          32
 NSgBfM=   998   998   998   998   998 MxSgAt=    48 MxSgA2=    48.
 Leave Link  302 at Sun Feb 19 03:52:04 2023, MaxMem=  2684354560 cpu:              18.6 elap:               1.2
 (Enter /storage/apps/GAUSSIAN/G16_RevA03/g16/l303.exe)
 DipDrv:  MaxL=1.
 Leave Link  303 at Sun Feb 19 03:52:05 2023, MaxMem=  2684354560 cpu:               2.1 elap:               0.2
 (Enter /storage/apps/GAUSSIAN/G16_RevA03/g16/l401.exe)
 ExpMin= 9.52D-02 ExpMax= 6.07D+04 ExpMxC= 2.07D+03 IAcc=3 IRadAn=         5 AccDes= 0.00D+00
 Harris functional with IExCor= 1009 and IRadAn=       5 diagonalized for initial guess.
 HarFok:  IExCor= 1009 AccDes= 0.00D+00 IRadAn=         5 IDoV= 1 UseB2=F ITyADJ=14
 ICtDFT=  3500011 ScaDFX=  1.000000  1.000000  1.000000  1.000000
 FoFCou: FMM=F IPFlag=           0 FMFlag=      100000 FMFlg1=           0
         NFxFlg=           0 DoJE=T BraDBF=F KetDBF=T FulRan=T
         wScrn=  0.000000 ICntrl=       500 IOpCl=  0 I1Cent=   200000004 NGrid=           0
         NMat0=    1 NMatS0=      1 NMatT0=    0 NMatD0=    1 NMtDS0=    0 NMtDT0=    0
 Symmetry not used in FoFCou.
 Harris En= -1507.23111307828    
 JPrj=0 DoOrth=F DoCkMO=F.
 Leave Link  401 at Sun Feb 19 03:52:08 2023, MaxMem=  2684354560 cpu:              58.9 elap:               3.7
 (Enter /storage/apps/GAUSSIAN/G16_RevA03/g16/l502.exe)
 Two-electron integral symmetry not used.
 Closed shell SCF:
 Using DIIS extrapolation, IDIIS=  1040.
 NGot=  2684354560 LenX=  2682275214 LenY=  2681246004
 Requested convergence on RMS density matrix=1.00D-08 within 128 cycles.
 Requested convergence on MAX density matrix=1.00D-06.
 Requested convergence on             energy=1.00D-06.
 No special actions if energy rises.
 Fock matrices will be formed incrementally for  20 cycles.
 Integral accuracy reduced to 1.0D-05 until final iterations.

 Cycle   1  Pass 0  IDiag  1:
 FoFJK:  IHMeth= 1 ICntrl=       0 DoSepK=F KAlg= 0 I1Cent=           0 FoldK=F
 IRaf= 770000000 NMat=       1 IRICut=       1 DoRegI=T DoRafI=F ISym2E= 0 IDoP0=0 IntGTp=1.
 FoFCou: FMM=F IPFlag=           0 FMFlag=      100000 FMFlg1=           0
         NFxFlg=           0 DoJE=F BraDBF=F KetDBF=F FulRan=T
         wScrn=  0.000000 ICntrl=         0 IOpCl=  0 I1Cent=           0 NGrid=           0
         NMat0=    1 NMatS0=      1 NMatT0=    0 NMatD0=    1 NMtDS0=    0 NMtDT0=    0
 Symmetry not used in FoFCou.
 E= -1507.16471808637    
 DIIS: error= 1.76D-02 at cycle   1 NSaved=   1.
 NSaved= 1 IEnMin= 1 EnMin= -1507.16471808637     IErMin= 1 ErrMin= 1.76D-02
 ErrMax= 1.76D-02  0.00D+00 EMaxC= 1.00D-01 BMatC= 9.95D-01 BMatP= 9.95D-01
 IDIUse=3 WtCom= 8.24D-01 WtEn= 1.76D-01
 Coeff-Com:  0.100D+01
 Coeff-En:   0.100D+01
 Coeff:      0.100D+01
 Gap=     0.390 Goal=   None    Shift=    0.000
 GapD=    0.390 DampG=1.000 DampE=0.500 DampFc=0.5000 IDamp=-1.
 Damping current iteration by 5.00D-01
 RMSDP=4.54D-03 MaxDP=1.63D+00              OVMax= 2.13D-01

 Cycle   2  Pass 0  IDiag  1:
 RMSU=  2.27D-03    CP:  1.03D+00
 E= -1507.49867064988     Delta-E=       -0.333952563505 Rises=F Damp=T
 DIIS: error= 3.75D-03 at cycle   2 NSaved=   2.
 NSaved= 2 IEnMin= 2 EnMin= -1507.49867064988     IErMin= 2 ErrMin= 3.75D-03
 ErrMax= 3.75D-03  0.00D+00 EMaxC= 1.00D-01 BMatC= 9.04D-02 BMatP= 9.95D-01
 IDIUse=3 WtCom= 9.62D-01 WtEn= 3.75D-02
 Coeff-Com:  0.442D-02 0.996D+00
 Coeff-En:   0.566D-01 0.943D+00
 Coeff:      0.638D-02 0.994D+00
 Gap=     0.354 Goal=   None    Shift=    0.000
 RMSDP=1.40D-03 MaxDP=5.33D-01 DE=-3.34D-01 OVMax= 1.68D-01

 Cycle   3  Pass 0  IDiag  1:
 RMSU=  1.02D-03    CP:  1.01D+00  5.83D-01
 E= -1507.86166765077     Delta-E=       -0.362997000888 Rises=F Damp=F
 DIIS: error= 5.26D-03 at cycle   3 NSaved=   3.
 NSaved= 3 IEnMin= 3 EnMin= -1507.86166765077     IErMin= 2 ErrMin= 3.75D-03
 ErrMax= 5.26D-03  0.00D+00 EMaxC= 1.00D-01 BMatC= 5.87D-02 BMatP= 9.04D-02
 IDIUse=3 WtCom= 9.47D-01 WtEn= 5.26D-02
 Coeff-Com: -0.780D-01 0.465D+00 0.613D+00
 Coeff-En:   0.000D+00 0.000D+00 0.100D+01
 Coeff:     -0.739D-01 0.441D+00 0.633D+00
 Gap=     0.225 Goal=   None    Shift=    0.000
 RMSDP=3.73D-04 MaxDP=6.67D-02 DE=-3.63D-01 OVMax= 6.94D-02

 Cycle   4  Pass 0  IDiag  1:
 RMSU=  3.10D-04    CP:  1.01D+00  6.67D-01  9.22D-01
 E= -1507.89967866592     Delta-E=       -0.038011015151 Rises=F Damp=F
 DIIS: error= 2.74D-03 at cycle   4 NSaved=   4.
 NSaved= 4 IEnMin= 4 EnMin= -1507.89967866592     IErMin= 4 ErrMin= 2.74D-03
 ErrMax= 2.74D-03  0.00D+00 EMaxC= 1.00D-01 BMatC= 1.11D-02 BMatP= 5.87D-02
 IDIUse=3 WtCom= 9.73D-01 WtEn= 2.74D-02
 Coeff-Com: -0.361D-01 0.978D-01 0.340D+00 0.598D+00
 Coeff-En:   0.000D+00 0.000D+00 0.130D+00 0.870D+00
 Coeff:     -0.351D-01 0.951D-01 0.335D+00 0.605D+00
 Gap=     0.226 Goal=   None    Shift=    0.000
 RMSDP=1.17D-04 MaxDP=1.29D-02 DE=-3.80D-02 OVMax= 1.75D-02

 Cycle   5  Pass 0  IDiag  1:
 RMSU=  7.84D-05    CP:  1.01D+00  6.63D-01  9.51D-01  7.39D-01
 E= -1507.90785896381     Delta-E=       -0.008180297893 Rises=F Damp=F
 DIIS: error= 4.63D-04 at cycle   5 NSaved=   5.
 NSaved= 5 IEnMin= 5 EnMin= -1507.90785896381     IErMin= 5 ErrMin= 4.63D-04
 ErrMax= 4.63D-04  0.00D+00 EMaxC= 1.00D-01 BMatC= 4.42D-04 BMatP= 1.11D-02
 IDIUse=3 WtCom= 9.95D-01 WtEn= 4.63D-03
 Coeff-Com: -0.104D-01 0.177D-01 0.117D+00 0.270D+00 0.606D+00
 Coeff-En:   0.000D+00 0.000D+00 0.000D+00 0.000D+00 0.100D+01
 Coeff:     -0.104D-01 0.176D-01 0.116D+00 0.268D+00 0.608D+00
 Gap=     0.225 Goal=   None    Shift=    0.000
 RMSDP=5.46D-05 MaxDP=1.87D-02 DE=-8.18D-03 OVMax= 4.24D-03

 Cycle   6  Pass 0  IDiag  1:
 RMSU=  3.23D-05    CP:  1.01D+00  6.46D-01  9.63D-01  7.64D-01  8.75D-01
 E= -1507.90820343839     Delta-E=       -0.000344474585 Rises=F Damp=F
 DIIS: error= 1.36D-04 at cycle   6 NSaved=   6.
 NSaved= 6 IEnMin= 6 EnMin= -1507.90820343839     IErMin= 6 ErrMin= 1.36D-04
 ErrMax= 1.36D-04  0.00D+00 EMaxC= 1.00D-01 BMatC= 5.78D-05 BMatP= 4.42D-04
 IDIUse=3 WtCom= 9.99D-01 WtEn= 1.36D-03
 Coeff-Com:  0.199D-03-0.443D-02 0.108D-01 0.426D-01 0.278D+00 0.673D+00
 Coeff-En:   0.000D+00 0.000D+00 0.000D+00 0.000D+00 0.000D+00 0.100D+01
 Coeff:      0.199D-03-0.442D-02 0.108D-01 0.425D-01 0.277D+00 0.673D+00
 Gap=     0.226 Goal=   None    Shift=    0.000
 RMSDP=1.99D-05 MaxDP=2.04D-03 DE=-3.44D-04 OVMax= 2.57D-03

 Cycle   7  Pass 0  IDiag  1:
 RMSU=  1.79D-05    CP:  1.01D+00  6.46D-01  9.68D-01  7.72D-01  9.60D-01
                    CP:  9.87D-01
 E= -1507.90827482692     Delta-E=       -0.000071388526 Rises=F Damp=F
 DIIS: error= 5.07D-05 at cycle   7 NSaved=   7.
 NSaved= 7 IEnMin= 7 EnMin= -1507.90827482692     IErMin= 7 ErrMin= 5.07D-05
 ErrMax= 5.07D-05  0.00D+00 EMaxC= 1.00D-01 BMatC= 8.37D-06 BMatP= 5.78D-05
 IDIUse=1 WtCom= 1.00D+00 WtEn= 0.00D+00
 Coeff-Com:  0.174D-02-0.478D-02-0.117D-01-0.243D-01 0.156D-01 0.270D+00
 Coeff-Com:  0.753D+00
 Coeff:      0.174D-02-0.478D-02-0.117D-01-0.243D-01 0.156D-01 0.270D+00
 Coeff:      0.753D+00
 Gap=     0.226 Goal=   None    Shift=    0.000
 RMSDP=1.87D-05 MaxDP=4.89D-03 DE=-7.14D-05 OVMax= 2.06D-03

 Cycle   8  Pass 0  IDiag  1:
 RMSU=  1.09D-05    CP:  1.01D+00  6.41D-01  9.71D-01  7.80D-01  1.04D+00
                    CP:  1.18D+00  1.33D+00
 E= -1507.90829075565     Delta-E=       -0.000015928734 Rises=F Damp=F
 DIIS: error= 3.60D-05 at cycle   8 NSaved=   8.
 NSaved= 8 IEnMin= 8 EnMin= -1507.90829075565     IErMin= 8 ErrMin= 3.60D-05
 ErrMax= 3.60D-05  0.00D+00 EMaxC= 1.00D-01 BMatC= 1.93D-06 BMatP= 8.37D-06
 IDIUse=1 WtCom= 1.00D+00 WtEn= 0.00D+00
 Coeff-Com:  0.861D-03-0.154D-02-0.711D-02-0.209D-01-0.432D-01-0.211D-03
 Coeff-Com:  0.353D+00 0.719D+00
 Coeff:      0.861D-03-0.154D-02-0.711D-02-0.209D-01-0.432D-01-0.211D-03
 Coeff:      0.353D+00 0.719D+00
 Gap=     0.226 Goal=   None    Shift=    0.000
 RMSDP=1.79D-05 MaxDP=2.86D-03 DE=-1.59D-05 OVMax= 6.74D-04

 Cycle   9  Pass 0  IDiag  1:
 RMSU=  9.77D-06    CP:  1.01D+00  6.40D-01  9.72D-01  7.84D-01  1.10D+00
                    CP:  1.30D+00  1.94D+00  1.70D+00
 E= -1507.90828728946     Delta-E=        0.000003466194 Rises=F Damp=F
 DIIS: error= 2.40D-05 at cycle   9 NSaved=   9.
 NSaved= 9 IEnMin= 8 EnMin= -1507.90829075565     IErMin= 9 ErrMin= 2.40D-05
 ErrMax= 2.40D-05  0.00D+00 EMaxC= 1.00D-01 BMatC= 3.79D-07 BMatP= 1.93D-06
 IDIUse=1 WtCom= 1.00D+00 WtEn= 0.00D+00
 Coeff-Com:  0.206D-03-0.236D-03-0.158D-02-0.688D-02-0.192D-01-0.276D-01
 Coeff-Com:  0.799D-01 0.310D+00 0.666D+00
 Coeff:      0.206D-03-0.236D-03-0.158D-02-0.688D-02-0.192D-01-0.276D-01
 Coeff:      0.799D-01 0.310D+00 0.666D+00
 Gap=     0.226 Goal=   None    Shift=    0.000
 RMSDP=2.18D-05 MaxDP=3.83D-03 DE= 3.47D-06 OVMax= 2.21D-04

 Cycle  10  Pass 0  IDiag  1:
 RMSU=  4.58D-06    CP:  1.01D+00  6.40D-01  9.75D-01  7.90D-01  1.16D+00
                    CP:  1.41D+00  2.58D+00  2.69D+00  2.28D+00
 E= -1507.90828467155     Delta-E=        0.000002617910 Rises=F Damp=F
 DIIS: error= 3.42D-05 at cycle  10 NSaved=  10.
 NSaved=10 IEnMin= 8 EnMin= -1507.90829075565     IErMin= 9 ErrMin= 2.40D-05
 ErrMax= 3.42D-05  0.00D+00 EMaxC= 1.00D-01 BMatC= 4.86D-07 BMatP= 3.79D-07
 IDIUse=1 WtCom= 1.00D+00 WtEn= 0.00D+00
 Coeff-Com:  0.229D-03-0.222D-03-0.180D-02-0.814D-02-0.238D-01-0.372D-01
 Coeff-Com:  0.889D-01 0.384D+00 0.902D+00-0.303D+00
 Coeff:      0.229D-03-0.222D-03-0.180D-02-0.814D-02-0.238D-01-0.372D-01
 Coeff:      0.889D-01 0.384D+00 0.902D+00-0.303D+00
 Gap=     0.226 Goal=   None    Shift=    0.000
 RMSDP=1.39D-05 MaxDP=2.58D-03 DE= 2.62D-06 OVMax= 2.40D-05

 Cycle  11  Pass 0  IDiag  1:
 RMSU=  2.20D-06    CP:  1.01D+00  6.39D-01  9.74D-01  7.86D-01  1.12D+00
                    CP:  1.36D+00  2.20D+00  2.16D+00  1.40D+00  1.75D-01
 E= -1507.90827840599     Delta-E=        0.000006265561 Rises=F Damp=F
 DIIS: error= 2.88D-05 at cycle  11 NSaved=  11.
 NSaved=11 IEnMin= 8 EnMin= -1507.90829075565     IErMin= 9 ErrMin= 2.40D-05
 ErrMax= 2.88D-05  0.00D+00 EMaxC= 1.00D-01 BMatC= 3.16D-07 BMatP= 3.79D-07
 IDIUse=1 WtCom= 1.00D+00 WtEn= 0.00D+00
 Coeff-Com: -0.406D-04 0.224D-03 0.573D-03-0.107D-02-0.780D-02-0.312D-01
 Coeff-Com: -0.216D-01 0.117D+00 0.747D+00-0.182D+01 0.202D+01
 Coeff:     -0.406D-04 0.224D-03 0.573D-03-0.107D-02-0.780D-02-0.312D-01
 Coeff:     -0.216D-01 0.117D+00 0.747D+00-0.182D+01 0.202D+01
 Gap=     0.226 Goal=   None    Shift=    0.000
 RMSDP=2.62D-05 MaxDP=5.74D-03 DE= 6.27D-06 OVMax= 9.93D-05

 Cycle  12  Pass 0  IDiag  1:
 RMSU=  8.38D-06    CP:  1.01D+00  6.35D-01  9.73D-01  7.80D-01  1.08D+00
                    CP:  1.35D+00  1.64D+00  1.72D+00 -6.98D-02 -1.83D+00
                    CP:  3.00D+00
 E= -1507.90825460865     Delta-E=        0.000023797339 Rises=F Damp=F
 DIIS: error= 2.11D-05 at cycle  12 NSaved=  12.
 NSaved=12 IEnMin= 8 EnMin= -1507.90829075565     IErMin=12 ErrMin= 2.11D-05
 ErrMax= 2.11D-05  0.00D+00 EMaxC= 1.00D-01 BMatC= 1.76D-07 BMatP= 3.16D-07
 IDIUse=1 WtCom= 1.00D+00 WtEn= 0.00D+00
 Coeff-Com: -0.432D-04 0.233D-03 0.597D-03-0.107D-02-0.797D-02-0.321D-01
 Coeff-Com: -0.227D-01 0.120D+00 0.768D+00-0.188D+01 0.209D+01-0.340D-01
 Coeff:     -0.432D-04 0.233D-03 0.597D-03-0.107D-02-0.797D-02-0.321D-01
 Coeff:     -0.227D-01 0.120D+00 0.768D+00-0.188D+01 0.209D+01-0.340D-01
 Gap=     0.226 Goal=   None    Shift=    0.000
 RMSDP=6.55D-07 MaxDP=1.14D-04 DE= 2.38D-05 OVMax= 1.96D-06

 Initial convergence to 1.0D-05 achieved.  Increase integral accuracy.
 Cycle  13  Pass 1  IDiag  1:
 E= -1507.90815710563     Delta-E=        0.000097503018 Rises=F Damp=F
 DIIS: error= 3.34D-04 at cycle   1 NSaved=   1.
 NSaved= 1 IEnMin= 1 EnMin= -1507.90815710563     IErMin= 1 ErrMin= 3.34D-04
 ErrMax= 3.34D-04  0.00D+00 EMaxC= 1.00D-01 BMatC= 8.44D-05 BMatP= 8.44D-05
 IDIUse=3 WtCom= 9.97D-01 WtEn= 3.34D-03
 Coeff-Com:  0.100D+01
 Coeff-En:   0.100D+01
 Coeff:      0.100D+01
 Gap=     0.226 Goal=   None    Shift=    0.000
 RMSDP=6.55D-07 MaxDP=1.14D-04 DE= 9.75D-05 OVMax= 9.13D-04

 Cycle  14  Pass 1  IDiag  1:
 RMSU=  4.54D-04    CP:  9.94D-01
 E= -1507.90821441433     Delta-E=       -0.000057308698 Rises=F Damp=F
 DIIS: error= 6.84D-06 at cycle   2 NSaved=   2.
 NSaved= 2 IEnMin= 2 EnMin= -1507.90821441433     IErMin= 2 ErrMin= 6.84D-06
 ErrMax= 6.84D-06  0.00D+00 EMaxC= 1.00D-01 BMatC= 7.57D-08 BMatP= 8.44D-05
 IDIUse=1 WtCom= 1.00D+00 WtEn= 0.00D+00
 Coeff-Com: -0.171D-01 0.102D+01
 Coeff:     -0.171D-01 0.102D+01
 Gap=     0.226 Goal=   None    Shift=    0.000
 RMSDP=1.64D-05 MaxDP=1.70D-03 DE=-5.73D-05 OVMax= 8.60D-05

 Cycle  15  Pass 1  IDiag  1:
 RMSU=  5.12D-06    CP:  9.94D-01  1.03D+00
 E= -1507.90821448945     Delta-E=       -0.000000075124 Rises=F Damp=F
 DIIS: error= 5.86D-06 at cycle   3 NSaved=   3.
 NSaved= 3 IEnMin= 3 EnMin= -1507.90821448945     IErMin= 3 ErrMin= 5.86D-06
 ErrMax= 5.86D-06  0.00D+00 EMaxC= 1.00D-01 BMatC= 3.18D-08 BMatP= 7.57D-08
 IDIUse=1 WtCom= 1.00D+00 WtEn= 0.00D+00
 Coeff-Com: -0.772D-02 0.431D+00 0.576D+00
 Coeff:     -0.772D-02 0.431D+00 0.576D+00
 Gap=     0.226 Goal=   None    Shift=    0.000
 RMSDP=4.81D-07 MaxDP=4.68D-05 DE=-7.51D-08 OVMax= 5.66D-05

 Cycle  16  Pass 1  IDiag  1:
 RMSU=  3.50D-07    CP:  9.94D-01  1.03D+00  1.04D+00
 E= -1507.90821451517     Delta-E=       -0.000000025714 Rises=F Damp=F
 DIIS: error= 2.17D-06 at cycle   4 NSaved=   4.
 NSaved= 4 IEnMin= 4 EnMin= -1507.90821451517     IErMin= 4 ErrMin= 2.17D-06
 ErrMax= 2.17D-06  0.00D+00 EMaxC= 1.00D-01 BMatC= 4.90D-09 BMatP= 3.18D-08
 IDIUse=1 WtCom= 1.00D+00 WtEn= 0.00D+00
 Coeff-Com: -0.498D-03 0.173D-01 0.273D+00 0.710D+00
 Coeff:     -0.498D-03 0.173D-01 0.273D+00 0.710D+00
 Gap=     0.226 Goal=   None    Shift=    0.000
 RMSDP=2.95D-07 MaxDP=3.07D-05 DE=-2.57D-08 OVMax= 1.70D-05

 Cycle  17  Pass 1  IDiag  1:
 RMSU=  1.44D-07    CP:  9.94D-01  1.04D+00  1.07D+00  9.25D-01
 E= -1507.90821451946     Delta-E=       -0.000000004290 Rises=F Damp=F
 DIIS: error= 6.53D-07 at cycle   5 NSaved=   5.
 NSaved= 5 IEnMin= 5 EnMin= -1507.90821451946     IErMin= 5 ErrMin= 6.53D-07
 ErrMax= 6.53D-07  0.00D+00 EMaxC= 1.00D-01 BMatC= 6.73D-10 BMatP= 4.90D-09
 IDIUse=1 WtCom= 1.00D+00 WtEn= 0.00D+00
 Coeff-Com:  0.467D-03-0.317D-01 0.929D-01 0.374D+00 0.564D+00
 Coeff:      0.467D-03-0.317D-01 0.929D-01 0.374D+00 0.564D+00
 Gap=     0.226 Goal=   None    Shift=    0.000
 RMSDP=5.85D-08 MaxDP=4.04D-06 DE=-4.29D-09 OVMax= 5.35D-06

 Cycle  18  Pass 1  IDiag  1:
 RMSU=  3.81D-08    CP:  9.94D-01  1.04D+00  1.07D+00  9.64D-01  1.04D+00
 E= -1507.90821452004     Delta-E=       -0.000000000579 Rises=F Damp=F
 DIIS: error= 1.72D-07 at cycle   6 NSaved=   6.
 NSaved= 6 IEnMin= 6 EnMin= -1507.90821452004     IErMin= 6 ErrMin= 1.72D-07
 ErrMax= 1.72D-07  0.00D+00 EMaxC= 1.00D-01 BMatC= 3.79D-11 BMatP= 6.73D-10
 IDIUse=1 WtCom= 1.00D+00 WtEn= 0.00D+00
 Coeff-Com:  0.213D-03-0.129D-01 0.790D-02 0.640D-01 0.204D+00 0.737D+00
 Coeff:      0.213D-03-0.129D-01 0.790D-02 0.640D-01 0.204D+00 0.737D+00
 Gap=     0.226 Goal=   None    Shift=    0.000
 RMSDP=1.77D-08 MaxDP=3.66D-06 DE=-5.79D-10 OVMax= 3.69D-06

 Cycle  19  Pass 1  IDiag  1:
 RMSU=  1.25D-08    CP:  9.94D-01  1.04D+00  1.07D+00  9.73D-01  1.13D+00
                    CP:  1.04D+00
 E= -1507.90821452009     Delta-E=       -0.000000000055 Rises=F Damp=F
 DIIS: error= 9.39D-08 at cycle   7 NSaved=   7.
 NSaved= 7 IEnMin= 7 EnMin= -1507.90821452009     IErMin= 7 ErrMin= 9.39D-08
 ErrMax= 9.39D-08  0.00D+00 EMaxC= 1.00D-01 BMatC= 1.55D-11 BMatP= 3.79D-11
 IDIUse=1 WtCom= 1.00D+00 WtEn= 0.00D+00
 Coeff-Com:  0.529D-06 0.818D-03-0.184D-01-0.608D-01-0.375D-01 0.411D+00
 Coeff-Com:  0.705D+00
 Coeff:      0.529D-06 0.818D-03-0.184D-01-0.608D-01-0.375D-01 0.411D+00
 Coeff:      0.705D+00
 Gap=     0.226 Goal=   None    Shift=    0.000
 RMSDP=9.92D-09 MaxDP=5.16D-07 DE=-5.55D-11 OVMax= 1.86D-06

 SCF Done:  E(RM062X) =  -1507.90821452     A.U. after   19 cycles
            NFock= 19  Conv=0.99D-08     -V/T= 2.0040
 KE= 1.501831760167D+03 PE=-8.365944140278D+03 EE= 2.942646437998D+03
 Leave Link  502 at Sun Feb 19 03:59:58 2023, MaxMem=  2684354560 cpu:            7507.3 elap:             469.8
 (Enter /storage/apps/GAUSSIAN/G16_RevA03/g16/l601.exe)
 Copying SCF densities to generalized density rwf, IOpCl= 0 IROHF=0.

 **********************************************************************

            Population analysis using the SCF density.

 **********************************************************************

 Alpha  occ. eigenvalues --  -89.90799 -19.63938 -19.63616 -19.62232 -19.61841
 Alpha  occ. eigenvalues --  -19.58360 -14.79043 -14.76843 -10.65041 -10.64002
 Alpha  occ. eigenvalues --  -10.62934 -10.60101 -10.59852 -10.59320 -10.58566
 Alpha  occ. eigenvalues --  -10.57413 -10.55868 -10.55816 -10.55252 -10.54367
 Alpha  occ. eigenvalues --  -10.54001 -10.53853 -10.53701 -10.53614  -8.26724
 Alpha  occ. eigenvalues --   -6.18662  -6.18435  -6.18235  -1.19742  -1.17185
 Alpha  occ. eigenvalues --   -1.15745  -1.15245  -1.14005  -1.08054  -1.01290
 Alpha  occ. eigenvalues --   -0.91791  -0.91108  -0.88449  -0.88247  -0.86980
 Alpha  occ. eigenvalues --   -0.85911  -0.81225  -0.78942  -0.75067  -0.74895
 Alpha  occ. eigenvalues --   -0.72874  -0.70295  -0.68308  -0.66427  -0.66019
 Alpha  occ. eigenvalues --   -0.63376  -0.62641  -0.61049  -0.60409  -0.59724
 Alpha  occ. eigenvalues --   -0.57565  -0.56114  -0.55429  -0.54586  -0.53638
 Alpha  occ. eigenvalues --   -0.53032  -0.52723  -0.51865  -0.50967  -0.50520
 Alpha  occ. eigenvalues --   -0.50332  -0.49589  -0.49068  -0.48905  -0.48619
 Alpha  occ. eigenvalues --   -0.48141  -0.47328  -0.47001  -0.46914  -0.46758
 Alpha  occ. eigenvalues --   -0.46273  -0.44897  -0.44314  -0.43809  -0.43141
 Alpha  occ. eigenvalues --   -0.42349  -0.42175  -0.41263  -0.40025  -0.37878
 Alpha  occ. eigenvalues --   -0.35575  -0.34890  -0.34722  -0.33986  -0.33690
 Alpha  occ. eigenvalues --   -0.32728  -0.32188  -0.32038  -0.29856  -0.24639
 Alpha virt. eigenvalues --   -0.02003   0.00931   0.04727   0.04984   0.05640
 Alpha virt. eigenvalues --    0.06477   0.06782   0.07594   0.08618   0.08755
 Alpha virt. eigenvalues --    0.08923   0.09680   0.10210   0.10964   0.11444
 Alpha virt. eigenvalues --    0.11782   0.12449   0.12704   0.12926   0.13254
 Alpha virt. eigenvalues --    0.13631   0.13973   0.14341   0.14706   0.15172
 Alpha virt. eigenvalues --    0.15604   0.16008   0.16570   0.16744   0.17593
 Alpha virt. eigenvalues --    0.18107   0.18751   0.19230   0.19584   0.20185
 Alpha virt. eigenvalues --    0.20957   0.21257   0.21706   0.21911   0.22554
 Alpha virt. eigenvalues --    0.22602   0.22940   0.23700   0.24154   0.24810
 Alpha virt. eigenvalues --    0.25044   0.25227   0.25604   0.26590   0.26779
 Alpha virt. eigenvalues --    0.27081   0.27213   0.27476   0.28551   0.28705
 Alpha virt. eigenvalues --    0.29099   0.29600   0.29904   0.31021   0.31093
 Alpha virt. eigenvalues --    0.31633   0.32007   0.32191   0.32724   0.33694
 Alpha virt. eigenvalues --    0.33763   0.34313   0.34751   0.35239   0.35831
 Alpha virt. eigenvalues --    0.36861   0.37252   0.37677   0.37944   0.38407
 Alpha virt. eigenvalues --    0.38693   0.38982   0.39470   0.39864   0.40388
 Alpha virt. eigenvalues --    0.40851   0.41026   0.41323   0.41683   0.41964
 Alpha virt. eigenvalues --    0.42456   0.43043   0.43183   0.43418   0.43874
 Alpha virt. eigenvalues --    0.44065   0.44607   0.44746   0.45056   0.45113
 Alpha virt. eigenvalues --    0.45472   0.46132   0.46746   0.46991   0.47727
 Alpha virt. eigenvalues --    0.47882   0.48617   0.48916   0.49012   0.49339
 Alpha virt. eigenvalues --    0.49754   0.50064   0.50317   0.50649   0.50922
 Alpha virt. eigenvalues --    0.51148   0.51344   0.51519   0.51738   0.52137
 Alpha virt. eigenvalues --    0.52949   0.53322   0.53980   0.54293   0.54473
 Alpha virt. eigenvalues --    0.54991   0.55178   0.56144   0.56521   0.57240
 Alpha virt. eigenvalues --    0.57759   0.57883   0.58380   0.58540   0.58991
 Alpha virt. eigenvalues --    0.59563   0.60340   0.60603   0.61037   0.61490
 Alpha virt. eigenvalues --    0.62302   0.62678   0.63089   0.64070   0.64436
 Alpha virt. eigenvalues --    0.64580   0.65796   0.66090   0.66478   0.67152
 Alpha virt. eigenvalues --    0.67902   0.68513   0.68636   0.69441   0.70625
 Alpha virt. eigenvalues --    0.70694   0.71506   0.71732   0.72959   0.73646
 Alpha virt. eigenvalues --    0.74803   0.75149   0.75989   0.76143   0.76641
 Alpha virt. eigenvalues --    0.77591   0.78211   0.78594   0.79720   0.80421
 Alpha virt. eigenvalues --    0.81234   0.81398   0.82071   0.82267   0.82604
 Alpha virt. eigenvalues --    0.84269   0.84414   0.84975   0.85399   0.86246
 Alpha virt. eigenvalues --    0.86580   0.88046   0.88960   0.89464   0.90523
 Alpha virt. eigenvalues --    0.90729   0.91148   0.91608   0.92309   0.93380
 Alpha virt. eigenvalues --    0.93830   0.94559   0.95051   0.95549   0.96596
 Alpha virt. eigenvalues --    0.97105   0.97868   0.98404   0.99015   0.99406
 Alpha virt. eigenvalues --    1.00134   1.01355   1.02047   1.02674   1.03058
 Alpha virt. eigenvalues --    1.04358   1.05348   1.05473   1.05712   1.06024
 Alpha virt. eigenvalues --    1.07006   1.07871   1.08332   1.08984   1.09444
 Alpha virt. eigenvalues --    1.10244   1.11197   1.11311   1.12030   1.12722
 Alpha virt. eigenvalues --    1.13028   1.13693   1.13921   1.14362   1.15489
 Alpha virt. eigenvalues --    1.16399   1.16558   1.17365   1.18622   1.19111
 Alpha virt. eigenvalues --    1.20051   1.20589   1.21957   1.22331   1.23947
 Alpha virt. eigenvalues --    1.25060   1.25708   1.26517   1.26962   1.27498
 Alpha virt. eigenvalues --    1.28878   1.29582   1.30234   1.31250   1.32232
 Alpha virt. eigenvalues --    1.32518   1.33216   1.34068   1.34733   1.35467
 Alpha virt. eigenvalues --    1.35689   1.37307   1.38116   1.38422   1.39319
 Alpha virt. eigenvalues --    1.40388   1.41264   1.42570   1.43467   1.44725
 Alpha virt. eigenvalues --    1.45218   1.46629   1.47015   1.47967   1.48808
 Alpha virt. eigenvalues --    1.49873   1.51264   1.51779   1.52422   1.53153
 Alpha virt. eigenvalues --    1.53618   1.53899   1.54544   1.55318   1.55708
 Alpha virt. eigenvalues --    1.56387   1.56660   1.56726   1.57414   1.57701
 Alpha virt. eigenvalues --    1.57991   1.58648   1.59114   1.59569   1.59737
 Alpha virt. eigenvalues --    1.60656   1.61035   1.61449   1.62010   1.62363
 Alpha virt. eigenvalues --    1.62896   1.64182   1.64251   1.64941   1.65011
 Alpha virt. eigenvalues --    1.65840   1.65938   1.66940   1.67290   1.67592
 Alpha virt. eigenvalues --    1.68503   1.68783   1.69109   1.69434   1.70120
 Alpha virt. eigenvalues --    1.71270   1.72127   1.72647   1.73210   1.73963
 Alpha virt. eigenvalues --    1.74302   1.74432   1.75361   1.76216   1.77309
 Alpha virt. eigenvalues --    1.77460   1.78486   1.79477   1.79682   1.80491
 Alpha virt. eigenvalues --    1.80778   1.81313   1.81639   1.82438   1.83738
 Alpha virt. eigenvalues --    1.83928   1.84394   1.85058   1.85488   1.86150
 Alpha virt. eigenvalues --    1.87128   1.87557   1.88401   1.89901   1.90586
 Alpha virt. eigenvalues --    1.90909   1.91460   1.91998   1.93594   1.94410
 Alpha virt. eigenvalues --    1.94730   1.95706   1.96040   1.96736   1.96949
 Alpha virt. eigenvalues --    1.98080   1.98390   1.99222   1.99701   2.00255
 Alpha virt. eigenvalues --    2.01104   2.01236   2.02675   2.02957   2.03492
 Alpha virt. eigenvalues --    2.04117   2.04994   2.06550   2.07140   2.08247
 Alpha virt. eigenvalues --    2.09017   2.09633   2.10065   2.11145   2.11271
 Alpha virt. eigenvalues --    2.12701   2.12965   2.14284   2.15579   2.15804
 Alpha virt. eigenvalues --    2.16101   2.17722   2.17978   2.18176   2.19168
 Alpha virt. eigenvalues --    2.20218   2.21369   2.21984   2.22107   2.22735
 Alpha virt. eigenvalues --    2.23593   2.24046   2.24422   2.26928   2.27109
 Alpha virt. eigenvalues --    2.27277   2.27622   2.28280   2.29057   2.29445
 Alpha virt. eigenvalues --    2.30580   2.31008   2.31187   2.31804   2.32521
 Alpha virt. eigenvalues --    2.33044   2.33492   2.34435   2.35137   2.35481
 Alpha virt. eigenvalues --    2.36004   2.36265   2.37696   2.38138   2.38514
 Alpha virt. eigenvalues --    2.39632   2.40528   2.41446   2.42401   2.43046
 Alpha virt. eigenvalues --    2.43308   2.43670   2.44002   2.44726   2.45733
 Alpha virt. eigenvalues --    2.46864   2.47415   2.48143   2.49261   2.49670
 Alpha virt. eigenvalues --    2.51157   2.51250   2.51410   2.52439   2.53752
 Alpha virt. eigenvalues --    2.54769   2.55108   2.56088   2.56863   2.57618
 Alpha virt. eigenvalues --    2.58048   2.58577   2.58954   2.59693   2.60359
 Alpha virt. eigenvalues --    2.60509   2.61706   2.61837   2.63054   2.63645
 Alpha virt. eigenvalues --    2.64068   2.64892   2.65152   2.65672   2.66361
 Alpha virt. eigenvalues --    2.67081   2.67203   2.68295   2.68794   2.69786
 Alpha virt. eigenvalues --    2.70267   2.70430   2.70949   2.72112   2.72848
 Alpha virt. eigenvalues --    2.73374   2.74283   2.75012   2.75691   2.76532
 Alpha virt. eigenvalues --    2.77356   2.77898   2.79010   2.80390   2.81304
 Alpha virt. eigenvalues --    2.81529   2.82838   2.83193   2.84497   2.85283
 Alpha virt. eigenvalues --    2.85879   2.86070   2.86538   2.88283   2.88787
 Alpha virt. eigenvalues --    2.89250   2.89559   2.91330   2.91693   2.92648
 Alpha virt. eigenvalues --    2.93328   2.94713   2.95201   2.96207   2.96824
 Alpha virt. eigenvalues --    2.97256   2.98176   2.99521   3.00247   3.00772
 Alpha virt. eigenvalues --    3.01126   3.01570   3.02148   3.03225   3.03257
 Alpha virt. eigenvalues --    3.04241   3.04423   3.05080   3.05704   3.06098
 Alpha virt. eigenvalues --    3.07165   3.07538   3.08454   3.09350   3.09804
 Alpha virt. eigenvalues --    3.10159   3.10850   3.11206   3.11586   3.12360
 Alpha virt. eigenvalues --    3.12609   3.13047   3.13923   3.14326   3.15462
 Alpha virt. eigenvalues --    3.15946   3.16616   3.17044   3.17433   3.18271
 Alpha virt. eigenvalues --    3.18515   3.18853   3.20015   3.20301   3.20518
 Alpha virt. eigenvalues --    3.21129   3.21690   3.21738   3.23076   3.23775
 Alpha virt. eigenvalues --    3.24279   3.25726   3.26268   3.26789   3.27325
 Alpha virt. eigenvalues --    3.27634   3.28267   3.28690   3.28805   3.29229
 Alpha virt. eigenvalues --    3.30802   3.31518   3.31723   3.32475   3.33562
 Alpha virt. eigenvalues --    3.33911   3.34521   3.35721   3.36153   3.36184
 Alpha virt. eigenvalues --    3.36774   3.37954   3.38310   3.38561   3.38939
 Alpha virt. eigenvalues --    3.39239   3.40064   3.40403   3.41688   3.41969
 Alpha virt. eigenvalues --    3.43041   3.43437   3.43911   3.44753   3.45221
 Alpha virt. eigenvalues --    3.45403   3.46470   3.47125   3.48124   3.49105
 Alpha virt. eigenvalues --    3.49249   3.49480   3.51208   3.52053   3.52363
 Alpha virt. eigenvalues --    3.53136   3.53275   3.53716   3.54413   3.56133
 Alpha virt. eigenvalues --    3.56543   3.57741   3.58169   3.58589   3.59643
 Alpha virt. eigenvalues --    3.60822   3.62165   3.62406   3.63356   3.64598
 Alpha virt. eigenvalues --    3.65610   3.66248   3.66942   3.67120   3.68799
 Alpha virt. eigenvalues --    3.68904   3.70783   3.71565   3.72362   3.72809
 Alpha virt. eigenvalues --    3.73919   3.74592   3.75248   3.75896   3.76851
 Alpha virt. eigenvalues --    3.78083   3.78482   3.78548   3.79950   3.80348
 Alpha virt. eigenvalues --    3.82405   3.83379   3.85578   3.86786   3.87652
 Alpha virt. eigenvalues --    3.88354   3.90321   3.90426   3.92076   3.92606
 Alpha virt. eigenvalues --    3.93561   3.94413   3.95476   3.95813   3.97720
 Alpha virt. eigenvalues --    4.00234   4.00495   4.02570   4.03835   4.07274
 Alpha virt. eigenvalues --    4.07985   4.08641   4.10074   4.10521   4.11641
 Alpha virt. eigenvalues --    4.12473   4.13097   4.14194   4.14532   4.15987
 Alpha virt. eigenvalues --    4.18953   4.19139   4.19960   4.20726   4.21377
 Alpha virt. eigenvalues --    4.24424   4.25915   4.27326   4.28383   4.28743
 Alpha virt. eigenvalues --    4.32706   4.33474   4.35468   4.36219   4.37570
 Alpha virt. eigenvalues --    4.39117   4.39861   4.40859   4.41231   4.41518
 Alpha virt. eigenvalues --    4.42760   4.45097   4.47152   4.47970   4.49300
 Alpha virt. eigenvalues --    4.50154   4.52233   4.54230   4.55542   4.57522
 Alpha virt. eigenvalues --    4.59672   4.61521   4.64016   4.65248   4.66663
 Alpha virt. eigenvalues --    4.68287   4.69479   4.70286   4.71669   4.73992
 Alpha virt. eigenvalues --    4.74999   4.76422   4.77887   4.79118   4.80615
 Alpha virt. eigenvalues --    4.83022   4.86016   4.89073   4.90765   4.91728
 Alpha virt. eigenvalues --    4.93335   4.95726   4.96450   4.97989   4.99236
 Alpha virt. eigenvalues --    5.00703   5.01204   5.02399   5.05234   5.07744
 Alpha virt. eigenvalues --    5.11323   5.14949   5.16304   5.17861   5.21060
 Alpha virt. eigenvalues --    5.21888   5.22740   5.23842   5.26162   5.27522
 Alpha virt. eigenvalues --    5.29329   5.30467   5.31224   5.35587   5.36047
 Alpha virt. eigenvalues --    5.37993   5.41636   5.43647   5.44152   5.46898
 Alpha virt. eigenvalues --    5.47897   5.49792   5.53796   5.57385   5.58041
 Alpha virt. eigenvalues --    5.62472   5.66540   5.75078   5.75931   5.77437
 Alpha virt. eigenvalues --    5.80033   5.80458   5.84006   5.84439   5.86498
 Alpha virt. eigenvalues --    5.87964   5.90328   5.91026   5.92756   5.95586
 Alpha virt. eigenvalues --    5.99623   6.02595   6.08414   6.15577   6.20451
 Alpha virt. eigenvalues --    6.22682   6.25063   6.29494   6.30757   6.34853
 Alpha virt. eigenvalues --    6.38667   6.44424   6.44953   6.47627   6.52324
 Alpha virt. eigenvalues --    6.54052   6.60053   6.69493   6.74501   6.74768
 Alpha virt. eigenvalues --    6.78759   6.81472   6.82723   6.85634   6.86451
 Alpha virt. eigenvalues --    6.87383   6.93514   6.98762   6.99123   7.06572
 Alpha virt. eigenvalues --    7.08422   7.09387   7.12407   7.15897   7.24155
 Alpha virt. eigenvalues --    7.25907   7.34524   8.98802   9.37689   9.51047
 Alpha virt. eigenvalues --   19.84483  22.27613  22.42180  22.47796  22.48472
 Alpha virt. eigenvalues --   22.53424  22.64695  22.67015  22.72280  22.81586
 Alpha virt. eigenvalues --   22.86047  22.94039  22.99542  23.02493  23.05594
 Alpha virt. eigenvalues --   23.20486  23.48735  32.18187  33.18146  44.13126
 Alpha virt. eigenvalues --   44.17880  44.23239  44.27213  44.57337
          Condensed to atoms (all electrons):
               1          2          3          4          5          6
     1  C    5.119772   0.421023   0.412058  -0.017262  -0.000340  -0.000078
     2  H    0.421023   0.508902  -0.022321  -0.001441   0.000449  -0.000005
     3  H    0.412058  -0.022321   0.541758   0.001255  -0.000038  -0.000006
     4  C   -0.017262  -0.001441   0.001255   5.619561   0.474209   0.249637
     5  H   -0.000340   0.000449  -0.000038   0.474209   0.553790  -0.030305
     6  O   -0.000078  -0.000005  -0.000006   0.249637  -0.030305   8.010889
     7  H    0.000008  -0.000009   0.000004  -0.065220  -0.002877   0.295578
     8  C    0.005575   0.013196  -0.008842  -0.161649  -0.089172  -0.058575
     9  H    0.010137  -0.000020  -0.001853  -0.128615   0.003491   0.002153
    10  O    0.007915  -0.000366   0.000239  -0.042506   0.002181   0.000773
    11  H   -0.000646  -0.000185   0.000436   0.011468  -0.000922  -0.000582
    12  C   -0.000989  -0.000031   0.001094  -0.046925  -0.053050  -0.001676
    13  H   -0.000409   0.000051   0.000114  -0.112586   0.005991  -0.000427
    14  C    0.189529  -0.048317  -0.040337   0.155994   0.020165   0.009738
    15  H   -0.077509  -0.006494  -0.003030  -0.013482  -0.000226   0.000018
    16  O   -0.037872   0.000901   0.005478  -0.087706  -0.003074   0.005759
    17  N    0.000615  -0.000107  -0.000052   0.037403  -0.015140  -0.006570
    18  C   -0.001380  -0.000004   0.000019  -0.006796  -0.003596   0.002553
    19  H    0.000017  -0.000070   0.000047  -0.015902  -0.002853   0.001062
    20  C   -0.000046   0.000006  -0.000003   0.005205   0.005747  -0.001975
    21  H    0.000006   0.000001  -0.000000   0.000041   0.000143  -0.000023
    22  C   -0.000008  -0.000001   0.000000  -0.000018  -0.000367   0.000196
    23  H   -0.000000   0.000000   0.000000   0.000035   0.000009   0.000000
    24  H    0.000000  -0.000000  -0.000000  -0.000087  -0.000021  -0.000003
    25  C   -0.000069  -0.000007   0.000001  -0.002469  -0.000713  -0.000457
    26  C   -0.000262   0.000034  -0.000005   0.023981  -0.000313  -0.003429
    27  H   -0.000021   0.000000   0.000000   0.000839  -0.000101   0.000102
    28  C    0.000000   0.000000  -0.000000   0.000148  -0.000001  -0.000021
    29  O   -0.000000   0.000000   0.000000   0.000001   0.000000  -0.000000
    30  N   -0.000000   0.000000   0.000000   0.000001  -0.000000  -0.000000
    31  H   -0.000000   0.000000   0.000000   0.000000   0.000000  -0.000000
    32  H   -0.000000   0.000000  -0.000000   0.000001   0.000000  -0.000000
    33  C    0.000000  -0.000000   0.000000  -0.000161  -0.000353  -0.012738
    34  C    0.000000  -0.000000  -0.000000   0.000026  -0.000001  -0.000611
    35  C    0.000000   0.000000  -0.000000  -0.000299   0.000034  -0.000115
    36  C   -0.000000   0.000000  -0.000000   0.000001   0.000000   0.000000
    37  C   -0.000000   0.000000   0.000000   0.000149   0.000002   0.000045
    38  O    0.000000   0.000000  -0.000000  -0.000774  -0.000047  -0.016680
    39  S   -0.000000  -0.000000   0.000000   0.000752   0.000018   0.000974
    40  H   -0.000000   0.000000  -0.000000   0.000197   0.000021   0.000199
    41  H   -0.000001   0.000000  -0.000000  -0.004323   0.000539   0.014544
    42  H    0.000000  -0.000000  -0.000000  -0.000000  -0.000000  -0.000000
    43  H    0.000000  -0.000000  -0.000000  -0.000000  -0.000000  -0.000000
    44  H   -0.000000  -0.000000  -0.000000   0.000000  -0.000000   0.000000
    45  H   -0.000000  -0.000000   0.000000   0.000012   0.000002   0.000007
    46  H   -0.000000  -0.000000   0.000000  -0.000007  -0.000000   0.000004
    47  H    0.378919  -0.022443  -0.024997   0.003030  -0.001215   0.000044
    48  H    0.000000   0.000000  -0.000000   0.000057   0.000002   0.000428
               7          8          9         10         11         12
     1  C    0.000008   0.005575   0.010137   0.007915  -0.000646  -0.000989
     2  H   -0.000009   0.013196  -0.000020  -0.000366  -0.000185  -0.000031
     3  H    0.000004  -0.008842  -0.001853   0.000239   0.000436   0.001094
     4  C   -0.065220  -0.161649  -0.128615  -0.042506   0.011468  -0.046925
     5  H   -0.002877  -0.089172   0.003491   0.002181  -0.000922  -0.053050
     6  O    0.295578  -0.058575   0.002153   0.000773  -0.000582  -0.001676
     7  H    0.432243   0.003295  -0.000944  -0.001321   0.000292   0.001808
     8  C    0.003295   5.585550   0.525836   0.256300  -0.039247   0.027270
     9  H   -0.000944   0.525836   0.574083  -0.056551  -0.001946   0.017119
    10  O   -0.001321   0.256300  -0.056551   8.038114   0.289097  -0.011390
    11  H    0.000292  -0.039247  -0.001946   0.289097   0.428592  -0.001232
    12  C    0.001808   0.027270   0.017119  -0.011390  -0.001232   5.557043
    13  H   -0.003509   0.019408   0.002737   0.015268  -0.001482   0.485059
    14  C   -0.000267   0.044026  -0.109037  -0.046590  -0.006335  -0.114768
    15  H    0.000124  -0.033750   0.011567  -0.007750   0.005949   0.000212
    16  O    0.001524  -0.042803   0.004739   0.007329   0.000390   0.283554
    17  N    0.016353   0.003476  -0.001091  -0.000453   0.000044   0.115189
    18  C    0.000541  -0.004750  -0.000414  -0.000425   0.000022  -0.082064
    19  H    0.000442   0.001098   0.000059  -0.000003   0.000004   0.022459
    20  C   -0.001138  -0.002000   0.000021   0.000012  -0.000001   0.012680
    21  H   -0.000013  -0.000007   0.000000   0.000000  -0.000000   0.000325
    22  C    0.000416   0.000054  -0.000003  -0.000002   0.000000  -0.007261
    23  H   -0.000012   0.000000   0.000000  -0.000000  -0.000000   0.000223
    24  H    0.000117   0.000002  -0.000000   0.000000   0.000000   0.000029
    25  C   -0.001332   0.000074  -0.000003  -0.000052   0.000002  -0.021488
    26  C   -0.003590  -0.003537  -0.000140  -0.000686  -0.000042  -0.077970
    27  H    0.000108  -0.000014  -0.000010  -0.000156   0.000008  -0.002913
    28  C    0.000059   0.000006   0.000000   0.000000  -0.000000  -0.001576
    29  O    0.000026   0.000000   0.000000  -0.000000  -0.000000   0.000408
    30  N    0.000000  -0.000000  -0.000000  -0.000000  -0.000000   0.000010
    31  H   -0.000000  -0.000000   0.000000  -0.000000  -0.000000  -0.000003
    32  H   -0.000000  -0.000000   0.000000  -0.000000  -0.000000  -0.000002
    33  C    0.004923   0.000887   0.000002  -0.000542   0.000042  -0.000962
    34  C   -0.001697  -0.000061  -0.000001   0.000019  -0.000001  -0.001484
    35  C    0.002591  -0.000047  -0.000000   0.000001  -0.000000   0.001097
    36  C   -0.000004  -0.000000  -0.000000  -0.000000  -0.000000   0.000021
    37  C   -0.000811   0.000001  -0.000000  -0.000000   0.000000  -0.000394
    38  O    0.026984   0.000051   0.000004   0.000005  -0.000000  -0.000828
    39  S   -0.003393  -0.000010  -0.000000  -0.000003  -0.000000  -0.000680
    40  H   -0.001597  -0.000012   0.000000   0.000008  -0.000001   0.000003
    41  H    0.000537  -0.002084   0.000037   0.001855  -0.000142   0.002087
    42  H    0.000001   0.000000  -0.000000   0.000000   0.000000   0.000002
    43  H    0.000001   0.000000  -0.000000   0.000000   0.000000  -0.000001
    44  H   -0.000000  -0.000000  -0.000000   0.000000   0.000000  -0.000000
    45  H   -0.000062   0.000000   0.000000  -0.000000  -0.000000  -0.000019
    46  H   -0.000023  -0.000000  -0.000000  -0.000000   0.000000   0.000049
    47  H    0.000035  -0.015838   0.001695   0.000082   0.000138  -0.000879
    48  H   -0.000166  -0.000007   0.000001   0.000006  -0.000001  -0.000010
              13         14         15         16         17         18
     1  C   -0.000409   0.189529  -0.077509  -0.037872   0.000615  -0.001380
     2  H    0.000051  -0.048317  -0.006494   0.000901  -0.000107  -0.000004
     3  H    0.000114  -0.040337  -0.003030   0.005478  -0.000052   0.000019
     4  C   -0.112586   0.155994  -0.013482  -0.087706   0.037403  -0.006796
     5  H    0.005991   0.020165  -0.000226  -0.003074  -0.015140  -0.003596
     6  O   -0.000427   0.009738   0.000018   0.005759  -0.006570   0.002553
     7  H   -0.003509  -0.000267   0.000124   0.001524   0.016353   0.000541
     8  C    0.019408   0.044026  -0.033750  -0.042803   0.003476  -0.004750
     9  H    0.002737  -0.109037   0.011567   0.004739  -0.001091  -0.000414
    10  O    0.015268  -0.046590  -0.007750   0.007329  -0.000453  -0.000425
    11  H   -0.001482  -0.006335   0.005949   0.000390   0.000044   0.000022
    12  C    0.485059  -0.114768   0.000212   0.283554   0.115189  -0.082064
    13  H    0.519261  -0.008343   0.005811  -0.037409  -0.075536   0.012355
    14  C   -0.008343   5.312420   0.407946   0.214970   0.010992  -0.000463
    15  H    0.005811   0.407946   0.639060  -0.036451  -0.001840   0.000219
    16  O   -0.037409   0.214970  -0.036451   8.065993  -0.074422   0.011377
    17  N   -0.075536   0.010992  -0.001840  -0.074422   6.623141   0.302378
    18  C    0.012355  -0.000463   0.000219   0.011377   0.302378   5.028471
    19  H    0.000905  -0.003594   0.000133   0.006397  -0.049398   0.409774
    20  C   -0.000546   0.001264  -0.000001  -0.000594  -0.074951   0.493981
    21  H    0.000012   0.000004  -0.000000  -0.000055   0.004337  -0.028996
    22  C   -0.000034  -0.000101   0.000001   0.000376  -0.008066   0.007003
    23  H    0.000004   0.000001   0.000000  -0.000016  -0.000223  -0.000939
[...]
      4        6          -0.007415287   -0.003700540    0.003063541
      5        1           0.003870159    0.004074524    0.001075025
      6        8           0.006888259    0.001601692   -0.005462745
      7        1          -0.004625332   -0.005242296    0.004072226
      8        6          -0.004083558   -0.011010434   -0.001138388
      9        1          -0.001350666    0.006018339   -0.004265057
     10        8           0.025978702    0.001647683   -0.004596443
     11        1          -0.024042000    0.004848400    0.007295736
     12        6           0.004214197    0.004925746    0.006975388
     13        1          -0.001468095   -0.001975813   -0.002944294
     14        6           0.008616652   -0.002040112    0.000795768
     15        1          -0.003179505    0.003152465    0.001275547
     16        8           0.002608746   -0.003052202   -0.007316968
     17        7          -0.001177310    0.006063938   -0.006822867
     18        6          -0.008856364   -0.002870103   -0.003308776
     19        1          -0.001360390    0.005882490   -0.001057775
     20        6           0.003702342   -0.004799851    0.001638203
     21        1           0.004684477    0.004945831    0.000897262
     22        6          -0.003746042   -0.001683312    0.000806879
     23        1           0.001760535   -0.000749221    0.002538700
     24        1           0.004788699    0.000070216   -0.001913806
     25        6           0.001030650    0.000949701   -0.001283882
     26        6          -0.002410995   -0.003303150   -0.000389590
     27        1          -0.005539925   -0.004122785    0.001498173
     28        6           0.019071857   -0.002975511    0.016808133
     29        8          -0.007783512   -0.005119100   -0.005422927
     30        7          -0.009155292    0.002062447   -0.018809260
     31        1          -0.001247471   -0.005837512    0.002970760
     32        1           0.005072563    0.008980263    0.009752267
     33        6          -0.005894497   -0.012861387   -0.002831912
     34        6           0.000003975   -0.011498428    0.005444237
     35        6          -0.008974009    0.002550561   -0.005694244
     36        6          -0.002475412    0.002179129   -0.004299702
     37        6           0.008367518   -0.003119921    0.006094458
     38        8           0.001277018    0.010575473   -0.004235697
     39       16           0.005707683    0.003198761    0.002564705
     40        1           0.005737268    0.002602447   -0.003461938
     41        1          -0.002323511    0.005726789    0.004789805
     42        1           0.000648225    0.000809534    0.004348843
     43        1          -0.002844543   -0.003167378    0.003231918
     44        1           0.005335350   -0.001315540   -0.003154021
     45        1           0.002149621    0.006929361   -0.001724199
     46        1          -0.003028502   -0.004714279    0.003641036
     47        1           0.001306536   -0.004595177   -0.001026980
     48        1          -0.001810658    0.003147634   -0.004434786
 -------------------------------------------------------------------
 Cartesian Forces:  Max     0.025978702 RMS     0.006085532
 Leave Link  716 at Sun Feb 19 04:03:00 2023, MaxMem=  2684354560 cpu:               0.4 elap:               0.0
 (Enter /storage/apps/GAUSSIAN/G16_RevA03/g16/l103.exe)

 GradGradGradGradGradGradGradGradGradGradGradGradGradGradGradGradGradGrad
 Berny optimization.
 Search for a local minimum.
 Step number   1 out of a maximum of    2
 All quantities printed in internal units (Hartrees-Bohrs-Radians)
 Second derivative matrix not updated -- first step.
 ITU=  0
     Eigenvalues ---    0.00015   0.00068   0.00072   0.00118   0.00176
     Eigenvalues ---    0.00208   0.00314   0.00357   0.00372   0.00447
     Eigenvalues ---    0.00513   0.00716   0.00803   0.00889   0.00914
     Eigenvalues ---    0.01003   0.01085   0.01208   0.01365   0.01417
     Eigenvalues ---    0.01724   0.01748   0.01978   0.02138   0.02621
     Eigenvalues ---    0.02892   0.03176   0.03316   0.03377   0.03559
     Eigenvalues ---    0.03980   0.04522   0.04838   0.04972   0.05112
     Eigenvalues ---    0.05288   0.05409   0.05484   0.05767   0.05832
     Eigenvalues ---    0.05961   0.06163   0.06262   0.06461   0.06834
     Eigenvalues ---    0.06967   0.07055   0.07453   0.07575   0.07917
     Eigenvalues ---    0.08521   0.08897   0.09078   0.09774   0.10233
     Eigenvalues ---    0.10410   0.11270   0.11982   0.12248   0.12337
     Eigenvalues ---    0.12509   0.12806   0.12818   0.12945   0.13728
     Eigenvalues ---    0.13807   0.14197   0.14900   0.15464   0.16465
     Eigenvalues ---    0.16962   0.17349   0.18050   0.18811   0.19236
     Eigenvalues ---    0.19720   0.19923   0.21232   0.21523   0.21915
     Eigenvalues ---    0.24450   0.26835   0.27214   0.27414   0.30669
     Eigenvalues ---    0.32693   0.33122   0.33850   0.34795   0.36872
     Eigenvalues ---    0.37362   0.37362   0.37362   0.37362   0.39596
     Eigenvalues ---    0.42975   0.43486   0.47995   0.54301   0.55955
     Eigenvalues ---    0.60435   0.64738   0.67702   0.68789   0.72155
     Eigenvalues ---    0.77978   0.81374   0.86634   0.87260   0.87708
     Eigenvalues ---    0.89204   0.90196   0.91941   0.92217   0.92355
     Eigenvalues ---    0.92943   0.95760   0.97264   0.98252   1.00051
     Eigenvalues ---    1.01960   1.05953   1.08091   1.10319   1.11916
     Eigenvalues ---    1.17541   1.18060   1.20561   1.26404   1.29974
     Eigenvalues ---    1.36486   1.41928   1.48422   1.58005   1.64370
     Eigenvalues ---    1.75506   2.15160   2.21196
 Quadratic step=2.701D+00 exceeds max=3.000D-01 adjusted using Lamda=-2.059D-02.
 Angle between NR and scaled steps=  62.15 degrees.
 Angle between quadratic step and forces=  63.16 degrees.
 Linear search not attempted -- first point.
 Variable       Old X    -DE/DX   Delta X   Delta X   Delta X     New X
                                 (Linear)    (Quad)   (Total)
    X1        6.45392  -0.00073   0.00000  -0.02180  -0.02180   6.43211
    Y1       -7.24963   0.00887   0.00000   0.02207   0.02207  -7.22756
    Z1       -1.41132   0.00012   0.00000   0.00814   0.00814  -1.40318
    X2        6.56105  -0.00033   0.00000  -0.00720  -0.00720   6.55385
    Y2       -7.48818  -0.00076   0.00000   0.00880   0.00880  -7.47938
    Z2       -3.47165   0.00689   0.00000   0.02757   0.02757  -3.44408
    X3        8.16775  -0.00697   0.00000  -0.05059  -0.05059   8.11716
    Y3       -8.02312  -0.00130   0.00000  -0.02087  -0.02087  -8.04399
    Z3       -0.52516  -0.00299   0.00000  -0.01238  -0.01238  -0.53754
    X4        3.01442  -0.00742   0.00000   0.00073   0.00073   3.01515
    Y4       -2.93474  -0.00370   0.00000   0.00358   0.00358  -2.93116
    Z4        1.87440   0.00306   0.00000  -0.00208  -0.00208   1.87232
    X5        1.84202   0.00387   0.00000   0.02776   0.02776   1.86978
    Y5       -4.65272   0.00407   0.00000   0.00267   0.00267  -4.65005
    Z5        1.65389   0.00108   0.00000   0.02489   0.02489   1.67878
    X6        2.12735   0.00689   0.00000   0.05048   0.05048   2.17782
    Y6       -1.47974   0.00160   0.00000   0.00686   0.00686  -1.47289
    Z6        3.89033  -0.00546   0.00000   0.00592   0.00592   3.89625
    X7        1.02000  -0.00463   0.00000  -0.11103  -0.11103   0.90897
    Y7       -0.17202  -0.00524   0.00000  -0.10109  -0.10109  -0.27311
    Z7        3.22314   0.00407   0.00000   0.07265   0.07265   3.29580
    X8        5.76865  -0.00408   0.00000  -0.00205  -0.00205   5.76660
    Y8       -3.80660  -0.01101   0.00000   0.01302   0.01302  -3.79358
    Z8        2.03667  -0.00114   0.00000  -0.01654  -0.01654   2.02013
    X9        5.99781  -0.00135   0.00000   0.00292   0.00292   6.00074
    Y9       -5.49270   0.00602   0.00000   0.03141   0.03141  -5.46129
    Z9        3.25260  -0.00427   0.00000  -0.02819  -0.02819   3.22441
   X10        7.25857   0.02598   0.00000  -0.00890  -0.00890   7.24967
   Y10       -1.80351   0.00165   0.00000   0.03089   0.03089  -1.77262
   Z10        2.90859  -0.00460   0.00000  -0.00544  -0.00544   2.90315
   X11        9.03887  -0.02404   0.00000  -0.04744  -0.04744   8.99142
   Y11       -2.14855   0.00485   0.00000   0.03979   0.03979  -2.10876
   Z11        2.45710   0.00730   0.00000   0.03218   0.03218   2.48928
   X12        3.04221   0.00421   0.00000  -0.00199  -0.00199   3.04022
   Y12       -1.55688   0.00493   0.00000  -0.00352  -0.00352  -1.56040
   Z12       -0.65986   0.00698   0.00000  -0.01069  -0.01069  -0.67055
   X13        4.07371  -0.00147   0.00000  -0.00439  -0.00439   4.06932
   Y13        0.23058  -0.00198   0.00000  -0.00374  -0.00374   0.22683
   Z13       -0.38455  -0.00294   0.00000  -0.04980  -0.04980  -0.43435
   X14        6.30651   0.00862   0.00000   0.01352   0.01352   6.32003
   Y14       -4.44402  -0.00204   0.00000   0.01636   0.01636  -4.42766
   Z14       -0.78310   0.00080   0.00000  -0.00579  -0.00579  -0.78890
   X15        8.14289  -0.00318   0.00000  -0.00696  -0.00696   8.13593
   Y15       -3.61136   0.00315   0.00000   0.05261   0.05261  -3.55875
   Z15       -1.29883   0.00128   0.00000  -0.00166  -0.00166  -1.30049
   X16        4.37491   0.00261   0.00000   0.00505   0.00505   4.37996
   Y16       -3.24487  -0.00305   0.00000  -0.00761  -0.00761  -3.25249
   Z16       -2.22453  -0.00732   0.00000  -0.01945  -0.01945  -2.24399
   X17        0.62152  -0.00118   0.00000  -0.00966  -0.00966   0.61186
   Y17       -0.95943   0.00606   0.00000  -0.01077  -0.01077  -0.97019
   Z17       -1.68002  -0.00682   0.00000  -0.01775  -0.01775  -1.69777
   X18       -1.11771  -0.00886   0.00000  -0.02022  -0.02022  -1.13794
   Y18       -2.90198  -0.00287   0.00000  -0.00237  -0.00237  -2.90435
   Z18       -2.09931  -0.00331   0.00000  -0.00504  -0.00504  -2.10435
   X19       -0.53772  -0.00136   0.00000  -0.01551  -0.01551  -0.55323
   Y19       -4.76948   0.00588   0.00000   0.01915   0.01915  -4.75034
   Z19       -1.46555  -0.00106   0.00000   0.00142   0.00142  -1.46413
   X20       -3.32213   0.00370   0.00000  -0.00502  -0.00502  -3.32715
   Y20       -2.53160  -0.00480   0.00000  -0.00587  -0.00587  -2.53747
   Z20       -3.26998   0.00164   0.00000  -0.00001  -0.00001  -3.26999
   X21       -4.58185   0.00468   0.00000   0.01420   0.01420  -4.56765
   Y21       -4.14261   0.00495   0.00000   0.00452   0.00452  -4.13810
   Z21       -3.53525   0.00090   0.00000   0.00237   0.00237  -3.53287
   X22       -4.13344  -0.00375   0.00000   0.00002   0.00002  -4.13342
   Y22        0.00771  -0.00168   0.00000  -0.01209  -0.01209  -0.00438
   Z22       -4.26036   0.00081   0.00000  -0.00324  -0.00324  -4.26360
   X23       -4.81474   0.00176   0.00000   0.01316   0.01316  -4.80158
   Y23       -0.21066  -0.00075   0.00000  -0.01914  -0.01914  -0.22980
   Z23       -6.21564   0.00254   0.00000   0.00215   0.00215  -6.21349
   X24       -5.79851   0.00479   0.00000   0.02502   0.02502  -5.77349
   Y24        0.70307   0.00007   0.00000   0.01326   0.01326   0.71634
   Z24       -3.20165  -0.00191   0.00000  -0.00855  -0.00855  -3.21020
   X25       -1.96983   0.00103   0.00000  -0.00051  -0.00051  -1.97033
   Y25        1.86462   0.00095   0.00000  -0.01958  -0.01958   1.84504
   Z25       -4.11353  -0.00128   0.00000  -0.00314  -0.00314  -4.11666
   X26        0.19057  -0.00241   0.00000  -0.01796  -0.01796   0.17261
   Y26        1.33422  -0.00330   0.00000  -0.02488  -0.02488   1.30935
   Z26       -2.87776  -0.00039   0.00000  -0.00247  -0.00247  -2.88023
   X27        1.71879  -0.00554   0.00000  -0.03839  -0.03839   1.68040
   Y27        2.72064  -0.00412   0.00000  -0.02711  -0.02711   2.69352
   Z27       -2.80326   0.00150   0.00000   0.02362   0.02362  -2.77964
   X28       -2.22702   0.01907   0.00000   0.03316   0.03316  -2.19386
   Y28        4.41211  -0.00298   0.00000  -0.02000  -0.02000   4.39210
   Z28       -5.28330   0.01681   0.00000   0.01965   0.01965  -5.26365
   X29       -0.87939  -0.00778   0.00000   0.01932   0.01932  -0.86007
   Y29        6.19533  -0.00512   0.00000  -0.01718  -0.01718   6.17815
   Z29       -4.67493  -0.00542   0.00000   0.00051   0.00051  -4.67442
   X30       -4.11701  -0.00916   0.00000   0.02780   0.02780  -4.08921
   Y30        4.68151   0.00206   0.00000   0.01048   0.01048   4.69198
   Z30       -7.00204  -0.01881   0.00000   0.00216   0.00216  -6.99988
   X31       -4.05998  -0.00125   0.00000   0.01902   0.01902  -4.04096
   Y31        6.35385  -0.00584   0.00000  -0.00814  -0.00814   6.34571
   Z31       -7.94598   0.00297   0.00000  -0.00292  -0.00292  -7.94890
   X32       -4.78258   0.00507   0.00000   0.02085   0.02085  -4.76173
   Y32        3.17625   0.00898   0.00000   0.01869   0.01869   3.19493
   Z32       -8.01088   0.00975   0.00000   0.05112   0.05112  -7.95976
   X33        0.99329  -0.00589   0.00000  -0.02276  -0.02276   0.97053
   Y33        3.98483  -0.01286   0.00000  -0.03071  -0.03071   3.95412
   Z33        7.01806  -0.00283   0.00000  -0.02664  -0.02664   6.99142
   X34       -2.02673   0.00000   0.00000  -0.01868  -0.01868  -2.04541
   Y34        4.20717  -0.01150   0.00000   0.01411   0.01411   4.22128
   Z34        2.76668   0.00544   0.00000   0.02539   0.02539   2.79207
   X35       -3.41256  -0.00897   0.00000  -0.02496  -0.02496  -3.43752
   Y35        5.63573   0.00255   0.00000   0.01849   0.01849   5.65422
   Z35        0.81296  -0.00569   0.00000   0.03037   0.03037   0.84333
   X36       -7.31606  -0.00248   0.00000   0.01315   0.01315  -7.30290
   Y36        6.39154   0.00218   0.00000  -0.01081  -0.01081   6.38074
   Z36       -1.73236  -0.00430   0.00000  -0.00682  -0.00682  -1.73917
   X37       -5.70617   0.00837   0.00000   0.00230   0.00230  -5.70387
   Y37        4.90121  -0.00312   0.00000   0.01004   0.01004   4.91126
   Z37        0.03738   0.00609   0.00000   0.02039   0.02039   0.05778
   X38       -2.16074   0.00128   0.00000  -0.00040  -0.00040  -2.16115
   Y38        1.93272   0.01058   0.00000   0.01794   0.01794   1.95066
   Z38        3.10596  -0.00424   0.00000  -0.01705  -0.01705   3.08891
   X39       -0.23726   0.00571   0.00000   0.02989   0.02989  -0.20737
   Y39        6.21396   0.00320   0.00000   0.00431   0.00431   6.21827
   Z39        4.73945   0.00256   0.00000  -0.00380  -0.00380   4.73565
   X40       -0.59695   0.00574   0.00000  -0.00138  -0.00138  -0.59833
   Y40        3.09076   0.00260   0.00000  -0.02369  -0.02369   3.06706
   Z40        8.01088  -0.00346   0.00000  -0.03058  -0.03058   7.98031
   X41        2.08704  -0.00232   0.00000   0.01038   0.01038   2.09742
   Y41        2.51231   0.00573   0.00000  -0.00131  -0.00131   2.51100
   Z41        6.04521   0.00479   0.00000   0.01201   0.01201   6.05722
   X42       -7.91860   0.00065   0.00000   0.01709   0.01709  -7.90151
   Y42        5.24743   0.00081   0.00000  -0.02927  -0.02927   5.21816
   Z42       -3.35507   0.00435   0.00000   0.01938   0.01938  -3.33568
   X43       -6.28151  -0.00284   0.00000   0.00643   0.00643  -6.27508
   Y43        8.02312  -0.00317   0.00000  -0.02063  -0.02063   8.00250
   Z43       -2.48709   0.00323   0.00000   0.00037   0.00037  -2.48672
   X44       -9.03887   0.00534   0.00000   0.02667   0.02667  -9.01220
   Y44        7.04396  -0.00132   0.00000  -0.00112  -0.00112   7.04284
   Z44       -0.75945  -0.00315   0.00000  -0.02737  -0.02737  -0.78682
   X45       -6.45821   0.00215   0.00000   0.00585   0.00585  -6.45236
   Y45        3.11835   0.00693   0.00000   0.03309   0.03309   3.15144
   Z45        0.78765  -0.00172   0.00000   0.02199   0.02199   0.80964
   X46       -2.54919  -0.00303   0.00000  -0.03035  -0.03035  -2.57954
   Y46        7.37461  -0.00471   0.00000   0.00677   0.00677   7.38139
   Z46        0.10269   0.00364   0.00000   0.04592   0.04592   0.14861
   X47        4.76548   0.00131   0.00000  -0.00752  -0.00752   4.75796
   Y47       -8.18178  -0.00460   0.00000  -0.02278  -0.02278  -8.20456
   Z47       -0.68809  -0.00103   0.00000  -0.01779  -0.01779  -0.70588
   X48        2.19013  -0.00181   0.00000  -0.04255  -0.04255   2.14758
   Y48        4.95723   0.00315   0.00000   0.02306   0.02306   4.98029
   Z48        8.38363  -0.00443   0.00000  -0.05418  -0.05418   8.32946
         Item               Value     Threshold  Converged?
 Maximum Force            0.025979     0.000450     NO 
 RMS     Force            0.006086     0.000300     NO 
 Maximum Displacement     0.111029     0.001800     NO 
 RMS     Displacement     0.025006     0.001200     NO 
 Predicted change in Energy=-5.874356D-03
 GradGradGradGradGradGradGradGradGradGradGradGradGradGradGradGradGradGrad

 Leave Link  103 at Sun Feb 19 04:03:00 2023, MaxMem=  2684354560 cpu:               1.4 elap:               0.1
 (Enter /storage/apps/GAUSSIAN/G16_RevA03/g16/l9999.exe)

 Test job not archived.
 1\1\GINC-T027\Force\RM062X\def2TZVP\C16H24N2O5S1\LV87696\19-Feb-2023\0
 \\#P M062X/Def2TZVP scf=(direct,conver=8) EmpiricalDispersion=GD3 NoSy
 mm Force pop=(NBORead) Charge Prop=(Field,Read)\\Gaussian run using SA
 NDER external interface, route from template gau_job.tpl\\0,1\C,3.4152
 655553,-3.8363397494,-0.7468395756\H,3.4719591388,-3.9625724486,-1.837
 1183985\H,4.3221872219,-4.2456539999,-0.2779000981\C,1.5951630064,-1.5
 52997819,0.9918889286\H,0.9747529285,-2.4621144687,0.8751999612\O,1.12
 57435067,-0.7830471317,2.0586726584\H,0.5397589141,-0.0910291338,1.705
 614679\C,3.0526368677,-2.0143640838,1.0777569853\H,3.1739065534,-2.906
 6090263,1.7211998611\O,3.8410701161,-0.9543780044,1.5391571598\H,4.783
 161422,-1.1369638142,1.3002397195\C,1.609868079,-0.8238669524,-0.34918
 27326\H,2.1557151544,0.1220160346,-0.2034940522\C,3.3372637875,-2.3516
 719115,-0.4144008817\H,4.3090331826,-1.911047334,-0.6873128769\O,2.315
 1039209,-1.7171119925,-1.1771731789\N,0.3288922251,-0.5077077328,-0.88
 90285\C,-0.5914690698,-1.5356591183,-1.1109070518\H,-0.284549941,-2.52
 39022662,-0.7755370067\C,-1.7579962335,-1.3396637961,-1.7304012944\H,-
 2.4246114939,-2.1921771453,-1.8707729689\C,-2.1873221523,0.0040825734,
 -2.2544879362\H,-2.5478486035,-0.1114778633,-3.2891749332\H,-3.0684377
 498,0.3720495948,-1.6942395588\C,-1.0423878743,0.9867130723,-2.1767845
 001\C,0.1008442731,0.7060395288,-1.5228440314\H,0.9095439947,1.4397002
 747,-1.4834208909\C,-1.178488614,2.3347856208,-2.7958006845\O,-0.46535
 08533,3.2784290914,-2.4738674471\N,-2.1786293486,2.4773459418,-3.70532
 10416\H,-2.1484490482,3.3623128049,-4.2048304135\H,-2.5308348705,1.680
 7976446,-4.2391773098\C,0.5256266853,2.1086807401,3.7137976873\C,-1.07
 24993538,2.226337245,1.4640656787\C,-1.8058484723,2.9823012609,0.43019
 93118\C,-3.8714905115,3.3822596318,-0.9167229934\C,-3.0195738992,2.593
 6112692,0.0197830546\O,-1.1434169698,1.0227496307,1.6436016591\S,-0.12
 5551737,3.2882851071,2.5080102273\H,-0.3158935599,1.635558482,4.239177
 3098\H,1.104414362,1.3294566851,3.1989894804\H,-4.1903435553,2.7768206
 473,-1.775424393\H,-3.324032531,4.2456539999,-1.3161107774\H,-4.783161
 422,3.7275006756,-0.4018831153\H,-3.4175395732,1.6501589624,0.41680515
 83\H,-1.3489719033,3.9024761097,0.0543424874\H,2.5217845998,-4.3296136
 778,-0.3641221683\H,1.1589674624,2.6232529471,4.4364282318\\Version=ES
 64L-G16RevA.03\HF=-1507.9082145\RMSD=9.925e-09\RMSF=6.086e-03\Dipole=-
 0.1659081,-0.9812528,-0.8276834\Quadrupole=10.6117494,-7.3688828,-3.24
 28666,-9.9745944,9.856966,0.3989952\PG=C01 [X(C16H24N2O5S1)]\\@


 MOM AND DAD WENT TO ALPHA CENTAURI AND ALL
 I GOT WAS THIS DUMB T-SHIRT.
 Job cpu time:       0 days  2 hours 54 minutes 49.3 seconds.
 Elapsed time:       0 days  0 hours 10 minutes 56.7 seconds.
 File lengths (MBytes):  RWF=    435 Int=      0 D2E=      0 Chk=     48 Scr=      1
 Normal termination of Gaussian 16 at Sun Feb 19 04:03:00 2023.
