 Entering Gaussian System, Link 0=g16
 Initial command:
 /storage/apps/GAUSSIAN/G16_RevA03/g16/l1.exe "/scratch/tmp/1267163/Gau-215756.inp" -scrdir="/scratch/tmp/1267163/"
 Entering Link 1 = /storage/apps/GAUSSIAN/G16_RevA03/g16/l1.exe PID=    215757.
  
 Copyright (c) 1988,1990,1992,1993,1995,1998,2003,2009,2016,
            Gaussian, Inc.  All Rights Reserved.
  
 This is part of the Gaussian(R) 16 program.  It is based on
 the Gaussian(R) 09 system (copyright 2009, Gaussian, Inc.),
 the Gaussian(R) 03 system (copyright 2003, Gaussian, Inc.),
 the Gaussian(R) 98 system (copyright 1998, Gaussian, Inc.),
 the Gaussian(R) 94 system (copyright 1995, Gaussian, Inc.),
 the Gaussian 92(TM) system (copyright 1992, Gaussian, Inc.),
 the Gaussian 90(TM) system (copyright 1990, Gaussian, Inc.),
 the Gaussian 88(TM) system (copyright 1988, Gaussian, Inc.),
 the Gaussian 86(TM) system (copyright 1986, Carnegie Mellon
 University), and the Gaussian 82(TM) system (copyright 1983,
 Carnegie Mellon University). Gaussian is a federally registered
 trademark of Gaussian, Inc.
  
 This software contains proprietary and confidential information,
 including trade secrets, belonging to Gaussian, Inc.
  
 This software is provided under written license and may be
 used, copied, transmitted, or stored only in accord with that
 written license.
  
 The following legend is applicable only to US Government
 contracts under FAR:
  
                    RESTRICTED RIGHTS LEGEND
  
 Use, reproduction and disclosure by the US Government is
 subject to restrictions as set forth in subparagraphs (a)
 and (c) of the Commercial Computer Software - Restricted
 Rights clause in FAR 52.227-19.
  
 Gaussian, Inc.
 340 Quinnipiac St., Bldg. 40, Wallingford CT 06492
  
  
 ---------------------------------------------------------------
 Warning -- This program may not be used in any manner that
 competes with the business of Gaussian, Inc. or will provide
 assistance to any competitor of Gaussian, Inc.  The licensee
 of this program is prohibited from giving any competitor of
 Gaussian, Inc. access to this program.  By using this program,
 the user acknowledges that Gaussian, Inc. is engaged in the
 business of creating and licensing software in the field of
 computational chemistry and represents and warrants to the
 licensee that it is not a competitor of Gaussian, Inc. and that
 it will not use this program in any manner prohibited above.
 ---------------------------------------------------------------
  

 Cite this work as:
 Gaussian 16, Revision A.03,
 M. J. Frisch, G. W. Trucks, H. B. Schlegel, G. E. Scuseria, 
 M. A. Robb, J. R. Cheeseman, G. Scalmani, V. Barone, 
 G. A. Petersson, H. Nakatsuji, X. Li, M. Caricato, A. V. Marenich, 
 J. Bloino, B. G. Janesko, R. Gomperts, B. Mennucci, H. P. Hratchian, 
 J. V. Ortiz, A. F. Izmaylov, J. L. Sonnenberg, D. Williams-Young, 
 F. Ding, F. Lipparini, F. Egidi, J. Goings, B. Peng, A. Petrone, 
 T. Henderson, D. Ranasinghe, V. G. Zakrzewski, J. Gao, N. Rega, 
 G. Zheng, W. Liang, M. Hada, M. Ehara, K. Toyota, R. Fukuda, 
 J. Hasegawa, M. Ishida, T. Nakajima, Y. Honda, O. Kitao, H. Nakai, 
 T. Vreven, K. Throssell, J. A. Montgomery, Jr., J. E. Peralta, 
 F. Ogliaro, M. J. Bearpark, J. J. Heyd, E. N. Brothers, K. N. Kudin, 
 V. N. Staroverov, T. A. Keith, R. Kobayashi, J. Normand, 
 K. Raghavachari, A. P. Rendell, J. C. Burant, S. S. Iyengar, 
 J. Tomasi, M. Cossi, J. M. Millam, M. Klene, C. Adamo, R. Cammi, 
 J. W. Ochterski, R. L. Martin, K. Morokuma, O. Farkas, 
 J. B. Foresman, and D. J. Fox, Gaussian, Inc., Wallingford CT, 2016.
 
 ******************************************
 Gaussian 16:  ES64L-G16RevA.03 25-Dec-2016
                19-Feb-2023 
 ******************************************
 %chk=gau_job.chk
 %NProcShared=16
 Will use up to   16 processors via shared memory.
 %mem=20GB
 ----------------------------------------------------------------------
 #P M062X/Def2TZVP scf=(direct,conver=8) EmpiricalDispersion=GD3 NoSymm
  Force pop=(NBORead) Charge Prop=(Field,Read)
 ----------------------------------------------------------------------
 1/10=7,18=10,28=-2,30=1,38=1,125=101/1,3;
 2/12=2,15=1,17=6,18=5,29=2,40=1/2;
 3/5=44,7=101,11=2,25=1,30=1,71=1,74=-55,124=31/1,2,3;
 4//1;
 5/5=2,6=8,38=5/2;
 6/7=2,8=2,9=2,10=2,14=2,15=1,28=1,40=2/1,2,7;
 7/7=1,16=-2,29=1,30=1/1,2,3,16;
 1/10=7,18=10,28=-2,30=1/3;
 99/12=1/99;
 Leave Link    1 at Sun Feb 19 04:26:33 2023, MaxMem=  2684354560 cpu:               0.9 elap:               0.1
 (Enter /storage/apps/GAUSSIAN/G16_RevA03/g16/l101.exe)
 ----------------------------------------------------------------------
 Gaussian run using SANDER external interface, route from template gau_
 job.tpl
 ----------------------------------------------------------------------
 Symbolic Z-matrix:
 Charge =  0 Multiplicity = 1
 C                     3.38711  -3.69403  -0.55987 
 H                     3.46774  -3.84999  -1.64432 
 H                     4.29468  -4.06781  -0.06413 
 C                     1.53325  -1.39403   1.14577 
 H                     0.92233  -2.30829   1.00752 
 O                     1.06217  -0.63761   2.21403 
 H                     0.41723   0.02552   1.90029 
 C                     2.99268  -1.85241   1.23108 
 H                     3.11421  -2.73718   1.88259 
 O                     3.77967  -0.7875    1.67932 
 H                     4.72311  -0.96395   1.43685 
 C                     1.57708  -0.67362  -0.19824 
 H                     2.16608   0.24808  -0.06999 
 C                     3.27183  -2.2072   -0.26047 
 H                     4.22555  -1.74074  -0.5527 
 O                     2.22062  -1.60658  -1.02169 
 N                     0.29977  -0.29147  -0.74342 
 C                    -0.72684  -1.21359  -0.81329 
 H                    -0.47396  -2.23158  -0.52334 
 C                    -1.94209  -0.88023  -1.29551 
 H                    -2.69993  -1.65751  -1.36097 
 C                    -2.20786   0.47601  -1.7571 
 H                    -3.03486   0.60092  -2.46091 
 H                    -2.75139   1.27616  -0.73054 
 C                    -1.0201    1.26892  -1.97308 
 C                     0.15397   0.9171   -1.37924 
 H                     1.03943   1.5485   -1.47552 
 C                    -1.07182   2.5393   -2.75984 
 O                    -0.33397   3.47432  -2.49636 
 N                    -1.97826   2.58382  -3.76536 
 H                    -1.79936   3.35291  -4.41682 
 H                    -2.33004   1.72311  -4.19898 
 C                     0.48744   2.22451   3.86687 
 C                    -1.16346   2.23029   1.63688 
 C                    -1.81521   2.83847   0.52407 
 C                    -3.81602   3.21788  -0.92755 
 C                    -3.02481   2.32023   0.01577 
 O                    -1.28436   1.04647   1.98244 
 S                    -0.17623   3.35627   2.61822 
 H                    -0.3481    1.76984   4.41682 
 H                     1.05507   1.42208   3.37679 
 H                    -4.1239    2.69589  -1.84216 
 H                    -3.20533   4.06781  -1.26265 
 H                    -4.72311   3.61145  -0.44397 
 H                    -3.61212   1.7201    0.72835 
 H                    -1.38675   3.75508   0.11046 
 H                     2.50121  -4.19871  -0.17441 
 H                     1.13329   2.7582    4.56411 
 
 ITRead=  0  0  0  0  0  0  0  0  0  0  0  0  0  0  0  0  0  0  0  0
 ITRead=  0  0  0  0  0  0  0  0  0  0  0  0  0  0  0  0  0  0  0  0
 ITRead=  0  0  0  0  0  0  0  0
 MicOpt= -1 -1 -1 -1 -1 -1 -1 -1 -1 -1 -1 -1 -1 -1 -1 -1 -1 -1 -1 -1
 MicOpt= -1 -1 -1 -1 -1 -1 -1 -1 -1 -1 -1 -1 -1 -1 -1 -1 -1 -1 -1 -1
 MicOpt= -1 -1 -1 -1 -1 -1 -1 -1
 NAtoms=     48 NQM=       48 NQMF=       0 NMMI=      0 NMMIF=      0
                NMic=       0 NMicF=      0.
                    Isotopes and Nuclear Properties:
 (Nuclear quadrupole moments (NQMom) in fm**2, nuclear magnetic moments (NMagM)
  in nuclear magnetons)

  Atom         1           2           3           4           5           6           7           8           9          10
 IAtWgt=          12           1           1          12           1          16           1          12           1          16
 AtmWgt=  12.0000000   1.0078250   1.0078250  12.0000000   1.0078250  15.9949146   1.0078250  12.0000000   1.0078250  15.9949146
 NucSpn=           0           1           1           0           1           0           1           0           1           0
 AtZEff=  -0.0000000  -0.0000000  -0.0000000  -0.0000000  -0.0000000  -0.0000000  -0.0000000  -0.0000000  -0.0000000  -0.0000000
 NQMom=    0.0000000   0.0000000   0.0000000   0.0000000   0.0000000   0.0000000   0.0000000   0.0000000   0.0000000   0.0000000
 NMagM=    0.0000000   2.7928460   2.7928460   0.0000000   2.7928460   0.0000000   2.7928460   0.0000000   2.7928460   0.0000000
 AtZNuc=   6.0000000   1.0000000   1.0000000   6.0000000   1.0000000   8.0000000   1.0000000   6.0000000   1.0000000   8.0000000

  Atom        11          12          13          14          15          16          17          18          19          20
 IAtWgt=           1          12           1          12           1          16          14          12           1          12
 AtmWgt=   1.0078250  12.0000000   1.0078250  12.0000000   1.0078250  15.9949146  14.0030740  12.0000000   1.0078250  12.0000000
 NucSpn=           1           0           1           0           1           0           2           0           1           0
 AtZEff=  -0.0000000  -0.0000000  -0.0000000  -0.0000000  -0.0000000  -0.0000000  -0.0000000  -0.0000000  -0.0000000  -0.0000000
 NQMom=    0.0000000   0.0000000   0.0000000   0.0000000   0.0000000   0.0000000   2.0440000   0.0000000   0.0000000   0.0000000
 NMagM=    2.7928460   0.0000000   2.7928460   0.0000000   2.7928460   0.0000000   0.4037610   0.0000000   2.7928460   0.0000000
 AtZNuc=   1.0000000   6.0000000   1.0000000   6.0000000   1.0000000   8.0000000   7.0000000   6.0000000   1.0000000   6.0000000

  Atom        21          22          23          24          25          26          27          28          29          30
 IAtWgt=           1          12           1           1          12          12           1          12          16          14
 AtmWgt=   1.0078250  12.0000000   1.0078250   1.0078250  12.0000000  12.0000000   1.0078250  12.0000000  15.9949146  14.0030740
 NucSpn=           1           0           1           1           0           0           1           0           0           2
 AtZEff=  -0.0000000  -0.0000000  -0.0000000  -0.0000000  -0.0000000  -0.0000000  -0.0000000  -0.0000000  -0.0000000  -0.0000000
 NQMom=    0.0000000   0.0000000   0.0000000   0.0000000   0.0000000   0.0000000   0.0000000   0.0000000   0.0000000   2.0440000
 NMagM=    2.7928460   0.0000000   2.7928460   2.7928460   0.0000000   0.0000000   2.7928460   0.0000000   0.0000000   0.4037610
 AtZNuc=   1.0000000   6.0000000   1.0000000   1.0000000   6.0000000   6.0000000   1.0000000   6.0000000   8.0000000   7.0000000

  Atom        31          32          33          34          35          36          37          38          39          40
 IAtWgt=           1           1          12          12          12          12          12          16          32           1
 AtmWgt=   1.0078250   1.0078250  12.0000000  12.0000000  12.0000000  12.0000000  12.0000000  15.9949146  31.9720718   1.0078250
 NucSpn=           1           1           0           0           0           0           0           0           0           1
 AtZEff=  -0.0000000  -0.0000000  -0.0000000  -0.0000000  -0.0000000  -0.0000000  -0.0000000  -0.0000000  -0.0000000  -0.0000000
 NQMom=    0.0000000   0.0000000   0.0000000   0.0000000   0.0000000   0.0000000   0.0000000   0.0000000   0.0000000   0.0000000
 NMagM=    2.7928460   2.7928460   0.0000000   0.0000000   0.0000000   0.0000000   0.0000000   0.0000000   0.0000000   2.7928460
 AtZNuc=   1.0000000   1.0000000   6.0000000   6.0000000   6.0000000   6.0000000   6.0000000   8.0000000  16.0000000   1.0000000

  Atom        41          42          43          44          45          46          47          48
 IAtWgt=           1           1           1           1           1           1           1           1
 AtmWgt=   1.0078250   1.0078250   1.0078250   1.0078250   1.0078250   1.0078250   1.0078250   1.0078250
 NucSpn=           1           1           1           1           1           1           1           1
 AtZEff=  -0.0000000  -0.0000000  -0.0000000  -0.0000000  -0.0000000  -0.0000000  -0.0000000  -0.0000000
 NQMom=    0.0000000   0.0000000   0.0000000   0.0000000   0.0000000   0.0000000   0.0000000   0.0000000
 NMagM=    2.7928460   2.7928460   2.7928460   2.7928460   2.7928460   2.7928460   2.7928460   2.7928460
 AtZNuc=   1.0000000   1.0000000   1.0000000   1.0000000   1.0000000   1.0000000   1.0000000   1.0000000
 Background charge distribution read from input stream:
 Leave Link  101 at Sun Feb 19 04:26:33 2023, MaxMem=  2684354560 cpu:               1.5 elap:               0.1
 (Enter /storage/apps/GAUSSIAN/G16_RevA03/g16/l103.exe)

 GradGradGradGradGradGradGradGradGradGradGradGradGradGradGradGradGradGrad
 Berny optimization.
 Initialization pass.
 Trust Radius=3.00D-01 FncErr=1.00D-07 GrdErr=1.00D-07 EigMax=2.50D+02 EigMin=1.00D-04
 Number of steps in this run=      2 maximum allowed number of steps=      2.
 GradGradGradGradGradGradGradGradGradGradGradGradGradGradGradGradGradGrad

 Leave Link  103 at Sun Feb 19 04:26:33 2023, MaxMem=  2684354560 cpu:               0.3 elap:               0.0
 (Enter /storage/apps/GAUSSIAN/G16_RevA03/g16/l202.exe)
 ---------------------------------------------------------------------------------------------------
                            Z-MATRIX (ANGSTROMS AND DEGREES)
   CD    Cent   Atom    N1       Length/X        N2       Alpha/Y        N3        Beta/Z          J
 ---------------------------------------------------------------------------------------------------
      1      1  C        0   3.387108         -3.694028         -0.559868
      2      2  H        0   3.467736         -3.849989         -1.644321
      3      3  H        0   4.294684         -4.067809         -0.064132
      4      4  C        0   1.533255         -1.394033          1.145770
      5      5  H        0   0.922333         -2.308294          1.007518
      6      6  O        0   1.062169         -0.637613          2.214025
      7      7  H        0   0.417227          0.025520          1.900295
      8      8  C        0   2.992676         -1.852410          1.231083
      9      9  H        0   3.114211         -2.737175          1.882590
     10     10  O        0   3.779665         -0.787496          1.679317
     11     11  H        0   4.723113         -0.963949          1.436846
     12     12  C        0   1.577078         -0.673623         -0.198245
     13     13  H        0   2.166075          0.248080         -0.069991
     14     14  C        0   3.271831         -2.207201         -0.260472
     15     15  H        0   4.225552         -1.740744         -0.552704
     16     16  O        0   2.220621         -1.606579         -1.021692
     17     17  N        0   0.299768         -0.291475         -0.743418
     18     18  C        0  -0.726836         -1.213590         -0.813286
     19     19  H        0  -0.473961         -2.231578         -0.523343
     20     20  C        0  -1.942087         -0.880231         -1.295515
     21     21  H        0  -2.699930         -1.657506         -1.360972
     22     22  C        0  -2.207859          0.476013         -1.757100
     23     23  H        0  -3.034863          0.600918         -2.460914
     24     24  H        0  -2.751385          1.276162         -0.730544
     25     25  C        0  -1.020103          1.268918         -1.973077
     26     26  C        0   0.153966          0.917104         -1.379235
     27     27  H        0   1.039431          1.548500         -1.475521
     28     28  C        0  -1.071818          2.539298         -2.759836
     29     29  O        0  -0.333967          3.474322         -2.496357
     30     30  N        0  -1.978263          2.583822         -3.765359
     31     31  H        0  -1.799361          3.352915         -4.416818
     32     32  H        0  -2.330041          1.723113         -4.198982
     33     33  C        0   0.487440          2.224506          3.866872
     34     34  C        0  -1.163457          2.230286          1.636875
     35     35  C        0  -1.815214          2.838475          0.524071
     36     36  C        0  -3.816017          3.217878         -0.927554
     37     37  C        0  -3.024806          2.320228          0.015774
     38     38  O        0  -1.284364          1.046475          1.982443
     39     39  S        0  -0.176233          3.356266          2.618222
     40     40  H        0  -0.348096          1.769842          4.416818
     41     41  H        0   1.055069          1.422081          3.376788
     42     42  H        0  -4.123903          2.695894         -1.842155
     43     43  H        0  -3.205325          4.067809         -1.262649
     44     44  H        0  -4.723113          3.611451         -0.443968
     45     45  H        0  -3.612124          1.720101          0.728353
     46     46  H        0  -1.386746          3.755082          0.110463
     47     47  H        0   2.501208         -4.198710         -0.174409
     48     48  H        0   1.133294          2.758196          4.564115
 ---------------------------------------------------------------------------------------------------
                         Z-Matrix orientation:                         
 ---------------------------------------------------------------------
 Center     Atomic      Atomic             Coordinates (Angstroms)
 Number     Number       Type             X           Y           Z
 ---------------------------------------------------------------------
      1          6           0        3.387108   -3.694028   -0.559868
      2          1           0        3.467736   -3.849989   -1.644321
      3          1           0        4.294684   -4.067809   -0.064132
      4          6           0        1.533255   -1.394033    1.145770
      5          1           0        0.922333   -2.308294    1.007518
      6          8           0        1.062169   -0.637613    2.214025
      7          1           0        0.417227    0.025520    1.900295
      8          6           0        2.992676   -1.852410    1.231083
      9          1           0        3.114211   -2.737175    1.882590
     10          8           0        3.779665   -0.787496    1.679317
     11          1           0        4.723113   -0.963949    1.436846
     12          6           0        1.577078   -0.673623   -0.198245
     13          1           0        2.166075    0.248080   -0.069991
     14          6           0        3.271831   -2.207201   -0.260472
     15          1           0        4.225552   -1.740744   -0.552704
     16          8           0        2.220621   -1.606579   -1.021692
     17          7           0        0.299768   -0.291475   -0.743418
     18          6           0       -0.726836   -1.213590   -0.813286
     19          1           0       -0.473961   -2.231578   -0.523343
     20          6           0       -1.942087   -0.880231   -1.295515
     21          1           0       -2.699930   -1.657506   -1.360972
     22          6           0       -2.207859    0.476013   -1.757100
     23          1           0       -3.034863    0.600918   -2.460914
     24          1           0       -2.751385    1.276162   -0.730544
     25          6           0       -1.020103    1.268918   -1.973077
     26          6           0        0.153966    0.917104   -1.379235
     27          1           0        1.039431    1.548500   -1.475521
     28          6           0       -1.071818    2.539298   -2.759836
     29          8           0       -0.333967    3.474322   -2.496357
     30          7           0       -1.978263    2.583822   -3.765359
     31          1           0       -1.799361    3.352915   -4.416818
     32          1           0       -2.330041    1.723113   -4.198982
     33          6           0        0.487440    2.224506    3.866872
     34          6           0       -1.163457    2.230286    1.636875
     35          6           0       -1.815214    2.838475    0.524071
     36          6           0       -3.816017    3.217878   -0.927554
     37          6           0       -3.024806    2.320228    0.015774
     38          8           0       -1.284364    1.046475    1.982443
     39         16           0       -0.176233    3.356266    2.618222
     40          1           0       -0.348096    1.769842    4.416818
     41          1           0        1.055069    1.422081    3.376788
     42          1           0       -4.123903    2.695894   -1.842155
     43          1           0       -3.205325    4.067809   -1.262649
     44          1           0       -4.723113    3.611451   -0.443968
     45          1           0       -3.612124    1.720101    0.728353
     46          1           0       -1.386746    3.755082    0.110463
     47          1           0        2.501208   -4.198710   -0.174409
     48          1           0        1.133294    2.758196    4.564115
 ---------------------------------------------------------------------
                    Distance matrix (angstroms):
                    1          2          3          4          5
     1  C    0.000000
     2  H    1.098573   0.000000
     3  H    1.099619   1.796743   0.000000
     4  C    3.411151   4.190292   4.029694   0.000000
     5  H    3.232967   3.985995   3.951845   1.108248   0.000000
     6  O    4.737246   5.567131   5.235017   1.391137   2.065524
     7  H    5.357951   6.073671   5.970678   1.957028   2.549289
     8  C    2.598969   3.533263   2.877638   1.532089   2.131697
     9  H    2.637355   3.715163   2.637012   2.201444   2.398754
    10  O    3.689984   4.530202   3.750375   2.387241   3.305827
    11  H    3.636634   4.404405   3.474253   3.231856   4.054321
    12  C    3.539749   3.969260   4.350157   1.525545   2.134176
    13  H    4.155853   4.578974   4.812267   2.138943   3.040226
    14  C    1.521046   2.156889   2.132285   2.379371   2.671734
    15  H    2.125644   2.492955   2.378805   3.202107   3.696981
    16  O    2.435449   2.641183   3.358022   2.283756   2.509113
    17  N    4.598122   4.848780   5.539087   2.511206   2.742430
    18  C    4.810543   5.023510   5.824385   2.996410   2.689510
    19  H    4.128915   4.405998   5.130555   2.741594   2.073417
    20  C    6.071157   6.181207   7.111559   4.278068   3.943124
    21  H    6.468479   6.551899   7.511057   4.926766   4.376535
    22  C    7.079990   7.137184   8.111444   5.091135   5.019321
    23  H    7.956271   7.922196   9.014646   6.152699   6.012731
    24  H    7.900191   8.111096   8.868440   5.385966   5.418984
    25  C    6.786125   6.815570   7.769922   4.830958   5.045142
    26  C    5.690967   5.811757   6.612443   3.690453   4.085361
    27  H    5.816709   5.921895   6.643164   3.971591   4.588470
    28  C    7.973471   7.916749   8.928608   6.124644   6.455134
    29  O    8.305518   8.296050   9.177356   6.360227   6.877069
    30  N    8.858542   8.692044   9.863729   7.230026   7.424730
    31  H    9.562161   9.344029  10.542790   8.036308   8.299418
    32  H    8.676080   8.438008   9.722076   7.294384   7.344238
    33  C    7.939341   8.726677   8.339132   4.646714   5.376924
    34  C    7.786579   8.317688   8.505923   4.544131   5.034413
    35  C    8.420966   8.794716   9.239783   5.432575   5.849540
    36  C    9.989727  10.174555  10.936646   7.360918   7.532267
    37  C    8.809953   9.109368   9.715366   5.987365   6.163333
    38  O    7.124490   7.727304   7.840290   3.820350   4.132126
    39  S    8.514946   9.131150   9.071991   5.258879   5.990698
    40  H    8.280883   9.103872   8.701293   4.924362   5.465209
    41  H    6.863690   7.669890   7.243889   3.624445   4.421171
    42  H    9.944377  10.026001  10.944481   7.593328   7.656829
    43  H   10.207849  10.361802  11.129909   7.621440   7.927542
    44  H   10.916004  11.144682  11.850569   8.168493   8.307903
    45  H    8.942122   9.315573   9.830847   6.028847   6.071837
    46  H    8.872895   9.191429   9.669889   6.009297   6.549892
    47  H    1.090000   1.793439   1.801625   3.247463   2.731935
    48  H    8.542018   9.362820   8.832293   5.393149   6.193804
                    6          7          8          9         10
     6  O    0.000000
     7  H    0.976792   0.000000
     8  C    2.483700   3.256902   0.000000
     9  H    2.954470   3.860897   1.105460   0.000000
    10  O    2.773656   3.466385   1.397966   2.070121   0.000000
    11  H    3.756729   4.442352   1.956045   2.435485   0.989960
    12  C    2.466876   2.497584   2.331616   3.309215   2.896480
    13  H    2.686967   2.643867   2.605403   3.690974   2.595414
    14  C    3.670062   4.219328   1.558377   2.213241   2.456876
    15  H    4.344961   4.862123   2.171255   2.856329   2.467674
    16  O    3.570822   3.801840   2.394054   3.242160   3.224433
    17  N    3.073684   2.665239   3.686044   4.560533   4.269118
    18  C    3.563271   3.194964   4.292122   4.933833   5.167513
    19  H    3.520455   3.429684   3.903761   4.349612   5.003041
    20  C    4.626152   4.074303   5.628562   6.254178   6.449548
    21  H    5.289061   4.815091   6.257995   6.744673   7.210092
    22  C    5.263371   4.524440   6.434000   7.203912   7.018252
    23  H    6.338350   5.591793   7.482037   8.235290   8.093640
    24  H    5.184227   4.304128   6.828629   7.572355   7.260905
    25  C    5.050004   4.314506   6.009303   6.928745   6.372331
    26  C    4.019141   3.408745   4.747867   5.723313   5.040447
    27  H    4.288631   3.755361   4.765193   5.826546   4.787355
    28  C    6.275823   5.500286   7.192680   8.180228   7.369568
    29  O    6.406629   5.638179   7.303043   8.345526   7.247159
    30  N    7.441431   6.662050   8.327954   9.281467   8.611854
    31  H    8.251106   7.476011   9.053056  10.045643   9.242911
    32  H    7.629337   6.901484   8.402457   9.301590   8.842289
    33  C    3.354689   2.950914   5.463043   5.954459   4.969537
    34  C    3.675779   2.725608   5.840078   6.560068   5.791655
    35  C    4.818553   3.845841   6.754263   7.565228   6.766456
    36  C    6.966422   6.009013   8.759329   9.559688   8.974029
    37  C    5.503134   4.545843   7.422801   8.170058   7.663299
    38  O    2.897584   1.986078   5.221220   5.802882   5.394416
    39  S    4.200962   3.458537   6.252715   6.964065   5.805294
    40  H    3.554853   3.156147   5.867740   6.222788   5.574254
    41  H    2.365249   2.130084   4.368142   4.875664   3.897058
    42  H    7.379716   6.462096   8.987634   9.786841   9.327442
    43  H    7.241530   6.282292   8.926529   9.804942   9.001069
    44  H    7.654342   6.691603   9.601717  10.350921   9.805933
    45  H    5.441971   4.525563   7.525886   8.151267   7.863265
    46  H    5.451415   4.513031   7.202714   8.096200   7.056070
    47  H    4.522927   5.146989   2.778862   2.596749   4.087436
    48  H    4.130314   3.882809   5.985323   6.427574   5.281787
                   11         12         13         14         15
    11  H    0.000000
    12  C    3.557435   0.000000
    13  H    3.205934   1.101319   0.000000
    14  C    2.555931   2.286465   2.699516   0.000000
    15  H    2.193008   2.877291   2.903425   1.101165   0.000000
    16  O    3.566489   1.400935   2.085299   1.430121   2.063419
    17  N    4.977122   1.440406   2.056143   3.568810   4.189097
    18  C    5.901471   2.444966   3.325343   4.157188   4.987178
    19  H    5.697262   2.596088   3.650209   3.755084   4.725167
    20  C    7.204005   3.692047   4.433057   5.478787   6.271525
    21  H    7.963063   4.540127   5.382926   6.097147   6.972986
    22  C    7.766154   4.251757   4.693569   6.282240   6.910380
    23  H    8.821991   5.292837   5.735047   7.245817   7.863732
    24  H    8.098382   4.777091   5.067021   6.973802   7.603355
    25  C    7.042570   3.697140   3.849101   5.782484   6.212280
    26  C    5.687335   2.439344   2.492047   4.553460   4.932051
    27  H    5.325767   2.618842   2.221696   4.534892   4.671412
    28  C    7.966561   4.888892   4.792588   6.902417   7.159073
    29  O    7.793740   5.112618   4.748273   7.090886   7.194714
    30  N    9.195545   5.997975   6.023867   7.924747   8.216468
    31  H    9.769512   6.738673   6.652788   8.596924   8.785006
    32  H    9.419652   6.084063   6.280076   7.895582   8.262533
    33  C    5.831997   5.109955   4.714124   6.665420   7.016362
    34  C    6.700362   4.394415   4.234185   6.554617   7.043064
    35  C    7.618484   4.936012   4.786827   7.207800   7.656340
    36  C    9.797694   6.690378   6.733539   8.950647   9.454908
    37  C    8.534372   5.494204   5.589848   7.760255   8.329607
    38  O    6.358400   3.987729   4.093342   6.031251   6.674933
    39  S    6.638034   5.219827   4.730087   7.150398   7.443789
    40  H    6.486217   5.565575   5.363607   7.127257   7.611742
    41  H    4.786550   4.176761   3.806954   5.596015   5.957880
    42  H   10.120078   6.823289   6.978265   9.013265   9.542528
    43  H    9.770670   6.818029   6.698112   9.073790   9.458396
    44  H   10.663157   7.623296   7.675483   9.889869  10.427676
    45  H    8.785344   5.789328   6.015961   7.986884   8.663009
    46  H    7.833193   5.337882   4.995414   7.575536   7.883006
    47  H    4.242250   3.644286   4.460623   2.137142   3.026230
    48  H    6.043258   5.886798   5.370499   7.246043   7.482269
                   16         17         18         19         20
    16  O    0.000000
    17  N    2.344485   0.000000
    18  C    2.980835   1.381700   0.000000
    19  H    2.810648   2.100260   1.088261   0.000000
    20  C    4.234465   2.382721   1.349262   2.139575   0.000000
    21  H    4.932497   3.353447   2.095261   2.446655   1.087551
    22  C    4.948681   2.811545   2.437000   3.443778   1.457084
    23  H    5.879159   3.855635   3.366616   4.281990   2.178559
    24  H    5.754634   3.430334   3.210064   4.187342   2.371537
    25  C    4.435754   2.385151   2.755715   3.827985   2.434746
    26  C    3.281445   1.373384   2.374019   3.322806   2.762401
    27  H    3.399367   2.113903   3.344757   4.181625   3.849751
    28  C    5.572217   3.736371   4.241726   5.302885   3.820312
    29  O    5.875042   4.201861   4.996358   6.039013   4.794810
    30  N    6.535886   4.752777   4.970024   5.996805   4.254539
    31  H    7.230749   5.584066   5.915127   6.935589   5.261409
    32  H    6.472291   4.787002   4.759982   5.709198   3.918932
    33  C    6.448192   5.255488   5.932862   6.328899   6.495555
    34  C    5.765544   3.763788   4.249024   5.005015   4.345168
    35  C    6.199665   3.984503   4.403671   5.348034   4.141952
    36  C    7.728212   5.411946   5.403148   6.405412   4.521229
    37  C    6.634052   4.295365   4.296030   5.245607   3.624182
    38  O    5.324325   3.424894   3.637971   4.204919   3.858731
    39  S    6.604825   4.983293   5.741254   6.417326   6.031872
    40  H    6.897530   5.594354   6.033101   6.358648   6.495725
    41  H    5.466070   4.525798   5.261052   5.558613   6.009492
    42  H    7.709567   5.449813   5.280407   6.272266   4.224667
    43  H    7.854784   5.617707   5.851326   6.905737   5.106853
    44  H    8.705001   6.368032   6.275958   7.225135   5.351116
    45  H    6.939047   4.638475   4.394096   5.199094   3.694156
    46  H    6.560662   4.466325   5.096714   6.088923   4.875582
    47  H    2.741488   4.520685   4.442901   3.583712   5.657919
    48  H    7.171804   6.177796   6.939136   7.305022   7.551912
                   21         22         23         24         25
    21  H    0.000000
    22  C    2.225074   0.000000
    23  H    2.534272   1.093111   0.000000
    24  H    3.001082   1.410488   1.878961   0.000000
    25  C    3.429351   1.444337   2.177950   2.131028   0.000000
    26  C    3.843653   2.432192   3.382104   2.998464   1.361932
    27  H    4.926907   3.431385   4.297532   3.872912   2.137149
    28  C    4.713888   2.559925   2.774926   2.921385   1.495169
    29  O    5.763899   3.612178   3.943671   3.714016   2.368208
    30  N    4.928564   2.920389   2.598054   3.393788   2.420603
    31  H    5.937469   3.939230   3.595206   4.336805   3.304869
    32  H    4.429414   2.744627   2.185629   3.522409   2.622382
    33  C    7.249806   6.476954   7.421828   5.703120   6.106623
    34  C    5.144196   3.960722   4.790498   3.006084   3.738520
    35  C    4.954791   3.307437   3.924836   2.211628   3.054744
    36  C    5.020246   3.285140   3.132072   2.223178   3.564927
    37  C    4.221770   2.685445   3.014981   1.312183   3.013240
    38  O    4.527003   3.893900   4.796477   3.092767   3.970574
    39  S    6.880475   5.618434   6.446808   4.708766   5.113625
    40  H    7.117633   6.576472   7.475848   5.702180   6.444632
    41  H    6.784559   6.156180   7.175000   5.601836   5.740283
    42  H    4.605576   2.933655   2.440859   2.266082   3.418622
    43  H    5.748419   3.760375   3.672087   2.877932   3.621283
    44  H    5.718048   4.228687   3.997695   3.069758   4.640896
    45  H    4.074997   3.114032   3.428881   1.751095   3.770924
    46  H    5.760701   3.861905   4.390560   2.952046   3.264441
    47  H    5.909102   6.821528   7.675455   7.607446   6.747576
    48  H    8.324583   7.505293   8.448574   6.732055   7.042013
                   26         27         28         29         30
    26  C    0.000000
    27  H    1.091779   0.000000
    28  C    2.457665   2.662427   0.000000
    29  O    2.832914   2.576260   1.219883   0.000000
    30  N    3.608037   3.927050   1.354512   2.259882   0.000000
    31  H    4.356096   4.468320   1.984158   2.418738   1.023675
    32  H    3.843295   4.336020   2.078564   3.154359   1.025961
    33  C    5.416839   5.413210   6.814957   6.536622   8.028683
    34  C    3.543582   3.873572   4.408509   4.395371   5.474763
    35  C    3.345431   3.716369   3.380265   3.423650   4.300075
    36  C    4.610677   5.163572   3.368733   3.827739   3.439841
    37  C    3.744248   4.397448   3.400906   3.857894   3.932137
    38  O    3.658744   4.196376   4.976234   5.182407   5.990172
    39  S    4.694487   4.637304   5.512986   5.118372   6.677880
    40  H    5.879920   6.057548   7.253978   7.120213   8.382603
    41  H    4.866903   4.853981   6.590143   6.374554   7.846082
    42  H    4.656023   5.301976   3.190906   3.923970   2.883581
    43  H    4.607100   4.940667   3.021550   3.181031   3.157761
    44  H    5.649790   6.206994   4.454740   4.847237   4.429656
    45  H    4.389780   5.150095   4.392232   4.921622   4.858905
    46  H    3.556278   3.642895   3.133037   2.825363   4.091911
    47  H    5.756101   6.071252   8.053055   8.503239   8.886130
    48  H    6.298580   6.160306   7.651842   7.246789   8.893386
                   31         32         33         34         35
    31  H    0.000000
    32  H    1.727810   0.000000
    33  C    8.667312   8.558482   0.000000
    34  C    6.189659   5.972887   2.774596   0.000000
    35  C    4.967624   4.880196   4.105300   1.425838   0.000000
    36  C    4.032382   3.891618   6.518670   3.819386   2.500876
    37  C    4.713389   4.313168   5.213059   2.469955   1.410694
    38  O    6.821689   6.305656   2.842203   1.239130   2.370636
    39  S    7.219858   7.333509   1.811208   1.790387   2.709212
    40  H    9.090953   8.840945   1.098763   2.933412   4.295101
    41  H    8.521514   8.303125   1.098304   2.932977   4.287504
    42  H    3.530447   3.117511   7.353889   4.591806   3.308988
    43  H    3.526555   3.858208   6.583789   3.994116   2.576052
    44  H    4.939504   4.836604   6.903392   4.348411   3.160770
    45  H    5.694294   5.091402   5.187597   2.661141   2.126354
    46  H    4.563799   4.856955   4.468317   2.169055   1.093081
    47  H    9.670572   8.637484   7.851427   7.618563   8.285007
    48  H    9.466326   9.479344   1.090000   3.757990   5.002209
                   36         37         38         39         40
    36  C    0.000000
    37  C    1.523700   0.000000
    38  O    4.426324   2.918796   0.000000
    39  S    5.083277   3.995056   2.639566   0.000000
    40  H    6.533422   5.180433   2.706666   2.404419   0.000000
    41  H    6.743866   5.361759   2.749222   2.415078   1.780863
    42  H    1.097159   2.191128   5.040945   5.992925   7.368110
    43  H    1.098916   2.172785   4.832099   4.974219   6.760234
    44  H    1.100716   2.182399   4.928648   5.487827   6.794081
    45  H    2.242083   1.101301   2.728550   4.248999   4.925559
    46  H    2.695816   2.179681   3.294138   2.813050   4.854346
    47  H    9.771404   8.548072   6.818689   8.487941   8.051181
    48  H    7.407119   6.178107   3.929388   2.420547   1.786913
                   41         42         43         44         45
    41  H    0.000000
    42  H    7.462019   0.000000
    43  H    6.831927   1.749789   0.000000
    44  H    7.264909   1.775451   1.783867   0.000000
    45  H    5.374544   2.796713   3.105046   2.487135   0.000000
    46  H    4.698323   3.525141   2.300101   3.385168   3.078189
    47  H    6.804087   9.706133  10.103668  10.642466   8.556876
    48  H    1.789153   8.287478   7.381726   7.752834   6.189484
                   46         47         48
    46  H    0.000000
    47  H    8.857773   0.000000
    48  H    5.213387   8.527798   0.000000
 Symmetry turned off by external request.
 Stoichiometry    C16H24N2O5S
 Framework group  C1[X(C16H24N2O5S)]
 Deg. of freedom   138
 Full point group                 C1      NOp   1
 Rotational constants (GHZ):           0.2893450           0.1667008           0.1254191
 Leave Link  202 at Sun Feb 19 04:26:33 2023, MaxMem=  2684354560 cpu:               0.2 elap:               0.0
 (Enter /storage/apps/GAUSSIAN/G16_RevA03/g16/l301.exe)
 Standard basis: def2TZVP (5D, 7F)
 Ernie: Thresh=  0.10000D-02 Tol=  0.10000D-05 Strict=F.
   894 basis functions,  1434 primitive gaussians,  1014 cartesian basis functions
    95 alpha electrons       95 beta electrons
       nuclear repulsion energy      2438.1576590604 Hartrees.
 IExCor= 4336 DFT=T Ex+Corr=M062X ExCW=0 ScaHFX=  0.540000
 ScaDFX=  1.000000  1.000000  1.000000  1.000000 ScalE2=  1.000000  1.000000
 IRadAn=      5 IRanWt=     -1 IRanGd=            0 ICorTp=0 IEmpDi=131
 NAtoms=   48 NActive=   48 NUniq=   48 SFac= 1.00D+00 NAtFMM=   60 NAOKFM=F Big=F
 Integral buffers will be    131072 words long.
 Raffenetti 2 integral format.
 Two-electron integral symmetry is turned off.
 R6Disp:  Grimme-D3 Dispersion energy=       -0.0041092108 Hartrees.
 Nuclear repulsion after empirical dispersion term =     2438.1535498496 Hartrees.
 Leave Link  301 at Sun Feb 19 04:26:33 2023, MaxMem=  2684354560 cpu:               0.8 elap:               0.1
 (Enter /storage/apps/GAUSSIAN/G16_RevA03/g16/l302.exe)
 NPDir=0 NMtPBC=     1 NCelOv=     1 NCel=       1 NClECP=     1 NCelD=      1
         NCelK=      1 NCelE2=     1 NClLst=     1 CellRange=     0.0.
 One-electron integrals computed using PRISM.
   1 Symmetry operations used in ECPInt.
 ECPInt:  NShTT=   65703 NPrTT=  200010 LenC2=   56033 LenP2D=  118850.
 LDataN:  DoStor=T MaxTD1= 6 Len=  172
 NBasis=   894 RedAO= T EigKep=  3.08D-05  NBF=   894
 NBsUse=   894 1.00D-06 EigRej= -1.00D+00 NBFU=   894
 Precomputing XC quadrature grid using
 IXCGrd= 4 IRadAn=           5 IRanWt=          -1 IRanGd=           0 AccXCQ= 0.00D+00.
 Generated NRdTot=       0 NPtTot=           0 NUsed=           0 NTot=          32
 NSgBfM=   996   994   995   995   996 MxSgAt=    48 MxSgA2=    48.
 Leave Link  302 at Sun Feb 19 04:26:35 2023, MaxMem=  2684354560 cpu:              19.2 elap:               1.2
 (Enter /storage/apps/GAUSSIAN/G16_RevA03/g16/l303.exe)
 DipDrv:  MaxL=1.
 Leave Link  303 at Sun Feb 19 04:26:35 2023, MaxMem=  2684354560 cpu:               2.1 elap:               0.2
 (Enter /storage/apps/GAUSSIAN/G16_RevA03/g16/l401.exe)
 ExpMin= 9.52D-02 ExpMax= 6.07D+04 ExpMxC= 2.07D+03 IAcc=3 IRadAn=         5 AccDes= 0.00D+00
 Harris functional with IExCor= 1009 and IRadAn=       5 diagonalized for initial guess.
 HarFok:  IExCor= 1009 AccDes= 0.00D+00 IRadAn=         5 IDoV= 1 UseB2=F ITyADJ=14
 ICtDFT=  3500011 ScaDFX=  1.000000  1.000000  1.000000  1.000000
 FoFCou: FMM=F IPFlag=           0 FMFlag=      100000 FMFlg1=           0
         NFxFlg=           0 DoJE=T BraDBF=F KetDBF=T FulRan=T
         wScrn=  0.000000 ICntrl=       500 IOpCl=  0 I1Cent=   200000004 NGrid=           0
         NMat0=    1 NMatS0=      1 NMatT0=    0 NMatD0=    1 NMtDS0=    0 NMtDT0=    0
 Symmetry not used in FoFCou.
 Harris En= -1507.18266232008    
 JPrj=0 DoOrth=F DoCkMO=F.
 Leave Link  401 at Sun Feb 19 04:26:39 2023, MaxMem=  2684354560 cpu:              59.9 elap:               3.8
 (Enter /storage/apps/GAUSSIAN/G16_RevA03/g16/l502.exe)
 Two-electron integral symmetry not used.
 Closed shell SCF:
 Using DIIS extrapolation, IDIIS=  1040.
 NGot=  2684354560 LenX=  2682275214 LenY=  2681246004
 Requested convergence on RMS density matrix=1.00D-08 within 128 cycles.
 Requested convergence on MAX density matrix=1.00D-06.
 Requested convergence on             energy=1.00D-06.
 No special actions if energy rises.
 Fock matrices will be formed incrementally for  20 cycles.
 Integral accuracy reduced to 1.0D-05 until final iterations.

 Cycle   1  Pass 0  IDiag  1:
 FoFJK:  IHMeth= 1 ICntrl=       0 DoSepK=F KAlg= 0 I1Cent=           0 FoldK=F
 IRaf= 780000000 NMat=       1 IRICut=       1 DoRegI=T DoRafI=F ISym2E= 0 IDoP0=0 IntGTp=1.
 FoFCou: FMM=F IPFlag=           0 FMFlag=      100000 FMFlg1=           0
         NFxFlg=           0 DoJE=F BraDBF=F KetDBF=F FulRan=T
         wScrn=  0.000000 ICntrl=         0 IOpCl=  0 I1Cent=           0 NGrid=           0
         NMat0=    1 NMatS0=      1 NMatT0=    0 NMatD0=    1 NMtDS0=    0 NMtDT0=    0
 Symmetry not used in FoFCou.
 E= -1507.11090801629    
 DIIS: error= 1.67D-02 at cycle   1 NSaved=   1.
 NSaved= 1 IEnMin= 1 EnMin= -1507.11090801629     IErMin= 1 ErrMin= 1.67D-02
 ErrMax= 1.67D-02  0.00D+00 EMaxC= 1.00D-01 BMatC= 9.87D-01 BMatP= 9.87D-01
 IDIUse=3 WtCom= 8.33D-01 WtEn= 1.67D-01
 Coeff-Com:  0.100D+01
 Coeff-En:   0.100D+01
 Coeff:      0.100D+01
 Gap=     0.267 Goal=   None    Shift=    0.000
 GapD=    0.267 DampG=1.000 DampE=0.500 DampFc=0.5000 IDamp=-1.
 Damping current iteration by 5.00D-01
 RMSDP=4.18D-03 MaxDP=1.19D+00              OVMax= 2.75D-01

 Cycle   2  Pass 0  IDiag  1:
 RMSU=  2.09D-03    CP:  1.02D+00
 E= -1507.43438371209     Delta-E=       -0.323475695801 Rises=F Damp=T
 DIIS: error= 4.48D-03 at cycle   2 NSaved=   2.
 NSaved= 2 IEnMin= 2 EnMin= -1507.43438371209     IErMin= 2 ErrMin= 4.48D-03
 ErrMax= 4.48D-03  0.00D+00 EMaxC= 1.00D-01 BMatC= 9.42D-02 BMatP= 9.87D-01
 IDIUse=3 WtCom= 9.55D-01 WtEn= 4.48D-02
 Coeff-Com:  0.192D-01 0.981D+00
 Coeff-En:   0.931D-01 0.907D+00
 Coeff:      0.225D-01 0.977D+00
 Gap=     0.290 Goal=   None    Shift=    0.000
 RMSDP=1.36D-03 MaxDP=3.92D-01 DE=-3.23D-01 OVMax= 2.10D-01

 Cycle   3  Pass 0  IDiag  1:
 RMSU=  1.11D-03    CP:  1.00D+00  6.34D-01
 E= -1507.80426376740     Delta-E=       -0.369880055309 Rises=F Damp=F
 DIIS: error= 4.12D-03 at cycle   3 NSaved=   3.
 NSaved= 3 IEnMin= 3 EnMin= -1507.80426376740     IErMin= 3 ErrMin= 4.12D-03
 ErrMax= 4.12D-03  0.00D+00 EMaxC= 1.00D-01 BMatC= 5.63D-02 BMatP= 9.42D-02
 IDIUse=3 WtCom= 9.59D-01 WtEn= 4.12D-02
 Coeff-Com: -0.735D-01 0.447D+00 0.626D+00
 Coeff-En:   0.000D+00 0.000D+00 0.100D+01
 Coeff:     -0.705D-01 0.429D+00 0.641D+00
 Gap=     0.183 Goal=   None    Shift=    0.000
 RMSDP=4.24D-04 MaxDP=5.50D-02 DE=-3.70D-01 OVMax= 8.23D-02

 Cycle   4  Pass 0  IDiag  1:
 RMSU=  3.56D-04    CP:  1.00D+00  7.33D-01  9.07D-01
 E= -1507.84534008968     Delta-E=       -0.041076322276 Rises=F Damp=F
 DIIS: error= 1.59D-03 at cycle   4 NSaved=   4.
 NSaved= 4 IEnMin= 4 EnMin= -1507.84534008968     IErMin= 4 ErrMin= 1.59D-03
 ErrMax= 1.59D-03  0.00D+00 EMaxC= 1.00D-01 BMatC= 9.61D-03 BMatP= 5.63D-02
 IDIUse=3 WtCom= 9.84D-01 WtEn= 1.59D-02
 Coeff-Com: -0.343D-01 0.909D-01 0.332D+00 0.611D+00
 Coeff-En:   0.000D+00 0.000D+00 0.106D+00 0.894D+00
 Coeff:     -0.338D-01 0.895D-01 0.329D+00 0.615D+00
 Gap=     0.181 Goal=   None    Shift=    0.000
 RMSDP=1.44D-04 MaxDP=1.65D-02 DE=-4.11D-02 OVMax= 2.20D-02

 Cycle   5  Pass 0  IDiag  1:
 RMSU=  9.52D-05    CP:  1.00D+00  7.18D-01  9.40D-01  7.30D-01
 E= -1507.85319160110     Delta-E=       -0.007851511422 Rises=F Damp=F
 DIIS: error= 2.87D-04 at cycle   5 NSaved=   5.
 NSaved= 5 IEnMin= 5 EnMin= -1507.85319160110     IErMin= 5 ErrMin= 2.87D-04
 ErrMax= 2.87D-04  0.00D+00 EMaxC= 1.00D-01 BMatC= 2.77D-04 BMatP= 9.61D-03
 IDIUse=3 WtCom= 9.97D-01 WtEn= 2.87D-03
 Coeff-Com: -0.797D-02 0.120D-01 0.969D-01 0.231D+00 0.668D+00
 Coeff-En:   0.000D+00 0.000D+00 0.000D+00 0.000D+00 0.100D+01
 Coeff:     -0.795D-02 0.119D-01 0.967D-01 0.230D+00 0.669D+00
 Gap=     0.182 Goal=   None    Shift=    0.000
 RMSDP=4.08D-05 MaxDP=5.67D-03 DE=-7.85D-03 OVMax= 5.79D-03

 Cycle   6  Pass 0  IDiag  1:
 RMSU=  3.23D-05    CP:  1.00D+00  7.08D-01  9.50D-01  7.53D-01  9.53D-01
 E= -1507.85346694774     Delta-E=       -0.000275346638 Rises=F Damp=F
 DIIS: error= 1.28D-04 at cycle   6 NSaved=   6.
 NSaved= 6 IEnMin= 6 EnMin= -1507.85346694774     IErMin= 6 ErrMin= 1.28D-04
 ErrMax= 1.28D-04  0.00D+00 EMaxC= 1.00D-01 BMatC= 4.57D-05 BMatP= 2.77D-04
 IDIUse=3 WtCom= 9.99D-01 WtEn= 1.28D-03
 Coeff-Com:  0.129D-02-0.652D-02 0.804D-03 0.137D-01 0.277D+00 0.714D+00
 Coeff-En:   0.000D+00 0.000D+00 0.000D+00 0.000D+00 0.000D+00 0.100D+01
 Coeff:      0.129D-02-0.651D-02 0.803D-03 0.137D-01 0.276D+00 0.714D+00
 Gap=     0.183 Goal=   None    Shift=    0.000
 RMSDP=2.05D-05 MaxDP=2.04D-03 DE=-2.75D-04 OVMax= 3.51D-03

 Cycle   7  Pass 0  IDiag  1:
 RMSU=  1.66D-05    CP:  1.00D+00  7.07D-01  9.54D-01  7.62D-01  1.05D+00
                    CP:  1.12D+00
 E= -1507.85353278392     Delta-E=       -0.000065836187 Rises=F Damp=F
 DIIS: error= 5.96D-05 at cycle   7 NSaved=   7.
 NSaved= 7 IEnMin= 7 EnMin= -1507.85353278392     IErMin= 7 ErrMin= 5.96D-05
 ErrMax= 5.96D-05  0.00D+00 EMaxC= 1.00D-01 BMatC= 6.94D-06 BMatP= 4.57D-05
 IDIUse=1 WtCom= 1.00D+00 WtEn= 0.00D+00
 Coeff-Com:  0.190D-02-0.471D-02-0.137D-01-0.347D-01-0.207D-02 0.254D+00
 Coeff-Com:  0.800D+00
 Coeff:      0.190D-02-0.471D-02-0.137D-01-0.347D-01-0.207D-02 0.254D+00
 Coeff:      0.800D+00
 Gap=     0.183 Goal=   None    Shift=    0.000
 RMSDP=1.98D-05 MaxDP=2.64D-03 DE=-6.58D-05 OVMax= 2.31D-03

 Cycle   8  Pass 0  IDiag  1:
 RMSU=  1.20D-05    CP:  1.00D+00  7.04D-01  9.57D-01  7.67D-01  1.14D+00
                    CP:  1.29D+00  1.55D+00
 E= -1507.85354449204     Delta-E=       -0.000011708117 Rises=F Damp=F
 DIIS: error= 2.85D-05 at cycle   8 NSaved=   8.
 NSaved= 8 IEnMin= 8 EnMin= -1507.85354449204     IErMin= 8 ErrMin= 2.85D-05
 ErrMax= 2.85D-05  0.00D+00 EMaxC= 1.00D-01 BMatC= 2.71D-06 BMatP= 6.94D-06
 IDIUse=1 WtCom= 1.00D+00 WtEn= 0.00D+00
 Coeff-Com:  0.909D-03-0.160D-02-0.737D-02-0.233D-01-0.447D-01 0.207D-01
 Coeff-Com:  0.458D+00 0.598D+00
 Coeff:      0.909D-03-0.160D-02-0.737D-02-0.233D-01-0.447D-01 0.207D-01
 Coeff:      0.458D+00 0.598D+00
 Gap=     0.183 Goal=   None    Shift=    0.000
 RMSDP=1.95D-05 MaxDP=3.30D-03 DE=-1.17D-05 OVMax= 1.01D-03

 Cycle   9  Pass 0  IDiag  1:
 RMSU=  1.03D-05    CP:  1.00D+00  7.04D-01  9.59D-01  7.70D-01  1.19D+00
                    CP:  1.44D+00  2.30D+00  1.72D+00
 E= -1507.85354355938     Delta-E=        0.000000932659 Rises=F Damp=F
 DIIS: error= 2.29D-05 at cycle   9 NSaved=   9.
 NSaved= 9 IEnMin= 8 EnMin= -1507.85354449204     IErMin= 9 ErrMin= 2.29D-05
 ErrMax= 2.29D-05  0.00D+00 EMaxC= 1.00D-01 BMatC= 6.29D-07 BMatP= 2.71D-06
 IDIUse=1 WtCom= 1.00D+00 WtEn= 0.00D+00
 Coeff-Com:  0.304D-03-0.401D-03-0.236D-02-0.959D-02-0.248D-01-0.200D-01
 Coeff-Com:  0.161D+00 0.338D+00 0.557D+00
 Coeff:      0.304D-03-0.401D-03-0.236D-02-0.959D-02-0.248D-01-0.200D-01
 Coeff:      0.161D+00 0.338D+00 0.557D+00
 Gap=     0.183 Goal=   None    Shift=    0.000
 RMSDP=2.45D-05 MaxDP=4.37D-03 DE= 9.33D-07 OVMax= 2.22D-04

 Cycle  10  Pass 0  IDiag  1:
 RMSU=  5.32D-06    CP:  1.00D+00  7.05D-01  9.62D-01  7.75D-01  1.22D+00
                    CP:  1.56D+00  3.00D+00  2.82D+00  2.18D+00
 E= -1507.85353878091     Delta-E=        0.000004778470 Rises=F Damp=F
 DIIS: error= 3.43D-05 at cycle  10 NSaved=  10.
 NSaved=10 IEnMin= 8 EnMin= -1507.85354449204     IErMin= 9 ErrMin= 2.29D-05
 ErrMax= 3.43D-05  0.00D+00 EMaxC= 1.00D-01 BMatC= 7.08D-07 BMatP= 6.29D-07
 IDIUse=1 WtCom= 1.00D+00 WtEn= 0.00D+00
 Coeff-Com:  0.348D-03-0.401D-03-0.279D-02-0.116D-01-0.324D-01-0.322D-01
 Coeff-Com:  0.190D+00 0.441D+00 0.833D+00-0.385D+00
 Coeff:      0.348D-03-0.401D-03-0.279D-02-0.116D-01-0.324D-01-0.322D-01
 Coeff:      0.190D+00 0.441D+00 0.833D+00-0.385D+00
 Gap=     0.183 Goal=   None    Shift=    0.000
 RMSDP=1.98D-05 MaxDP=3.52D-03 DE= 4.78D-06 OVMax= 7.34D-05

 Problem detected with inexpensive integrals.
 Switching to full accuracy and repeating last cycle.
 Cycle  11  Pass 1  IDiag  1:
 E= -1507.85335900982     Delta-E=        0.000179771094 Rises=F Damp=F
 DIIS: error= 3.57D-04 at cycle   1 NSaved=   1.
 NSaved= 1 IEnMin= 1 EnMin= -1507.85335900982     IErMin= 1 ErrMin= 3.57D-04
 ErrMax= 3.57D-04  0.00D+00 EMaxC= 1.00D-01 BMatC= 9.39D-05 BMatP= 9.39D-05
 IDIUse=3 WtCom= 9.96D-01 WtEn= 3.57D-03
 Coeff-Com:  0.100D+01
 Coeff-En:   0.100D+01
 Coeff:      0.100D+01
 Gap=     0.183 Goal=   None    Shift=    0.000
 RMSDP=5.00D-04 MaxDP=5.49D-02 DE= 1.80D-04 OVMax= 1.21D-03

 Cycle  12  Pass 1  IDiag  1:
 RMSU=  4.98D-04    CP:  9.93D-01
 E= -1507.85342122476     Delta-E=       -0.000062214947 Rises=F Damp=F
 DIIS: error= 6.89D-06 at cycle   2 NSaved=   2.
 NSaved= 2 IEnMin= 2 EnMin= -1507.85342122476     IErMin= 2 ErrMin= 6.89D-06
 ErrMax= 6.89D-06  0.00D+00 EMaxC= 1.00D-01 BMatC= 9.58D-08 BMatP= 9.39D-05
 IDIUse=1 WtCom= 1.00D+00 WtEn= 0.00D+00
 Coeff-Com: -0.165D-01 0.102D+01
 Coeff:     -0.165D-01 0.102D+01
 Gap=     0.183 Goal=   None    Shift=    0.000
 RMSDP=1.78D-05 MaxDP=1.90D-03 DE=-6.22D-05 OVMax= 1.20D-04

 Cycle  13  Pass 1  IDiag  1:
 RMSU=  5.46D-06    CP:  9.93D-01  1.03D+00
 E= -1507.85342129906     Delta-E=       -0.000000074291 Rises=F Damp=F
 DIIS: error= 3.82D-06 at cycle   3 NSaved=   3.
 NSaved= 3 IEnMin= 3 EnMin= -1507.85342129906     IErMin= 3 ErrMin= 3.82D-06
 ErrMax= 3.82D-06  0.00D+00 EMaxC= 1.00D-01 BMatC= 7.27D-08 BMatP= 9.58D-08
 IDIUse=1 WtCom= 1.00D+00 WtEn= 0.00D+00
 Coeff-Com: -0.896D-02 0.512D+00 0.497D+00
 Coeff:     -0.896D-02 0.512D+00 0.497D+00
 Gap=     0.183 Goal=   None    Shift=    0.000
 RMSDP=5.75D-07 MaxDP=9.67D-05 DE=-7.43D-08 OVMax= 6.58D-05

 Cycle  14  Pass 1  IDiag  1:
 RMSU=  4.98D-07    CP:  9.93D-01  1.03D+00  1.01D+00
 E= -1507.85342135457     Delta-E=       -0.000000055519 Rises=F Damp=F
 DIIS: error= 1.39D-06 at cycle   4 NSaved=   4.
 NSaved= 4 IEnMin= 4 EnMin= -1507.85342135457     IErMin= 4 ErrMin= 1.39D-06
 ErrMax= 1.39D-06  0.00D+00 EMaxC= 1.00D-01 BMatC= 5.08D-09 BMatP= 7.27D-08
 IDIUse=1 WtCom= 1.00D+00 WtEn= 0.00D+00
 Coeff-Com: -0.539D-03 0.189D-01 0.195D+00 0.787D+00
 Coeff:     -0.539D-03 0.189D-01 0.195D+00 0.787D+00
 Gap=     0.183 Goal=   None    Shift=    0.000
 RMSDP=3.72D-07 MaxDP=3.18D-05 DE=-5.55D-08 OVMax= 2.55D-05

 Cycle  15  Pass 1  IDiag  1:
 RMSU=  1.85D-07    CP:  9.93D-01  1.03D+00  1.05D+00  9.83D-01
 E= -1507.85342135930     Delta-E=       -0.000000004721 Rises=F Damp=F
 DIIS: error= 6.74D-07 at cycle   5 NSaved=   5.
 NSaved= 5 IEnMin= 5 EnMin= -1507.85342135930     IErMin= 5 ErrMin= 6.74D-07
 ErrMax= 6.74D-07  0.00D+00 EMaxC= 1.00D-01 BMatC= 1.04D-09 BMatP= 5.08D-09
 IDIUse=1 WtCom= 1.00D+00 WtEn= 0.00D+00
 Coeff-Com:  0.569D-03-0.387D-01 0.487D-01 0.407D+00 0.583D+00
 Coeff:      0.569D-03-0.387D-01 0.487D-01 0.407D+00 0.583D+00
 Gap=     0.183 Goal=   None    Shift=    0.000
 RMSDP=8.74D-08 MaxDP=6.20D-06 DE=-4.72D-09 OVMax= 2.16D-05

 Cycle  16  Pass 1  IDiag  1:
 RMSU=  6.53D-08    CP:  9.93D-01  1.03D+00  1.06D+00  1.03D+00  1.06D+00
 E= -1507.85342136044     Delta-E=       -0.000000001148 Rises=F Damp=F
 DIIS: error= 2.28D-07 at cycle   6 NSaved=   6.
 NSaved= 6 IEnMin= 6 EnMin= -1507.85342136044     IErMin= 6 ErrMin= 2.28D-07
 ErrMax= 2.28D-07  0.00D+00 EMaxC= 1.00D-01 BMatC= 1.09D-10 BMatP= 1.04D-09
 IDIUse=1 WtCom= 1.00D+00 WtEn= 0.00D+00
 Coeff-Com:  0.310D-03-0.188D-01-0.739D-02 0.720D-01 0.250D+00 0.704D+00
 Coeff:      0.310D-03-0.188D-01-0.739D-02 0.720D-01 0.250D+00 0.704D+00
 Gap=     0.183 Goal=   None    Shift=    0.000
 RMSDP=3.39D-08 MaxDP=5.11D-06 DE=-1.15D-09 OVMax= 4.64D-06

 Cycle  17  Pass 1  IDiag  1:
 RMSU=  2.38D-08    CP:  9.93D-01  1.03D+00  1.06D+00  1.06D+00  1.17D+00
                    CP:  9.52D-01
 E= -1507.85342136061     Delta-E=       -0.000000000162 Rises=F Damp=F
 DIIS: error= 9.97D-08 at cycle   7 NSaved=   7.
 NSaved= 7 IEnMin= 7 EnMin= -1507.85342136061     IErMin= 7 ErrMin= 9.97D-08
 ErrMax= 9.97D-08  0.00D+00 EMaxC= 1.00D-01 BMatC= 3.50D-11 BMatP= 1.09D-10
 IDIUse=1 WtCom= 1.00D+00 WtEn= 0.00D+00
 Coeff-Com: -0.138D-05 0.143D-02-0.213D-01-0.886D-01-0.292D-01 0.407D+00
 Coeff-Com:  0.730D+00
 Coeff:     -0.138D-05 0.143D-02-0.213D-01-0.886D-01-0.292D-01 0.407D+00
 Coeff:      0.730D+00
 Gap=     0.183 Goal=   None    Shift=    0.000
 RMSDP=2.31D-08 MaxDP=2.93D-06 DE=-1.62D-10 OVMax= 6.47D-06

 Cycle  18  Pass 1  IDiag  1:
 RMSU=  1.63D-08    CP:  9.93D-01  1.03D+00  1.06D+00  1.06D+00  1.23D+00
                    CP:  1.10D+00  1.14D+00
 E= -1507.85342136067     Delta-E=       -0.000000000065 Rises=F Damp=F
 DIIS: error= 3.75D-08 at cycle   8 NSaved=   8.
 NSaved= 8 IEnMin= 8 EnMin= -1507.85342136067     IErMin= 8 ErrMin= 3.75D-08
 ErrMax= 3.75D-08  0.00D+00 EMaxC= 1.00D-01 BMatC= 4.65D-12 BMatP= 3.50D-11
 IDIUse=1 WtCom= 1.00D+00 WtEn= 0.00D+00
 Coeff-Com: -0.511D-04 0.373D-02-0.817D-02-0.511D-01-0.521D-01 0.649D-01
 Coeff-Com:  0.349D+00 0.693D+00
 Coeff:     -0.511D-04 0.373D-02-0.817D-02-0.511D-01-0.521D-01 0.649D-01
 Coeff:      0.349D+00 0.693D+00
 Gap=     0.183 Goal=   None    Shift=    0.000
 RMSDP=7.75D-09 MaxDP=6.36D-07 DE=-6.46D-11 OVMax= 1.48D-06

 SCF Done:  E(RM062X) =  -1507.85342136     A.U. after   18 cycles
            NFock= 18  Conv=0.77D-08     -V/T= 2.0041
 KE= 1.501743605180D+03 PE=-8.414499338107D+03 EE= 2.966748761717D+03
 Leave Link  502 at Sun Feb 19 04:34:53 2023, MaxMem=  2684354560 cpu:            7894.8 elap:             494.0
 (Enter /storage/apps/GAUSSIAN/G16_RevA03/g16/l601.exe)
 Copying SCF densities to generalized density rwf, IOpCl= 0 IROHF=0.

 **********************************************************************

            Population analysis using the SCF density.

 **********************************************************************

 Alpha  occ. eigenvalues --  -89.88536 -19.65189 -19.64127 -19.61979 -19.59826
 Alpha  occ. eigenvalues --  -19.59382 -14.82052 -14.78045 -10.65423 -10.64214
 Alpha  occ. eigenvalues --  -10.62253 -10.60957 -10.60849 -10.60510 -10.60146
 Alpha  occ. eigenvalues --  -10.59486 -10.57644 -10.56150 -10.55575 -10.55538
 Alpha  occ. eigenvalues --  -10.54711 -10.54104 -10.53142 -10.52206  -8.24425
 Alpha  occ. eigenvalues --   -6.16371  -6.16152  -6.15926  -1.20978  -1.16896
 Alpha  occ. eigenvalues --   -1.16372  -1.14468  -1.13509  -1.10684  -1.02629
 Alpha  occ. eigenvalues --   -0.94261  -0.89693  -0.89114  -0.88962  -0.87030
 Alpha  occ. eigenvalues --   -0.86253  -0.80163  -0.79558  -0.76680  -0.74258
 Alpha  occ. eigenvalues --   -0.72917  -0.71392  -0.69136  -0.67726  -0.66352
 Alpha  occ. eigenvalues --   -0.64880  -0.63611  -0.61744  -0.60704  -0.59523
 Alpha  occ. eigenvalues --   -0.58767  -0.57997  -0.55791  -0.54792  -0.54533
 Alpha  occ. eigenvalues --   -0.53154  -0.53008  -0.52245  -0.51584  -0.50919
 Alpha  occ. eigenvalues --   -0.50639  -0.50289  -0.49389  -0.49043  -0.48797
 Alpha  occ. eigenvalues --   -0.48225  -0.47787  -0.47047  -0.46606  -0.45783
 Alpha  occ. eigenvalues --   -0.45230  -0.44994  -0.44194  -0.43862  -0.43150
 Alpha  occ. eigenvalues --   -0.42849  -0.42112  -0.41386  -0.38776  -0.38122
 Alpha  occ. eigenvalues --   -0.36188  -0.35797  -0.35314  -0.35009  -0.34883
 Alpha  occ. eigenvalues --   -0.33253  -0.30909  -0.30320  -0.28560  -0.22394
 Alpha virt. eigenvalues --   -0.04100  -0.00952   0.04169   0.04453   0.05691
 Alpha virt. eigenvalues --    0.05765   0.07062   0.07617   0.08052   0.08420
 Alpha virt. eigenvalues --    0.08924   0.09643   0.09775   0.10975   0.11019
 Alpha virt. eigenvalues --    0.11336   0.12293   0.12804   0.13151   0.13423
 Alpha virt. eigenvalues --    0.13915   0.14271   0.14325   0.15063   0.15430
 Alpha virt. eigenvalues --    0.15611   0.16134   0.16350   0.16840   0.17819
 Alpha virt. eigenvalues --    0.18804   0.18942   0.19384   0.19678   0.19932
 Alpha virt. eigenvalues --    0.20512   0.21134   0.21303   0.21696   0.22329
 Alpha virt. eigenvalues --    0.22534   0.23301   0.23631   0.24326   0.24887
 Alpha virt. eigenvalues --    0.25315   0.25393   0.26055   0.26255   0.26795
 Alpha virt. eigenvalues --    0.27216   0.27859   0.27968   0.28343   0.28865
 Alpha virt. eigenvalues --    0.29260   0.29780   0.29992   0.30823   0.31394
 Alpha virt. eigenvalues --    0.31880   0.31948   0.32327   0.32392   0.33319
 Alpha virt. eigenvalues --    0.33500   0.34078   0.34575   0.35124   0.35679
 Alpha virt. eigenvalues --    0.36646   0.37426   0.37681   0.37912   0.38330
 Alpha virt. eigenvalues --    0.38940   0.39153   0.39942   0.40108   0.40517
 Alpha virt. eigenvalues --    0.40722   0.40904   0.41014   0.41194   0.42010
 Alpha virt. eigenvalues --    0.42231   0.42804   0.43243   0.43390   0.43782
 Alpha virt. eigenvalues --    0.43867   0.44366   0.44766   0.45351   0.45728
 Alpha virt. eigenvalues --    0.46162   0.46334   0.46697   0.47116   0.47293
 Alpha virt. eigenvalues --    0.47831   0.48438   0.48747   0.49134   0.49306
 Alpha virt. eigenvalues --    0.49455   0.50052   0.50208   0.50400   0.50713
 Alpha virt. eigenvalues --    0.51107   0.51267   0.51547   0.51869   0.52590
 Alpha virt. eigenvalues --    0.52788   0.53276   0.53783   0.53986   0.55050
 Alpha virt. eigenvalues --    0.55165   0.55591   0.55823   0.56271   0.57654
 Alpha virt. eigenvalues --    0.57873   0.58014   0.58593   0.58877   0.59385
 Alpha virt. eigenvalues --    0.60050   0.60543   0.60884   0.61369   0.61962
 Alpha virt. eigenvalues --    0.62429   0.62751   0.63490   0.63790   0.64328
 Alpha virt. eigenvalues --    0.65275   0.65865   0.66449   0.67017   0.67455
 Alpha virt. eigenvalues --    0.67767   0.68327   0.68596   0.69503   0.69770
 Alpha virt. eigenvalues --    0.71159   0.72049   0.72903   0.73291   0.73782
 Alpha virt. eigenvalues --    0.73961   0.75298   0.76030   0.76971   0.77117
 Alpha virt. eigenvalues --    0.77742   0.79022   0.79727   0.80212   0.81217
 Alpha virt. eigenvalues --    0.81560   0.82733   0.83178   0.83433   0.83977
 Alpha virt. eigenvalues --    0.84256   0.85774   0.86217   0.86661   0.87471
 Alpha virt. eigenvalues --    0.87949   0.88525   0.88988   0.89966   0.90208
 Alpha virt. eigenvalues --    0.90690   0.91881   0.92766   0.93044   0.93587
 Alpha virt. eigenvalues --    0.95075   0.95606   0.95635   0.96430   0.96937
 Alpha virt. eigenvalues --    0.97576   0.97733   0.98355   0.98972   0.99760
 Alpha virt. eigenvalues --    1.00791   1.01043   1.02346   1.03382   1.03978
 Alpha virt. eigenvalues --    1.04786   1.05074   1.05392   1.05801   1.06449
 Alpha virt. eigenvalues --    1.06873   1.08091   1.08883   1.09578   1.09862
 Alpha virt. eigenvalues --    1.09924   1.11017   1.12189   1.12371   1.13249
 Alpha virt. eigenvalues --    1.13778   1.14107   1.14782   1.15534   1.16298
 Alpha virt. eigenvalues --    1.16863   1.17172   1.18191   1.18270   1.20094
 Alpha virt. eigenvalues --    1.20502   1.21216   1.21930   1.22683   1.23427
 Alpha virt. eigenvalues --    1.24426   1.25766   1.26773   1.27275   1.27814
 Alpha virt. eigenvalues --    1.28310   1.29628   1.29965   1.30827   1.31709
 Alpha virt. eigenvalues --    1.32349   1.33197   1.33800   1.34955   1.35686
 Alpha virt. eigenvalues --    1.36452   1.37003   1.37610   1.38248   1.40296
 Alpha virt. eigenvalues --    1.40819   1.42050   1.42815   1.43281   1.44046
 Alpha virt. eigenvalues --    1.44705   1.45743   1.47296   1.49058   1.49958
 Alpha virt. eigenvalues --    1.50439   1.51208   1.51269   1.51875   1.52506
 Alpha virt. eigenvalues --    1.53718   1.54951   1.55213   1.55696   1.55918
 Alpha virt. eigenvalues --    1.56475   1.57067   1.57476   1.57957   1.58186
 Alpha virt. eigenvalues --    1.58789   1.59115   1.59323   1.60156   1.60530
 Alpha virt. eigenvalues --    1.61194   1.61780   1.62214   1.62669   1.63194
 Alpha virt. eigenvalues --    1.63805   1.64003   1.64540   1.65253   1.66291
 Alpha virt. eigenvalues --    1.66620   1.66897   1.67397   1.67658   1.68615
 Alpha virt. eigenvalues --    1.68860   1.70057   1.70200   1.70323   1.70761
 Alpha virt. eigenvalues --    1.72223   1.72505   1.73310   1.73510   1.74354
 Alpha virt. eigenvalues --    1.75348   1.75731   1.76034   1.77425   1.78197
 Alpha virt. eigenvalues --    1.78605   1.79026   1.79726   1.79945   1.81151
 Alpha virt. eigenvalues --    1.82110   1.82636   1.83386   1.84739   1.85009
 Alpha virt. eigenvalues --    1.85259   1.85861   1.86649   1.87139   1.87619
 Alpha virt. eigenvalues --    1.88112   1.88246   1.89508   1.90061   1.90373
 Alpha virt. eigenvalues --    1.91488   1.92210   1.93236   1.93500   1.94849
 Alpha virt. eigenvalues --    1.95167   1.95349   1.95389   1.96267   1.97154
 Alpha virt. eigenvalues --    1.97602   1.97858   1.98552   1.99864   2.01331
 Alpha virt. eigenvalues --    2.02036   2.02318   2.02760   2.02998   2.04252
 Alpha virt. eigenvalues --    2.05950   2.06526   2.07007   2.07375   2.08570
 Alpha virt. eigenvalues --    2.09596   2.10128   2.11214   2.12206   2.12896
 Alpha virt. eigenvalues --    2.13455   2.13793   2.14312   2.15419   2.16256
 Alpha virt. eigenvalues --    2.16689   2.17430   2.18713   2.19205   2.20082
 Alpha virt. eigenvalues --    2.20822   2.21277   2.21724   2.22430   2.22970
 Alpha virt. eigenvalues --    2.23595   2.24932   2.25181   2.26173   2.26673
 Alpha virt. eigenvalues --    2.27035   2.28006   2.28626   2.29164   2.29373
 Alpha virt. eigenvalues --    2.30181   2.30548   2.31713   2.32120   2.32545
 Alpha virt. eigenvalues --    2.33271   2.33666   2.34697   2.34906   2.35668
 Alpha virt. eigenvalues --    2.36721   2.36782   2.38430   2.38789   2.40031
 Alpha virt. eigenvalues --    2.40843   2.41863   2.42208   2.43393   2.44323
 Alpha virt. eigenvalues --    2.44731   2.45669   2.46062   2.46719   2.48000
 Alpha virt. eigenvalues --    2.48509   2.49102   2.49697   2.50892   2.51525
 Alpha virt. eigenvalues --    2.51914   2.52721   2.53775   2.54812   2.55448
 Alpha virt. eigenvalues --    2.56166   2.56801   2.57385   2.58013   2.58126
 Alpha virt. eigenvalues --    2.58592   2.59148   2.59906   2.60030   2.60767
 Alpha virt. eigenvalues --    2.61961   2.62725   2.63319   2.63551   2.64412
 Alpha virt. eigenvalues --    2.65031   2.65374   2.66566   2.66806   2.68071
 Alpha virt. eigenvalues --    2.68578   2.68895   2.69496   2.70479   2.70775
 Alpha virt. eigenvalues --    2.71713   2.71943   2.72135   2.72763   2.73787
 Alpha virt. eigenvalues --    2.74478   2.75451   2.76645   2.77118   2.77827
 Alpha virt. eigenvalues --    2.78317   2.79294   2.79942   2.80494   2.81524
 Alpha virt. eigenvalues --    2.82026   2.82417   2.83176   2.84389   2.84531
 Alpha virt. eigenvalues --    2.85667   2.86176   2.86498   2.88017   2.88518
 Alpha virt. eigenvalues --    2.90073   2.90832   2.91285   2.92339   2.93287
 Alpha virt. eigenvalues --    2.94288   2.95218   2.95618   2.96053   2.96771
 Alpha virt. eigenvalues --    2.97195   2.97936   2.98670   3.00190   3.00598
 Alpha virt. eigenvalues --    3.01535   3.02173   3.02526   3.03152   3.03761
 Alpha virt. eigenvalues --    3.04780   3.05505   3.05574   3.06951   3.07167
 Alpha virt. eigenvalues --    3.07899   3.08409   3.08923   3.09617   3.09649
 Alpha virt. eigenvalues --    3.11171   3.11566   3.11622   3.12495   3.12930
 Alpha virt. eigenvalues --    3.13406   3.14571   3.14677   3.15423   3.15865
 Alpha virt. eigenvalues --    3.16859   3.17147   3.17599   3.18629   3.19053
 Alpha virt. eigenvalues --    3.19551   3.19780   3.20229   3.21761   3.22016
 Alpha virt. eigenvalues --    3.22337   3.23345   3.23935   3.25603   3.26218
 Alpha virt. eigenvalues --    3.26408   3.26801   3.27335   3.28352   3.29007
 Alpha virt. eigenvalues --    3.29158   3.30275   3.30663   3.31068   3.32127
 Alpha virt. eigenvalues --    3.32428   3.32908   3.33156   3.33974   3.34826
 Alpha virt. eigenvalues --    3.35257   3.35910   3.36461   3.37316   3.37601
 Alpha virt. eigenvalues --    3.38099   3.38401   3.38958   3.39113   3.40177
 Alpha virt. eigenvalues --    3.40857   3.41809   3.41930   3.42827   3.43107
 Alpha virt. eigenvalues --    3.43825   3.43991   3.45552   3.45684   3.46722
 Alpha virt. eigenvalues --    3.47293   3.47444   3.48201   3.48429   3.49147
 Alpha virt. eigenvalues --    3.49980   3.50783   3.51074   3.51846   3.52642
 Alpha virt. eigenvalues --    3.53627   3.53953   3.55123   3.55255   3.56981
 Alpha virt. eigenvalues --    3.57673   3.57716   3.58924   3.59288   3.61211
 Alpha virt. eigenvalues --    3.61463   3.62112   3.63446   3.64336   3.65075
 Alpha virt. eigenvalues --    3.65551   3.67525   3.68029   3.68399   3.70732
 Alpha virt. eigenvalues --    3.71040   3.71774   3.72512   3.73300   3.73572
 Alpha virt. eigenvalues --    3.75092   3.76056   3.76660   3.77730   3.77846
 Alpha virt. eigenvalues --    3.79088   3.79292   3.80585   3.81278   3.82403
 Alpha virt. eigenvalues --    3.82912   3.84514   3.87009   3.89380   3.89940
 Alpha virt. eigenvalues --    3.90713   3.91432   3.91995   3.92488   3.93745
 Alpha virt. eigenvalues --    3.93924   3.94928   3.96767   3.97632   3.98968
 Alpha virt. eigenvalues --    3.99836   4.01033   4.03839   4.05422   4.05865
 Alpha virt. eigenvalues --    4.07147   4.08163   4.09484   4.10672   4.11018
 Alpha virt. eigenvalues --    4.11466   4.12124   4.14078   4.15493   4.16140
 Alpha virt. eigenvalues --    4.19165   4.21065   4.22642   4.23710   4.24354
 Alpha virt. eigenvalues --    4.25563   4.27234   4.27761   4.28251   4.28884
 Alpha virt. eigenvalues --    4.29298   4.32063   4.33648   4.35568   4.37458
 Alpha virt. eigenvalues --    4.38456   4.38968   4.39552   4.40412   4.41244
 Alpha virt. eigenvalues --    4.42239   4.45217   4.46098   4.47943   4.48958
 Alpha virt. eigenvalues --    4.50252   4.51102   4.52912   4.53639   4.56460
 Alpha virt. eigenvalues --    4.60231   4.61166   4.65122   4.65678   4.67529
 Alpha virt. eigenvalues --    4.70444   4.71484   4.73761   4.74229   4.75806
 Alpha virt. eigenvalues --    4.76560   4.78126   4.79722   4.81032   4.82831
 Alpha virt. eigenvalues --    4.84183   4.86014   4.88487   4.89125   4.90091
 Alpha virt. eigenvalues --    4.92345   4.93463   4.95076   4.97249   4.98126
 Alpha virt. eigenvalues --    4.98980   5.01675   5.02359   5.03687   5.07029
 Alpha virt. eigenvalues --    5.08157   5.12673   5.15170   5.15804   5.18906
 Alpha virt. eigenvalues --    5.22535   5.23840   5.24434   5.25562   5.27224
 Alpha virt. eigenvalues --    5.28299   5.29290   5.30864   5.34050   5.34790
 Alpha virt. eigenvalues --    5.36410   5.40912   5.42746   5.43596   5.46107
 Alpha virt. eigenvalues --    5.47111   5.49037   5.53543   5.57135   5.58166
 Alpha virt. eigenvalues --    5.62851   5.66296   5.73688   5.75720   5.77180
 Alpha virt. eigenvalues --    5.79219   5.79428   5.83120   5.83934   5.86068
 Alpha virt. eigenvalues --    5.87371   5.88797   5.90293   5.92261   5.92906
 Alpha virt. eigenvalues --    5.99186   6.02515   6.06666   6.16833   6.19847
 Alpha virt. eigenvalues --    6.22254   6.25103   6.27551   6.31269   6.34570
 Alpha virt. eigenvalues --    6.37670   6.44129   6.46165   6.47839   6.52190
 Alpha virt. eigenvalues --    6.58614   6.59101   6.69060   6.73825   6.74379
 Alpha virt. eigenvalues --    6.77798   6.80372   6.82544   6.85740   6.86112
 Alpha virt. eigenvalues --    6.88371   6.91694   6.98471   7.02659   7.07188
 Alpha virt. eigenvalues --    7.08431   7.08697   7.10133   7.15575   7.23886
 Alpha virt. eigenvalues --    7.25272   7.33530   9.01109   9.40419   9.52913
 Alpha virt. eigenvalues --   19.78898  22.29762  22.41852  22.48069  22.52978
 Alpha virt. eigenvalues --   22.64871  22.69595  22.71746  22.73021  22.79751
 Alpha virt. eigenvalues --   22.84315  22.86208  23.03110  23.03405  23.05873
 Alpha virt. eigenvalues --   23.20580  23.50182  32.14494  33.18784  44.14593
 Alpha virt. eigenvalues --   44.18089  44.23688  44.28090  44.56414
          Condensed to atoms (all electrons):
               1          2          3          4          5          6
     1  C    5.113866   0.421072   0.414550  -0.018360  -0.000003  -0.000129
     2  H    0.421072   0.509167  -0.022464  -0.001518   0.000416  -0.000005
     3  H    0.414550  -0.022464   0.537378   0.001495  -0.000012  -0.000006
     4  C   -0.018360  -0.001518   0.001495   5.663504   0.472965   0.245458
     5  H   -0.000003   0.000416  -0.000012   0.472965   0.553967  -0.031305
     6  O   -0.000129  -0.000005  -0.000006   0.245458  -0.031305   8.016899
     7  H   -0.000013  -0.000008   0.000004  -0.063227  -0.003931   0.289347
     8  C    0.012671   0.013594  -0.010071  -0.185797  -0.083142  -0.054367
     9  H    0.011607   0.000040  -0.002305  -0.134742   0.003407   0.002441
    10  O    0.007494  -0.000363   0.000331  -0.045893   0.002139   0.000567
    11  H   -0.000647  -0.000193   0.000486   0.012400  -0.000882  -0.000548
    12  C   -0.003489  -0.000113   0.001199  -0.069675  -0.056837  -0.001686
    13  H   -0.000083   0.000044   0.000116  -0.108662   0.006139   0.001476
    14  C    0.176687  -0.048402  -0.039987   0.163838   0.019226   0.009374
    15  H   -0.071320  -0.006758  -0.003441  -0.014327  -0.000104   0.000071
    16  O   -0.032108   0.000678   0.005121  -0.084647  -0.002535   0.005763
    17  N    0.000003  -0.000097  -0.000032   0.032387  -0.016169  -0.006911
    18  C   -0.001194  -0.000012   0.000013   0.004427  -0.005489   0.004665
    19  H    0.000045  -0.000052   0.000034  -0.013346  -0.002325   0.001311
    20  C   -0.000021   0.000006  -0.000002   0.004292   0.006238  -0.002961
    21  H    0.000004   0.000000  -0.000000  -0.000027   0.000158  -0.000053
    22  C   -0.000012  -0.000001   0.000000   0.001254  -0.000272   0.000149
    23  H   -0.000000   0.000000   0.000000   0.000043   0.000004   0.000001
    24  H    0.000000  -0.000000  -0.000000  -0.000666  -0.000072   0.000000
    25  C   -0.000065  -0.000006   0.000001  -0.004369  -0.000635  -0.000577
    26  C   -0.000355   0.000030  -0.000003   0.029464  -0.000751  -0.003612
    27  H   -0.000016   0.000001  -0.000000   0.000869  -0.000041   0.000137
    28  C    0.000000  -0.000000  -0.000000   0.000096  -0.000002  -0.000017
    29  O   -0.000000   0.000000  -0.000000  -0.000001  -0.000000  -0.000000
    30  N   -0.000000  -0.000000   0.000000   0.000001  -0.000000  -0.000000
    31  H   -0.000000   0.000000   0.000000   0.000000   0.000000  -0.000000
    32  H   -0.000000   0.000000  -0.000000   0.000000   0.000000   0.000000
    33  C    0.000001  -0.000000   0.000000  -0.000360  -0.000355  -0.013457
    34  C    0.000001  -0.000000  -0.000000   0.000878   0.000058  -0.000667
    35  C    0.000000   0.000000  -0.000000   0.000568   0.000114   0.000383
    36  C   -0.000000   0.000000   0.000000   0.000003   0.000000   0.000001
    37  C   -0.000000   0.000000   0.000000   0.000362   0.000007   0.000071
    38  O   -0.000000   0.000000  -0.000000  -0.001731  -0.000085  -0.020600
    39  S    0.000000  -0.000000  -0.000000   0.000200   0.000016   0.000665
    40  H   -0.000000   0.000000  -0.000000   0.000176   0.000022   0.000290
    41  H   -0.000001   0.000000  -0.000000  -0.003359   0.000522   0.014187
    42  H    0.000000   0.000000  -0.000000  -0.000000   0.000000  -0.000000
    43  H    0.000000   0.000000  -0.000000  -0.000000  -0.000000  -0.000000
    44  H    0.000000  -0.000000  -0.000000  -0.000000  -0.000000  -0.000000
    45  H   -0.000000   0.000000   0.000000   0.000034   0.000004   0.000020
    46  H    0.000000  -0.000000  -0.000000  -0.000050   0.000000   0.000010
    47  H    0.380425  -0.022295  -0.024735   0.003160  -0.001003   0.000057
    48  H    0.000000   0.000000  -0.000000   0.000084   0.000002   0.000404
               7          8          9         10         11         12
     1  C   -0.000013   0.012671   0.011607   0.007494  -0.000647  -0.003489
     2  H   -0.000008   0.013594   0.000040  -0.000363  -0.000193  -0.000113
     3  H    0.000004  -0.010071  -0.002305   0.000331   0.000486   0.001199
     4  C   -0.063227  -0.185797  -0.134742  -0.045893   0.012400  -0.069675
     5  H   -0.003931  -0.083142   0.003407   0.002139  -0.000882  -0.056837
     6  O    0.289347  -0.054367   0.002441   0.000567  -0.000548  -0.001686
     7  H    0.427506   0.003324  -0.000933  -0.001157   0.000271   0.001612
     8  C    0.003324   5.612394   0.536826   0.264907  -0.039151   0.027276
     9  H   -0.000933   0.536826   0.568787  -0.056948  -0.001662   0.015983
    10  O   -0.001157   0.264907  -0.056948   8.033321   0.288048  -0.013989
    11  H    0.000271  -0.039151  -0.001662   0.288048   0.426463  -0.002032
    12  C    0.001612   0.027276   0.015983  -0.013989  -0.002032   5.591814
    13  H   -0.003061   0.017785   0.002901   0.016529  -0.001561   0.475124
    14  C    0.000008   0.024094  -0.112123  -0.048498  -0.004762  -0.109760
    15  H    0.000119  -0.038176   0.011011  -0.007156   0.005582   0.000287
    16  O    0.001395  -0.041107   0.004908   0.007850   0.000337   0.287775
    17  N    0.018858   0.000175  -0.001006  -0.000608   0.000036   0.142441
    18  C   -0.003346  -0.005021  -0.000438  -0.000515   0.000021  -0.116623
    19  H    0.000729   0.001051   0.000023  -0.000004   0.000004   0.016428
    20  C   -0.001556  -0.002209   0.000015   0.000012  -0.000002   0.022244
    21  H    0.000009  -0.000012   0.000000   0.000000  -0.000000   0.000659
    22  C    0.000571  -0.000004  -0.000004  -0.000005   0.000000  -0.017043
    23  H   -0.000033   0.000000   0.000000   0.000000  -0.000000  -0.000035
    24  H    0.001318   0.000022  -0.000000   0.000000   0.000000   0.001942
    25  C   -0.000223  -0.000197  -0.000001  -0.000049   0.000001  -0.019941
    26  C   -0.005629  -0.003861  -0.000151  -0.000897  -0.000046  -0.088426
    27  H    0.000130  -0.000115  -0.000008  -0.000128   0.000006  -0.000745
    28  C    0.000055   0.000007   0.000000  -0.000000  -0.000000  -0.000948
    29  O    0.000021   0.000001   0.000000  -0.000000  -0.000000   0.000474
    30  N   -0.000000  -0.000000  -0.000000  -0.000000  -0.000000  -0.000014
    31  H   -0.000000  -0.000000   0.000000  -0.000000  -0.000000  -0.000005
    32  H   -0.000000  -0.000000  -0.000000  -0.000000  -0.000000  -0.000007
    33  C    0.005533   0.000741   0.000004  -0.000538   0.000042  -0.000531
    34  C   -0.003480  -0.000092   0.000000   0.000025  -0.000002  -0.002880
    35  C    0.000375  -0.000088  -0.000000   0.000001  -0.000000   0.000669
    36  C   -0.000022  -0.000000  -0.000000  -0.000000  -0.000000  -0.000003
    37  C   -0.001867   0.000002  -0.000000  -0.000000   0.000000  -0.001067
    38  O    0.035795   0.000010   0.000004   0.000004  -0.000000  -0.000120
    39  S   -0.001198  -0.000019  -0.000001  -0.000001  -0.000000  -0.000098
    40  H   -0.001323  -0.000018  -0.000000   0.000009  -0.000001   0.000020
    41  H   -0.003106  -0.001755   0.000037   0.001818  -0.000139   0.001296
    42  H    0.000002  -0.000000  -0.000000   0.000000  -0.000000  -0.000001
    43  H    0.000001   0.000000  -0.000000   0.000000   0.000000   0.000003
    44  H    0.000001  -0.000000  -0.000000   0.000000   0.000000   0.000000
    45  H   -0.000244  -0.000000   0.000000  -0.000000  -0.000000  -0.000048
    46  H    0.000082  -0.000001  -0.000000   0.000000   0.000000   0.000221
    47  H    0.000041  -0.016971   0.001378   0.000117   0.000144  -0.001226
    48  H   -0.000272  -0.000005   0.000001   0.000004  -0.000001  -0.000021
              13         14         15         16         17         18
     1  C   -0.000083   0.176687  -0.071320  -0.032108   0.000003  -0.001194
     2  H    0.000044  -0.048402  -0.006758   0.000678  -0.000097  -0.000012
     3  H    0.000116  -0.039987  -0.003441   0.005121  -0.000032   0.000013
     4  C   -0.108662   0.163838  -0.014327  -0.084647   0.032387   0.004427
     5  H    0.006139   0.019226  -0.000104  -0.002535  -0.016169  -0.005489
     6  O    0.001476   0.009374   0.000071   0.005763  -0.006911   0.004665
     7  H   -0.003061   0.000008   0.000119   0.001395   0.018858  -0.003346
     8  C    0.017785   0.024094  -0.038176  -0.041107   0.000175  -0.005021
     9  H    0.002901  -0.112123   0.011011   0.004908  -0.001006  -0.000438
    10  O    0.016529  -0.048498  -0.007156   0.007850  -0.000608  -0.000515
    11  H   -0.001561  -0.004762   0.005582   0.000337   0.000036   0.000021
    12  C    0.475124  -0.109760   0.000287   0.287775   0.142441  -0.116623
    13  H    0.510709  -0.008790   0.006245  -0.038294  -0.066251   0.012966
    14  C   -0.008790   5.345769   0.413951   0.206296   0.010334  -0.000670
    15  H    0.006245   0.413951   0.626685  -0.037279  -0.001593   0.000243
    16  O   -0.038294   0.206296  -0.037279   8.056125  -0.074159   0.011507
    17  N   -0.066251   0.010334  -0.001593  -0.074159   6.526215   0.307301
    18  C    0.012966  -0.000670   0.000243   0.011507   0.307301   5.114001
    19  H    0.000968  -0.002967   0.000123   0.007659  -0.047067   0.410774
    20  C   -0.000492   0.001216  -0.000003  -0.000756  -0.061796   0.444790
    21  H    0.000008   0.000006  -0.000000  -0.000054   0.004643  -0.038080
    22  C    0.000147  -0.000102   0.000001   0.000550  -0.026411   0.008176
    23  H   -0.000003   0.000000  -0.000000  -0.000003  -0.001762   0.005483
    24  H   -0.000090  -0.000002   0.000000   0.000028   0.014989   0.013171
    25  C    0.008298  -0.000295   0.000033  -0.002690  -0.045536   0.035913
    26  C   -0.016561  -0.000463  -0.000565   0.004636   0.345240  -0.169737
    27  H   -0.000512   0.000035  -0.000005   0.000919  -0.034055   0.006473
    28  C    0.000006  -0.000016  -0.000000  -0.000022   0.002285   0.004385
    29  O   -0.000052  -0.000000   0.000000  -0.000001  -0.000217   0.000334
    30  N    0.000002  -0.000000  -0.000000  -0.000001  -0.000346   0.000526
    31  H    0.000000  -0.000000   0.000000   0.000000   0.000019  -0.000012
    32  H    0.000001   0.000000  -0.000000  -0.000000   0.000039   0.000128
    33  C   -0.000496  -0.000090   0.000000  -0.000001   0.000277   0.000015
    34  C    0.000061  -0.000001  -0.000001   0.000007  -0.002177   0.001029
    35  C    0.000119   0.000008  -0.000000  -0.000029  -0.013579   0.001551
    36  C    0.000002   0.000000  -0.000000  -0.000000  -0.000266   0.000305
[...]
      4        6          -0.007732620   -0.002231286    0.002666716
      5        1           0.003705375    0.004466549    0.001815951
      6        8           0.007255643    0.001451406   -0.005279741
      7        1          -0.004430209   -0.006081780    0.004317077
      8        6          -0.003848741   -0.011361739   -0.001045731
      9        1          -0.001227722    0.005510855   -0.003965325
     10        8           0.026817772    0.001833804   -0.005019285
     11        1          -0.024866116    0.004537228    0.007750105
     12        6           0.000372918    0.006973011    0.005721158
     13        1          -0.001712026   -0.002324657   -0.002535765
     14        6           0.008390031   -0.001320486    0.001464806
     15        1          -0.003324908    0.002839656    0.001290636
     16        8           0.003635779   -0.004123366   -0.007300605
     17        7           0.003362479    0.005167932   -0.000366968
     18        6          -0.010611468   -0.003744251   -0.004113657
     19        1          -0.001870843    0.006918132    0.000119319
     20        6           0.006398033   -0.006830400    0.002055407
     21        1           0.002338552    0.004995352    0.000586401
     22        6          -0.011684041    0.008274440    0.009335277
     23        1           0.003653022   -0.001674492    0.002404527
     24        1           0.007216671   -0.019211619   -0.016119980
     25        6           0.007616776    0.000291088   -0.001297428
     26        6          -0.004658356    0.000776635   -0.005602359
     27        1          -0.005751044   -0.003655862    0.003273870
     28        6           0.021116388   -0.001936943    0.019698857
     29        8          -0.006463624   -0.003324585   -0.007122982
     30        7          -0.007171016    0.001554228   -0.027126968
     31        1          -0.005670999   -0.007673110    0.007563507
     32        1           0.006686317    0.011952473    0.009704011
     33        6          -0.006705643   -0.013207363   -0.002887852
     34        6           0.002465861   -0.017438578    0.014770468
     35        6          -0.011624300    0.001701801   -0.011096164
     36        6          -0.002246854    0.001761661   -0.004295878
     37        6           0.003750775    0.016865300    0.017665871
     38        8           0.003486166    0.013231130   -0.008453864
     39       16           0.004941267    0.001251659   -0.000516513
     40        1           0.005474207    0.002883938   -0.003288737
     41        1          -0.001841874    0.006077394    0.004769503
     42        1          -0.001292500   -0.000057453    0.004697187
     43        1          -0.002235038   -0.004270173    0.003420770
     44        1           0.006261616   -0.002685157   -0.001707056
     45        1           0.004337978    0.002233625   -0.005451362
     46        1          -0.003225948   -0.005981719    0.002119366
     47        1           0.001444109   -0.004545313   -0.001178250
     48        1          -0.002020075    0.003653439   -0.004621265
 -------------------------------------------------------------------
 Cartesian Forces:  Max     0.027126968 RMS     0.007621480
 Leave Link  716 at Sun Feb 19 04:38:02 2023, MaxMem=  2684354560 cpu:               0.4 elap:               0.0
 (Enter /storage/apps/GAUSSIAN/G16_RevA03/g16/l103.exe)

 GradGradGradGradGradGradGradGradGradGradGradGradGradGradGradGradGradGrad
 Berny optimization.
 Search for a local minimum.
 Step number   1 out of a maximum of    2
 All quantities printed in internal units (Hartrees-Bohrs-Radians)
 Second derivative matrix not updated -- first step.
 ITU=  0
     Eigenvalues ---    0.00050   0.00063   0.00107   0.00148   0.00187
     Eigenvalues ---    0.00290   0.00367   0.00386   0.00469   0.00511
     Eigenvalues ---    0.00564   0.00734   0.00815   0.00868   0.01050
     Eigenvalues ---    0.01078   0.01113   0.01331   0.01464   0.01728
     Eigenvalues ---    0.01766   0.01973   0.02115   0.02576   0.02780
     Eigenvalues ---    0.03083   0.03234   0.03510   0.03710   0.04033
     Eigenvalues ---    0.04176   0.04517   0.04753   0.04941   0.05075
     Eigenvalues ---    0.05201   0.05465   0.05489   0.05733   0.06056
     Eigenvalues ---    0.06197   0.06500   0.06559   0.06822   0.06939
     Eigenvalues ---    0.07110   0.07217   0.07641   0.07747   0.08086
     Eigenvalues ---    0.08490   0.08892   0.09392   0.09922   0.10102
     Eigenvalues ---    0.10525   0.10769   0.11427   0.12237   0.12310
     Eigenvalues ---    0.12752   0.12875   0.12959   0.13108   0.13340
     Eigenvalues ---    0.13839   0.14228   0.14348   0.15371   0.16163
     Eigenvalues ---    0.16559   0.17490   0.18351   0.19057   0.19973
     Eigenvalues ---    0.20682   0.20797   0.21463   0.22207   0.24826
     Eigenvalues ---    0.25888   0.27282   0.27642   0.28259   0.30902
     Eigenvalues ---    0.32682   0.33213   0.34166   0.36980   0.36980
     Eigenvalues ---    0.36980   0.36980   0.36980   0.37053   0.39672
     Eigenvalues ---    0.42302   0.45079   0.48537   0.53210   0.54530
     Eigenvalues ---    0.58454   0.61018   0.64936   0.67765   0.70184
     Eigenvalues ---    0.73240   0.78732   0.81280   0.87225   0.87371
     Eigenvalues ---    0.89105   0.90010   0.91803   0.92221   0.92477
     Eigenvalues ---    0.92971   0.96843   0.98931   0.99833   1.00426
     Eigenvalues ---    1.03050   1.06213   1.09232   1.11184   1.15133
     Eigenvalues ---    1.15580   1.18047   1.21129   1.26849   1.30390
     Eigenvalues ---    1.36499   1.38083   1.42410   1.49168   1.66729
     Eigenvalues ---    1.72923   2.01202   2.26159
 Quadratic step=8.142D+00 exceeds max=3.000D-01 adjusted using Lamda=-4.196D-02.
 Angle between NR and scaled steps=  63.07 degrees.
 Angle between quadratic step and forces=  57.60 degrees.
 Linear search not attempted -- first point.
 Variable       Old X    -DE/DX   Delta X   Delta X   Delta X     New X
                                 (Linear)    (Quad)   (Total)
    X1        6.40071  -0.00124   0.00000  -0.00711  -0.00711   6.39359
    Y1       -6.98070   0.00854   0.00000   0.01808   0.01808  -6.96262
    Z1       -1.05800  -0.00025   0.00000   0.00427   0.00427  -1.05373
    X2        6.55307  -0.00074   0.00000   0.00370   0.00370   6.55678
    Y2       -7.27542  -0.00054   0.00000   0.00679   0.00679  -7.26863
    Z2       -3.10732   0.00663   0.00000   0.02222   0.02222  -3.08509
    X3        8.11578  -0.00654   0.00000  -0.02737  -0.02737   8.08841
    Y3       -7.68705  -0.00152   0.00000  -0.01533  -0.01533  -7.70238
    Z3       -0.12119  -0.00320   0.00000  -0.01516  -0.01516  -0.13635
    X4        2.89743  -0.00773   0.00000  -0.00147  -0.00147   2.89597
    Y4       -2.63434  -0.00223   0.00000   0.00023   0.00023  -2.63411
    Z4        2.16519   0.00267   0.00000  -0.00354  -0.00354   2.16165
    X5        1.74296   0.00371   0.00000   0.01803   0.01803   1.76099
    Y5       -4.36204   0.00447   0.00000   0.00365   0.00365  -4.35839
    Z5        1.90393   0.00182   0.00000   0.01932   0.01932   1.92325
    X6        2.00721   0.00726   0.00000   0.04149   0.04149   2.04870
    Y6       -1.20491   0.00145   0.00000   0.00413   0.00413  -1.20078
    Z6        4.18390  -0.00528   0.00000  -0.00094  -0.00094   4.18296
    X7        0.78844  -0.00443   0.00000  -0.07351  -0.07351   0.71493
    Y7        0.04823  -0.00608   0.00000  -0.08746  -0.08746  -0.03924
    Z7        3.59104   0.00432   0.00000   0.05162   0.05162   3.64266
    X8        5.65534  -0.00385   0.00000  -0.00276  -0.00276   5.65258
    Y8       -3.50055  -0.01136   0.00000   0.00075   0.00075  -3.49980
    Z8        2.32641  -0.00105   0.00000  -0.01058  -0.01058   2.31582
    X9        5.88501  -0.00123   0.00000  -0.00192  -0.00192   5.88309
    Y9       -5.17251   0.00551   0.00000   0.01625   0.01625  -5.15626
    Z9        3.55758  -0.00397   0.00000  -0.02042  -0.02042   3.53716
   X10        7.14253   0.02682   0.00000  -0.00144  -0.00144   7.14110
   Y10       -1.48815   0.00183   0.00000   0.01414   0.01414  -1.47401
   Z10        3.17345  -0.00502   0.00000  -0.00165  -0.00165   3.17180
   X11        8.92539  -0.02487   0.00000  -0.04286  -0.04286   8.88252
   Y11       -1.82160   0.00454   0.00000   0.01651   0.01651  -1.80508
   Z11        2.71525   0.00775   0.00000   0.03176   0.03176   2.74700
   X12        2.98025   0.00037   0.00000  -0.00390  -0.00390   2.97635
   Y12       -1.27296   0.00697   0.00000  -0.00192  -0.00192  -1.27489
   Z12       -0.37463   0.00572   0.00000  -0.00691  -0.00691  -0.38153
   X13        4.09329  -0.00171   0.00000  -0.00655  -0.00655   4.08674
   Y13        0.46880  -0.00232   0.00000  -0.00615  -0.00615   0.46265
   Z13       -0.13226  -0.00254   0.00000  -0.03062  -0.03062  -0.16288
   X14        6.18287   0.00839   0.00000   0.01675   0.01675   6.19961
   Y14       -4.17101  -0.00132   0.00000   0.01065   0.01065  -4.16036
   Z14       -0.49222   0.00146   0.00000  -0.00036  -0.00036  -0.49258
   X15        7.98514  -0.00332   0.00000  -0.00129  -0.00129   7.98385
   Y15       -3.28953   0.00284   0.00000   0.03910   0.03910  -3.25043
   Z15       -1.04446   0.00129   0.00000   0.00765   0.00765  -1.03681
   X16        4.19637   0.00364   0.00000   0.01324   0.01324   4.20960
   Y16       -3.03600  -0.00412   0.00000  -0.00548  -0.00548  -3.04147
   Z16       -1.93072  -0.00730   0.00000  -0.01489  -0.01489  -1.94561
   X17        0.56648   0.00336   0.00000  -0.00843  -0.00843   0.55805
   Y17       -0.55081   0.00517   0.00000  -0.00305  -0.00305  -0.55385
   Z17       -1.40486  -0.00037   0.00000  -0.00484  -0.00484  -1.40969
   X18       -1.37352  -0.01061   0.00000  -0.02046  -0.02046  -1.39398
   Y18       -2.29335  -0.00374   0.00000   0.00373   0.00373  -2.28962
   Z18       -1.53689  -0.00411   0.00000  -0.00968  -0.00968  -1.54657
   X19       -0.89566  -0.00187   0.00000  -0.01876  -0.01876  -0.91442
   Y19       -4.21707   0.00692   0.00000   0.02079   0.02079  -4.19629
   Z19       -0.98898   0.00012   0.00000  -0.00904  -0.00904  -0.99802
   X20       -3.67001   0.00640   0.00000  -0.01062  -0.01062  -3.68063
   Y20       -1.66340  -0.00683   0.00000   0.01570   0.01570  -1.64770
   Z20       -2.44817   0.00206   0.00000   0.01454   0.01454  -2.43363
   X21       -5.10213   0.00234   0.00000  -0.00094  -0.00094  -5.10307
   Y21       -3.13223   0.00500   0.00000   0.02561   0.02561  -3.10662
   Z21       -2.57186   0.00059   0.00000  -0.00467  -0.00467  -2.57653
   X22       -4.17225  -0.01168   0.00000  -0.03416  -0.03416  -4.20641
   Y22        0.89953   0.00827   0.00000   0.04356   0.04356   0.94309
   Z22       -3.32044   0.00934   0.00000   0.08117   0.08117  -3.23927
   X23       -5.73506   0.00365   0.00000   0.00767   0.00767  -5.72738
   Y23        1.13557  -0.00167   0.00000   0.00272   0.00272   1.13829
   Z23       -4.65045   0.00240   0.00000   0.03901   0.03901  -4.61144
   X24       -5.19936   0.00722   0.00000   0.06249   0.06249  -5.13687
   Y24        2.41160  -0.01921   0.00000  -0.06074  -0.06074   2.35086
   Z24       -1.38053  -0.01612   0.00000  -0.09214  -0.09214  -1.47266
   X25       -1.92771   0.00762   0.00000  -0.00218  -0.00218  -1.92989
   Y25        2.39791   0.00029   0.00000  -0.00208  -0.00208   2.39583
   Z25       -3.72857  -0.00130   0.00000   0.01267   0.01267  -3.71590
   X26        0.29095  -0.00466   0.00000  -0.01410  -0.01410   0.27685
   Y26        1.73308   0.00078   0.00000  -0.01520  -0.01520   1.71788
   Z26       -2.60638  -0.00560   0.00000  -0.00889  -0.00889  -2.61526
   X27        1.96424  -0.00575   0.00000  -0.02448  -0.02448   1.93976
   Y27        2.92624  -0.00366   0.00000  -0.02494  -0.02494   2.90131
   Z27       -2.78833   0.00327   0.00000   0.00981   0.00981  -2.77852
   X28       -2.02544   0.02112   0.00000   0.04153   0.04153  -1.98391
   Y28        4.79858  -0.00194   0.00000  -0.01867  -0.01867   4.77991
   Z28       -5.21533   0.01970   0.00000  -0.00207  -0.00207  -5.21741
   X29       -0.63111  -0.00646   0.00000   0.01982   0.01982  -0.61128
   Y29        6.56552  -0.00332   0.00000  -0.00324  -0.00324   6.56228
   Z29       -4.71743  -0.00712   0.00000  -0.03944  -0.03944  -4.75687
   X30       -3.73838  -0.00717   0.00000   0.03154   0.03154  -3.70684
   Y30        4.88272   0.00155   0.00000  -0.01012  -0.01012   4.87260
   Z30       -7.11550  -0.02713   0.00000  -0.02587  -0.02587  -7.14136
   X31       -3.40030  -0.00567   0.00000  -0.03116  -0.03116  -3.43146
   Y31        6.33609  -0.00767   0.00000  -0.01551  -0.01551   6.32058
   Z31       -8.34658   0.00756   0.00000  -0.00977  -0.00977  -8.35635
   X32       -4.40314   0.00669   0.00000   0.04155   0.04155  -4.36159
   Y32        3.25621   0.01195   0.00000   0.00345   0.00345   3.25966
   Z32       -7.93493   0.00970   0.00000   0.01888   0.01888  -7.91605
   X33        0.92113  -0.00671   0.00000  -0.03068  -0.03068   0.89045
   Y33        4.20371  -0.01321   0.00000  -0.01783  -0.01783   4.18588
   Z33        7.30733  -0.00289   0.00000  -0.00798  -0.00798   7.29935
   X34       -2.19862   0.00247   0.00000  -0.01449  -0.01449  -2.21311
   Y34        4.21463  -0.01744   0.00000  -0.00405  -0.00405   4.21058
   Z34        3.09325   0.01477   0.00000   0.02395   0.02395   3.11720
   X35       -3.43026  -0.01162   0.00000  -0.02494  -0.02494  -3.45520
   Y35        5.36394   0.00170   0.00000   0.00298   0.00298   5.36692
   Z35        0.99035  -0.01110   0.00000   0.01240   0.01240   1.00275
   X36       -7.21123  -0.00225   0.00000   0.00062   0.00062  -7.21061
   Y36        6.08091   0.00176   0.00000   0.00453   0.00453   6.08544
   Z36       -1.75282  -0.00430   0.00000   0.01230   0.01230  -1.74053
   X37       -5.71605   0.00375   0.00000   0.01202   0.01202  -5.70404
   Y37        4.38460   0.01687   0.00000   0.00276   0.00276   4.38736
   Z37        0.02981   0.01767   0.00000  -0.00337  -0.00337   0.02644
   X38       -2.42710   0.00349   0.00000   0.02397   0.02397  -2.40313
   Y38        1.97755   0.01323   0.00000  -0.00510  -0.00510   1.97245
   Z38        3.74627  -0.00845   0.00000  -0.02870  -0.02870   3.71757
   X39       -0.33303   0.00494   0.00000   0.01142   0.01142  -0.32161
   Y39        6.34242   0.00125   0.00000  -0.00636  -0.00636   6.33606
   Z39        4.94772  -0.00052   0.00000  -0.00477  -0.00477   4.94295
   X40       -0.65781   0.00547   0.00000  -0.00758  -0.00758  -0.66538
   Y40        3.34452   0.00288   0.00000  -0.00292  -0.00292   3.34160
   Z40        8.34658  -0.00329   0.00000  -0.00253  -0.00253   8.34405
   X41        1.99379  -0.00184   0.00000   0.00291   0.00291   1.99670
   Y41        2.68734   0.00608   0.00000   0.01112   0.01112   2.69846
   Z41        6.38121   0.00477   0.00000   0.03051   0.03051   6.41171
   X42       -7.79305  -0.00129   0.00000  -0.03126  -0.03126  -7.82431
   Y42        5.09450  -0.00006   0.00000   0.00913   0.00913   5.10364
   Z42       -3.48117   0.00470   0.00000   0.03316   0.03316  -3.44801
   X43       -6.05719  -0.00224   0.00000  -0.00328  -0.00328  -6.06047
   Y43        7.68705  -0.00427   0.00000  -0.00325  -0.00325   7.68379
   Z43       -2.38606   0.00342   0.00000   0.02725   0.02725  -2.35882
   X44       -8.92539   0.00626   0.00000   0.03191   0.03191  -8.89348
   Y44        6.82465  -0.00269   0.00000   0.00604   0.00604   6.83070
   Z44       -0.83898  -0.00171   0.00000   0.03100   0.03100  -0.80798
   X45       -6.82593   0.00434   0.00000   0.02528   0.02528  -6.80064
   Y45        3.25052   0.00223   0.00000  -0.00872  -0.00872   3.24180
   Z45        1.37639  -0.00545   0.00000  -0.03018  -0.03018   1.34621
   X46       -2.62057  -0.00323   0.00000  -0.03438  -0.03438  -2.65495
   Y46        7.09608  -0.00598   0.00000  -0.00480  -0.00480   7.09127
   Z46        0.20874   0.00212   0.00000   0.02675   0.02675   0.23549
   X47        4.72660   0.00144   0.00000   0.01092   0.01092   4.73752
   Y47       -7.93441  -0.00455   0.00000  -0.02796  -0.02796  -7.96237
   Z47       -0.32959  -0.00118   0.00000  -0.01637  -0.01637  -0.34596
   X48        2.14162  -0.00202   0.00000  -0.04551  -0.04551   2.09611
   Y48        5.21224   0.00365   0.00000   0.03838   0.03838   5.25062
   Z48        8.62493  -0.00462   0.00000  -0.03981  -0.03981   8.58511
         Item               Value     Threshold  Converged?
 Maximum Force            0.027127     0.000450     NO 
 RMS     Force            0.007621     0.000300     NO 
 Maximum Displacement     0.092138     0.001800     NO 
 RMS     Displacement     0.025003     0.001200     NO 
 Predicted change in Energy=-9.240380D-03
 GradGradGradGradGradGradGradGradGradGradGradGradGradGradGradGradGradGrad

 Leave Link  103 at Sun Feb 19 04:38:02 2023, MaxMem=  2684354560 cpu:               2.8 elap:               0.2
 (Enter /storage/apps/GAUSSIAN/G16_RevA03/g16/l9999.exe)

 Test job not archived.
 1\1\GINC-T027\Force\RM062X\def2TZVP\C16H24N2O5S1\LV87696\19-Feb-2023\0
 \\#P M062X/Def2TZVP scf=(direct,conver=8) EmpiricalDispersion=GD3 NoSy
 mm Force pop=(NBORead) Charge Prop=(Field,Read)\\Gaussian run using SA
 NDER external interface, route from template gau_job.tpl\\0,1\C,3.3871
 075118,-3.6940280717,-0.5598680477\H,3.467736373,-3.8499887375,-1.6443
 208155\H,4.2946842483,-4.0678090637,-0.0641319689\C,1.5332546649,-1.39
 40332856,1.1457704422\H,0.9223327626,-2.3082943685,1.0075183834\O,1.06
 21686487,-0.6376125029,2.2140252836\H,0.417226536,0.0255204835,1.90029
 49365\C,2.9926759757,-1.8524100519,1.2310829221\H,3.1142108514,-2.7371
 753942,1.8825904671\O,3.7796654825,-0.7874959917,1.6793171765\H,4.7231
 127157,-0.9639488998,1.4368461021\C,1.5770778376,-0.6736231707,-0.1982
 447118\H,2.1660753476,0.2480803648,-0.0699913316\C,3.2718313954,-2.207
 2008066,-0.2604719238\H,4.2255523225,-1.7407437817,-0.5527038676\O,2.2
 206208557,-1.6065794274,-1.021691594\N,0.2997683433,-0.2914747829,-0.7
 434177348\C,-0.7268363201,-1.2135901665,-0.8132861056\H,-0.4739608385,
 -2.2315779741,-0.5233431856\C,-1.9420868273,-0.8802309571,-1.295514819
 1\H,-2.6999299936,-1.6575057569,-1.3609715611\C,-2.2078587243,0.476012
 922,-1.7571002159\H,-3.0348626611,0.6009184181,-2.4609141341\H,-2.7513
 853382,1.276161605,-0.7305435025\C,-1.0201026953,1.268918253,-1.973076
 8566\C,0.1539657254,0.9171040104,-1.3792350787\H,1.0394309858,1.548500
 2015,-1.4755210938\C,-1.0718179066,2.5392984395,-2.7598357784\O,-0.333
 9666969,3.4743219567,-2.496356528\N,-1.9782632184,2.5838219026,-3.7653
 585796\H,-1.7993613238,3.3529148315,-4.4168183967\H,-2.3300413234,1.72
 31130847,-4.198982139\C,0.4874400858,2.2245055474,3.8668724822\C,-1.16
 34572933,2.2302855562,1.6368753477\C,-1.8152136235,2.8384748923,0.5240
 714022\C,-3.8160174483,3.2178783717,-0.9275537935\C,-3.0248055617,2.32
 02281026,0.0157743598\O,-1.2843636733,1.0464745052,1.9824431972\S,-0.1
 762329765,3.3562663796,2.6182218005\H,-0.3480959458,1.7698420438,4.416
 8183967\H,1.0550691121,1.422080641,3.3767882841\H,-4.1239025831,2.6958
 942418,-1.8421554775\H,-3.2053251309,4.0678090637,-1.262649412\H,-4.72
 31127157,3.6114512314,-0.4439679899\H,-3.6121244833,1.7201007057,0.728
 3530552\H,-1.386746022,3.7550819088,0.1104625107\H,2.5012078214,-4.198
 7095762,-0.1744094669\H,1.1332943192,2.7581960408,4.5641147402\\Versio
 n=ES64L-G16RevA.03\HF=-1507.8534214\RMSD=7.749e-09\RMSF=7.621e-03\Dipo
 le=0.2155542,-1.8615068,-1.8755899\Quadrupole=12.5820445,-10.5677999,-
 2.0142446,-7.9773108,10.4840533,-3.3000265\PG=C01 [X(C16H24N2O5S1)]\\@


 We find comfort among those who agree with us -- growth among those who don't.
 -- Frank A. Clark
 Job cpu time:       0 days  3 hours  3 minutes 27.8 seconds.
 Elapsed time:       0 days  0 hours 11 minutes 29.2 seconds.
 File lengths (MBytes):  RWF=    435 Int=      0 D2E=      0 Chk=     48 Scr=      1
 Normal termination of Gaussian 16 at Sun Feb 19 04:38:03 2023.
