 Entering Gaussian System, Link 0=g16
 Initial command:
 /storage/apps/GAUSSIAN/G16_RevA03/g16/l1.exe "/scratch/tmp/1267164/Gau-180914.inp" -scrdir="/scratch/tmp/1267164/"
 Entering Link 1 = /storage/apps/GAUSSIAN/G16_RevA03/g16/l1.exe PID=    180915.
  
 Copyright (c) 1988,1990,1992,1993,1995,1998,2003,2009,2016,
            Gaussian, Inc.  All Rights Reserved.
  
 This is part of the Gaussian(R) 16 program.  It is based on
 the Gaussian(R) 09 system (copyright 2009, Gaussian, Inc.),
 the Gaussian(R) 03 system (copyright 2003, Gaussian, Inc.),
 the Gaussian(R) 98 system (copyright 1998, Gaussian, Inc.),
 the Gaussian(R) 94 system (copyright 1995, Gaussian, Inc.),
 the Gaussian 92(TM) system (copyright 1992, Gaussian, Inc.),
 the Gaussian 90(TM) system (copyright 1990, Gaussian, Inc.),
 the Gaussian 88(TM) system (copyright 1988, Gaussian, Inc.),
 the Gaussian 86(TM) system (copyright 1986, Carnegie Mellon
 University), and the Gaussian 82(TM) system (copyright 1983,
 Carnegie Mellon University). Gaussian is a federally registered
 trademark of Gaussian, Inc.
  
 This software contains proprietary and confidential information,
 including trade secrets, belonging to Gaussian, Inc.
  
 This software is provided under written license and may be
 used, copied, transmitted, or stored only in accord with that
 written license.
  
 The following legend is applicable only to US Government
 contracts under FAR:
  
                    RESTRICTED RIGHTS LEGEND
  
 Use, reproduction and disclosure by the US Government is
 subject to restrictions as set forth in subparagraphs (a)
 and (c) of the Commercial Computer Software - Restricted
 Rights clause in FAR 52.227-19.
  
 Gaussian, Inc.
 340 Quinnipiac St., Bldg. 40, Wallingford CT 06492
  
  
 ---------------------------------------------------------------
 Warning -- This program may not be used in any manner that
 competes with the business of Gaussian, Inc. or will provide
 assistance to any competitor of Gaussian, Inc.  The licensee
 of this program is prohibited from giving any competitor of
 Gaussian, Inc. access to this program.  By using this program,
 the user acknowledges that Gaussian, Inc. is engaged in the
 business of creating and licensing software in the field of
 computational chemistry and represents and warrants to the
 licensee that it is not a competitor of Gaussian, Inc. and that
 it will not use this program in any manner prohibited above.
 ---------------------------------------------------------------
  

 Cite this work as:
 Gaussian 16, Revision A.03,
 M. J. Frisch, G. W. Trucks, H. B. Schlegel, G. E. Scuseria, 
 M. A. Robb, J. R. Cheeseman, G. Scalmani, V. Barone, 
 G. A. Petersson, H. Nakatsuji, X. Li, M. Caricato, A. V. Marenich, 
 J. Bloino, B. G. Janesko, R. Gomperts, B. Mennucci, H. P. Hratchian, 
 J. V. Ortiz, A. F. Izmaylov, J. L. Sonnenberg, D. Williams-Young, 
 F. Ding, F. Lipparini, F. Egidi, J. Goings, B. Peng, A. Petrone, 
 T. Henderson, D. Ranasinghe, V. G. Zakrzewski, J. Gao, N. Rega, 
 G. Zheng, W. Liang, M. Hada, M. Ehara, K. Toyota, R. Fukuda, 
 J. Hasegawa, M. Ishida, T. Nakajima, Y. Honda, O. Kitao, H. Nakai, 
 T. Vreven, K. Throssell, J. A. Montgomery, Jr., J. E. Peralta, 
 F. Ogliaro, M. J. Bearpark, J. J. Heyd, E. N. Brothers, K. N. Kudin, 
 V. N. Staroverov, T. A. Keith, R. Kobayashi, J. Normand, 
 K. Raghavachari, A. P. Rendell, J. C. Burant, S. S. Iyengar, 
 J. Tomasi, M. Cossi, J. M. Millam, M. Klene, C. Adamo, R. Cammi, 
 J. W. Ochterski, R. L. Martin, K. Morokuma, O. Farkas, 
 J. B. Foresman, and D. J. Fox, Gaussian, Inc., Wallingford CT, 2016.
 
 ******************************************
 Gaussian 16:  ES64L-G16RevA.03 25-Dec-2016
                19-Feb-2023 
 ******************************************
 %chk=gau_job.chk
 %NProcShared=16
 Will use up to   16 processors via shared memory.
 %mem=20GB
 ----------------------------------------------------------------------
 #P M062X/Def2TZVP scf=(direct,conver=8) EmpiricalDispersion=GD3 NoSymm
  Force pop=(NBORead) Charge Prop=(Field,Read)
 ----------------------------------------------------------------------
 1/10=7,18=10,28=-2,30=1,38=1,125=101/1,3;
 2/12=2,15=1,17=6,18=5,29=2,40=1/2;
 3/5=44,7=101,11=2,25=1,30=1,71=1,74=-55,124=31/1,2,3;
 4//1;
 5/5=2,6=8,38=5/2;
 6/7=2,8=2,9=2,10=2,14=2,15=1,28=1,40=2/1,2,7;
 7/7=1,16=-2,29=1,30=1/1,2,3,16;
 1/10=7,18=10,28=-2,30=1/3;
 99/12=1/99;
 Leave Link    1 at Sun Feb 19 04:28:07 2023, MaxMem=  2684354560 cpu:               0.7 elap:               0.0
 (Enter /storage/apps/GAUSSIAN/G16_RevA03/g16/l101.exe)
 ----------------------------------------------------------------------
 Gaussian run using SANDER external interface, route from template gau_
 job.tpl
 ----------------------------------------------------------------------
 Symbolic Z-matrix:
 Charge =  0 Multiplicity = 1
 C                     3.38607  -3.69291  -0.55992 
 H                     3.46625  -3.84897  -1.64439 
 H                     4.29374  -4.0667   -0.06412 
 C                     1.5312   -1.39165   1.14691 
 H                     0.92118  -2.30619   1.00763 
 O                     1.06151  -0.63717   2.2136 
 H                     0.41381   0.02679   1.90301 
 C                     2.99135  -1.8509    1.23113 
 H                     3.11249  -2.73565   1.8827 
 O                     3.77843  -0.78636   1.67924 
 H                     4.72183  -0.96296   1.43684 
 C                     1.57788  -0.67325  -0.19776 
 H                     2.16438   0.24932  -0.07009 
 C                     3.2715   -2.20673  -0.25954 
 H                     4.22452  -1.73968  -0.55262 
 O                     2.21803  -1.60434  -1.02271 
 N                     0.29665  -0.28917  -0.74532 
 C                    -0.72537  -1.21217  -0.81464 
 H                    -0.47521  -2.23068  -0.51885 
 C                    -1.94233  -0.87865  -1.29746 
 H                    -2.70282  -1.65653  -1.36014 
 C                    -2.19646   0.46539  -1.77675 
 H                    -3.0386    0.60471  -2.4597 
 H                    -2.76104   1.29719  -0.70992 
 C                    -1.0235    1.26605  -1.97502 
 C                     0.15311   0.91697  -1.37911 
 H                     1.0393    1.5528   -1.47148 
 C                    -1.07249   2.54156  -2.76181 
 O                    -0.33361   3.47564  -2.49642 
 N                    -1.97858   2.58465  -3.76585 
 H                    -1.80032   3.35277  -4.4168 
 H                    -2.33103   1.7248   -4.20014 
 C                     0.48645   2.22552   3.86633 
 C                    -1.16591   2.2291    1.63191 
 C                    -1.81007   2.83759   0.52763 
 C                    -3.81775   3.21753  -0.92779 
 C                    -3.02544   2.30908   0.00573 
 O                    -1.28225   1.04402   1.98475 
 S                    -0.1776    3.35621   2.61748 
 H                    -0.34874   1.77076   4.4168 
 H                     1.05441   1.42351   3.37723 
 H                    -4.12792   2.6992   -1.84307 
 H                    -3.20467   4.0667   -1.26133 
 H                    -4.72183   3.61147  -0.44154 
 H                    -3.61435   1.72427   0.72961 
 H                    -1.39148   3.75764   0.11302 
 H                     2.5001   -4.19736  -0.17431 
 H                     1.13225   2.75904   4.56374 
 
 ITRead=  0  0  0  0  0  0  0  0  0  0  0  0  0  0  0  0  0  0  0  0
 ITRead=  0  0  0  0  0  0  0  0  0  0  0  0  0  0  0  0  0  0  0  0
 ITRead=  0  0  0  0  0  0  0  0
 MicOpt= -1 -1 -1 -1 -1 -1 -1 -1 -1 -1 -1 -1 -1 -1 -1 -1 -1 -1 -1 -1
 MicOpt= -1 -1 -1 -1 -1 -1 -1 -1 -1 -1 -1 -1 -1 -1 -1 -1 -1 -1 -1 -1
 MicOpt= -1 -1 -1 -1 -1 -1 -1 -1
 NAtoms=     48 NQM=       48 NQMF=       0 NMMI=      0 NMMIF=      0
                NMic=       0 NMicF=      0.
                    Isotopes and Nuclear Properties:
 (Nuclear quadrupole moments (NQMom) in fm**2, nuclear magnetic moments (NMagM)
  in nuclear magnetons)

  Atom         1           2           3           4           5           6           7           8           9          10
 IAtWgt=          12           1           1          12           1          16           1          12           1          16
 AtmWgt=  12.0000000   1.0078250   1.0078250  12.0000000   1.0078250  15.9949146   1.0078250  12.0000000   1.0078250  15.9949146
 NucSpn=           0           1           1           0           1           0           1           0           1           0
 AtZEff=  -0.0000000  -0.0000000  -0.0000000  -0.0000000  -0.0000000  -0.0000000  -0.0000000  -0.0000000  -0.0000000  -0.0000000
 NQMom=    0.0000000   0.0000000   0.0000000   0.0000000   0.0000000   0.0000000   0.0000000   0.0000000   0.0000000   0.0000000
 NMagM=    0.0000000   2.7928460   2.7928460   0.0000000   2.7928460   0.0000000   2.7928460   0.0000000   2.7928460   0.0000000
 AtZNuc=   6.0000000   1.0000000   1.0000000   6.0000000   1.0000000   8.0000000   1.0000000   6.0000000   1.0000000   8.0000000

  Atom        11          12          13          14          15          16          17          18          19          20
 IAtWgt=           1          12           1          12           1          16          14          12           1          12
 AtmWgt=   1.0078250  12.0000000   1.0078250  12.0000000   1.0078250  15.9949146  14.0030740  12.0000000   1.0078250  12.0000000
 NucSpn=           1           0           1           0           1           0           2           0           1           0
 AtZEff=  -0.0000000  -0.0000000  -0.0000000  -0.0000000  -0.0000000  -0.0000000  -0.0000000  -0.0000000  -0.0000000  -0.0000000
 NQMom=    0.0000000   0.0000000   0.0000000   0.0000000   0.0000000   0.0000000   2.0440000   0.0000000   0.0000000   0.0000000
 NMagM=    2.7928460   0.0000000   2.7928460   0.0000000   2.7928460   0.0000000   0.4037610   0.0000000   2.7928460   0.0000000
 AtZNuc=   1.0000000   6.0000000   1.0000000   6.0000000   1.0000000   8.0000000   7.0000000   6.0000000   1.0000000   6.0000000

  Atom        21          22          23          24          25          26          27          28          29          30
 IAtWgt=           1          12           1           1          12          12           1          12          16          14
 AtmWgt=   1.0078250  12.0000000   1.0078250   1.0078250  12.0000000  12.0000000   1.0078250  12.0000000  15.9949146  14.0030740
 NucSpn=           1           0           1           1           0           0           1           0           0           2
 AtZEff=  -0.0000000  -0.0000000  -0.0000000  -0.0000000  -0.0000000  -0.0000000  -0.0000000  -0.0000000  -0.0000000  -0.0000000
 NQMom=    0.0000000   0.0000000   0.0000000   0.0000000   0.0000000   0.0000000   0.0000000   0.0000000   0.0000000   2.0440000
 NMagM=    2.7928460   0.0000000   2.7928460   2.7928460   0.0000000   0.0000000   2.7928460   0.0000000   0.0000000   0.4037610
 AtZNuc=   1.0000000   6.0000000   1.0000000   1.0000000   6.0000000   6.0000000   1.0000000   6.0000000   8.0000000   7.0000000

  Atom        31          32          33          34          35          36          37          38          39          40
 IAtWgt=           1           1          12          12          12          12          12          16          32           1
 AtmWgt=   1.0078250   1.0078250  12.0000000  12.0000000  12.0000000  12.0000000  12.0000000  15.9949146  31.9720718   1.0078250
 NucSpn=           1           1           0           0           0           0           0           0           0           1
 AtZEff=  -0.0000000  -0.0000000  -0.0000000  -0.0000000  -0.0000000  -0.0000000  -0.0000000  -0.0000000  -0.0000000  -0.0000000
 NQMom=    0.0000000   0.0000000   0.0000000   0.0000000   0.0000000   0.0000000   0.0000000   0.0000000   0.0000000   0.0000000
 NMagM=    2.7928460   2.7928460   0.0000000   0.0000000   0.0000000   0.0000000   0.0000000   0.0000000   0.0000000   2.7928460
 AtZNuc=   1.0000000   1.0000000   6.0000000   6.0000000   6.0000000   6.0000000   6.0000000   8.0000000  16.0000000   1.0000000

  Atom        41          42          43          44          45          46          47          48
 IAtWgt=           1           1           1           1           1           1           1           1
 AtmWgt=   1.0078250   1.0078250   1.0078250   1.0078250   1.0078250   1.0078250   1.0078250   1.0078250
 NucSpn=           1           1           1           1           1           1           1           1
 AtZEff=  -0.0000000  -0.0000000  -0.0000000  -0.0000000  -0.0000000  -0.0000000  -0.0000000  -0.0000000
 NQMom=    0.0000000   0.0000000   0.0000000   0.0000000   0.0000000   0.0000000   0.0000000   0.0000000
 NMagM=    2.7928460   2.7928460   2.7928460   2.7928460   2.7928460   2.7928460   2.7928460   2.7928460
 AtZNuc=   1.0000000   1.0000000   1.0000000   1.0000000   1.0000000   1.0000000   1.0000000   1.0000000
 Background charge distribution read from input stream:
 Leave Link  101 at Sun Feb 19 04:28:08 2023, MaxMem=  2684354560 cpu:               1.5 elap:               0.1
 (Enter /storage/apps/GAUSSIAN/G16_RevA03/g16/l103.exe)

 GradGradGradGradGradGradGradGradGradGradGradGradGradGradGradGradGradGrad
 Berny optimization.
 Initialization pass.
 Trust Radius=3.00D-01 FncErr=1.00D-07 GrdErr=1.00D-07 EigMax=2.50D+02 EigMin=1.00D-04
 Number of steps in this run=      2 maximum allowed number of steps=      2.
 GradGradGradGradGradGradGradGradGradGradGradGradGradGradGradGradGradGrad

 Leave Link  103 at Sun Feb 19 04:28:08 2023, MaxMem=  2684354560 cpu:               0.3 elap:               0.0
 (Enter /storage/apps/GAUSSIAN/G16_RevA03/g16/l202.exe)
 ---------------------------------------------------------------------------------------------------
                            Z-MATRIX (ANGSTROMS AND DEGREES)
   CD    Cent   Atom    N1       Length/X        N2       Alpha/Y        N3        Beta/Z          J
 ---------------------------------------------------------------------------------------------------
      1      1  C        0   3.386069         -3.692908         -0.559924
      2      2  H        0   3.466246         -3.848972         -1.644387
      3      3  H        0   4.293735         -4.066704         -0.064121
      4      4  C        0   1.531203         -1.391653          1.146913
      5      5  H        0   0.921180         -2.306195          1.007631
      6      6  O        0   1.061509         -0.637170          2.213599
      7      7  H        0   0.413815          0.026789          1.903011
      8      8  C        0   2.991352         -1.850897          1.231130
      9      9  H        0   3.112493         -2.735645          1.882701
     10     10  O        0   3.778434         -0.786356          1.679238
     11     11  H        0   4.721835         -0.962958          1.436843
     12     12  C        0   1.577877         -0.673247         -0.197755
     13     13  H        0   2.164380          0.249322         -0.070092
     14     14  C        0   3.271499         -2.206727         -0.259543
     15     15  H        0   4.224519         -1.739677         -0.552617
     16     16  O        0   2.218029         -1.604339         -1.022708
     17     17  N        0   0.296649         -0.289168         -0.745322
     18     18  C        0  -0.725373         -1.212172         -0.814640
     19     19  H        0  -0.475209         -2.230684         -0.518848
     20     20  C        0  -1.942334         -0.878651         -1.297456
     21     21  H        0  -2.702819         -1.656534         -1.360142
     22     22  C        0  -2.196463          0.465387         -1.776751
     23     23  H        0  -3.038600          0.604709         -2.459700
     24     24  H        0  -2.761035          1.297192         -0.709921
     25     25  C        0  -1.023497          1.266045         -1.975023
     26     26  C        0   0.153109          0.916972         -1.379113
     27     27  H        0   1.039298          1.552801         -1.471476
     28     28  C        0  -1.072489          2.541557         -2.761808
     29     29  O        0  -0.333609          3.475636         -2.496416
     30     30  N        0  -1.978580          2.584646         -3.765849
     31     31  H        0  -1.800317          3.352768         -4.416803
     32     32  H        0  -2.331034          1.724801         -4.200140
     33     33  C        0   0.486449          2.225517          3.866325
     34     34  C        0  -1.165910          2.229103          1.631913
     35     35  C        0  -1.810070          2.837588          0.527628
     36     36  C        0  -3.817745          3.217531         -0.927790
     37     37  C        0  -3.025435          2.309076          0.005734
     38     38  O        0  -1.282249          1.044019          1.984749
     39     39  S        0  -0.177604          3.356214          2.617482
     40     40  H        0  -0.348736          1.770756          4.416803
     41     41  H        0   1.054414          1.423506          3.377233
     42     42  H        0  -4.127919          2.699198         -1.843067
     43     43  H        0  -3.204666          4.066704         -1.261325
     44     44  H        0  -4.721835          3.611466         -0.441541
     45     45  H        0  -3.614346          1.724271          0.729605
     46     46  H        0  -1.391476          3.757641          0.113025
     47     47  H        0   2.500104         -4.197359         -0.174312
     48     48  H        0   1.132249          2.759042          4.563744
 ---------------------------------------------------------------------------------------------------
                         Z-Matrix orientation:                         
 ---------------------------------------------------------------------
 Center     Atomic      Atomic             Coordinates (Angstroms)
 Number     Number       Type             X           Y           Z
 ---------------------------------------------------------------------
      1          6           0        3.386069   -3.692908   -0.559924
      2          1           0        3.466246   -3.848972   -1.644387
      3          1           0        4.293735   -4.066704   -0.064121
      4          6           0        1.531203   -1.391653    1.146913
      5          1           0        0.921180   -2.306195    1.007631
      6          8           0        1.061509   -0.637170    2.213599
      7          1           0        0.413815    0.026789    1.903011
      8          6           0        2.991352   -1.850897    1.231130
      9          1           0        3.112493   -2.735645    1.882701
     10          8           0        3.778434   -0.786356    1.679238
     11          1           0        4.721835   -0.962958    1.436843
     12          6           0        1.577877   -0.673247   -0.197755
     13          1           0        2.164380    0.249322   -0.070092
     14          6           0        3.271499   -2.206727   -0.259543
     15          1           0        4.224519   -1.739677   -0.552617
     16          8           0        2.218029   -1.604339   -1.022708
     17          7           0        0.296649   -0.289168   -0.745322
     18          6           0       -0.725373   -1.212172   -0.814640
     19          1           0       -0.475209   -2.230684   -0.518848
     20          6           0       -1.942334   -0.878651   -1.297456
     21          1           0       -2.702819   -1.656534   -1.360142
     22          6           0       -2.196463    0.465387   -1.776751
     23          1           0       -3.038600    0.604709   -2.459700
     24          1           0       -2.761035    1.297192   -0.709921
     25          6           0       -1.023497    1.266045   -1.975023
     26          6           0        0.153109    0.916972   -1.379113
     27          1           0        1.039298    1.552801   -1.471476
     28          6           0       -1.072489    2.541557   -2.761808
     29          8           0       -0.333609    3.475636   -2.496416
     30          7           0       -1.978580    2.584646   -3.765849
     31          1           0       -1.800317    3.352768   -4.416803
     32          1           0       -2.331034    1.724801   -4.200140
     33          6           0        0.486449    2.225517    3.866325
     34          6           0       -1.165910    2.229103    1.631913
     35          6           0       -1.810070    2.837588    0.527628
     36          6           0       -3.817745    3.217531   -0.927790
     37          6           0       -3.025435    2.309076    0.005734
     38          8           0       -1.282249    1.044019    1.984749
     39         16           0       -0.177604    3.356214    2.617482
     40          1           0       -0.348736    1.770756    4.416803
     41          1           0        1.054414    1.423506    3.377233
     42          1           0       -4.127919    2.699198   -1.843067
     43          1           0       -3.204666    4.066704   -1.261325
     44          1           0       -4.721835    3.611466   -0.441541
     45          1           0       -3.614346    1.724271    0.729605
     46          1           0       -1.391476    3.757641    0.113025
     47          1           0        2.500104   -4.197359   -0.174312
     48          1           0        1.132249    2.759042    4.563744
 ---------------------------------------------------------------------
                    Distance matrix (angstroms):
                    1          2          3          4          5
     1  C    0.000000
     2  H    1.098564   0.000000
     3  H    1.099729   1.797049   0.000000
     4  C    3.413150   4.192155   4.031635   0.000000
     5  H    3.233555   3.986317   3.952490   1.108113   0.000000
     6  O    4.736406   5.566192   5.234214   1.388408   2.063903
     7  H    5.360643   6.076421   5.973280   1.957606   2.549889
     8  C    2.599362   3.533614   2.878138   1.532982   2.131399
     9  H    2.637729   3.715506   2.637644   2.201857   2.398339
    10  O    3.689965   4.530293   3.750402   2.387425   3.305278
    11  H    3.636479   4.404493   3.474104   3.232332   4.053824
    12  C    3.538231   3.967860   4.348482   1.525260   2.133243
    13  H    4.156157   4.579222   4.812720   2.138881   3.039358
    14  C    1.520556   2.157009   2.131354   2.381406   2.672007
    15  H    2.125598   2.493204   2.378755   3.203665   3.696940
    16  O    2.437336   2.642519   3.360162   2.285655   2.509322
    17  N    4.600471   4.850450   5.541706   2.513991   2.744317
    18  C    4.808626   5.021042   5.822636   2.995337   2.688623
    19  H    4.129074   4.406900   5.130359   2.739420   2.070203
    20  C    6.070904   6.180284   7.111495   4.278268   3.943478
    21  H    6.470064   6.553239   7.512680   4.927721   4.377417
    22  C    7.066594   7.120217   8.099113   5.088409   5.015391
    23  H    7.959588   7.925468   9.017985   6.154366   6.014616
    24  H    7.918995   8.132359   8.885844   5.394538   5.430754
    25  C    6.785130   6.813994   7.769345   4.830770   5.043698
    26  C    5.689824   5.810462   6.611431   3.689133   4.083538
    27  H    5.818567   5.924452   6.644610   3.970862   4.588221
    28  C    7.974684   7.917551   8.929894   6.125966   6.456322
    29  O    8.305060   8.295464   9.176887   6.359392   6.876220
    30  N    8.858053   8.691270   9.863325   7.229438   7.423951
    31  H    9.561154   9.342806  10.541910   8.035141   8.297884
    32  H    8.676866   8.438441   9.722950   7.295214   7.344842
    33  C    7.938970   8.726200   8.338818   4.644420   5.375643
    34  C    7.784271   8.314687   8.504202   4.540873   5.031362
    35  C    8.416057   8.790179   9.234493   5.425321   5.843683
    36  C    9.989216  10.173766  10.936276   7.359363   7.530924
    37  C    8.800634   9.098702   9.706993   5.980020   6.154697
    38  O    7.120887   7.724001   7.836387   3.814444   4.127201
    39  S    8.513859   9.129944   9.071030   5.255934   5.988474
    40  H    8.280592   9.103486   8.700986   4.922112   5.464125
    41  H    6.864075   7.670244   7.244207   3.623090   4.420796
    42  H    9.948140  10.029424  10.948349   7.596098   7.659885
    43  H   10.204966  10.358848  11.127068   7.617200   7.923674
    44  H   10.913569  11.142246  11.848090   8.164243   8.304361
    45  H    8.945084   9.318351   9.833776   6.029909   6.073956
    46  H    8.876288   9.194919   9.673334   6.010509   6.551244
    47  H    1.090000   1.793300   1.801757   3.249059   2.732488
    48  H    8.541624   9.362387   8.831927   5.390934   6.192505
                    6          7          8          9         10
     6  O    0.000000
     7  H    0.978169   0.000000
     8  C    2.482473   3.258961   0.000000
     9  H    2.952901   3.861906   1.105440   0.000000
    10  O    2.772991   3.468709   1.397693   2.069928   0.000000
    11  H    3.755992   4.444766   1.955844   2.435403   0.989924
    12  C    2.466286   2.501662   2.329482   3.307087   2.894537
    13  H    2.686529   2.647099   2.605376   3.690846   2.595757
    14  C    3.669332   4.222747   1.557948   2.212294   2.456279
    15  H    4.344203   4.865385   2.171364   2.856454   2.467587
    16  O    3.570244   3.804682   2.395539   3.243658   3.225596
    17  N    3.075928   2.669686   3.688738   4.562974   4.271827
    18  C    3.562837   3.196624   4.290361   4.932123   5.165755
    19  H    3.516683   3.428112   3.901757   4.346726   5.001114
    20  C    4.626975   4.076058   5.628523   6.254047   6.449528
    21  H    5.289697   4.816135   6.259078   6.745248   7.211219
    22  C    5.268104   4.532833   6.428527   7.198834   7.014992
    23  H    6.339786   5.593426   7.484154   8.237133   8.095543
    24  H    5.186577   4.303605   6.838721   7.581807   7.267318
    25  C    5.051142   4.317496   6.009472   6.928345   6.373736
    26  C    4.018473   3.410679   4.746587   5.721800   5.039624
    27  H    4.286753   3.755943   4.764426   5.825754   4.785553
    28  C    6.277972   5.503971   7.193888   8.181345   7.370844
    29  O    6.406697   5.639871   7.302186   8.344596   7.246347
    30  N    7.441508   6.663495   8.327309   9.280659   8.611378
    31  H    8.250569   7.476936   9.051926  10.044313   9.242106
    32  H    7.630486   6.904050   8.403102   9.302071   8.842997
    33  C    3.355172   2.948608   5.462230   5.953487   4.969094
    34  C    3.676313   2.723824   5.838653   6.558686   5.791526
    35  C    4.812735   3.839002   6.747627   7.558358   6.759479
    36  C    6.966647   6.008358   8.758636   9.558628   8.973831
    37  C    5.500741   4.542790   7.416785   8.163723   7.659957
    38  O    2.893436   1.979412   5.216526   5.797416   5.390187
    39  S    4.200671   3.456200   6.251261   6.962427   5.804431
    40  H    3.555419   3.153102   5.866947   6.221690   5.573743
    41  H    2.366534   2.129441   4.367976   4.875229   3.897046
    42  H    7.383634   6.465464   8.991000   9.789915   9.330923
    43  H    7.238908   6.279120   8.923059   9.801191   8.997932
    44  H    7.651650   6.687431   9.598359  10.347203   9.802709
    45  H    5.444471   4.525970   7.527855   8.152965   7.865001
    46  H    5.453799   4.514686   7.205210   8.098164   7.058959
    47  H    4.521794   5.148912   2.778934   2.596715   4.087140
    48  H    4.130671   3.880832   5.984490   6.426581   5.281337
                   11         12         13         14         15
    11  H    0.000000
    12  C    3.555322   0.000000
    13  H    3.206408   1.100644   0.000000
    14  C    2.555027   2.285549   2.700701   0.000000
    15  H    2.192845   2.875397   2.903983   1.101034   0.000000
    16  O    3.567885   1.399026   2.084806   1.433559   2.065260
    17  N    4.979770   1.445300   2.057748   3.572498   4.191571
    18  C    5.899437   2.444576   3.322798   4.155991   4.984811
    19  H    5.695711   2.596897   3.649554   3.755747   4.725428
    20  C    7.203794   3.693700   4.432138   5.479517   6.271063
    21  H    7.964274   4.543386   5.383878   6.099714   6.974741
    22  C    7.760812   4.246806   4.687891   6.272219   6.898537
    23  H    8.824114   5.297304   5.736508   7.249981   7.866766
    24  H    8.106184   4.792818   5.076133   6.990834   7.618745
    25  C    7.044013   3.699551   3.850330   5.783598   6.212831
    26  C    5.686563   2.440157   2.490883   4.553602   4.931252
    27  H    5.324325   2.620634   2.220077   4.537131   4.672295
    28  C    7.967715   4.892216   4.793433   6.904909   7.160152
    29  O    7.792891   5.113790   4.747220   7.091520   7.194050
    30  N    9.195056   5.999462   6.022995   7.925577   8.216024
    31  H    9.768783   6.739537   6.651623   8.597332   8.784279
    32  H    9.420329   6.086815   6.280373   7.897696   8.263311
    33  C    5.831574   5.109873   4.713404   6.665140   7.015909
    34  C    6.700213   4.393141   4.231688   6.553228   7.041314
    35  C    7.611610   4.932578   4.780443   7.203270   7.650787
    36  C    9.797571   6.692073   6.732884   8.951342   9.454769
    37  C    8.530796   5.488729   5.584131   7.753337   8.322619
    38  O    6.354304   3.986558   4.090619   6.028335   6.671707
    39  S    6.637293   5.219562   4.728712   7.149818   7.442870
    40  H    6.485680   5.565890   5.363090   7.127039   7.611368
    41  H    4.786471   4.177431   3.807202   5.596446   5.958105
    42  H   10.123603   6.829095   6.981286   9.018150   9.546312
    43  H    9.767652   6.816967   6.694631   9.071947   9.455639
    44  H   10.660046   7.622635   7.672153   9.888270  10.425176
    45  H    8.787109   5.793727   6.017363   7.990370   8.665496
    46  H    7.836397   5.342884   4.998594   7.579963   7.886886
    47  H    4.241846   3.642858   4.460554   2.136569   3.026041
    48  H    6.042840   5.886516   5.369956   7.245644   7.481828
                   16         17         18         19         20
    16  O    0.000000
    17  N    2.344849   0.000000
    18  C    2.976694   1.378866   0.000000
    19  H    2.810644   2.101556   1.089698   0.000000
    20  C    4.232108   2.380208   1.351052   2.141654   0.000000
    21  H    4.932680   3.353282   2.098886   2.449422   1.089665
    22  C    4.933568   2.801573   2.429808   3.437126   1.449394
    23  H    5.880221   3.855126   3.370207   4.286880   2.180130
    24  H    5.771291   3.444884   3.232923   4.208019   2.397866
    25  C    4.433227   2.381940   2.752621   3.827294   2.429625
    26  C    3.278403   1.370062   2.371416   3.323038   2.760763
    27  H    3.399755   2.114635   3.345232   4.185211   3.851282
    28  C    5.571394   3.735474   4.242928   5.306779   3.820835
    29  O    5.872718   4.199679   4.995737   6.040936   4.794300
    30  N    6.533295   4.749638   4.969506   5.999212   4.253082
    31  H    7.227717   5.580389   5.913523   6.937211   5.258840
    32  H    6.470953   4.785035   4.760837   5.713306   3.918498
    33  C    6.447388   5.256135   5.932761   6.325525   6.496113
    34  C    5.761366   3.759257   4.245241   4.999254   4.340756
    35  C    6.193532   3.979356   4.402137   5.344563   4.142325
    36  C    7.725931   5.409110   5.403502   6.404907   4.520235
    37  C    6.623174   4.283830   4.285147   5.233380   3.610126
    38  O    5.320766   3.423973   3.638281   4.200356   3.860730
    39  S    6.602812   4.982186   5.740180   6.413936   6.031177
    40  H    6.896944   5.595296   6.033880   6.355169   6.497050
    41  H    5.466382   4.528015   5.261772   5.556285   6.011085
    42  H    7.711321   5.450888   5.285243   6.276909   4.227939
    43  H    7.850050   5.612405   5.849184   6.903499   5.104049
    44  H    8.700810   6.363365   6.275220   7.222916   5.349706
    45  H    6.940234   4.639529   4.399267   5.201393   3.698621
    46  H    6.562717   4.468019   5.099343   6.090883   4.877305
    47  H    2.742826   4.522744   4.441291   3.583155   5.657785
    48  H    7.171225   6.178673   6.938899   7.301646   7.552452
                   21         22         23         24         25
    21  H    0.000000
    22  C    2.220925   0.000000
    23  H    2.536729   1.093172   0.000000
    24  H    3.025008   1.465868   1.902183   0.000000
    25  C    3.426320   1.433951   2.175527   2.149533   0.000000
    26  C    3.844427   2.425395   3.384108   3.014071   1.364318
    27  H    4.931092   3.427217   4.301712   3.884307   2.142641
    28  C    4.716632   2.558152   2.776372   2.934259   1.499454
    29  O    5.765713   3.612443   3.944686   3.718814   2.372781
    30  N    4.929458   2.914660   2.598042   3.407121   2.420321
    31  H    5.937238   3.932401   3.593804   4.346187   3.304565
    32  H    4.431392   2.734419   2.187324   3.542511   2.621309
    33  C    7.249670   6.491563   7.421024   5.687704   6.109163
    34  C    5.139325   3.973880   4.784028   2.982795   3.736006
    35  C    4.955584   3.329685   3.926724   2.192871   3.058055
    36  C    5.018615   3.305085   3.127404   2.202681   3.565504
    37  C    4.206633   2.695114   2.997233   1.267272   3.003176
    38  O    4.527615   3.914012   4.799051   3.084178   3.974423
    39  S    6.879379   5.634001   6.444677   4.688849   5.116194
    40  H    7.117662   6.593800   7.475382   5.685662   6.447129
    41  H    6.785733   6.168448   7.175861   5.592713   5.743618
    42  H    4.608310   2.953782   2.440027   2.262302   3.421809
    43  H    5.746048   3.775132   3.667300   2.858505   3.620850
    44  H    5.715949   4.249482   3.993348   3.045098   4.640072
    45  H    4.077716   3.142770   3.428786   1.727070   3.773259
    46  H    5.762216   3.880489   4.390093   2.933725   3.271605
    47  H    5.910363   6.809314   7.678548   7.626044   6.745895
    48  H    8.324511   7.519512   8.447835   6.716116   7.044981
                   26         27         28         29         30
    26  C    0.000000
    27  H    1.094596   0.000000
    28  C    2.460328   2.665003   0.000000
    29  O    2.834082   2.575397   1.220197   0.000000
    30  N    3.608566   3.928924   1.353128   2.260808   0.000000
    31  H    4.356207   4.469703   1.981616   2.419549   1.022511
    32  H    3.844705   4.339855   2.078420   3.155600   1.025752
    33  C    5.416459   5.408356   6.816327   6.536036   8.028414
    34  C    3.539460   3.866698   4.405807   4.392000   5.470162
    35  C    3.343426   3.710255   3.384087   3.425184   4.304221
    36  C    4.611285   5.163118   3.370014   3.829675   3.440589
    37  C    3.736161   4.390462   3.395193   3.855846   3.923861
    38  O    3.659503   4.194512   4.981609   5.185896   5.993980
    39  S    4.693830   4.631709   5.513733   5.117671   6.677257
    40  H    5.879918   6.053592   7.256060   7.120354   8.382995
    41  H    4.867418   4.850456   6.592540   6.374762   7.846714
    42  H    4.660342   5.305887   3.194462   3.927660   2.886152
    43  H    4.605360   4.937115   3.020546   3.180846   3.157915
    44  H    5.648400   6.203992   4.454893   4.847421   4.430670
    45  H    4.392282   5.150783   4.395334   4.923182   4.860565
    46  H    3.561126   3.644260   3.137718   2.829804   4.094664
    47  H    5.754677   6.072967   8.054287   8.502760   8.885569
    48  H    6.298372   6.155285   7.653227   7.246248   8.893245
                   31         32         33         34         35
    31  H    0.000000
    32  H    1.725943   0.000000
    33  C    8.666614   8.559019   0.000000
    34  C    6.184825   5.968641   2.779011   0.000000
    35  C    4.971207   4.884822   4.098235   1.415853   0.000000
    36  C    4.032558   3.891893   6.518720   3.815926   2.508656
    37  C    4.706277   4.302668   5.219624   2.471576   1.424363
    38  O    6.824851   6.310014   2.839817   1.241956   2.370377
    39  S    7.219029   7.333400   1.810814   1.794011   2.702113
    40  H    9.090789   8.842134   1.098803   2.938277   4.289442
    41  H    8.521651   8.304735   1.097732   2.936830   4.280788
    42  H    3.531147   3.119942   7.356217   4.590204   3.318399
    43  H    3.526888   3.858028   6.580813   3.987998   2.579918
    44  H    4.940132   4.837613   6.899622   4.342204   3.164893
    45  H    5.694578   5.094044   5.187174   2.657790   2.129714
    46  H    4.566225   4.859898   4.467804   2.166640   1.092526
    47  H    9.669372   8.638238   7.850790   7.615873   8.280145
    48  H    9.465869   9.479961   1.090000   3.762713   4.995363
                   36         37         38         39         40
    36  C    0.000000
    37  C    1.524635   0.000000
    38  O    4.431228   2.924990   0.000000
    39  S    5.083190   4.003483   2.639477   0.000000
    40  H    6.533901   5.187681   2.704530   2.404271   0.000000
    41  H    6.744604   5.366228   2.746455   2.414632   1.780482
    42  H    1.096636   2.187631   5.048726   5.994428   7.370903
    43  H    1.099185   2.174125   4.834182   4.971222   6.757874
    44  H    1.099546   2.184959   4.930458   5.483868   6.790855
    45  H    2.240124   1.101273   2.734374   4.247177   4.925626
    46  H    2.694772   2.186247   3.298337   2.811928   4.853610
    47  H    9.770544   8.538015   6.814674   8.486501   8.050628
    48  H    7.407402   6.185812   3.927127   2.420798   1.786510
                   41         42         43         44         45
    41  H    0.000000
    42  H    7.465621   0.000000
    43  H    6.829530   1.749541   0.000000
    44  H    7.261904   1.774611   1.783561   0.000000
    45  H    5.375659   2.798729   3.101392   2.481858   0.000000
    46  H    4.699534   3.526289   2.296087   3.379379   3.075047
    47  H    6.804236   9.709682  10.100531  10.639810   8.559747
    48  H    1.788162   8.289764   7.379041   7.749181   6.188823
                   46         47         48
    46  H    0.000000
    47  H    8.860529   0.000000
    48  H    5.212993   8.527117   0.000000
 Symmetry turned off by external request.
 Stoichiometry    C16H24N2O5S
 Framework group  C1[X(C16H24N2O5S)]
 Deg. of freedom   138
 Full point group                 C1      NOp   1
 Rotational constants (GHZ):           0.2892249           0.1668044           0.1254498
 Leave Link  202 at Sun Feb 19 04:28:08 2023, MaxMem=  2684354560 cpu:               0.2 elap:               0.0
 (Enter /storage/apps/GAUSSIAN/G16_RevA03/g16/l301.exe)
 Standard basis: def2TZVP (5D, 7F)
 Ernie: Thresh=  0.10000D-02 Tol=  0.10000D-05 Strict=F.
   894 basis functions,  1434 primitive gaussians,  1014 cartesian basis functions
    95 alpha electrons       95 beta electrons
       nuclear repulsion energy      2438.2872137065 Hartrees.
 IExCor= 4336 DFT=T Ex+Corr=M062X ExCW=0 ScaHFX=  0.540000
 ScaDFX=  1.000000  1.000000  1.000000  1.000000 ScalE2=  1.000000  1.000000
 IRadAn=      5 IRanWt=     -1 IRanGd=            0 ICorTp=0 IEmpDi=131
 NAtoms=   48 NActive=   48 NUniq=   48 SFac= 1.00D+00 NAtFMM=   60 NAOKFM=F Big=F
 Integral buffers will be    131072 words long.
 Raffenetti 2 integral format.
 Two-electron integral symmetry is turned off.
 R6Disp:  Grimme-D3 Dispersion energy=       -0.0041153043 Hartrees.
 Nuclear repulsion after empirical dispersion term =     2438.2830984022 Hartrees.
 Leave Link  301 at Sun Feb 19 04:28:08 2023, MaxMem=  2684354560 cpu:               0.9 elap:               0.1
 (Enter /storage/apps/GAUSSIAN/G16_RevA03/g16/l302.exe)
 NPDir=0 NMtPBC=     1 NCelOv=     1 NCel=       1 NClECP=     1 NCelD=      1
         NCelK=      1 NCelE2=     1 NClLst=     1 CellRange=     0.0.
 One-electron integrals computed using PRISM.
   1 Symmetry operations used in ECPInt.
 ECPInt:  NShTT=   65703 NPrTT=  200010 LenC2=   56037 LenP2D=  118858.
 LDataN:  DoStor=T MaxTD1= 6 Len=  172
 NBasis=   894 RedAO= T EigKep=  3.07D-05  NBF=   894
 NBsUse=   894 1.00D-06 EigRej= -1.00D+00 NBFU=   894
 Precomputing XC quadrature grid using
 IXCGrd= 4 IRadAn=           5 IRanWt=          -1 IRanGd=           0 AccXCQ= 0.00D+00.
 Generated NRdTot=       0 NPtTot=           0 NUsed=           0 NTot=          32
 NSgBfM=   996   994   995   995   996 MxSgAt=    48 MxSgA2=    48.
 Leave Link  302 at Sun Feb 19 04:28:09 2023, MaxMem=  2684354560 cpu:              18.7 elap:               1.2
 (Enter /storage/apps/GAUSSIAN/G16_RevA03/g16/l303.exe)
 DipDrv:  MaxL=1.
 Leave Link  303 at Sun Feb 19 04:28:09 2023, MaxMem=  2684354560 cpu:               2.1 elap:               0.2
 (Enter /storage/apps/GAUSSIAN/G16_RevA03/g16/l401.exe)
 ExpMin= 9.52D-02 ExpMax= 6.07D+04 ExpMxC= 2.07D+03 IAcc=3 IRadAn=         5 AccDes= 0.00D+00
 Harris functional with IExCor= 1009 and IRadAn=       5 diagonalized for initial guess.
 HarFok:  IExCor= 1009 AccDes= 0.00D+00 IRadAn=         5 IDoV= 1 UseB2=F ITyADJ=14
 ICtDFT=  3500011 ScaDFX=  1.000000  1.000000  1.000000  1.000000
 FoFCou: FMM=F IPFlag=           0 FMFlag=      100000 FMFlg1=           0
         NFxFlg=           0 DoJE=T BraDBF=F KetDBF=T FulRan=T
         wScrn=  0.000000 ICntrl=       500 IOpCl=  0 I1Cent=   200000004 NGrid=           0
         NMat0=    1 NMatS0=      1 NMatT0=    0 NMatD0=    1 NMtDS0=    0 NMtDT0=    0
 Symmetry not used in FoFCou.
 Harris En= -1507.18433619037    
 JPrj=0 DoOrth=F DoCkMO=F.
 Leave Link  401 at Sun Feb 19 04:28:13 2023, MaxMem=  2684354560 cpu:              60.8 elap:               3.8
 (Enter /storage/apps/GAUSSIAN/G16_RevA03/g16/l502.exe)
 Two-electron integral symmetry not used.
 Closed shell SCF:
 Using DIIS extrapolation, IDIIS=  1040.
 NGot=  2684354560 LenX=  2682275214 LenY=  2681246004
 Requested convergence on RMS density matrix=1.00D-08 within 128 cycles.
 Requested convergence on MAX density matrix=1.00D-06.
 Requested convergence on             energy=1.00D-06.
 No special actions if energy rises.
 Fock matrices will be formed incrementally for  20 cycles.
 Integral accuracy reduced to 1.0D-05 until final iterations.

 Cycle   1  Pass 0  IDiag  1:
 FoFJK:  IHMeth= 1 ICntrl=       0 DoSepK=F KAlg= 0 I1Cent=           0 FoldK=F
 IRaf= 780000000 NMat=       1 IRICut=       1 DoRegI=T DoRafI=F ISym2E= 0 IDoP0=0 IntGTp=1.
 FoFCou: FMM=F IPFlag=           0 FMFlag=      100000 FMFlg1=           0
         NFxFlg=           0 DoJE=F BraDBF=F KetDBF=F FulRan=T
         wScrn=  0.000000 ICntrl=         0 IOpCl=  0 I1Cent=           0 NGrid=           0
         NMat0=    1 NMatS0=      1 NMatT0=    0 NMatD0=    1 NMtDS0=    0 NMtDT0=    0
 Symmetry not used in FoFCou.
 E= -1507.10109481427    
 DIIS: error= 1.62D-02 at cycle   1 NSaved=   1.
 NSaved= 1 IEnMin= 1 EnMin= -1507.10109481427     IErMin= 1 ErrMin= 1.62D-02
 ErrMax= 1.62D-02  0.00D+00 EMaxC= 1.00D-01 BMatC= 9.92D-01 BMatP= 9.92D-01
 IDIUse=3 WtCom= 8.38D-01 WtEn= 1.62D-01
 Coeff-Com:  0.100D+01
 Coeff-En:   0.100D+01
 Coeff:      0.100D+01
 Gap=     0.242 Goal=   None    Shift=    0.000
 GapD=    0.242 DampG=1.000 DampE=0.500 DampFc=0.5000 IDamp=-1.
 Damping current iteration by 5.00D-01
 RMSDP=4.21D-03 MaxDP=1.18D+00              OVMax= 3.53D-01

 Cycle   2  Pass 0  IDiag  1:
 RMSU=  2.10D-03    CP:  1.02D+00
 E= -1507.42011011078     Delta-E=       -0.319015296515 Rises=F Damp=T
 DIIS: error= 3.99D-03 at cycle   2 NSaved=   2.
 NSaved= 2 IEnMin= 2 EnMin= -1507.42011011078     IErMin= 2 ErrMin= 3.99D-03
 ErrMax= 3.99D-03  0.00D+00 EMaxC= 1.00D-01 BMatC= 9.79D-02 BMatP= 9.92D-01
 IDIUse=3 WtCom= 9.60D-01 WtEn= 3.99D-02
 Coeff-Com:  0.272D-01 0.973D+00
 Coeff-En:   0.114D+00 0.886D+00
 Coeff:      0.307D-01 0.969D+00
 Gap=     0.248 Goal=   None    Shift=    0.000
 RMSDP=1.39D-03 MaxDP=3.90D-01 DE=-3.19D-01 OVMax= 2.88D-01

 Cycle   3  Pass 0  IDiag  1:
 RMSU=  1.14D-03    CP:  1.00D+00  6.23D-01
 E= -1507.79195769895     Delta-E=       -0.371847588165 Rises=F Damp=F
 DIIS: error= 3.78D-03 at cycle   3 NSaved=   3.
 NSaved= 3 IEnMin= 3 EnMin= -1507.79195769895     IErMin= 3 ErrMin= 3.78D-03
 ErrMax= 3.78D-03  0.00D+00 EMaxC= 1.00D-01 BMatC= 6.29D-02 BMatP= 9.79D-02
 IDIUse=3 WtCom= 9.62D-01 WtEn= 3.78D-02
 Coeff-Com: -0.714D-01 0.458D+00 0.613D+00
 Coeff-En:   0.000D+00 0.000D+00 0.100D+01
 Coeff:     -0.687D-01 0.441D+00 0.628D+00
 Gap=     0.167 Goal=   None    Shift=    0.000
 RMSDP=4.92D-04 MaxDP=6.24D-02 DE=-3.72D-01 OVMax= 1.27D-01

 Cycle   4  Pass 0  IDiag  1:
 RMSU=  4.07D-04    CP:  1.00D+00  7.37D-01  8.81D-01
 E= -1507.84068571322     Delta-E=       -0.048728014273 Rises=F Damp=F
 DIIS: error= 1.58D-03 at cycle   4 NSaved=   4.
 NSaved= 4 IEnMin= 4 EnMin= -1507.84068571322     IErMin= 4 ErrMin= 1.58D-03
 ErrMax= 1.58D-03  0.00D+00 EMaxC= 1.00D-01 BMatC= 1.04D-02 BMatP= 6.29D-02
 IDIUse=3 WtCom= 9.84D-01 WtEn= 1.58D-02
 Coeff-Com: -0.356D-01 0.962D-01 0.328D+00 0.612D+00
 Coeff-En:   0.000D+00 0.000D+00 0.112D+00 0.888D+00
 Coeff:     -0.351D-01 0.947D-01 0.324D+00 0.616D+00
 Gap=     0.172 Goal=   None    Shift=    0.000
 RMSDP=1.80D-04 MaxDP=2.11D-02 DE=-4.87D-02 OVMax= 4.73D-02

 Cycle   5  Pass 0  IDiag  1:
 RMSU=  1.14D-04    CP:  1.00D+00  7.17D-01  9.28D-01  6.99D-01
 E= -1507.84978152593     Delta-E=       -0.009095812709 Rises=F Damp=F
 DIIS: error= 4.69D-04 at cycle   5 NSaved=   5.
 NSaved= 5 IEnMin= 5 EnMin= -1507.84978152593     IErMin= 5 ErrMin= 4.69D-04
 ErrMax= 4.69D-04  0.00D+00 EMaxC= 1.00D-01 BMatC= 5.02D-04 BMatP= 1.04D-02
 IDIUse=3 WtCom= 9.95D-01 WtEn= 4.69D-03
 Coeff-Com: -0.111D-01 0.202D-01 0.119D+00 0.276D+00 0.596D+00
 Coeff-En:   0.000D+00 0.000D+00 0.000D+00 0.000D+00 0.100D+01
 Coeff:     -0.110D-01 0.201D-01 0.118D+00 0.274D+00 0.598D+00
 Gap=     0.171 Goal=   None    Shift=    0.000
 RMSDP=5.51D-05 MaxDP=4.41D-03 DE=-9.10D-03 OVMax= 1.68D-02

 Cycle   6  Pass 0  IDiag  1:
 RMSU=  4.54D-05    CP:  1.00D+00  7.14D-01  9.31D-01  7.55D-01  8.30D-01
 E= -1507.85024699487     Delta-E=       -0.000465468936 Rises=F Damp=F
 DIIS: error= 2.66D-04 at cycle   6 NSaved=   6.
 NSaved= 6 IEnMin= 6 EnMin= -1507.85024699487     IErMin= 6 ErrMin= 2.66D-04
 ErrMax= 2.66D-04  0.00D+00 EMaxC= 1.00D-01 BMatC= 1.22D-04 BMatP= 5.02D-04
 IDIUse=3 WtCom= 9.97D-01 WtEn= 2.66D-03
 Coeff-Com:  0.967D-05-0.497D-02 0.145D-01 0.495D-01 0.337D+00 0.604D+00
 Coeff-En:   0.000D+00 0.000D+00 0.000D+00 0.000D+00 0.947D-01 0.905D+00
 Coeff:      0.965D-05-0.495D-02 0.145D-01 0.494D-01 0.337D+00 0.605D+00
 Gap=     0.173 Goal=   None    Shift=    0.000
 RMSDP=2.77D-05 MaxDP=3.72D-03 DE=-4.65D-04 OVMax= 5.18D-03

 Cycle   7  Pass 0  IDiag  1:
 RMSU=  1.99D-05    CP:  1.00D+00  7.10D-01  9.39D-01  7.53D-01  9.52D-01
                    CP:  9.21D-01
 E= -1507.85039540025     Delta-E=       -0.000148405385 Rises=F Damp=F
 DIIS: error= 8.03D-05 at cycle   7 NSaved=   7.
 NSaved= 7 IEnMin= 7 EnMin= -1507.85039540025     IErMin= 7 ErrMin= 8.03D-05
 ErrMax= 8.03D-05  0.00D+00 EMaxC= 1.00D-01 BMatC= 1.73D-05 BMatP= 1.22D-04
 IDIUse=1 WtCom= 1.00D+00 WtEn= 0.00D+00
 Coeff-Com:  0.216D-02-0.618D-02-0.127D-01-0.292D-01 0.652D-01 0.295D+00
 Coeff-Com:  0.686D+00
 Coeff:      0.216D-02-0.618D-02-0.127D-01-0.292D-01 0.652D-01 0.295D+00
 Coeff:      0.686D+00
 Gap=     0.173 Goal=   None    Shift=    0.000
 RMSDP=1.78D-05 MaxDP=2.01D-03 DE=-1.48D-04 OVMax= 2.63D-03

 Cycle   8  Pass 0  IDiag  1:
 RMSU=  1.16D-05    CP:  1.00D+00  7.08D-01  9.39D-01  7.60D-01  1.00D+00
                    CP:  1.14D+00  1.27D+00
 E= -1507.85042208227     Delta-E=       -0.000026682023 Rises=F Damp=F
 DIIS: error= 3.02D-05 at cycle   8 NSaved=   8.
 NSaved= 8 IEnMin= 8 EnMin= -1507.85042208227     IErMin= 8 ErrMin= 3.02D-05
 ErrMax= 3.02D-05  0.00D+00 EMaxC= 1.00D-01 BMatC= 3.03D-06 BMatP= 1.73D-05
 IDIUse=1 WtCom= 1.00D+00 WtEn= 0.00D+00
 Coeff-Com:  0.111D-02-0.206D-02-0.816D-02-0.260D-01-0.390D-01 0.441D-02
 Coeff-Com:  0.304D+00 0.766D+00
 Coeff:      0.111D-02-0.206D-02-0.816D-02-0.260D-01-0.390D-01 0.441D-02
 Coeff:      0.304D+00 0.766D+00
 Gap=     0.173 Goal=   None    Shift=    0.000
 RMSDP=2.05D-05 MaxDP=2.89D-03 DE=-2.67D-05 OVMax= 1.21D-03

 Cycle   9  Pass 0  IDiag  1:
 RMSU=  9.54D-06    CP:  1.00D+00  7.06D-01  9.41D-01  7.64D-01  1.04D+00
                    CP:  1.29D+00  1.77D+00  1.98D+00
 E= -1507.85042207915     Delta-E=        0.000000003122 Rises=F Damp=F
 DIIS: error= 2.03D-05 at cycle   9 NSaved=   9.
 NSaved= 9 IEnMin= 8 EnMin= -1507.85042208227     IErMin= 9 ErrMin= 2.03D-05
 ErrMax= 2.03D-05  0.00D+00 EMaxC= 1.00D-01 BMatC= 6.57D-07 BMatP= 3.03D-06
 IDIUse=1 WtCom= 1.00D+00 WtEn= 0.00D+00
 Coeff-Com:  0.347D-03-0.451D-03-0.241D-02-0.102D-01-0.236D-01-0.249D-01
 Coeff-Com:  0.730D-01 0.363D+00 0.625D+00
 Coeff:      0.347D-03-0.451D-03-0.241D-02-0.102D-01-0.236D-01-0.249D-01
 Coeff:      0.730D-01 0.363D+00 0.625D+00
 Gap=     0.173 Goal=   None    Shift=    0.000
 RMSDP=2.35D-05 MaxDP=3.88D-03 DE= 3.12D-09 OVMax= 2.96D-04

 Cycle  10  Pass 0  IDiag  1:
 RMSU=  7.23D-06    CP:  1.00D+00  7.05D-01  9.43D-01  7.68D-01  1.06D+00
                    CP:  1.42D+00  2.28D+00  3.00D+00  2.25D+00
 E= -1507.85041347145     Delta-E=        0.000008607699 Rises=F Damp=F
 DIIS: error= 3.03D-05 at cycle  10 NSaved=  10.
 NSaved=10 IEnMin= 8 EnMin= -1507.85042208227     IErMin= 9 ErrMin= 2.03D-05
 ErrMax= 3.03D-05  0.00D+00 EMaxC= 1.00D-01 BMatC= 6.53D-07 BMatP= 6.57D-07
 IDIUse=1 WtCom= 1.00D+00 WtEn= 0.00D+00
 Coeff-Com:  0.365D-03-0.471D-03-0.256D-02-0.108D-01-0.251D-01-0.266D-01
 Coeff-Com:  0.769D-01 0.385D+00 0.667D+00-0.634D-01
 Coeff:      0.365D-03-0.471D-03-0.256D-02-0.108D-01-0.251D-01-0.266D-01
 Coeff:      0.769D-01 0.385D+00 0.667D+00-0.634D-01
 Gap=     0.173 Goal=   None    Shift=    0.000
 RMSDP=3.25D-06 MaxDP=5.49D-04 DE= 8.61D-06 OVMax= 1.32D-05

 Initial convergence to 1.0D-05 achieved.  Increase integral accuracy.
 Cycle  11  Pass 1  IDiag  1:
 E= -1507.85027022354     Delta-E=        0.000143247910 Rises=F Damp=F
 DIIS: error= 3.57D-04 at cycle   1 NSaved=   1.
 NSaved= 1 IEnMin= 1 EnMin= -1507.85027022354     IErMin= 1 ErrMin= 3.57D-04
 ErrMax= 3.57D-04  0.00D+00 EMaxC= 1.00D-01 BMatC= 9.36D-05 BMatP= 9.36D-05
 IDIUse=3 WtCom= 9.96D-01 WtEn= 3.57D-03
 Coeff-Com:  0.100D+01
 Coeff-En:   0.100D+01
 Coeff:      0.100D+01
 Gap=     0.173 Goal=   None    Shift=    0.000
 RMSDP=3.25D-06 MaxDP=5.49D-04 DE= 1.43D-04 OVMax= 1.24D-03

 Cycle  12  Pass 1  IDiag  1:
 RMSU=  4.95D-04    CP:  9.93D-01
 E= -1507.85033188853     Delta-E=       -0.000061664987 Rises=F Damp=F
 DIIS: error= 7.47D-06 at cycle   2 NSaved=   2.
 NSaved= 2 IEnMin= 2 EnMin= -1507.85033188853     IErMin= 2 ErrMin= 7.47D-06
 ErrMax= 7.47D-06  0.00D+00 EMaxC= 1.00D-01 BMatC= 2.11D-07 BMatP= 9.36D-05
 IDIUse=1 WtCom= 1.00D+00 WtEn= 0.00D+00
 Coeff-Com: -0.142D-01 0.101D+01
 Coeff:     -0.142D-01 0.101D+01
 Gap=     0.173 Goal=   None    Shift=    0.000
 RMSDP=1.76D-05 MaxDP=1.89D-03 DE=-6.17D-05 OVMax= 2.64D-04

 Cycle  13  Pass 1  IDiag  1:
 RMSU=  5.65D-06    CP:  9.93D-01  1.03D+00
 E= -1507.85033176845     Delta-E=        0.000000120081 Rises=F Damp=F
 DIIS: error= 1.30D-05 at cycle   3 NSaved=   3.
 NSaved= 3 IEnMin= 2 EnMin= -1507.85033188853     IErMin= 2 ErrMin= 7.47D-06
 ErrMax= 1.30D-05  0.00D+00 EMaxC= 1.00D-01 BMatC= 4.42D-07 BMatP= 2.11D-07
 IDIUse=1 WtCom= 1.00D+00 WtEn= 0.00D+00
 Coeff-Com: -0.106D-01 0.618D+00 0.393D+00
 Coeff:     -0.106D-01 0.618D+00 0.393D+00
 Gap=     0.173 Goal=   None    Shift=    0.000
 RMSDP=1.02D-06 MaxDP=2.49D-04 DE= 1.20D-07 OVMax= 1.66D-04

 Cycle  14  Pass 1  IDiag  1:
 RMSU=  9.63D-07    CP:  9.93D-01  1.03D+00  9.68D-01
 E= -1507.85033210515     Delta-E=       -0.000000336698 Rises=F Damp=F
 DIIS: error= 1.22D-06 at cycle   4 NSaved=   4.
 NSaved= 4 IEnMin= 4 EnMin= -1507.85033210515     IErMin= 4 ErrMin= 1.22D-06
 ErrMax= 1.22D-06  0.00D+00 EMaxC= 1.00D-01 BMatC= 3.69D-09 BMatP= 2.11D-07
 IDIUse=1 WtCom= 1.00D+00 WtEn= 0.00D+00
 Coeff-Com: -0.165D-02 0.846D-01 0.957D-01 0.821D+00
 Coeff:     -0.165D-02 0.846D-01 0.957D-01 0.821D+00
 Gap=     0.173 Goal=   None    Shift=    0.000
 RMSDP=3.75D-07 MaxDP=3.20D-05 DE=-3.37D-07 OVMax= 4.99D-05

 Cycle  15  Pass 1  IDiag  1:
 RMSU=  1.92D-07    CP:  9.93D-01  1.03D+00  1.00D+00  1.01D+00
 E= -1507.85033210825     Delta-E=       -0.000000003107 Rises=F Damp=F
 DIIS: error= 8.68D-07 at cycle   5 NSaved=   5.
 NSaved= 5 IEnMin= 5 EnMin= -1507.85033210825     IErMin= 5 ErrMin= 8.68D-07
 ErrMax= 8.68D-07  0.00D+00 EMaxC= 1.00D-01 BMatC= 2.09D-09 BMatP= 3.69D-09
 IDIUse=1 WtCom= 1.00D+00 WtEn= 0.00D+00
 Coeff-Com:  0.502D-03-0.361D-01-0.192D-03 0.474D+00 0.562D+00
 Coeff:      0.502D-03-0.361D-01-0.192D-03 0.474D+00 0.562D+00
 Gap=     0.173 Goal=   None    Shift=    0.000
 RMSDP=1.31D-07 MaxDP=8.90D-06 DE=-3.11D-09 OVMax= 1.78D-05

 Cycle  16  Pass 1  IDiag  1:
 RMSU=  9.21D-08    CP:  9.93D-01  1.03D+00  1.01D+00  1.03D+00  1.05D+00
 E= -1507.85033211057     Delta-E=       -0.000000002318 Rises=F Damp=F
 DIIS: error= 2.31D-07 at cycle   6 NSaved=   6.
 NSaved= 6 IEnMin= 6 EnMin= -1507.85033211057     IErMin= 6 ErrMin= 2.31D-07
 ErrMax= 2.31D-07  0.00D+00 EMaxC= 1.00D-01 BMatC= 1.62D-10 BMatP= 2.09D-09
 IDIUse=1 WtCom= 1.00D+00 WtEn= 0.00D+00
 Coeff-Com:  0.399D-03-0.248D-01-0.121D-01 0.103D+00 0.240D+00 0.694D+00
 Coeff:      0.399D-03-0.248D-01-0.121D-01 0.103D+00 0.240D+00 0.694D+00
 Gap=     0.173 Goal=   None    Shift=    0.000
 RMSDP=4.16D-08 MaxDP=3.28D-06 DE=-2.32D-09 OVMax= 1.57D-05

 Cycle  17  Pass 1  IDiag  1:
 RMSU=  2.84D-08    CP:  9.93D-01  1.03D+00  1.01D+00  1.03D+00  1.20D+00
                    CP:  1.05D+00
 E= -1507.85033211086     Delta-E=       -0.000000000287 Rises=F Damp=F
 DIIS: error= 1.56D-07 at cycle   7 NSaved=   7.
 NSaved= 7 IEnMin= 7 EnMin= -1507.85033211086     IErMin= 7 ErrMin= 1.56D-07
 ErrMax= 1.56D-07  0.00D+00 EMaxC= 1.00D-01 BMatC= 4.78D-11 BMatP= 1.62D-10
 IDIUse=1 WtCom= 1.00D+00 WtEn= 0.00D+00
 Coeff-Com:  0.207D-04 0.316D-03-0.641D-02-0.108D+00-0.812D-01 0.341D+00
 Coeff-Com:  0.855D+00
 Coeff:      0.207D-04 0.316D-03-0.641D-02-0.108D+00-0.812D-01 0.341D+00
 Coeff:      0.855D+00
 Gap=     0.173 Goal=   None    Shift=    0.000
 RMSDP=3.40D-08 MaxDP=3.46D-06 DE=-2.87D-10 OVMax= 5.82D-06

 Cycle  18  Pass 1  IDiag  1:
 RMSU=  2.17D-08    CP:  9.93D-01  1.03D+00  1.01D+00  1.03D+00  1.28D+00
                    CP:  1.25D+00  1.23D+00
 E= -1507.85033211094     Delta-E=       -0.000000000084 Rises=F Damp=F
 DIIS: error= 4.99D-08 at cycle   8 NSaved=   8.
 NSaved= 8 IEnMin= 8 EnMin= -1507.85033211094     IErMin= 8 ErrMin= 4.99D-08
 ErrMax= 4.99D-08  0.00D+00 EMaxC= 1.00D-01 BMatC= 5.97D-12 BMatP= 4.78D-11
 IDIUse=1 WtCom= 1.00D+00 WtEn= 0.00D+00
 Coeff-Com: -0.477D-04 0.373D-02-0.134D-02-0.634D-01-0.735D-01 0.837D-01
 Coeff-Com:  0.397D+00 0.654D+00
 Coeff:     -0.477D-04 0.373D-02-0.134D-02-0.634D-01-0.735D-01 0.837D-01
 Coeff:      0.397D+00 0.654D+00
 Gap=     0.173 Goal=   None    Shift=    0.000
 RMSDP=1.04D-08 MaxDP=1.30D-06 DE=-8.37D-11 OVMax= 2.91D-06

 Cycle  19  Pass 1  IDiag  1:
 RMSU=  6.13D-09    CP:  9.93D-01  1.03D+00  1.01D+00  1.03D+00  1.29D+00
                    CP:  1.30D+00  1.42D+00  1.13D+00
 E= -1507.85033211097     Delta-E=       -0.000000000030 Rises=F Damp=F
 DIIS: error= 2.48D-08 at cycle   9 NSaved=   9.
 NSaved= 9 IEnMin= 9 EnMin= -1507.85033211097     IErMin= 9 ErrMin= 2.48D-08
 ErrMax= 2.48D-08  0.00D+00 EMaxC= 1.00D-01 BMatC= 1.59D-12 BMatP= 5.97D-12
 IDIUse=1 WtCom= 1.00D+00 WtEn= 0.00D+00
 Coeff-Com: -0.304D-04 0.210D-02 0.129D-03-0.207D-01-0.326D-01 0.248D-02
 Coeff-Com:  0.993D-01 0.383D+00 0.567D+00
 Coeff:     -0.304D-04 0.210D-02 0.129D-03-0.207D-01-0.326D-01 0.248D-02
 Coeff:      0.993D-01 0.383D+00 0.567D+00
 Gap=     0.173 Goal=   None    Shift=    0.000
 RMSDP=3.43D-09 MaxDP=3.31D-07 DE=-3.05D-11 OVMax= 5.26D-07

 SCF Done:  E(RM062X) =  -1507.85033211     A.U. after   19 cycles
            NFock= 19  Conv=0.34D-08     -V/T= 2.0041
 KE= 1.501743258608D+03 PE=-8.414695168536D+03 EE= 2.966818479415D+03
 Leave Link  502 at Sun Feb 19 04:37:11 2023, MaxMem=  2684354560 cpu:            8594.7 elap:             537.8
 (Enter /storage/apps/GAUSSIAN/G16_RevA03/g16/l601.exe)
 Copying SCF densities to generalized density rwf, IOpCl= 0 IROHF=0.

 **********************************************************************

            Population analysis using the SCF density.

 **********************************************************************

 Alpha  occ. eigenvalues --  -89.88000 -19.65467 -19.64235 -19.61994 -19.60084
 Alpha  occ. eigenvalues --  -19.58778 -14.82696 -14.78269 -10.65715 -10.64493
 Alpha  occ. eigenvalues --  -10.61613 -10.61345 -10.61159 -10.60657 -10.60306
 Alpha  occ. eigenvalues --  -10.59986 -10.58145 -10.56631 -10.56054 -10.54989
 Alpha  occ. eigenvalues --  -10.54874 -10.53732 -10.52868 -10.51693  -8.23890
 Alpha  occ. eigenvalues --   -6.15837  -6.15619  -6.15389  -1.21211  -1.17110
 Alpha  occ. eigenvalues --   -1.16510  -1.14512  -1.12873  -1.11211  -1.02920
 Alpha  occ. eigenvalues --   -0.94687  -0.89699  -0.89299  -0.89038  -0.87183
 Alpha  occ. eigenvalues --   -0.85820  -0.80236  -0.79424  -0.77079  -0.74507
 Alpha  occ. eigenvalues --   -0.72514  -0.71620  -0.69326  -0.68011  -0.66184
 Alpha  occ. eigenvalues --   -0.65189  -0.63803  -0.61991  -0.60894  -0.59650
 Alpha  occ. eigenvalues --   -0.58737  -0.58128  -0.56015  -0.55106  -0.54687
 Alpha  occ. eigenvalues --   -0.53252  -0.52653  -0.52510  -0.51540  -0.50846
 Alpha  occ. eigenvalues --   -0.50678  -0.50520  -0.49435  -0.49238  -0.49011
 Alpha  occ. eigenvalues --   -0.48187  -0.47625  -0.46882  -0.46624  -0.46047
 Alpha  occ. eigenvalues --   -0.45295  -0.44808  -0.44364  -0.43801  -0.43001
 Alpha  occ. eigenvalues --   -0.42886  -0.41724  -0.40947  -0.38916  -0.37740
 Alpha  occ. eigenvalues --   -0.36338  -0.36006  -0.35512  -0.35180  -0.35011
 Alpha  occ. eigenvalues --   -0.33564  -0.31197  -0.29894  -0.28191  -0.21838
 Alpha virt. eigenvalues --   -0.04509  -0.01339   0.04000   0.04336   0.05554
 Alpha virt. eigenvalues --    0.05716   0.07184   0.07706   0.07992   0.08374
 Alpha virt. eigenvalues --    0.08907   0.09642   0.09815   0.10838   0.10963
 Alpha virt. eigenvalues --    0.11431   0.12169   0.12859   0.13253   0.13370
 Alpha virt. eigenvalues --    0.13966   0.14208   0.14332   0.15164   0.15363
 Alpha virt. eigenvalues --    0.15755   0.16156   0.16319   0.16912   0.17740
 Alpha virt. eigenvalues --    0.18755   0.18871   0.19311   0.19625   0.19857
 Alpha virt. eigenvalues --    0.20481   0.21143   0.21238   0.21662   0.22377
 Alpha virt. eigenvalues --    0.22518   0.23224   0.23617   0.24381   0.24874
 Alpha virt. eigenvalues --    0.25201   0.25273   0.26030   0.26281   0.26745
 Alpha virt. eigenvalues --    0.27120   0.27908   0.28024   0.28281   0.28689
 Alpha virt. eigenvalues --    0.29306   0.29709   0.30131   0.30899   0.31301
 Alpha virt. eigenvalues --    0.31802   0.31906   0.32250   0.32397   0.33273
 Alpha virt. eigenvalues --    0.33339   0.34055   0.34543   0.35162   0.35554
 Alpha virt. eigenvalues --    0.36565   0.37425   0.37719   0.37892   0.38266
 Alpha virt. eigenvalues --    0.38991   0.39128   0.39851   0.40020   0.40515
 Alpha virt. eigenvalues --    0.40636   0.40893   0.40980   0.41165   0.41914
 Alpha virt. eigenvalues --    0.42145   0.42748   0.43126   0.43399   0.43840
 Alpha virt. eigenvalues --    0.43881   0.44545   0.44697   0.45316   0.45709
 Alpha virt. eigenvalues --    0.46078   0.46273   0.46713   0.47062   0.47246
 Alpha virt. eigenvalues --    0.47803   0.48330   0.48598   0.49150   0.49248
 Alpha virt. eigenvalues --    0.49538   0.50107   0.50135   0.50456   0.50739
 Alpha virt. eigenvalues --    0.51091   0.51348   0.51482   0.51956   0.52541
 Alpha virt. eigenvalues --    0.52778   0.53240   0.53802   0.54012   0.55043
 Alpha virt. eigenvalues --    0.55151   0.55545   0.55970   0.56228   0.57570
 Alpha virt. eigenvalues --    0.57703   0.57948   0.58620   0.58945   0.59295
 Alpha virt. eigenvalues --    0.60086   0.60498   0.60858   0.61406   0.62031
 Alpha virt. eigenvalues --    0.62270   0.62750   0.63438   0.63828   0.64341
 Alpha virt. eigenvalues --    0.65236   0.65838   0.66485   0.67011   0.67507
 Alpha virt. eigenvalues --    0.67676   0.68399   0.68611   0.69446   0.69774
 Alpha virt. eigenvalues --    0.71213   0.72052   0.72776   0.73273   0.73611
 Alpha virt. eigenvalues --    0.74036   0.75466   0.75920   0.76868   0.77121
 Alpha virt. eigenvalues --    0.77701   0.78897   0.79642   0.80054   0.81167
 Alpha virt. eigenvalues --    0.81510   0.82723   0.83176   0.83532   0.83946
 Alpha virt. eigenvalues --    0.84282   0.85779   0.86182   0.86644   0.87293
 Alpha virt. eigenvalues --    0.87913   0.88513   0.89081   0.89960   0.90252
 Alpha virt. eigenvalues --    0.90616   0.91710   0.92803   0.92969   0.93470
 Alpha virt. eigenvalues --    0.94878   0.95454   0.95780   0.96388   0.96978
 Alpha virt. eigenvalues --    0.97510   0.97669   0.98440   0.99104   0.99683
 Alpha virt. eigenvalues --    1.00688   1.01247   1.02098   1.03345   1.03974
 Alpha virt. eigenvalues --    1.04806   1.05216   1.05378   1.05727   1.06472
 Alpha virt. eigenvalues --    1.06685   1.08053   1.08817   1.09498   1.09759
 Alpha virt. eigenvalues --    1.10086   1.11027   1.12180   1.12474   1.13293
 Alpha virt. eigenvalues --    1.13802   1.14091   1.14736   1.15490   1.16161
 Alpha virt. eigenvalues --    1.16747   1.17004   1.18122   1.18264   1.20114
 Alpha virt. eigenvalues --    1.20463   1.21233   1.21867   1.22684   1.23355
 Alpha virt. eigenvalues --    1.24446   1.25804   1.26735   1.27054   1.27681
 Alpha virt. eigenvalues --    1.28254   1.29531   1.29748   1.30742   1.31541
 Alpha virt. eigenvalues --    1.32221   1.33097   1.33835   1.34925   1.35731
 Alpha virt. eigenvalues --    1.36355   1.37040   1.37527   1.38172   1.40131
 Alpha virt. eigenvalues --    1.40537   1.41833   1.43108   1.43208   1.44017
 Alpha virt. eigenvalues --    1.44691   1.45545   1.47240   1.49108   1.49933
 Alpha virt. eigenvalues --    1.50352   1.51167   1.51324   1.51772   1.52480
 Alpha virt. eigenvalues --    1.53573   1.54833   1.55313   1.55677   1.55831
 Alpha virt. eigenvalues --    1.56475   1.57024   1.57380   1.57959   1.58339
 Alpha virt. eigenvalues --    1.58924   1.59251   1.59350   1.60217   1.60618
 Alpha virt. eigenvalues --    1.61153   1.61813   1.62129   1.62812   1.63322
 Alpha virt. eigenvalues --    1.63916   1.64205   1.64660   1.65275   1.66366
 Alpha virt. eigenvalues --    1.66683   1.66925   1.67489   1.68022   1.68684
 Alpha virt. eigenvalues --    1.68911   1.69972   1.70087   1.70286   1.70757
 Alpha virt. eigenvalues --    1.72347   1.72625   1.73237   1.73520   1.74618
 Alpha virt. eigenvalues --    1.75313   1.75752   1.75980   1.77322   1.78278
 Alpha virt. eigenvalues --    1.78577   1.79144   1.79711   1.79888   1.81135
 Alpha virt. eigenvalues --    1.82300   1.82676   1.83339   1.84623   1.85001
 Alpha virt. eigenvalues --    1.85286   1.85979   1.86734   1.87267   1.87613
 Alpha virt. eigenvalues --    1.88092   1.88360   1.89388   1.89833   1.90571
 Alpha virt. eigenvalues --    1.91397   1.92097   1.93058   1.93571   1.94712
 Alpha virt. eigenvalues --    1.95056   1.95263   1.95386   1.96246   1.97105
 Alpha virt. eigenvalues --    1.97635   1.97944   1.98610   1.99759   2.01199
 Alpha virt. eigenvalues --    2.01927   2.02224   2.02786   2.02961   2.04238
 Alpha virt. eigenvalues --    2.05845   2.06229   2.06938   2.07343   2.08518
 Alpha virt. eigenvalues --    2.09602   2.10078   2.11254   2.12339   2.12842
 Alpha virt. eigenvalues --    2.13402   2.13814   2.14282   2.15219   2.16157
 Alpha virt. eigenvalues --    2.16597   2.17272   2.18855   2.19053   2.20126
 Alpha virt. eigenvalues --    2.20791   2.21216   2.21629   2.22288   2.22864
 Alpha virt. eigenvalues --    2.23591   2.24990   2.25104   2.25826   2.26508
 Alpha virt. eigenvalues --    2.27039   2.28007   2.28689   2.29071   2.29270
 Alpha virt. eigenvalues --    2.30216   2.30567   2.31743   2.31896   2.32448
 Alpha virt. eigenvalues --    2.33235   2.33558   2.34634   2.34778   2.35642
 Alpha virt. eigenvalues --    2.36581   2.36672   2.38371   2.38717   2.40139
 Alpha virt. eigenvalues --    2.40812   2.41679   2.42244   2.43523   2.44373
 Alpha virt. eigenvalues --    2.44682   2.45536   2.46242   2.46677   2.47982
 Alpha virt. eigenvalues --    2.48435   2.49054   2.49586   2.50692   2.51436
 Alpha virt. eigenvalues --    2.51866   2.52756   2.53733   2.54864   2.55397
 Alpha virt. eigenvalues --    2.56233   2.56685   2.57300   2.57869   2.58086
 Alpha virt. eigenvalues --    2.58569   2.59132   2.59834   2.60148   2.60632
 Alpha virt. eigenvalues --    2.61758   2.62596   2.63323   2.63724   2.64494
 Alpha virt. eigenvalues --    2.65055   2.65750   2.66691   2.66985   2.68145
 Alpha virt. eigenvalues --    2.68617   2.69027   2.69317   2.70482   2.70641
 Alpha virt. eigenvalues --    2.71838   2.71968   2.72098   2.72712   2.73852
 Alpha virt. eigenvalues --    2.74364   2.75514   2.76597   2.77010   2.77675
 Alpha virt. eigenvalues --    2.78582   2.79112   2.80071   2.80432   2.81426
 Alpha virt. eigenvalues --    2.81869   2.82297   2.83236   2.84069   2.84424
 Alpha virt. eigenvalues --    2.85384   2.85971   2.86302   2.88022   2.88295
 Alpha virt. eigenvalues --    2.89945   2.90659   2.90941   2.92230   2.93037
 Alpha virt. eigenvalues --    2.94316   2.95044   2.95853   2.95964   2.96580
 Alpha virt. eigenvalues --    2.97065   2.97994   2.98433   2.99889   3.00394
 Alpha virt. eigenvalues --    3.01794   3.02216   3.02385   3.03315   3.03762
 Alpha virt. eigenvalues --    3.04755   3.05211   3.05357   3.06825   3.07353
 Alpha virt. eigenvalues --    3.07899   3.08314   3.09001   3.09394   3.09725
 Alpha virt. eigenvalues --    3.11098   3.11414   3.11658   3.12224   3.12918
 Alpha virt. eigenvalues --    3.13215   3.14552   3.14625   3.15356   3.15855
 Alpha virt. eigenvalues --    3.16628   3.17115   3.17626   3.18494   3.19100
 Alpha virt. eigenvalues --    3.19487   3.19667   3.20062   3.21694   3.21855
 Alpha virt. eigenvalues --    3.22155   3.23191   3.23835   3.25496   3.25920
 Alpha virt. eigenvalues --    3.26546   3.27066   3.27267   3.28097   3.28775
 Alpha virt. eigenvalues --    3.29146   3.30113   3.30427   3.31119   3.32091
 Alpha virt. eigenvalues --    3.32472   3.32939   3.33258   3.34031   3.34807
 Alpha virt. eigenvalues --    3.35226   3.35746   3.36410   3.37293   3.37495
 Alpha virt. eigenvalues --    3.38148   3.38308   3.38846   3.39013   3.40203
 Alpha virt. eigenvalues --    3.40761   3.41662   3.41981   3.42585   3.43152
 Alpha virt. eigenvalues --    3.43732   3.43979   3.45329   3.45775   3.46684
 Alpha virt. eigenvalues --    3.47346   3.47480   3.48180   3.48475   3.49013
 Alpha virt. eigenvalues --    3.49855   3.50769   3.51067   3.51859   3.52444
 Alpha virt. eigenvalues --    3.53537   3.53951   3.54930   3.55319   3.56789
 Alpha virt. eigenvalues --    3.57467   3.57589   3.59000   3.59497   3.60819
 Alpha virt. eigenvalues --    3.61284   3.61843   3.63274   3.64126   3.64821
 Alpha virt. eigenvalues --    3.65455   3.67417   3.68218   3.68376   3.70674
 Alpha virt. eigenvalues --    3.71081   3.71906   3.72616   3.73039   3.73649
 Alpha virt. eigenvalues --    3.74961   3.75941   3.76530   3.77429   3.78013
 Alpha virt. eigenvalues --    3.79003   3.79131   3.80539   3.81491   3.82614
 Alpha virt. eigenvalues --    3.83337   3.84377   3.87255   3.89433   3.89866
 Alpha virt. eigenvalues --    3.90618   3.91456   3.91845   3.92397   3.94013
 Alpha virt. eigenvalues --    3.94287   3.95191   3.96622   3.97307   3.98922
 Alpha virt. eigenvalues --    3.99777   4.00941   4.03895   4.04755   4.05584
 Alpha virt. eigenvalues --    4.06961   4.08420   4.09514   4.10562   4.10772
 Alpha virt. eigenvalues --    4.11282   4.12268   4.13956   4.15286   4.16347
 Alpha virt. eigenvalues --    4.19690   4.20977   4.22952   4.24027   4.24728
 Alpha virt. eigenvalues --    4.25694   4.27261   4.27634   4.28405   4.28911
 Alpha virt. eigenvalues --    4.29186   4.31758   4.33261   4.35330   4.37106
 Alpha virt. eigenvalues --    4.38268   4.39023   4.39473   4.40173   4.41172
 Alpha virt. eigenvalues --    4.42287   4.44951   4.45688   4.47940   4.48902
 Alpha virt. eigenvalues --    4.50497   4.51050   4.52698   4.53659   4.56148
 Alpha virt. eigenvalues --    4.60110   4.61470   4.64852   4.65193   4.67249
 Alpha virt. eigenvalues --    4.70411   4.71604   4.73544   4.73884   4.75640
 Alpha virt. eigenvalues --    4.76536   4.77894   4.79619   4.80955   4.83204
 Alpha virt. eigenvalues --    4.84601   4.85630   4.87707   4.89656   4.90465
 Alpha virt. eigenvalues --    4.92223   4.93293   4.95083   4.97190   4.97819
 Alpha virt. eigenvalues --    4.98688   5.01708   5.02121   5.03777   5.06805
 Alpha virt. eigenvalues --    5.08099   5.12526   5.15197   5.16361   5.18980
 Alpha virt. eigenvalues --    5.22250   5.24160   5.24923   5.26027   5.26874
 Alpha virt. eigenvalues --    5.27951   5.29212   5.30803   5.33964   5.34678
 Alpha virt. eigenvalues --    5.36287   5.40808   5.42497   5.43349   5.45795
 Alpha virt. eigenvalues --    5.46895   5.48940   5.53451   5.56995   5.58422
 Alpha virt. eigenvalues --    5.62975   5.66130   5.73362   5.75585   5.76705
 Alpha virt. eigenvalues --    5.79083   5.79441   5.82930   5.83708   5.86048
 Alpha virt. eigenvalues --    5.87183   5.88552   5.90284   5.92176   5.92776
 Alpha virt. eigenvalues --    5.99241   6.02662   6.06918   6.16539   6.19609
 Alpha virt. eigenvalues --    6.21920   6.24725   6.27549   6.31076   6.34365
 Alpha virt. eigenvalues --    6.38165   6.43865   6.46394   6.48069   6.52181
 Alpha virt. eigenvalues --    6.58365   6.59565   6.68954   6.73651   6.74235
 Alpha virt. eigenvalues --    6.77678   6.80189   6.82582   6.85513   6.86021
 Alpha virt. eigenvalues --    6.88765   6.91380   6.98371   7.03022   7.07208
 Alpha virt. eigenvalues --    7.08230   7.08897   7.10046   7.15500   7.23537
 Alpha virt. eigenvalues --    7.25230   7.33341   9.01607   9.40889   9.53391
 Alpha virt. eigenvalues --   19.78270  22.30205  22.41693  22.48444  22.53216
 Alpha virt. eigenvalues --   22.64270  22.69610  22.71567  22.73701  22.78298
 Alpha virt. eigenvalues --   22.84804  22.86553  23.02690  23.03169  23.07037
 Alpha virt. eigenvalues --   23.20965  23.50098  32.14333  33.18145  44.14965
 Alpha virt. eigenvalues --   44.18020  44.23674  44.28169  44.55947
          Condensed to atoms (all electrons):
               1          2          3          4          5          6
     1  C    5.113075   0.421173   0.414713  -0.018702   0.000068  -0.000127
     2  H    0.421173   0.508886  -0.022341  -0.001511   0.000415  -0.000005
     3  H    0.414713  -0.022341   0.536209   0.001488  -0.000016  -0.000006
     4  C   -0.018702  -0.001511   0.001488   5.665211   0.473732   0.248559
     5  H    0.000068   0.000415  -0.000016   0.473732   0.555821  -0.031609
     6  O   -0.000127  -0.000005  -0.000006   0.248559  -0.031609   8.015924
     7  H   -0.000015  -0.000008   0.000004  -0.062966  -0.003961   0.288130
     8  C    0.013350   0.013554  -0.010046  -0.190727  -0.084200  -0.054822
     9  H    0.011938   0.000044  -0.002348  -0.134813   0.003426   0.002519
    10  O    0.007449  -0.000362   0.000335  -0.046102   0.002151   0.000527
    11  H   -0.000647  -0.000192   0.000486   0.012388  -0.000882  -0.000553
    12  C   -0.003417  -0.000099   0.001191  -0.072886  -0.057910  -0.002465
    13  H   -0.000036   0.000043   0.000112  -0.108171   0.006159   0.001600
    14  C    0.175230  -0.048440  -0.039853   0.166462   0.019577   0.009374
    15  H   -0.070596  -0.006768  -0.003533  -0.014188  -0.000102   0.000071
    16  O   -0.031543   0.000631   0.005084  -0.083824  -0.002427   0.005748
    17  N   -0.000014  -0.000096  -0.000031   0.032219  -0.016245  -0.006920
    18  C   -0.001235  -0.000012   0.000014   0.004356  -0.005747   0.004884
    19  H    0.000046  -0.000051   0.000033  -0.012900  -0.002232   0.001301
    20  C   -0.000019   0.000007  -0.000002   0.003571   0.006486  -0.003063
    21  H    0.000004   0.000000  -0.000000  -0.000050   0.000164  -0.000054
    22  C   -0.000013  -0.000001   0.000000   0.001582  -0.000327   0.000187
    23  H   -0.000000   0.000000   0.000000   0.000043   0.000004   0.000001
    24  H    0.000000  -0.000000  -0.000000  -0.000625  -0.000071  -0.000000
    25  C   -0.000065  -0.000006   0.000001  -0.004689  -0.000608  -0.000624
    26  C   -0.000362   0.000031  -0.000003   0.029527  -0.000818  -0.003535
    27  H   -0.000016   0.000001  -0.000000   0.000837  -0.000043   0.000139
    28  C    0.000000  -0.000000  -0.000000   0.000092  -0.000002  -0.000017
    29  O   -0.000000   0.000000  -0.000000  -0.000001  -0.000000  -0.000000
    30  N   -0.000000  -0.000000   0.000000   0.000001  -0.000000  -0.000000
    31  H   -0.000000   0.000000   0.000000   0.000000   0.000000  -0.000000
    32  H    0.000000   0.000000  -0.000000   0.000001   0.000000   0.000000
    33  C    0.000001  -0.000000   0.000000  -0.000395  -0.000355  -0.013286
    34  C    0.000001  -0.000000  -0.000000   0.001050   0.000064  -0.000574
    35  C    0.000000   0.000000  -0.000000   0.000679   0.000120   0.000432
    36  C   -0.000000   0.000000   0.000000   0.000004   0.000000   0.000001
    37  C   -0.000000   0.000000   0.000000   0.000336   0.000009   0.000068
    38  O   -0.000000   0.000000  -0.000000  -0.002119  -0.000097  -0.021638
    39  S    0.000000  -0.000000  -0.000000   0.000143   0.000016   0.000635
    40  H   -0.000000   0.000000  -0.000000   0.000172   0.000022   0.000292
    41  H   -0.000001   0.000000  -0.000000  -0.003223   0.000518   0.013861
    42  H    0.000000   0.000000  -0.000000  -0.000000   0.000000  -0.000000
    43  H    0.000000   0.000000  -0.000000  -0.000000  -0.000000  -0.000000
    44  H    0.000000  -0.000000  -0.000000  -0.000000  -0.000000  -0.000000
    45  H   -0.000000   0.000000   0.000000   0.000037   0.000004   0.000021
    46  H    0.000000  -0.000000  -0.000000  -0.000053   0.000000   0.000009
    47  H    0.380496  -0.022421  -0.024601   0.003208  -0.000987   0.000057
    48  H    0.000000   0.000000  -0.000000   0.000087   0.000002   0.000400
               7          8          9         10         11         12
     1  C   -0.000015   0.013350   0.011938   0.007449  -0.000647  -0.003417
     2  H   -0.000008   0.013554   0.000044  -0.000362  -0.000192  -0.000099
     3  H    0.000004  -0.010046  -0.002348   0.000335   0.000486   0.001191
     4  C   -0.062966  -0.190727  -0.134813  -0.046102   0.012388  -0.072886
     5  H   -0.003961  -0.084200   0.003426   0.002151  -0.000882  -0.057910
     6  O    0.288130  -0.054822   0.002519   0.000527  -0.000553  -0.002465
     7  H    0.425281   0.003220  -0.000923  -0.001150   0.000268   0.002120
     8  C    0.003220   5.616391   0.537443   0.265265  -0.038651   0.030549
     9  H   -0.000923   0.537443   0.567657  -0.056894  -0.001652   0.015959
    10  O   -0.001150   0.265265  -0.056894   8.031881   0.287857  -0.013590
    11  H    0.000268  -0.038651  -0.001652   0.287857   0.426214  -0.002151
    12  C    0.002120   0.030549   0.015959  -0.013590  -0.002151   5.590863
    13  H   -0.003073   0.017631   0.002881   0.016479  -0.001554   0.474396
    14  C    0.000056   0.020348  -0.112506  -0.048450  -0.004783  -0.110753
    15  H    0.000115  -0.037798   0.010883  -0.007085   0.005525   0.000102
    16  O    0.001374  -0.040487   0.004856   0.007762   0.000332   0.287642
    17  N    0.018840   0.000201  -0.000988  -0.000599   0.000035   0.144095
    18  C   -0.003674  -0.005012  -0.000433  -0.000515   0.000021  -0.117202
    19  H    0.000740   0.001046   0.000019  -0.000004   0.000004   0.015783
    20  C   -0.001412  -0.002252   0.000018   0.000013  -0.000002   0.024176
    21  H    0.000013  -0.000013   0.000000   0.000000  -0.000000   0.000710
    22  C    0.000573   0.000006  -0.000004  -0.000005   0.000000  -0.018672
    23  H   -0.000034   0.000000   0.000000   0.000000  -0.000000  -0.000048
    24  H    0.001303   0.000022  -0.000000   0.000000   0.000000   0.001938
    25  C   -0.000093  -0.000215  -0.000001  -0.000048   0.000001  -0.018276
    26  C   -0.006008  -0.003804  -0.000153  -0.000896  -0.000046  -0.088602
    27  H    0.000127  -0.000111  -0.000008  -0.000128   0.000006  -0.000737
    28  C    0.000046   0.000007   0.000000  -0.000000  -0.000000  -0.000840
    29  O    0.000020   0.000001   0.000000  -0.000000  -0.000000   0.000478
    30  N   -0.000000  -0.000000  -0.000000  -0.000000  -0.000000  -0.000012
    31  H   -0.000000  -0.000000   0.000000  -0.000000  -0.000000  -0.000005
    32  H   -0.000000  -0.000000  -0.000000   0.000000  -0.000000  -0.000007
    33  C    0.005529   0.000736   0.000004  -0.000531   0.000041  -0.000468
    34  C   -0.004273  -0.000087   0.000001   0.000024  -0.000002  -0.003099
    35  C    0.000158  -0.000089   0.000000   0.000001  -0.000000   0.000451
    36  C   -0.000026  -0.000000  -0.000000  -0.000000  -0.000000  -0.000007
    37  C   -0.001873   0.000002  -0.000000  -0.000000   0.000000  -0.001023
    38  O    0.038715   0.000007   0.000004   0.000005  -0.000000   0.000183
    39  S   -0.000952  -0.000021  -0.000001  -0.000000  -0.000000  -0.000083
    40  H   -0.001221  -0.000019  -0.000000   0.000008  -0.000001   0.000019
    41  H   -0.003463  -0.001719   0.000037   0.001792  -0.000137   0.001201
    42  H    0.000002  -0.000000  -0.000000   0.000000  -0.000000  -0.000001
    43  H    0.000001   0.000000  -0.000000   0.000000   0.000000   0.000003
    44  H    0.000001  -0.000000  -0.000000   0.000000   0.000000   0.000000
    45  H   -0.000270  -0.000000   0.000000  -0.000000  -0.000000  -0.000052
    46  H    0.000099  -0.000001  -0.000000   0.000000   0.000000   0.000229
    47  H    0.000041  -0.017055   0.001320   0.000120   0.000144  -0.001280
    48  H   -0.000295  -0.000004   0.000001   0.000004  -0.000001  -0.000023
              13         14         15         16         17         18
     1  C   -0.000036   0.175230  -0.070596  -0.031543  -0.000014  -0.001235
     2  H    0.000043  -0.048440  -0.006768   0.000631  -0.000096  -0.000012
     3  H    0.000112  -0.039853  -0.003533   0.005084  -0.000031   0.000014
     4  C   -0.108171   0.166462  -0.014188  -0.083824   0.032219   0.004356
     5  H    0.006159   0.019577  -0.000102  -0.002427  -0.016245  -0.005747
     6  O    0.001600   0.009374   0.000071   0.005748  -0.006920   0.004884
     7  H   -0.003073   0.000056   0.000115   0.001374   0.018840  -0.003674
     8  C    0.017631   0.020348  -0.037798  -0.040487   0.000201  -0.005012
     9  H    0.002881  -0.112506   0.010883   0.004856  -0.000988  -0.000433
    10  O    0.016479  -0.048450  -0.007085   0.007762  -0.000599  -0.000515
    11  H   -0.001554  -0.004783   0.005525   0.000332   0.000035   0.000021
    12  C    0.474396  -0.110753   0.000102   0.287642   0.144095  -0.117202
    13  H    0.508670  -0.008772   0.006127  -0.038052  -0.065402   0.012792
    14  C   -0.008772   5.351320   0.414257   0.204801   0.010225  -0.000688
    15  H    0.006127   0.414257   0.623990  -0.036981  -0.001555   0.000253
    16  O   -0.038052   0.204801  -0.036981   8.054837  -0.073122   0.012010
    17  N   -0.065402   0.010225  -0.001555  -0.073122   6.507450   0.308385
    18  C    0.012792  -0.000688   0.000253   0.012010   0.308385   5.122124
    19  H    0.000968  -0.002926   0.000118   0.007475  -0.046211   0.410397
    20  C   -0.000336   0.001245  -0.000001  -0.000691  -0.056327   0.428300
    21  H    0.000009   0.000006  -0.000000  -0.000053   0.004602  -0.038476
    22  C    0.000061  -0.000115   0.000001   0.000584  -0.031193   0.017666
    23  H   -0.000004   0.000000  -0.000000  -0.000003  -0.001806   0.005915
    24  H   -0.000088  -0.000002   0.000000   0.000025   0.014514   0.012560
    25  C    0.008330  -0.000281   0.000032  -0.002793  -0.040374   0.027242
    26  C   -0.016378  -0.000524  -0.000562   0.004684   0.348363  -0.164472
[...]
      5        1           0.003598597    0.004205115    0.001752405
      6        8           0.006573511    0.002449913   -0.004828913
      7        1          -0.004376955   -0.006222524    0.004840221
      8        6          -0.003870308   -0.011434113   -0.000939739
      9        1          -0.001284756    0.005503359   -0.003940734
     10        8           0.026781868    0.001853419   -0.005130089
     11        1          -0.024797989    0.004563824    0.007815520
     12        6          -0.000953195    0.007761067    0.005375244
     13        1          -0.001491413   -0.002015076   -0.002467110
     14        6           0.007513808   -0.000728451    0.000734906
     15        1          -0.003450989    0.002864837    0.001243480
     16        8           0.004559011   -0.004712434   -0.006521184
     17        7           0.005321325    0.003326474   -0.000668713
     18        6          -0.010642611   -0.004726432   -0.002664252
     19        1          -0.001828553    0.008068004    0.000042898
     20        6           0.005123697   -0.007783888    0.000483171
     21        1           0.003279565    0.006121089    0.000827828
     22        6          -0.010745521    0.004642880    0.005507592
     23        1           0.003871307   -0.001478063    0.003448103
     24        1           0.005628104   -0.013507278   -0.011807945
     25        6           0.008647447    0.002537524   -0.002255977
     26        6          -0.003406270    0.002392894   -0.004502560
     27        1          -0.007444504   -0.004628217    0.003564533
     28        6           0.021289808   -0.001866694    0.020951139
     29        8          -0.007383163   -0.005214284   -0.007444480
     30        7          -0.007186201    0.001276037   -0.027277270
     31        1          -0.005717371   -0.006781197    0.006938839
     32        1           0.006651731    0.011756248    0.009788490
     33        6          -0.006755390   -0.013087066   -0.002813959
     34        6           0.004971237   -0.016849998    0.016607208
     35        6          -0.013751451    0.001189340   -0.014531083
     36        6          -0.001938101    0.002097307   -0.004136547
     37        6           0.005440569    0.011562497    0.015429621
     38        8           0.002866452    0.012210511   -0.009023180
     39       16           0.005236325    0.001786688   -0.000245299
     40        1           0.005501995    0.002836769   -0.003318989
     41        1          -0.001685125    0.005791435    0.004728214
     42        1          -0.001577846    0.000075933    0.004244120
     43        1          -0.002412792   -0.004236060    0.003448018
     44        1           0.005827199   -0.002225033   -0.001541904
     45        1           0.003195476    0.003427053   -0.004216618
     46        1          -0.002942561   -0.005417462    0.003222065
     47        1           0.001476499   -0.004580511   -0.001155208
     48        1          -0.001981568    0.003709616   -0.004591598
 -------------------------------------------------------------------
 Cartesian Forces:  Max     0.027277270 RMS     0.007443722
 Leave Link  716 at Sun Feb 19 04:40:21 2023, MaxMem=  2684354560 cpu:               0.4 elap:               0.0
 (Enter /storage/apps/GAUSSIAN/G16_RevA03/g16/l103.exe)

 GradGradGradGradGradGradGradGradGradGradGradGradGradGradGradGradGradGrad
 Berny optimization.
 Search for a local minimum.
 Step number   1 out of a maximum of    2
 All quantities printed in internal units (Hartrees-Bohrs-Radians)
 Second derivative matrix not updated -- first step.
 ITU=  0
     Eigenvalues ---    0.00049   0.00063   0.00105   0.00148   0.00185
     Eigenvalues ---    0.00290   0.00358   0.00389   0.00472   0.00510
     Eigenvalues ---    0.00570   0.00732   0.00820   0.00865   0.01050
     Eigenvalues ---    0.01079   0.01116   0.01325   0.01465   0.01729
     Eigenvalues ---    0.01770   0.01986   0.02146   0.02575   0.02787
     Eigenvalues ---    0.03073   0.03243   0.03513   0.03711   0.04128
     Eigenvalues ---    0.04215   0.04534   0.04823   0.04952   0.05079
     Eigenvalues ---    0.05210   0.05475   0.05491   0.05767   0.06061
     Eigenvalues ---    0.06233   0.06515   0.06612   0.06819   0.06959
     Eigenvalues ---    0.07121   0.07233   0.07659   0.07800   0.08148
     Eigenvalues ---    0.08530   0.08887   0.09400   0.09953   0.10104
     Eigenvalues ---    0.10608   0.10820   0.11457   0.12235   0.12360
     Eigenvalues ---    0.12750   0.12947   0.12965   0.13147   0.13384
     Eigenvalues ---    0.13859   0.14289   0.14533   0.15490   0.16190
     Eigenvalues ---    0.16663   0.17523   0.18341   0.19061   0.20052
     Eigenvalues ---    0.20724   0.20785   0.21464   0.22229   0.25116
     Eigenvalues ---    0.25953   0.27252   0.27663   0.28305   0.31042
     Eigenvalues ---    0.32713   0.33267   0.34175   0.36990   0.37023
     Eigenvalues ---    0.37023   0.37023   0.37023   0.37023   0.39713
     Eigenvalues ---    0.42294   0.45254   0.48472   0.54538   0.55519
     Eigenvalues ---    0.58345   0.60907   0.65302   0.67714   0.70277
     Eigenvalues ---    0.73320   0.78652   0.81395   0.87255   0.87389
     Eigenvalues ---    0.89070   0.89971   0.91868   0.92352   0.92626
     Eigenvalues ---    0.92925   0.96967   0.99466   1.00186   1.00536
     Eigenvalues ---    1.03332   1.06057   1.09270   1.11120   1.15019
     Eigenvalues ---    1.15809   1.19221   1.21437   1.26898   1.30465
     Eigenvalues ---    1.33788   1.38681   1.42897   1.49296   1.67623
     Eigenvalues ---    1.72632   2.00070   2.26151
 Quadratic step=6.952D+00 exceeds max=3.000D-01 adjusted using Lamda=-3.334D-02.
 Angle between NR and scaled steps=  62.46 degrees.
 Angle between quadratic step and forces=  60.59 degrees.
 Linear search not attempted -- first point.
 Variable       Old X    -DE/DX   Delta X   Delta X   Delta X     New X
                                 (Linear)    (Quad)   (Total)
    X1        6.39874  -0.00132   0.00000  -0.01184  -0.01184   6.38690
    Y1       -6.97859   0.00843   0.00000   0.01823   0.01823  -6.96035
    Z1       -1.05810  -0.00017   0.00000   0.00303   0.00303  -1.05507
    X2        6.55026  -0.00068   0.00000   0.00037   0.00037   6.55063
    Y2       -7.27350  -0.00050   0.00000   0.00661   0.00661  -7.26689
    Z2       -3.10744   0.00664   0.00000   0.02160   0.02160  -3.08584
    X3        8.11398  -0.00661   0.00000  -0.03237  -0.03237   8.08161
    Y3       -7.68496  -0.00153   0.00000  -0.01765  -0.01765  -7.70261
    Z3       -0.12117  -0.00326   0.00000  -0.01862  -0.01862  -0.13980
    X4        2.89355  -0.00713   0.00000  -0.00044  -0.00044   2.89312
    Y4       -2.62984  -0.00291   0.00000   0.00246   0.00246  -2.62739
    Z4        2.16735   0.00182   0.00000  -0.00274  -0.00274   2.16461
    X5        1.74078   0.00360   0.00000   0.02192   0.02192   1.76270
    Y5       -4.35808   0.00421   0.00000   0.00314   0.00314  -4.35494
    Z5        1.90415   0.00175   0.00000   0.02299   0.02299   1.92714
    X6        2.00596   0.00657   0.00000   0.04444   0.04444   2.05040
    Y6       -1.20408   0.00245   0.00000   0.00607   0.00607  -1.19801
    Z6        4.18310  -0.00483   0.00000   0.00412   0.00412   4.18722
    X7        0.78200  -0.00438   0.00000  -0.08440  -0.08440   0.69759
    Y7        0.05062  -0.00622   0.00000  -0.09617  -0.09617  -0.04554
    Z7        3.59617   0.00484   0.00000   0.06710   0.06710   3.66327
    X8        5.65284  -0.00387   0.00000  -0.00240  -0.00240   5.65043
    Y8       -3.49769  -0.01143   0.00000   0.00359   0.00359  -3.49410
    Z8        2.32650  -0.00094   0.00000  -0.01291  -0.01291   2.31358
    X9        5.88176  -0.00128   0.00000   0.00008   0.00008   5.88184
    Y9       -5.16962   0.00550   0.00000   0.01925   0.01925  -5.15037
    Z9        3.55779  -0.00394   0.00000  -0.02338  -0.02338   3.53441
   X10        7.14020   0.02678   0.00000  -0.00210  -0.00210   7.13811
   Y10       -1.48600   0.00185   0.00000   0.01808   0.01808  -1.46792
   Z10        3.17330  -0.00513   0.00000  -0.00524  -0.00524   3.16806
   X11        8.92297  -0.02480   0.00000  -0.04297  -0.04297   8.88000
   Y11       -1.81973   0.00456   0.00000   0.01957   0.01957  -1.80016
   Z11        2.71524   0.00782   0.00000   0.03199   0.03199   2.74723
   X12        2.98176  -0.00095   0.00000  -0.00587  -0.00587   2.97588
   Y12       -1.27225   0.00776   0.00000  -0.00004  -0.00004  -1.27229
   Z12       -0.37370   0.00538   0.00000  -0.00697  -0.00697  -0.38068
   X13        4.09008  -0.00149   0.00000  -0.00580  -0.00580   4.08429
   Y13        0.47115  -0.00202   0.00000  -0.00424  -0.00424   0.46691
   Z13       -0.13245  -0.00247   0.00000  -0.03595  -0.03595  -0.16840
   X14        6.18224   0.00751   0.00000   0.01338   0.01338   6.19562
   Y14       -4.17011  -0.00073   0.00000   0.01232   0.01232  -4.15779
   Z14       -0.49046   0.00073   0.00000  -0.00286  -0.00286  -0.49332
   X15        7.98318  -0.00345   0.00000  -0.00555  -0.00555   7.97763
   Y15       -3.28751   0.00286   0.00000   0.04200   0.04200  -3.24551
   Z15       -1.04430   0.00124   0.00000   0.00288   0.00288  -1.04142
   X16        4.19147   0.00456   0.00000   0.00960   0.00960   4.20107
   Y16       -3.03176  -0.00471   0.00000  -0.00599  -0.00599  -3.03775
   Z16       -1.93264  -0.00652   0.00000  -0.01374  -0.01374  -1.94638
   X17        0.56059   0.00532   0.00000  -0.00809  -0.00809   0.55249
   Y17       -0.54645   0.00333   0.00000  -0.00478  -0.00478  -0.55123
   Z17       -1.40845  -0.00067   0.00000  -0.00397  -0.00397  -1.41243
   X18       -1.37076  -0.01064   0.00000  -0.02256  -0.02256  -1.39331
   Y18       -2.29067  -0.00473   0.00000   0.00366   0.00366  -2.28701
   Z18       -1.53945  -0.00266   0.00000  -0.00284  -0.00284  -1.54229
   X19       -0.89802  -0.00183   0.00000  -0.02047  -0.02047  -0.91848
   Y19       -4.21538   0.00807   0.00000   0.02670   0.02670  -4.18868
   Z19       -0.98048   0.00004   0.00000   0.00447   0.00447  -0.97602
   X20       -3.67048   0.00512   0.00000  -0.00908  -0.00908  -3.67956
   Y20       -1.66041  -0.00778   0.00000   0.01033   0.01033  -1.65008
   Z20       -2.45184   0.00048   0.00000   0.00785   0.00785  -2.44399
   X21       -5.10759   0.00328   0.00000  -0.00090  -0.00090  -5.10849
   Y21       -3.13040   0.00612   0.00000   0.02774   0.02774  -3.10265
   Z21       -2.57030   0.00083   0.00000  -0.00161  -0.00161  -2.57190
   X22       -4.15071  -0.01075   0.00000  -0.02528  -0.02528  -4.17600
   Y22        0.87945   0.00464   0.00000   0.03105   0.03105   0.91050
   Z22       -3.35757   0.00551   0.00000   0.05927   0.05927  -3.29830
   X23       -5.74212   0.00387   0.00000   0.00339   0.00339  -5.73873
   Y23        1.14273  -0.00148   0.00000   0.00388   0.00388   1.14661
   Z23       -4.64816   0.00345   0.00000   0.03935   0.03935  -4.60881
   X24       -5.21760   0.00563   0.00000   0.05502   0.05502  -5.16258
   Y24        2.45134  -0.01351   0.00000  -0.03786  -0.03786   2.41348
   Z24       -1.34156  -0.01181   0.00000  -0.06993  -0.06993  -1.41148
   X25       -1.93413   0.00865   0.00000   0.00186   0.00186  -1.93227
   Y25        2.39248   0.00254   0.00000  -0.00007  -0.00007   2.39241
   Z25       -3.73225  -0.00226   0.00000   0.00948   0.00948  -3.72277
   X26        0.28933  -0.00341   0.00000  -0.01502  -0.01502   0.27431
   Y26        1.73283   0.00239   0.00000  -0.01216  -0.01216   1.72066
   Z26       -2.60615  -0.00450   0.00000  -0.00153  -0.00153  -2.60767
   X27        1.96399  -0.00744   0.00000  -0.03050  -0.03050   1.93349
   Y27        2.93437  -0.00463   0.00000  -0.02436  -0.02436   2.91001
   Z27       -2.78069   0.00356   0.00000   0.02149   0.02149  -2.75919
   X28       -2.02671   0.02129   0.00000   0.04117   0.04117  -1.98554
   Y28        4.80285  -0.00187   0.00000  -0.01758  -0.01758   4.78527
   Z28       -5.21906   0.02095   0.00000   0.00056   0.00056  -5.21850
   X29       -0.63043  -0.00738   0.00000   0.02135   0.02135  -0.60907
   Y29        6.56800  -0.00521   0.00000  -0.00590  -0.00590   6.56210
   Z29       -4.71754  -0.00744   0.00000  -0.03754  -0.03754  -4.75508
   X30       -3.73897  -0.00719   0.00000   0.03358   0.03358  -3.70540
   Y30        4.88427   0.00128   0.00000  -0.00838  -0.00838   4.87589
   Z30       -7.11642  -0.02728   0.00000  -0.02610  -0.02610  -7.14252
   X31       -3.40211  -0.00572   0.00000  -0.03450  -0.03450  -3.43660
   Y31        6.33581  -0.00678   0.00000  -0.01189  -0.01189   6.32392
   Z31       -8.34655   0.00694   0.00000  -0.01248  -0.01248  -8.35903
   X32       -4.40502   0.00665   0.00000   0.04778   0.04778  -4.35723
   Y32        3.25940   0.01176   0.00000   0.00235   0.00235   3.26175
   Z32       -7.93712   0.00979   0.00000   0.02094   0.02094  -7.91617
   X33        0.91926  -0.00676   0.00000  -0.03265  -0.03265   0.88661
   Y33        4.20562  -0.01309   0.00000  -0.01844  -0.01844   4.18718
   Z33        7.30630  -0.00281   0.00000  -0.00844  -0.00844   7.29786
   X34       -2.20325   0.00497   0.00000  -0.00766  -0.00766  -2.21091
   Y34        4.21239  -0.01685   0.00000  -0.00552  -0.00552   4.20688
   Z34        3.08387   0.01661   0.00000   0.02270   0.02270   3.10656
   X35       -3.42054  -0.01375   0.00000  -0.02686  -0.02686  -3.44740
   Y35        5.36226   0.00119   0.00000  -0.00209  -0.00209   5.36018
   Z35        0.99707  -0.01453   0.00000   0.00872   0.00872   1.00579
   X36       -7.21449  -0.00194   0.00000   0.00258   0.00258  -7.21191
   Y36        6.08025   0.00210   0.00000   0.00221   0.00221   6.08247
   Z36       -1.75327  -0.00414   0.00000   0.01209   0.01209  -1.74118
   X37       -5.71724   0.00544   0.00000   0.01192   0.01192  -5.70532
   Y37        4.36352   0.01156   0.00000  -0.00298  -0.00298   4.36054
   Z37        0.01084   0.01543   0.00000  -0.00283  -0.00283   0.00800
   X38       -2.42310   0.00287   0.00000   0.02984   0.02984  -2.39326
   Y38        1.97291   0.01221   0.00000  -0.00884  -0.00884   1.96407
   Z38        3.75063  -0.00902   0.00000  -0.03503  -0.03503   3.71561
   X39       -0.33562   0.00524   0.00000   0.01334   0.01334  -0.32228
   Y39        6.34233   0.00179   0.00000  -0.00413  -0.00413   6.33819
   Z39        4.94632  -0.00025   0.00000  -0.00312  -0.00312   4.94320
   X40       -0.65902   0.00550   0.00000  -0.01031  -0.01031  -0.66932
   Y40        3.34624   0.00284   0.00000  -0.00479  -0.00479   3.34145
   Z40        8.34655  -0.00332   0.00000  -0.00559  -0.00559   8.34096
   X41        1.99255  -0.00169   0.00000   0.00490   0.00490   1.99745
   Y41        2.69004   0.00579   0.00000   0.01032   0.01032   2.70036
   Z41        6.38205   0.00473   0.00000   0.03327   0.03327   6.41532
   X42       -7.80064  -0.00158   0.00000  -0.03567  -0.03567  -7.83631
   Y42        5.10074   0.00008   0.00000   0.00867   0.00867   5.10941
   Z42       -3.48289   0.00424   0.00000   0.03233   0.03233  -3.45056
   X43       -6.05594  -0.00241   0.00000   0.00175   0.00175  -6.05419
   Y43        7.68496  -0.00424   0.00000  -0.00960  -0.00960   7.67535
   Z43       -2.38356   0.00345   0.00000   0.02395   0.02395  -2.35961
   X44       -8.92297   0.00583   0.00000   0.03697   0.03697  -8.88601
   Y44        6.82468  -0.00223   0.00000   0.01072   0.01072   6.83540
   Z44       -0.83439  -0.00154   0.00000   0.03182   0.03182  -0.80257
   X45       -6.83012   0.00320   0.00000   0.01813   0.01813  -6.81199
   Y45        3.25840   0.00343   0.00000  -0.00121  -0.00121   3.25719
   Z45        1.37875  -0.00422   0.00000  -0.02286  -0.02286   1.35590
   X46       -2.62951  -0.00294   0.00000  -0.03880  -0.03880  -2.66831
   Y46        7.10091  -0.00542   0.00000  -0.00413  -0.00413   7.09678
   Z46        0.21359   0.00322   0.00000   0.03325   0.03325   0.24683
   X47        4.72451   0.00148   0.00000   0.00820   0.00820   4.73272
   Y47       -7.93186  -0.00458   0.00000  -0.03129  -0.03129  -7.96315
   Z47       -0.32940  -0.00116   0.00000  -0.01827  -0.01827  -0.34767
   X48        2.13964  -0.00198   0.00000  -0.05137  -0.05137   2.08827
   Y48        5.21383   0.00371   0.00000   0.04274   0.04274   5.25658
   Z48        8.62423  -0.00459   0.00000  -0.04170  -0.04170   8.58253
         Item               Value     Threshold  Converged?
 Maximum Force            0.027277     0.000450     NO 
 RMS     Force            0.007444     0.000300     NO 
 Maximum Displacement     0.096165     0.001800     NO 
 RMS     Displacement     0.025022     0.001200     NO 
 Predicted change in Energy=-8.088461D-03
 GradGradGradGradGradGradGradGradGradGradGradGradGradGradGradGradGradGrad

 Leave Link  103 at Sun Feb 19 04:40:21 2023, MaxMem=  2684354560 cpu:               3.3 elap:               0.2
 (Enter /storage/apps/GAUSSIAN/G16_RevA03/g16/l9999.exe)

 Test job not archived.
 1\1\GINC-T005\Force\RM062X\def2TZVP\C16H24N2O5S1\LV87696\19-Feb-2023\0
 \\#P M062X/Def2TZVP scf=(direct,conver=8) EmpiricalDispersion=GD3 NoSy
 mm Force pop=(NBORead) Charge Prop=(Field,Read)\\Gaussian run using SA
 NDER external interface, route from template gau_job.tpl\\0,1\C,3.3860
 685385,-3.6929084116,-0.5599242255\H,3.4662460763,-3.8489722,-1.644386
 9979\H,4.293735498,-4.0667040336,-0.0641209918\C,1.5312032748,-1.39165
 34992,1.1469129278\H,0.9211797362,-2.3061947983,1.0076310808\O,1.06150
 90289,-0.6371703877,2.213599419\H,0.4138147171,0.0267885173,1.90301135
 33\C,2.9913522667,-1.8508973463,1.2311300804\H,3.1124930175,-2.7356451
 136,1.8827007008\O,3.778433596,-0.786356462,1.6792376284\H,4.721834823
 7,-0.9629580401,1.4368432115\C,1.5778772523,-0.6732470332,-0.197755046
 5\H,2.1643796447,0.2493220696,-0.0700916646\C,3.2714989786,-2.20672740
 72,-0.2595428492\H,4.2245185232,-1.7396765974,-0.5526172977\O,2.218029
 4076,-1.6043389069,-1.0227080866\N,0.296649131,-0.2891683685,-0.745321
 7886\C,-0.7253732282,-1.2121719557,-0.8146401764\H,-0.4752092154,-2.23
 06842273,-0.5188479394\C,-1.9423344787,-0.8786505939,-1.2974555584\H,-
 2.7028191183,-1.6565338977,-1.3601421396\C,-2.1964634844,0.4653867505,
 -1.7767511648\H,-3.0386002879,0.6047090453,-2.4597001938\H,-2.76103535
 98,1.297192055,-0.7099211537\C,-1.0234967913,1.2660450569,-1.975022518
 4\C,0.1531094314,0.9169721782,-1.3791126862\H,1.0392984559,1.552801139
 ,-1.4714759293\C,-1.0724890714,2.5415573638,-2.7618080621\O,-0.3336085
 749,3.4756356196,-2.4964159484\N,-1.9785795497,2.5846460462,-3.7658493
 486\H,-1.8003166442,3.3527676867,-4.4168031107\H,-2.3310343805,1.72480
 07022,-4.2001404371\C,0.4864489309,2.225517488,3.8663252529\C,-1.16591
 03337,2.2291032182,1.6319127264\C,-1.8100699775,2.8375881185,0.5276276
 24\C,-3.8177450056,3.2175312039,-0.9277897347\C,-3.0254352385,2.309075
 9231,0.0057339902\O,-1.2822490746,1.0440186138,1.9847490632\S,-0.17760
 35378,3.3562140518,2.6174823854\H,-0.3487359452,1.7707556582,4.4168031
 107\H,1.0544135562,1.4235064464,3.377233382\H,-4.1279187408,2.69919782
 41,-1.8430672295\H,-3.2046656728,4.0667040336,-1.2613252325\H,-4.72183
 48237,3.6114655386,-0.4415406865\H,-3.6143455668,1.7242713247,0.729605
 3373\H,-1.3914760659,3.7576412144,0.1130249017\H,2.5001039729,-4.19735
 87567,-0.1743121952\H,1.1322494343,2.7590421361,4.5637441798\\Version=
 ES64L-G16RevA.03\HF=-1507.8503321\RMSD=3.430e-09\RMSF=7.444e-03\Dipole
 =0.2992865,-2.0559088,-2.1031611\Quadrupole=12.7539329,-10.8994371,-1.
 8544959,-7.5722335,10.8386906,-4.1091904\PG=C01 [X(C16H24N2O5S1)]\\@


 Life may have no meaning.  Or even worse, it may have a
 meaning of which I disapprove.
                                 -- Ashleigh Brilliant
 Job cpu time:       0 days  3 hours 15 minutes 18.9 seconds.
 Elapsed time:       0 days  0 hours 12 minutes 13.6 seconds.
 File lengths (MBytes):  RWF=    435 Int=      0 D2E=      0 Chk=     48 Scr=      1
 Normal termination of Gaussian 16 at Sun Feb 19 04:40:21 2023.
