 Entering Gaussian System, Link 0=g16
 Initial command:
 /storage/apps/GAUSSIAN/G16_RevA03/g16/l1.exe "/scratch/tmp/1267165/Gau-125047.inp" -scrdir="/scratch/tmp/1267165/"
 Entering Link 1 = /storage/apps/GAUSSIAN/G16_RevA03/g16/l1.exe PID=    125049.
  
 Copyright (c) 1988,1990,1992,1993,1995,1998,2003,2009,2016,
            Gaussian, Inc.  All Rights Reserved.
  
 This is part of the Gaussian(R) 16 program.  It is based on
 the Gaussian(R) 09 system (copyright 2009, Gaussian, Inc.),
 the Gaussian(R) 03 system (copyright 2003, Gaussian, Inc.),
 the Gaussian(R) 98 system (copyright 1998, Gaussian, Inc.),
 the Gaussian(R) 94 system (copyright 1995, Gaussian, Inc.),
 the Gaussian 92(TM) system (copyright 1992, Gaussian, Inc.),
 the Gaussian 90(TM) system (copyright 1990, Gaussian, Inc.),
 the Gaussian 88(TM) system (copyright 1988, Gaussian, Inc.),
 the Gaussian 86(TM) system (copyright 1986, Carnegie Mellon
 University), and the Gaussian 82(TM) system (copyright 1983,
 Carnegie Mellon University). Gaussian is a federally registered
 trademark of Gaussian, Inc.
  
 This software contains proprietary and confidential information,
 including trade secrets, belonging to Gaussian, Inc.
  
 This software is provided under written license and may be
 used, copied, transmitted, or stored only in accord with that
 written license.
  
 The following legend is applicable only to US Government
 contracts under FAR:
  
                    RESTRICTED RIGHTS LEGEND
  
 Use, reproduction and disclosure by the US Government is
 subject to restrictions as set forth in subparagraphs (a)
 and (c) of the Commercial Computer Software - Restricted
 Rights clause in FAR 52.227-19.
  
 Gaussian, Inc.
 340 Quinnipiac St., Bldg. 40, Wallingford CT 06492
  
  
 ---------------------------------------------------------------
 Warning -- This program may not be used in any manner that
 competes with the business of Gaussian, Inc. or will provide
 assistance to any competitor of Gaussian, Inc.  The licensee
 of this program is prohibited from giving any competitor of
 Gaussian, Inc. access to this program.  By using this program,
 the user acknowledges that Gaussian, Inc. is engaged in the
 business of creating and licensing software in the field of
 computational chemistry and represents and warrants to the
 licensee that it is not a competitor of Gaussian, Inc. and that
 it will not use this program in any manner prohibited above.
 ---------------------------------------------------------------
  

 Cite this work as:
 Gaussian 16, Revision A.03,
 M. J. Frisch, G. W. Trucks, H. B. Schlegel, G. E. Scuseria, 
 M. A. Robb, J. R. Cheeseman, G. Scalmani, V. Barone, 
 G. A. Petersson, H. Nakatsuji, X. Li, M. Caricato, A. V. Marenich, 
 J. Bloino, B. G. Janesko, R. Gomperts, B. Mennucci, H. P. Hratchian, 
 J. V. Ortiz, A. F. Izmaylov, J. L. Sonnenberg, D. Williams-Young, 
 F. Ding, F. Lipparini, F. Egidi, J. Goings, B. Peng, A. Petrone, 
 T. Henderson, D. Ranasinghe, V. G. Zakrzewski, J. Gao, N. Rega, 
 G. Zheng, W. Liang, M. Hada, M. Ehara, K. Toyota, R. Fukuda, 
 J. Hasegawa, M. Ishida, T. Nakajima, Y. Honda, O. Kitao, H. Nakai, 
 T. Vreven, K. Throssell, J. A. Montgomery, Jr., J. E. Peralta, 
 F. Ogliaro, M. J. Bearpark, J. J. Heyd, E. N. Brothers, K. N. Kudin, 
 V. N. Staroverov, T. A. Keith, R. Kobayashi, J. Normand, 
 K. Raghavachari, A. P. Rendell, J. C. Burant, S. S. Iyengar, 
 J. Tomasi, M. Cossi, J. M. Millam, M. Klene, C. Adamo, R. Cammi, 
 J. W. Ochterski, R. L. Martin, K. Morokuma, O. Farkas, 
 J. B. Foresman, and D. J. Fox, Gaussian, Inc., Wallingford CT, 2016.
 
 ******************************************
 Gaussian 16:  ES64L-G16RevA.03 25-Dec-2016
                19-Feb-2023 
 ******************************************
 %chk=gau_job.chk
 %NProcShared=16
 Will use up to   16 processors via shared memory.
 %mem=20GB
 ----------------------------------------------------------------------
 #P M062X/Def2TZVP scf=(direct,conver=8) EmpiricalDispersion=GD3 NoSymm
  Force pop=(NBORead) Charge Prop=(Field,Read)
 ----------------------------------------------------------------------
 1/10=7,18=10,28=-2,30=1,38=1,125=101/1,3;
 2/12=2,15=1,17=6,18=5,29=2,40=1/2;
 3/5=44,7=101,11=2,25=1,30=1,71=1,74=-55,124=31/1,2,3;
 4//1;
 5/5=2,6=8,38=5/2;
 6/7=2,8=2,9=2,10=2,14=2,15=1,28=1,40=2/1,2,7;
 7/7=1,16=-2,29=1,30=1/1,2,3,16;
 1/10=7,18=10,28=-2,30=1/3;
 99/12=1/99;
 Leave Link    1 at Sun Feb 19 04:33:08 2023, MaxMem=  2684354560 cpu:               0.6 elap:               0.0
 (Enter /storage/apps/GAUSSIAN/G16_RevA03/g16/l101.exe)
 ----------------------------------------------------------------------
 Gaussian run using SANDER external interface, route from template gau_
 job.tpl
 ----------------------------------------------------------------------
 Symbolic Z-matrix:
 Charge =  0 Multiplicity = 1
 C                     3.37746  -3.68683  -0.5558 
 H                     3.45697  -3.84348  -1.64044 
 H                     4.2862   -4.06021  -0.06161 
 C                     1.51991  -1.378     1.15219 
 H                     0.91143  -2.29395   1.01172 
 O                     1.05632  -0.62572   2.22192 
 H                     0.38373   0.02867   1.93581 
 C                     2.98062  -1.84161   1.23565 
 H                     3.09841  -2.72568   1.88864 
 O                     3.77007  -0.77801   1.68074 
 H                     4.71379  -0.95868   1.44148 
 C                     1.57378  -0.66432  -0.19447 
 H                     2.15471   0.26131  -0.06642 
 C                     3.26361  -2.20096  -0.25369 
 H                     4.21579  -1.73373  -0.54819 
 O                     2.21174  -1.59545  -1.0178 
 N                     0.29297  -0.28664  -0.7591 
 C                    -0.72116  -1.21219  -0.82388 
 H                    -0.48234  -2.21318  -0.46707 
 C                    -1.93582  -0.88811  -1.33454 
 H                    -2.7146   -1.64841  -1.34776 
 C                    -2.17436   0.43855  -1.83269 
 H                    -3.0575    0.62715  -2.44673 
 H                    -2.76326   1.29235  -0.70684 
 C                    -1.02301   1.25762  -2.00017 
 C                     0.1503    0.92162  -1.37578 
 H                     1.02256   1.58071  -1.42103 
 C                    -1.07444   2.54359  -2.76935 
 O                    -0.33531   3.47194  -2.49441 
 N                    -1.98431   2.5909   -3.77037 
 H                    -1.80516   3.35993  -4.4204 
 H                    -2.33626   1.73137  -4.20635 
 C                     0.48436   2.22926   3.87035 
 C                    -1.15826   2.21763   1.62273 
 C                    -1.80427   2.81719   0.52635 
 C                    -3.82197   3.21595  -0.91819 
 C                    -3.02752   2.27152  -0.01246 
 O                    -1.26039   1.02691   1.98735 
 S                    -0.18127   3.35428   2.61714 
 H                    -0.35048   1.77338   4.4204 
 H                     1.05439   1.42747   3.38394 
 H                    -4.1614    2.72831  -1.84141 
 H                    -3.19956   4.06021  -1.24719 
 H                    -4.71379   3.62074  -0.41441 
 H                    -3.64163   1.77281   0.75641 
 H                    -1.42832   3.777     0.16289 
 H                     2.4924   -4.19183  -0.16885 
 H                     1.12912   2.76364   4.56807 
 
 ITRead=  0  0  0  0  0  0  0  0  0  0  0  0  0  0  0  0  0  0  0  0
 ITRead=  0  0  0  0  0  0  0  0  0  0  0  0  0  0  0  0  0  0  0  0
 ITRead=  0  0  0  0  0  0  0  0
 MicOpt= -1 -1 -1 -1 -1 -1 -1 -1 -1 -1 -1 -1 -1 -1 -1 -1 -1 -1 -1 -1
 MicOpt= -1 -1 -1 -1 -1 -1 -1 -1 -1 -1 -1 -1 -1 -1 -1 -1 -1 -1 -1 -1
 MicOpt= -1 -1 -1 -1 -1 -1 -1 -1
 NAtoms=     48 NQM=       48 NQMF=       0 NMMI=      0 NMMIF=      0
                NMic=       0 NMicF=      0.
                    Isotopes and Nuclear Properties:
 (Nuclear quadrupole moments (NQMom) in fm**2, nuclear magnetic moments (NMagM)
  in nuclear magnetons)

  Atom         1           2           3           4           5           6           7           8           9          10
 IAtWgt=          12           1           1          12           1          16           1          12           1          16
 AtmWgt=  12.0000000   1.0078250   1.0078250  12.0000000   1.0078250  15.9949146   1.0078250  12.0000000   1.0078250  15.9949146
 NucSpn=           0           1           1           0           1           0           1           0           1           0
 AtZEff=  -0.0000000  -0.0000000  -0.0000000  -0.0000000  -0.0000000  -0.0000000  -0.0000000  -0.0000000  -0.0000000  -0.0000000
 NQMom=    0.0000000   0.0000000   0.0000000   0.0000000   0.0000000   0.0000000   0.0000000   0.0000000   0.0000000   0.0000000
 NMagM=    0.0000000   2.7928460   2.7928460   0.0000000   2.7928460   0.0000000   2.7928460   0.0000000   2.7928460   0.0000000
 AtZNuc=   6.0000000   1.0000000   1.0000000   6.0000000   1.0000000   8.0000000   1.0000000   6.0000000   1.0000000   8.0000000

  Atom        11          12          13          14          15          16          17          18          19          20
 IAtWgt=           1          12           1          12           1          16          14          12           1          12
 AtmWgt=   1.0078250  12.0000000   1.0078250  12.0000000   1.0078250  15.9949146  14.0030740  12.0000000   1.0078250  12.0000000
 NucSpn=           1           0           1           0           1           0           2           0           1           0
 AtZEff=  -0.0000000  -0.0000000  -0.0000000  -0.0000000  -0.0000000  -0.0000000  -0.0000000  -0.0000000  -0.0000000  -0.0000000
 NQMom=    0.0000000   0.0000000   0.0000000   0.0000000   0.0000000   0.0000000   2.0440000   0.0000000   0.0000000   0.0000000
 NMagM=    2.7928460   0.0000000   2.7928460   0.0000000   2.7928460   0.0000000   0.4037610   0.0000000   2.7928460   0.0000000
 AtZNuc=   1.0000000   6.0000000   1.0000000   6.0000000   1.0000000   8.0000000   7.0000000   6.0000000   1.0000000   6.0000000

  Atom        21          22          23          24          25          26          27          28          29          30
 IAtWgt=           1          12           1           1          12          12           1          12          16          14
 AtmWgt=   1.0078250  12.0000000   1.0078250   1.0078250  12.0000000  12.0000000   1.0078250  12.0000000  15.9949146  14.0030740
 NucSpn=           1           0           1           1           0           0           1           0           0           2
 AtZEff=  -0.0000000  -0.0000000  -0.0000000  -0.0000000  -0.0000000  -0.0000000  -0.0000000  -0.0000000  -0.0000000  -0.0000000
 NQMom=    0.0000000   0.0000000   0.0000000   0.0000000   0.0000000   0.0000000   0.0000000   0.0000000   0.0000000   2.0440000
 NMagM=    2.7928460   0.0000000   2.7928460   2.7928460   0.0000000   0.0000000   2.7928460   0.0000000   0.0000000   0.4037610
 AtZNuc=   1.0000000   6.0000000   1.0000000   1.0000000   6.0000000   6.0000000   1.0000000   6.0000000   8.0000000   7.0000000

  Atom        31          32          33          34          35          36          37          38          39          40
 IAtWgt=           1           1          12          12          12          12          12          16          32           1
 AtmWgt=   1.0078250   1.0078250  12.0000000  12.0000000  12.0000000  12.0000000  12.0000000  15.9949146  31.9720718   1.0078250
 NucSpn=           1           1           0           0           0           0           0           0           0           1
 AtZEff=  -0.0000000  -0.0000000  -0.0000000  -0.0000000  -0.0000000  -0.0000000  -0.0000000  -0.0000000  -0.0000000  -0.0000000
 NQMom=    0.0000000   0.0000000   0.0000000   0.0000000   0.0000000   0.0000000   0.0000000   0.0000000   0.0000000   0.0000000
 NMagM=    2.7928460   2.7928460   0.0000000   0.0000000   0.0000000   0.0000000   0.0000000   0.0000000   0.0000000   2.7928460
 AtZNuc=   1.0000000   1.0000000   6.0000000   6.0000000   6.0000000   6.0000000   6.0000000   8.0000000  16.0000000   1.0000000

  Atom        41          42          43          44          45          46          47          48
 IAtWgt=           1           1           1           1           1           1           1           1
 AtmWgt=   1.0078250   1.0078250   1.0078250   1.0078250   1.0078250   1.0078250   1.0078250   1.0078250
 NucSpn=           1           1           1           1           1           1           1           1
 AtZEff=  -0.0000000  -0.0000000  -0.0000000  -0.0000000  -0.0000000  -0.0000000  -0.0000000  -0.0000000
 NQMom=    0.0000000   0.0000000   0.0000000   0.0000000   0.0000000   0.0000000   0.0000000   0.0000000
 NMagM=    2.7928460   2.7928460   2.7928460   2.7928460   2.7928460   2.7928460   2.7928460   2.7928460
 AtZNuc=   1.0000000   1.0000000   1.0000000   1.0000000   1.0000000   1.0000000   1.0000000   1.0000000
 Background charge distribution read from input stream:
 Leave Link  101 at Sun Feb 19 04:33:08 2023, MaxMem=  2684354560 cpu:               1.5 elap:               0.1
 (Enter /storage/apps/GAUSSIAN/G16_RevA03/g16/l103.exe)

 GradGradGradGradGradGradGradGradGradGradGradGradGradGradGradGradGradGrad
 Berny optimization.
 Initialization pass.
 Trust Radius=3.00D-01 FncErr=1.00D-07 GrdErr=1.00D-07 EigMax=2.50D+02 EigMin=1.00D-04
 Number of steps in this run=      2 maximum allowed number of steps=      2.
 GradGradGradGradGradGradGradGradGradGradGradGradGradGradGradGradGradGrad

 Leave Link  103 at Sun Feb 19 04:33:08 2023, MaxMem=  2684354560 cpu:               0.3 elap:               0.0
 (Enter /storage/apps/GAUSSIAN/G16_RevA03/g16/l202.exe)
 ---------------------------------------------------------------------------------------------------
                            Z-MATRIX (ANGSTROMS AND DEGREES)
   CD    Cent   Atom    N1       Length/X        N2       Alpha/Y        N3        Beta/Z          J
 ---------------------------------------------------------------------------------------------------
      1      1  C        0   3.377462         -3.686828         -0.555805
      2      2  H        0   3.456967         -3.843484         -1.640437
      3      3  H        0   4.286201         -4.060213         -0.061612
      4      4  C        0   1.519914         -1.378004          1.152193
      5      5  H        0   0.911428         -2.293955          1.011719
      6      6  O        0   1.056317         -0.625722          2.221920
      7      7  H        0   0.383729          0.028673          1.935810
      8      8  C        0   2.980619         -1.841610          1.235647
      9      9  H        0   3.098415         -2.725679          1.888645
     10     10  O        0   3.770074         -0.778014          1.680735
     11     11  H        0   4.713786         -0.958677          1.441475
     12     12  C        0   1.573783         -0.664315         -0.194471
     13     13  H        0   2.154710          0.261312         -0.066419
     14     14  C        0   3.263610         -2.200964         -0.253689
     15     15  H        0   4.215787         -1.733730         -0.548186
     16     16  O        0   2.211736         -1.595452         -1.017801
     17     17  N        0   0.292968         -0.286635         -0.759098
     18     18  C        0  -0.721155         -1.212189         -0.823881
     19     19  H        0  -0.482339         -2.213182         -0.467075
     20     20  C        0  -1.935820         -0.888111         -1.334536
     21     21  H        0  -2.714605         -1.648409         -1.347762
     22     22  C        0  -2.174357          0.438552         -1.832691
     23     23  H        0  -3.057504          0.627150         -2.446728
     24     24  H        0  -2.763265          1.292349         -0.706838
     25     25  C        0  -1.023008          1.257622         -2.000174
     26     26  C        0   0.150302          0.921621         -1.375784
     27     27  H        0   1.022557          1.580711         -1.421032
     28     28  C        0  -1.074438          2.543591         -2.769348
     29     29  O        0  -0.335308          3.471941         -2.494409
     30     30  N        0  -1.984310          2.590896         -3.770366
     31     31  H        0  -1.805163          3.359925         -4.420395
     32     32  H        0  -2.336260          1.731367         -4.206351
     33     33  C        0   0.484358          2.229255          3.870351
     34     34  C        0  -1.158263          2.217628          1.622731
     35     35  C        0  -1.804268          2.817193          0.526348
     36     36  C        0  -3.821970          3.215954         -0.918193
     37     37  C        0  -3.027524          2.271518         -0.012456
     38     38  O        0  -1.260393          1.026913          1.987346
     39     39  S        0  -0.181269          3.354280          2.617139
     40     40  H        0  -0.350484          1.773382          4.420395
     41     41  H        0   1.054385          1.427468          3.383943
     42     42  H        0  -4.161405          2.728313         -1.841413
     43     43  H        0  -3.199559          4.060213         -1.247194
     44     44  H        0  -4.713786          3.620736         -0.414406
     45     45  H        0  -3.641635          1.772813          0.756407
     46     46  H        0  -1.428321          3.777000          0.162887
     47     47  H        0   2.492398         -4.191831         -0.168849
     48     48  H        0   1.129119          2.763644          4.568070
 ---------------------------------------------------------------------------------------------------
                         Z-Matrix orientation:                         
 ---------------------------------------------------------------------
 Center     Atomic      Atomic             Coordinates (Angstroms)
 Number     Number       Type             X           Y           Z
 ---------------------------------------------------------------------
      1          6           0        3.377462   -3.686828   -0.555805
      2          1           0        3.456967   -3.843484   -1.640437
      3          1           0        4.286201   -4.060213   -0.061612
      4          6           0        1.519914   -1.378004    1.152193
      5          1           0        0.911428   -2.293955    1.011719
      6          8           0        1.056317   -0.625722    2.221920
      7          1           0        0.383729    0.028673    1.935810
      8          6           0        2.980619   -1.841610    1.235647
      9          1           0        3.098415   -2.725679    1.888645
     10          8           0        3.770074   -0.778014    1.680735
     11          1           0        4.713786   -0.958677    1.441475
     12          6           0        1.573783   -0.664315   -0.194471
     13          1           0        2.154710    0.261312   -0.066419
     14          6           0        3.263610   -2.200964   -0.253689
     15          1           0        4.215787   -1.733730   -0.548186
     16          8           0        2.211736   -1.595452   -1.017801
     17          7           0        0.292968   -0.286635   -0.759098
     18          6           0       -0.721155   -1.212189   -0.823881
     19          1           0       -0.482339   -2.213182   -0.467075
     20          6           0       -1.935820   -0.888111   -1.334536
     21          1           0       -2.714605   -1.648409   -1.347762
     22          6           0       -2.174357    0.438552   -1.832691
     23          1           0       -3.057504    0.627150   -2.446728
     24          1           0       -2.763265    1.292349   -0.706838
     25          6           0       -1.023008    1.257622   -2.000174
     26          6           0        0.150302    0.921621   -1.375784
     27          1           0        1.022557    1.580711   -1.421032
     28          6           0       -1.074438    2.543591   -2.769348
     29          8           0       -0.335308    3.471941   -2.494409
     30          7           0       -1.984310    2.590896   -3.770366
     31          1           0       -1.805163    3.359925   -4.420395
     32          1           0       -2.336260    1.731367   -4.206351
     33          6           0        0.484358    2.229255    3.870351
     34          6           0       -1.158263    2.217628    1.622731
     35          6           0       -1.804268    2.817193    0.526348
     36          6           0       -3.821970    3.215954   -0.918193
     37          6           0       -3.027524    2.271518   -0.012456
     38          8           0       -1.260393    1.026913    1.987346
     39         16           0       -0.181269    3.354280    2.617139
     40          1           0       -0.350484    1.773382    4.420395
     41          1           0        1.054385    1.427468    3.383943
     42          1           0       -4.161405    2.728313   -1.841413
     43          1           0       -3.199559    4.060213   -1.247194
     44          1           0       -4.713786    3.620736   -0.414406
     45          1           0       -3.641635    1.772813    0.756407
     46          1           0       -1.428321    3.777000    0.162887
     47          1           0        2.492398   -4.191831   -0.168849
     48          1           0        1.129119    2.763644    4.568070
 ---------------------------------------------------------------------
                    Distance matrix (angstroms):
                    1          2          3          4          5
     1  C    0.000000
     2  H    1.098767   0.000000
     3  H    1.099750   1.796466   0.000000
     4  C    3.420293   4.198755   4.039791   0.000000
     5  H    3.237058   3.989328   3.957373   1.108582   0.000000
     6  O    4.740658   5.570899   5.238549   1.387504   2.066055
     7  H    5.382892   6.101469   5.994828   1.970714   2.554801
     8  C    2.602232   3.536419   2.882642   1.534781   2.129862
     9  H    2.641403   3.719202   2.644867   2.202329   2.395474
    10  O    3.690183   4.530488   3.751664   2.388004   3.304166
    11  H    3.635615   4.404530   3.472984   3.234245   4.052849
    12  C    3.538277   3.967910   4.348216   1.525043   2.132917
    13  H    4.162022   4.585058   4.818595   2.139004   3.039329
    14  C    1.520535   2.158316   2.130585   2.386261   2.672576
    15  H    2.125427   2.493969   2.377863   3.207111   3.696748
    16  O    2.438485   2.644224   3.360469   2.287963   2.509514
    17  N    4.595295   4.841365   5.538256   2.519824   2.747293
    18  C    4.795244   5.004716   5.810844   2.992449   2.684208
    19  H    4.132501   4.421854   5.129805   2.707133   2.033701
    20  C    6.055592   6.157106   7.099022   4.285547   3.948181
    21  H    6.472682   6.556852   7.515468   4.924839   4.374013
    22  C    7.033626   7.077048   8.069351   5.084983   5.007927
    23  H    7.974633   7.941977   9.032727   6.158379   6.020476
    24  H    7.907182   8.120324   8.874751   5.378885   5.414645
    25  C    6.774801   6.798593   7.760483   4.832225   5.042543
    26  C    5.685484   5.806057   6.606919   3.681682   4.076691
    27  H    5.834480   5.949485   6.657283   3.952574   4.576424
    28  C    7.971029   7.912192   8.926282   6.122749   6.453059
    29  O    8.294023   8.284084   9.165707   6.345197   6.862422
    30  N    8.859561   8.691682   9.864655   7.229339   7.423975
    31  H    9.563022   9.343836  10.543347   8.034790   8.297837
    32  H    8.679282   8.439452   9.725135   7.297415   7.347037
    33  C    7.934793   8.722577   8.334972   4.633906   5.367830
    34  C    7.757668   8.287683   8.478826   4.508060   5.001133
    35  C    8.385921   8.760147   9.205337   5.389022   5.808135
    36  C    9.980558  10.165639  10.927890   7.343478   7.515898
    37  C    8.764756   9.060474   9.673872   5.945974   6.116193
    38  O    7.084960   7.689932   7.800114   3.769776   4.086174
    39  S    8.503490   9.119842   9.061385   5.237806   5.972765
    40  H    8.274904   9.098327   8.695865   4.910272   5.454789
    41  H    6.861073   7.668098   7.240934   3.614983   4.415526
    42  H    9.982051  10.063225  10.982433   7.622395   7.687469
    43  H   10.185865  10.340812  11.107813   7.589775   7.897996
    44  H   10.903613  11.134583  11.837281   8.142522   8.286160
    45  H    8.988731   9.363642   9.876433   6.060188   6.110169
    46  H    8.906222   9.229831   9.701962   6.020372   6.561359
    47  H    1.090000   1.793686   1.801819   3.257069   2.737725
    48  H    8.539187   9.360479   8.829844   5.382768   6.186625
                    6          7          8          9         10
     6  O    0.000000
     7  H    0.981053   0.000000
     8  C    2.480737   3.275977   0.000000
     9  H    2.948059   3.867582   1.105378   0.000000
    10  O    2.771381   3.490435   1.397347   2.070688   0.000000
    11  H    3.754602   4.468627   1.955966   2.435504   0.990191
    12  C    2.471479   2.536643   2.326037   3.303497   2.890159
    13  H    2.688827   2.683173   2.607639   3.692555   2.596565
    14  C    3.671808   4.249576   1.557993   2.211834   2.454239
    15  H    4.345506   4.894994   2.172404   2.858431   2.465794
    16  O    3.573677   3.834477   2.393701   3.242074   3.221602
    17  N    3.095828   2.714809   3.690585   4.563990   4.276038
    18  C    3.574948   3.221242   4.282635   4.923166   5.160693
    19  H    3.481119   3.398506   3.876778   4.316696   4.975521
    20  C    4.655117   4.112903   5.629065   6.253724   6.454550
    21  H    5.292294   4.816028   6.256749   6.739884   7.209747
    22  C    5.292430   4.573118   6.417758   7.187686   7.011453
    23  H    6.347400   5.604186   7.490900   8.242102   8.101004
    24  H    5.181296   4.299307   6.825478   7.565736   7.257508
    25  C    5.069187   4.356742   6.008728   6.926451   6.377033
    26  C    4.019777   3.437805   4.739801   5.714075   5.033272
    27  H    4.259176   3.753040   4.754391   5.814476   4.767955
    28  C    6.284697   5.530785   7.191207   8.177701   7.369233
    29  O    6.400877   5.656850   7.289891   8.331393   7.235200
    30  N    7.449801   6.688277   8.328133   9.280326   8.612607
    31  H    8.257954   7.502656   9.052651  10.044085   9.242814
    32  H    7.641212   6.929910   8.405398   9.303221   8.845456
    33  C    3.345946   2.931747   5.453891   5.942375   4.963267
    34  C    3.653495   2.695790   5.810128   6.528881   5.767646
    35  C    4.786604   3.814415   6.715854   7.524333   6.732862
    36  C    6.958194   5.999334   8.746039   9.543221   8.963557
    37  C    5.483082   4.523576   7.387379   8.131007   7.640280
    38  O    2.855411   1.924130   5.174906   5.752468   5.353258
    39  S    4.186673   3.441380   6.237254   6.946433   5.793602
    40  H    3.545149   3.123498   5.857221   6.208559   5.567258
    41  H    2.359213   2.122144   4.360324   4.864422   3.891020
    42  H    7.415177   6.497209   9.020033   9.816534   9.359926
    43  H    7.218394   6.262969   8.898910   9.774777   8.975355
    44  H    7.633919   6.664166   9.579341  10.325285   9.783380
    45  H    5.474619   4.542749   7.559627   8.182093   7.892689
    46  H    5.458663   4.525123   7.222073   8.108909   7.076393
    47  H    4.527167   5.166113   2.781098   2.598103   4.087488
    48  H    4.122805   3.868393   5.978416   6.417952   5.277754
                   11         12         13         14         15
    11  H    0.000000
    12  C    3.552828   0.000000
    13  H    3.211073   1.100299   0.000000
    14  C    2.553404   2.284800   2.706941   0.000000
    15  H    2.192592   2.872098   2.908665   1.100762   0.000000
    16  O    3.565638   1.397094   2.087092   1.434207   2.062978
    17  N    4.983753   1.449804   2.060614   3.569986   4.186535
    18  C    5.893615   2.441939   3.318969   4.145015   4.972064
    19  H    5.675920   2.588617   3.638361   3.752041   4.723224
    20  C    7.206142   3.696911   4.434155   5.470455   6.259048
    21  H    7.964708   4.548494   5.385081   6.102570   6.976886
    22  C    7.753640   4.236584   4.678884   6.247542   6.870423
    23  H    8.833228   5.309366   5.741679   7.263892   7.879022
    24  H    8.098683   4.785503   5.065535   6.980816   7.608514
    25  C    7.047535   3.701045   3.850966   5.778159   6.204953
    26  C    5.683121   2.436595   2.483565   4.549980   4.925848
    27  H    5.316730   2.616953   2.203987   4.548194   4.684453
    28  C    7.968717   4.892211   4.789783   6.903477   7.156502
    29  O    7.785558   5.103230   4.733230   7.082012   7.183263
    30  N    9.199307   6.003620   6.023095   7.929035   8.217423
    31  H    9.772848   6.743161   6.651249   8.601011   8.785851
    32  H    9.425361   6.092858   6.282429   7.902234   8.265494
    33  C    5.826699   5.107091   4.707551   6.660240   7.010869
    34  C    6.678528   4.367138   4.201927   6.526704   7.014736
    35  C    7.588129   4.904255   4.749464   7.174521   7.622768
    36  C    9.790542   6.685388   6.721319   8.943713   9.446789
    37  C    8.513281   5.461161   5.558722   7.722671   8.294250
    38  O    6.319127   3.956404   4.057958   5.992331   6.636160
    39  S    6.629129   5.209076   4.714311   7.139298   7.432445
    40  H    6.479580   5.562568   5.356664   7.120686   7.605095
    41  H    4.781013   4.177365   3.804685   5.592724   5.953929
    42  H   10.155800   6.864017   7.009280   9.052595   9.579124
    43  H    9.748807   6.798101   6.670387   9.053283   9.436405
    44  H   10.643987   7.612068   7.653958   9.877088  10.412757
    45  H    8.817223   5.834753   6.046428   8.030791   8.702694
    46  H    7.860465   5.372673   5.025013   7.610769   7.920210
    47  H    4.240400   3.645254   4.467103   2.136707   3.025926
    48  H    6.039959   5.884762   5.365816   7.242426   7.478634
                   16         17         18         19         20
    16  O    0.000000
    17  N    2.337006   0.000000
    18  C    2.964178   1.374516   0.000000
    19  H    2.818321   2.097131   1.089188   0.000000
    20  C    4.219345   2.379159   1.356910   2.149630   0.000000
    21  H    4.937663   3.353573   2.106794   2.465277   1.088455
    22  C    4.902962   2.786789   2.419595   3.429217   1.437043
    23  H    5.894632   3.861187   3.387525   4.314856   2.188872
    24  H    5.760792   3.440419   3.233670   4.189135   2.415176
    25  C    4.423648   2.378402   2.752226   3.832649   2.424968
    26  C    3.273121   1.364015   2.370058   3.324601   2.762016
    27  H    3.415370   2.111264   3.346253   4.191463   3.854161
    28  C    5.567632   3.731097   4.244471   5.317699   3.818015
    29  O    5.860570   4.187234   4.988047   6.037576   4.787170
    30  N    6.535206   4.746990   4.974011   6.020533   4.247247
    31  H    7.229723   5.577155   5.917281   6.959751   5.252182
    32  H    6.474476   4.782126   4.765941   5.742706   3.907600
    33  C    6.442535   5.272394   5.944124   6.283551   6.531928
    34  C    5.733139   3.748402   4.235636   4.945325   4.358399
    35  C    6.163126   3.960369   4.385450   5.295192   4.148431
    36  C    7.717847   5.406123   5.406699   6.390005   4.535886
    37  C    6.588932   4.257616   4.256050   5.176599   3.594854
    38  O    5.288042   3.417791   3.634191   4.138570   3.893381
    39  S    6.590835   4.988000   5.743234   6.371786   6.057398
    40  H    6.891153   5.611136   6.045946   6.308521   6.535753
    41  H    5.463777   4.547823   5.275046   5.517807   6.047089
    42  H    7.745335   5.486598   5.329000   6.312108   4.276526
    43  H    7.830790   5.597416   5.841224   6.880941   5.107893
    44  H    8.691120   6.360343   6.282192   7.207116   5.375262
    45  H    6.982476   4.692460   4.465058   5.231272   3.789771
    46  H    6.596005   4.508439   5.134763   6.097049   4.925758
    47  H    2.746029   4.520668   4.431056   3.585115   5.646460
    48  H    7.167687   6.195326   6.950100   7.260735   7.587485
                   21         22         23         24         25
    21  H    0.000000
    22  C    2.209623   0.000000
    23  H    2.550192   1.092043   0.000000
    24  H    3.010185   1.530793   1.885811   0.000000
    25  C    3.425224   1.422860   2.176253   2.168505   0.000000
    26  C    3.848835   2.417883   3.394650   3.012274   1.370918
    27  H    4.939531   3.419686   4.313725   3.863375   2.150379
    28  C    4.720585   2.553103   2.776577   2.944773   1.499329
    29  O    5.761410   3.608521   3.937697   3.720350   2.370740
    30  N    4.937008   2.902290   2.600012   3.417338   2.415636
    31  H    5.945719   3.920069   3.596079   4.356987   3.299836
    32  H    4.442698   2.707738   2.199037   3.552698   2.610801
    33  C    7.245575   6.542177   7.417345   5.689948   6.138346
    34  C    5.117839   4.017151   4.764161   2.976418   3.750380
    35  C    4.927739   3.370455   3.899496   2.183019   3.070170
    36  C    5.007277   3.356322   3.102053   2.205852   3.583285
    37  C    4.152926   2.720462   2.937776   1.229135   2.999515
    38  O    4.516085   3.971672   4.801086   3.096402   4.001236
    39  S    6.867688   5.681097   6.430607   4.686906   5.140436
    40  H    7.111214   6.649013   7.469885   5.686952   6.476265
    41  H    6.786408   6.214178   7.179475   5.597070   5.773485
    42  H    4.636014   3.031739   2.449467   2.303052   3.469535
    43  H    5.730066   3.809235   3.639365   2.853665   3.627515
    44  H    5.712423   4.311210   3.979342   3.051465   4.660559
    45  H    4.122096   3.261378   3.451640   1.772982   3.836843
    46  H    5.776820   3.960320   4.402939   2.951607   3.345201
    47  H    5.913688   6.781403   7.694981   7.614963   6.738574
    48  H    8.320907   7.568933   8.443921   6.718632   7.074008
                   26         27         28         29         30
    26  C    0.000000
    27  H    1.094201   0.000000
    28  C    2.464304   2.672542   0.000000
    29  O    2.826884   2.563725   1.218088   0.000000
    30  N    3.616223   3.947289   1.353566   2.263518   0.000000
    31  H    4.363351   4.489742   1.981494   2.425375   1.022760
    32  H    3.853672   4.366045   2.077711   3.156605   1.026033
    33  C    5.416958   5.358078   6.827464   6.536535   8.037765
    34  C    3.518958   3.798174   4.404956   4.381940   5.468746
    35  C    3.321392   3.648577   3.386609   3.422209   4.306434
    36  C    4.610021   5.137733   3.380500   3.834944   3.450012
    37  C    3.712070   4.343323   3.389546   3.853457   3.913079
    38  O    3.648532   4.139515   4.996101   5.188455   6.010103
    39  S    4.687345   4.571823   5.519892   5.115222   6.680863
    40  H    5.879794   6.003718   7.267031   7.120383   8.392037
    41  H    4.871165   4.807523   6.606104   6.377001   7.859476
    42  H    4.698059   5.326084   3.228708   3.952013   2.911956
    43  H    4.592261   4.899429   3.022124   3.178921   3.162612
    44  H    5.645248   6.170951   4.466638   4.849703   4.446693
    45  H    4.432781   5.151002   4.428944   4.938283   4.889545
    46  H    3.607318   3.652298   3.200708   2.889456   4.145653
    47  H    5.752347   6.086923   8.053001   8.493383   8.889163
    48  H    6.299248   6.105737   7.664319   7.247402   8.902404
                   31         32         33         34         35
    31  H    0.000000
    32  H    1.726292   0.000000
    33  C    8.675068   8.569533   0.000000
    34  C    6.184069   5.966769   2.783906   0.000000
    35  C    4.976427   4.884719   4.094611   1.406719   0.000000
    36  C    4.043966   3.901707   6.515227   3.814222   2.513330
    37  C    4.701992   4.284667   5.235579   2.484125   1.443754
    38  O    6.840970   6.325791   2.834694   1.249470   2.373904
    39  S    7.222462   7.337428   1.810879   1.798706   2.700740
    40  H    9.099054   8.852447   1.098786   2.945638   4.285631
    41  H    8.533411   8.318738   1.097446   2.936330   4.274235
    42  H    3.549924   3.149284   7.379459   4.613020   3.342197
    43  H    3.536092   3.863343   6.566043   3.974730   2.576312
    44  H    4.957425   4.858106   6.878668   4.331327   3.161644
    45  H    5.717590   5.131733   5.189297   2.667492   2.125929
    46  H    4.617622   4.909094   4.449624   2.153072   1.093009
    47  H    9.673350   8.643011   7.847147   7.590668   8.250519
    48  H    9.474074   9.490254   1.090000   3.768988   4.994311
                   36         37         38         39         40
    36  C    0.000000
    37  C    1.530838   0.000000
    38  O    4.449240   2.944656   0.000000
    39  S    5.076653   4.023470   2.641551   0.000000
    40  H    6.529376   5.202388   2.702754   2.404082   0.000000
    41  H    6.744323   5.376795   2.732970   2.414008   1.779761
    42  H    1.097882   2.199871   5.096079   6.009326   7.392242
    43  H    1.099277   2.180276   4.839785   4.953936   6.743025
    44  H    1.101357   2.196687   4.941888   5.459394   6.769522
    45  H    2.217986   1.103172   2.782425   4.235268   4.925087
    46  H    2.685714   2.203331   3.304517   2.785173   4.827276
    47  H    9.762584   8.501111   6.779963   8.476675   8.045304
    48  H    7.403847   6.204924   3.922517   2.423242   1.786520
                   41         42         43         44         45
    41  H    0.000000
    42  H    7.496733   0.000000
    43  H    6.817244   1.747054   0.000000
    44  H    7.246357   1.771410   1.783132   0.000000
    45  H    5.392199   2.816347   3.072791   2.436213   0.000000
    46  H    4.696737   3.547775   2.281626   3.339456   3.044304
    47  H    6.801965   9.744689  10.082531  10.631350   8.605779
    48  H    1.786927   8.310978   7.364499   7.726527   6.186325
                   46         47         48
    46  H    0.000000
    47  H    8.887314   0.000000
    48  H    5.193557   8.524996   0.000000
 Symmetry turned off by external request.
 Stoichiometry    C16H24N2O5S
 Framework group  C1[X(C16H24N2O5S)]
 Deg. of freedom   138
 Full point group                 C1      NOp   1
 Rotational constants (GHZ):           0.2884812           0.1674654           0.1256197
 Leave Link  202 at Sun Feb 19 04:33:08 2023, MaxMem=  2684354560 cpu:               0.2 elap:               0.0
 (Enter /storage/apps/GAUSSIAN/G16_RevA03/g16/l301.exe)
 Standard basis: def2TZVP (5D, 7F)
 Ernie: Thresh=  0.10000D-02 Tol=  0.10000D-05 Strict=F.
   894 basis functions,  1434 primitive gaussians,  1014 cartesian basis functions
    95 alpha electrons       95 beta electrons
       nuclear repulsion energy      2438.7763763450 Hartrees.
 IExCor= 4336 DFT=T Ex+Corr=M062X ExCW=0 ScaHFX=  0.540000
 ScaDFX=  1.000000  1.000000  1.000000  1.000000 ScalE2=  1.000000  1.000000
 IRadAn=      5 IRanWt=     -1 IRanGd=            0 ICorTp=0 IEmpDi=131
 NAtoms=   48 NActive=   48 NUniq=   48 SFac= 1.00D+00 NAtFMM=   60 NAOKFM=F Big=F
 Integral buffers will be    131072 words long.
 Raffenetti 2 integral format.
 Two-electron integral symmetry is turned off.
 R6Disp:  Grimme-D3 Dispersion energy=       -0.0041289251 Hartrees.
 Nuclear repulsion after empirical dispersion term =     2438.7722474199 Hartrees.
 Leave Link  301 at Sun Feb 19 04:33:08 2023, MaxMem=  2684354560 cpu:               0.8 elap:               0.1
 (Enter /storage/apps/GAUSSIAN/G16_RevA03/g16/l302.exe)
 NPDir=0 NMtPBC=     1 NCelOv=     1 NCel=       1 NClECP=     1 NCelD=      1
         NCelK=      1 NCelE2=     1 NClLst=     1 CellRange=     0.0.
 One-electron integrals computed using PRISM.
   1 Symmetry operations used in ECPInt.
 ECPInt:  NShTT=   65703 NPrTT=  200010 LenC2=   56045 LenP2D=  118896.
 LDataN:  DoStor=T MaxTD1= 6 Len=  172
 NBasis=   894 RedAO= T EigKep=  3.05D-05  NBF=   894
 NBsUse=   894 1.00D-06 EigRej= -1.00D+00 NBFU=   894
 Precomputing XC quadrature grid using
 IXCGrd= 4 IRadAn=           5 IRanWt=          -1 IRanGd=           0 AccXCQ= 0.00D+00.
 Generated NRdTot=       0 NPtTot=           0 NUsed=           0 NTot=          32
 NSgBfM=   995   995   995   995   995 MxSgAt=    48 MxSgA2=    48.
 Leave Link  302 at Sun Feb 19 04:33:09 2023, MaxMem=  2684354560 cpu:              18.2 elap:               1.2
 (Enter /storage/apps/GAUSSIAN/G16_RevA03/g16/l303.exe)
 DipDrv:  MaxL=1.
 Leave Link  303 at Sun Feb 19 04:33:10 2023, MaxMem=  2684354560 cpu:               2.0 elap:               0.2
 (Enter /storage/apps/GAUSSIAN/G16_RevA03/g16/l401.exe)
 ExpMin= 9.52D-02 ExpMax= 6.07D+04 ExpMxC= 2.07D+03 IAcc=3 IRadAn=         5 AccDes= 0.00D+00
 Harris functional with IExCor= 1009 and IRadAn=       5 diagonalized for initial guess.
 HarFok:  IExCor= 1009 AccDes= 0.00D+00 IRadAn=         5 IDoV= 1 UseB2=F ITyADJ=14
 ICtDFT=  3500011 ScaDFX=  1.000000  1.000000  1.000000  1.000000
 FoFCou: FMM=F IPFlag=           0 FMFlag=      100000 FMFlg1=           0
         NFxFlg=           0 DoJE=T BraDBF=F KetDBF=T FulRan=T
         wScrn=  0.000000 ICntrl=       500 IOpCl=  0 I1Cent=   200000004 NGrid=           0
         NMat0=    1 NMatS0=      1 NMatT0=    0 NMatD0=    1 NMtDS0=    0 NMtDT0=    0
 Symmetry not used in FoFCou.
 Harris En= -1507.18890774122    
 JPrj=0 DoOrth=F DoCkMO=F.
 Leave Link  401 at Sun Feb 19 04:33:13 2023, MaxMem=  2684354560 cpu:              59.5 elap:               3.8
 (Enter /storage/apps/GAUSSIAN/G16_RevA03/g16/l502.exe)
 Two-electron integral symmetry not used.
 Closed shell SCF:
 Using DIIS extrapolation, IDIIS=  1040.
 NGot=  2684354560 LenX=  2682275214 LenY=  2681246004
 Requested convergence on RMS density matrix=1.00D-08 within 128 cycles.
 Requested convergence on MAX density matrix=1.00D-06.
 Requested convergence on             energy=1.00D-06.
 No special actions if energy rises.
 Fock matrices will be formed incrementally for  20 cycles.
 Integral accuracy reduced to 1.0D-05 until final iterations.

 Cycle   1  Pass 0  IDiag  1:
 FoFJK:  IHMeth= 1 ICntrl=       0 DoSepK=F KAlg= 0 I1Cent=           0 FoldK=F
 IRaf= 780000000 NMat=       1 IRICut=       1 DoRegI=T DoRafI=F ISym2E= 0 IDoP0=0 IntGTp=1.
 FoFCou: FMM=F IPFlag=           0 FMFlag=      100000 FMFlg1=           0
         NFxFlg=           0 DoJE=F BraDBF=F KetDBF=F FulRan=T
         wScrn=  0.000000 ICntrl=         0 IOpCl=  0 I1Cent=           0 NGrid=           0
         NMat0=    1 NMatS0=      1 NMatT0=    0 NMatD0=    1 NMtDS0=    0 NMtDT0=    0
 Symmetry not used in FoFCou.
 E= -1507.09151672858    
 DIIS: error= 1.56D-02 at cycle   1 NSaved=   1.
 NSaved= 1 IEnMin= 1 EnMin= -1507.09151672858     IErMin= 1 ErrMin= 1.56D-02
 ErrMax= 1.56D-02  0.00D+00 EMaxC= 1.00D-01 BMatC= 9.96D-01 BMatP= 9.96D-01
 IDIUse=3 WtCom= 8.44D-01 WtEn= 1.56D-01
 Coeff-Com:  0.100D+01
 Coeff-En:   0.100D+01
 Coeff:      0.100D+01
 Gap=     0.201 Goal=   None    Shift=    0.000
 GapD=    0.201 DampG=1.000 DampE=0.500 DampFc=0.5000 IDamp=-1.
 Damping current iteration by 5.00D-01
 RMSDP=4.36D-03 MaxDP=1.20D+00              OVMax= 4.97D-01

 Cycle   2  Pass 0  IDiag  1:
 RMSU=  2.18D-03    CP:  1.02D+00
 E= -1507.39149562259     Delta-E=       -0.299978894011 Rises=F Damp=T
 DIIS: error= 4.39D-03 at cycle   2 NSaved=   2.
 NSaved= 2 IEnMin= 2 EnMin= -1507.39149562259     IErMin= 2 ErrMin= 4.39D-03
 ErrMax= 4.39D-03  0.00D+00 EMaxC= 1.00D-01 BMatC= 1.08D-01 BMatP= 9.96D-01
 IDIUse=3 WtCom= 9.56D-01 WtEn= 4.39D-02
 Coeff-Com:  0.469D-01 0.953D+00
 Coeff-En:   0.168D+00 0.832D+00
 Coeff:      0.522D-01 0.948D+00
 Gap=     0.222 Goal=   None    Shift=    0.000
 RMSDP=1.49D-03 MaxDP=3.98D-01 DE=-3.00D-01 OVMax= 4.47D-01

 Cycle   3  Pass 0  IDiag  1:
 RMSU=  1.19D-03    CP:  1.00D+00  5.88D-01
 E= -1507.75903113510     Delta-E=       -0.367535512509 Rises=F Damp=F
 DIIS: error= 4.42D-03 at cycle   3 NSaved=   3.
 NSaved= 3 IEnMin= 3 EnMin= -1507.75903113510     IErMin= 2 ErrMin= 4.39D-03
 ErrMax= 4.42D-03  0.00D+00 EMaxC= 1.00D-01 BMatC= 8.74D-02 BMatP= 1.08D-01
 IDIUse=3 WtCom= 9.56D-01 WtEn= 4.42D-02
 Coeff-Com: -0.651D-01 0.492D+00 0.573D+00
 Coeff-En:   0.000D+00 0.000D+00 0.100D+01
 Coeff:     -0.623D-01 0.471D+00 0.592D+00
 Gap=     0.139 Goal=   None    Shift=    0.000
 RMSDP=6.58D-04 MaxDP=6.43D-02 DE=-3.68D-01 OVMax= 2.22D-01

 Cycle   4  Pass 0  IDiag  1:
 RMSU=  5.36D-04    CP:  1.00D+00  7.30D-01  8.11D-01
 E= -1507.83371805033     Delta-E=       -0.074686915230 Rises=F Damp=F
 DIIS: error= 2.50D-03 at cycle   4 NSaved=   4.
 NSaved= 4 IEnMin= 4 EnMin= -1507.83371805033     IErMin= 4 ErrMin= 2.50D-03
 ErrMax= 2.50D-03  0.00D+00 EMaxC= 1.00D-01 BMatC= 1.44D-02 BMatP= 8.74D-02
 IDIUse=3 WtCom= 9.75D-01 WtEn= 2.50D-02
 Coeff-Com: -0.391D-01 0.117D+00 0.323D+00 0.599D+00
 Coeff-En:   0.000D+00 0.000D+00 0.131D+00 0.869D+00
 Coeff:     -0.381D-01 0.114D+00 0.318D+00 0.605D+00
 Gap=     0.157 Goal=   None    Shift=    0.000
 RMSDP=2.53D-04 MaxDP=2.27D-02 DE=-7.47D-02 OVMax= 8.81D-02

 Cycle   5  Pass 0  IDiag  1:
 RMSU=  1.53D-04    CP:  1.00D+00  7.03D-01  8.87D-01  6.85D-01
 E= -1507.84717954177     Delta-E=       -0.013461491437 Rises=F Damp=F
 DIIS: error= 9.52D-04 at cycle   5 NSaved=   5.
 NSaved= 5 IEnMin= 5 EnMin= -1507.84717954177     IErMin= 5 ErrMin= 9.52D-04
 ErrMax= 9.52D-04  0.00D+00 EMaxC= 1.00D-01 BMatC= 1.65D-03 BMatP= 1.44D-02
 IDIUse=3 WtCom= 9.90D-01 WtEn= 9.52D-03
 Coeff-Com: -0.159D-01 0.315D-01 0.139D+00 0.343D+00 0.502D+00
 Coeff-En:   0.000D+00 0.000D+00 0.000D+00 0.239D-01 0.976D+00
 Coeff:     -0.158D-01 0.312D-01 0.138D+00 0.340D+00 0.507D+00
 Gap=     0.156 Goal=   None    Shift=    0.000
 RMSDP=8.26D-05 MaxDP=6.50D-03 DE=-1.35D-02 OVMax= 2.66D-02

 Cycle   6  Pass 0  IDiag  1:
 RMSU=  5.89D-05    CP:  1.00D+00  7.05D-01  8.80D-01  7.68D-01  7.69D-01
 E= -1507.84879653802     Delta-E=       -0.001616996254 Rises=F Damp=F
 DIIS: error= 2.42D-04 at cycle   6 NSaved=   6.
 NSaved= 6 IEnMin= 6 EnMin= -1507.84879653802     IErMin= 6 ErrMin= 2.42D-04
 ErrMax= 2.42D-04  0.00D+00 EMaxC= 1.00D-01 BMatC= 1.60D-04 BMatP= 1.65D-03
 IDIUse=3 WtCom= 9.98D-01 WtEn= 2.42D-03
 Coeff-Com: -0.279D-03-0.524D-02 0.116D-01 0.578D-01 0.251D+00 0.685D+00
 Coeff-En:   0.000D+00 0.000D+00 0.000D+00 0.000D+00 0.000D+00 0.100D+01
 Coeff:     -0.278D-03-0.523D-02 0.116D-01 0.577D-01 0.250D+00 0.686D+00
 Gap=     0.159 Goal=   None    Shift=    0.000
 RMSDP=3.23D-05 MaxDP=3.65D-03 DE=-1.62D-03 OVMax= 5.66D-03

 Cycle   7  Pass 0  IDiag  1:
 RMSU=  2.48D-05    CP:  1.00D+00  7.00D-01  8.89D-01  7.75D-01  8.56D-01
                    CP:  9.48D-01
 E= -1507.84899159352     Delta-E=       -0.000195055499 Rises=F Damp=F
 DIIS: error= 8.26D-05 at cycle   7 NSaved=   7.
 NSaved= 7 IEnMin= 7 EnMin= -1507.84899159352     IErMin= 7 ErrMin= 8.26D-05
 ErrMax= 8.26D-05  0.00D+00 EMaxC= 1.00D-01 BMatC= 2.16D-05 BMatP= 1.60D-04
 IDIUse=1 WtCom= 1.00D+00 WtEn= 0.00D+00
 Coeff-Com:  0.219D-02-0.649D-02-0.129D-01-0.251D-01 0.392D-01 0.308D+00
 Coeff-Com:  0.695D+00
 Coeff:      0.219D-02-0.649D-02-0.129D-01-0.251D-01 0.392D-01 0.308D+00
 Coeff:      0.695D+00
 Gap=     0.159 Goal=   None    Shift=    0.000
 RMSDP=1.73D-05 MaxDP=1.74D-03 DE=-1.95D-04 OVMax= 2.31D-03

 Cycle   8  Pass 0  IDiag  1:
 RMSU=  1.31D-05    CP:  1.00D+00  6.99D-01  8.90D-01  7.82D-01  8.88D-01
                    CP:  1.07D+00  1.22D+00
 E= -1507.84902405011     Delta-E=       -0.000032456589 Rises=F Damp=F
 DIIS: error= 3.03D-05 at cycle   8 NSaved=   8.
 NSaved= 8 IEnMin= 8 EnMin= -1507.84902405011     IErMin= 8 ErrMin= 3.03D-05
 ErrMax= 3.03D-05  0.00D+00 EMaxC= 1.00D-01 BMatC= 3.10D-06 BMatP= 2.16D-05
 IDIUse=1 WtCom= 1.00D+00 WtEn= 0.00D+00
 Coeff-Com:  0.110D-02-0.202D-02-0.694D-02-0.228D-01-0.315D-01 0.662D-02
 Coeff-Com:  0.270D+00 0.785D+00
 Coeff:      0.110D-02-0.202D-02-0.694D-02-0.228D-01-0.315D-01 0.662D-02
 Coeff:      0.270D+00 0.785D+00
 Gap=     0.159 Goal=   None    Shift=    0.000
 RMSDP=1.71D-05 MaxDP=2.20D-03 DE=-3.25D-05 OVMax= 1.25D-03

 Cycle   9  Pass 0  IDiag  1:
 RMSU=  9.44D-06    CP:  1.00D+00  6.97D-01  8.92D-01  7.85D-01  9.06D-01
                    CP:  1.15D+00  1.47D+00  1.80D+00
 E= -1507.84902588004     Delta-E=       -0.000001829927 Rises=F Damp=F
 DIIS: error= 1.43D-05 at cycle   9 NSaved=   9.
 NSaved= 9 IEnMin= 9 EnMin= -1507.84902588004     IErMin= 9 ErrMin= 1.43D-05
 ErrMax= 1.43D-05  0.00D+00 EMaxC= 1.00D-01 BMatC= 7.03D-07 BMatP= 3.10D-06
 IDIUse=1 WtCom= 1.00D+00 WtEn= 0.00D+00
 Coeff-Com:  0.278D-03-0.233D-03-0.142D-02-0.790D-02-0.194D-01-0.291D-01
 Coeff-Com:  0.355D-01 0.357D+00 0.666D+00
 Coeff:      0.278D-03-0.233D-03-0.142D-02-0.790D-02-0.194D-01-0.291D-01
 Coeff:      0.355D-01 0.357D+00 0.666D+00
 Gap=     0.159 Goal=   None    Shift=    0.000
 RMSDP=1.94D-05 MaxDP=2.97D-03 DE=-1.83D-06 OVMax= 3.77D-04

 Cycle  10  Pass 0  IDiag  1:
 RMSU=  7.28D-06    CP:  1.00D+00  6.97D-01  8.94D-01  7.88D-01  9.10D-01
                    CP:  1.20D+00  1.69D+00  2.76D+00  2.15D+00
 E= -1507.84901734719     Delta-E=        0.000008532853 Rises=F Damp=F
 DIIS: error= 2.48D-05 at cycle  10 NSaved=  10.
 NSaved=10 IEnMin= 9 EnMin= -1507.84902588004     IErMin= 9 ErrMin= 1.43D-05
 ErrMax= 2.48D-05  0.00D+00 EMaxC= 1.00D-01 BMatC= 4.54D-07 BMatP= 7.03D-07
 IDIUse=1 WtCom= 1.00D+00 WtEn= 0.00D+00
 Coeff-Com:  0.154D-03-0.964D-04-0.630D-03-0.468D-02-0.126D-01-0.208D-01
 Coeff-Com:  0.119D-01 0.219D+00 0.484D+00 0.323D+00
 Coeff:      0.154D-03-0.964D-04-0.630D-03-0.468D-02-0.126D-01-0.208D-01
 Coeff:      0.119D-01 0.219D+00 0.484D+00 0.323D+00
 Gap=     0.159 Goal=   None    Shift=    0.000
 RMSDP=1.36D-05 MaxDP=2.01D-03 DE= 8.53D-06 OVMax= 8.59D-05

 Cycle  11  Pass 0  IDiag  1:
 RMSU=  5.98D-06    CP:  1.00D+00  6.97D-01  8.95D-01  7.91D-01  9.13D-01
                    CP:  1.22D+00  1.82D+00  3.00D+00  2.98D+00  1.73D+00
 E= -1507.84901061829     Delta-E=        0.000006728898 Rises=F Damp=F
 DIIS: error= 3.37D-05 at cycle  11 NSaved=  11.
 NSaved=11 IEnMin= 9 EnMin= -1507.84902588004     IErMin= 9 ErrMin= 1.43D-05
 ErrMax= 3.37D-05  0.00D+00 EMaxC= 1.00D-01 BMatC= 6.53D-07 BMatP= 4.54D-07
 IDIUse=1 WtCom= 1.00D+00 WtEn= 0.00D+00
 Coeff-Com: -0.256D-04 0.285D-03 0.672D-03-0.147D-02-0.106D-01-0.289D-01
 Coeff-Com: -0.406D-01 0.131D+00 0.665D+00 0.173D+01-0.145D+01
 Coeff:     -0.256D-04 0.285D-03 0.672D-03-0.147D-02-0.106D-01-0.289D-01
 Coeff:     -0.406D-01 0.131D+00 0.665D+00 0.173D+01-0.145D+01
 Gap=     0.159 Goal=   None    Shift=    0.000
 RMSDP=3.77D-05 MaxDP=5.80D-03 DE= 6.73D-06 OVMax= 9.35D-05

 Cycle  12  Pass 0  IDiag  1:
 RMSU=  9.96D-06    CP:  1.00D+00  6.98D-01  8.93D-01  7.84D-01  9.04D-01
                    CP:  1.17D+00  1.49D+00  1.82D+00  8.55D-01 -6.96D-01
                    CP: -6.13D-01
 E= -1507.84902369866     Delta-E=       -0.000013080374 Rises=F Damp=F
 DIIS: error= 1.37D-05 at cycle  12 NSaved=  12.
 NSaved=12 IEnMin= 9 EnMin= -1507.84902588004     IErMin=12 ErrMin= 1.37D-05
 ErrMax= 1.37D-05  0.00D+00 EMaxC= 1.00D-01 BMatC= 1.91D-07 BMatP= 4.54D-07
 IDIUse=1 WtCom= 1.00D+00 WtEn= 0.00D+00
 Coeff-Com: -0.874D-04 0.270D-03 0.963D-03 0.876D-03-0.319D-02-0.153D-01
 Coeff-Com: -0.423D-01 0.661D-02 0.333D+00 0.137D+01-0.126D+01 0.614D+00
 Coeff:     -0.874D-04 0.270D-03 0.963D-03 0.876D-03-0.319D-02-0.153D-01
 Coeff:     -0.423D-01 0.661D-02 0.333D+00 0.137D+01-0.126D+01 0.614D+00
 Gap=     0.159 Goal=   None    Shift=    0.000
 RMSDP=1.23D-05 MaxDP=1.69D-03 DE=-1.31D-05 OVMax= 1.05D-04

 Cycle  13  Pass 0  IDiag  1:
 RMSU=  6.72D-06    CP:  1.00D+00  6.98D-01  8.92D-01  7.81D-01  9.05D-01
                    CP:  1.16D+00  1.42D+00  1.59D+00  5.33D-01 -1.42D+00
                    CP: -1.03D+00  1.69D+00
 E= -1507.84901208561     Delta-E=        0.000011613050 Rises=F Damp=F
 DIIS: error= 2.70D-05 at cycle  13 NSaved=  13.
 NSaved=13 IEnMin= 9 EnMin= -1507.84902588004     IErMin=12 ErrMin= 1.37D-05
 ErrMax= 2.70D-05  0.00D+00 EMaxC= 1.00D-01 BMatC= 2.36D-07 BMatP= 1.91D-07
 IDIUse=1 WtCom= 1.00D+00 WtEn= 0.00D+00
 Coeff-Com: -0.165D-03 0.426D-03 0.155D-02 0.223D-02-0.262D-02-0.196D-01
 Coeff-Com: -0.662D-01-0.316D-01 0.413D+00 0.197D+01-0.185D+01 0.118D+01
 Coeff-Com: -0.599D+00
 Coeff:     -0.165D-03 0.426D-03 0.155D-02 0.223D-02-0.262D-02-0.196D-01
 Coeff:     -0.662D-01-0.316D-01 0.413D+00 0.197D+01-0.185D+01 0.118D+01
 Coeff:     -0.599D+00
 Gap=     0.159 Goal=   None    Shift=    0.000
 RMSDP=1.25D-05 MaxDP=1.88D-03 DE= 1.16D-05 OVMax= 3.91D-05

 Cycle  14  Pass 0  IDiag  1:
 RMSU=  6.91D-06    CP:  1.00D+00  6.99D-01  8.92D-01  7.81D-01  8.98D-01
                    CP:  1.15D+00  1.38D+00  1.32D+00  9.51D-02 -1.52D+00
                    CP: -7.97D-01  1.24D+00 -7.58D-03
 E= -1507.84902538445     Delta-E=       -0.000013298836 Rises=F Damp=F
 DIIS: error= 1.61D-05 at cycle  14 NSaved=  14.
 NSaved=14 IEnMin= 9 EnMin= -1507.84902588004     IErMin=12 ErrMin= 1.37D-05
 ErrMax= 1.61D-05  0.00D+00 EMaxC= 1.00D-01 BMatC= 1.15D-07 BMatP= 1.91D-07
 IDIUse=1 WtCom= 1.00D+00 WtEn= 0.00D+00
 Coeff-Com: -0.141D-03 0.314D-03 0.133D-02 0.251D-02 0.911D-03-0.936D-02
 Coeff-Com: -0.502D-01-0.683D-01 0.193D+00 0.142D+01-0.142D+01 0.112D+01
 Coeff-Com: -0.110D+01 0.920D+00
 Coeff:     -0.141D-03 0.314D-03 0.133D-02 0.251D-02 0.911D-03-0.936D-02
 Coeff:     -0.502D-01-0.683D-01 0.193D+00 0.142D+01-0.142D+01 0.112D+01
 Coeff:     -0.110D+01 0.920D+00
 Gap=     0.159 Goal=   None    Shift=    0.000
 RMSDP=1.39D-05 MaxDP=1.33D-03 DE=-1.33D-05 OVMax= 6.33D-05

 Cycle  15  Pass 0  IDiag  1:
 RMSU=  7.47D-06    CP:  1.00D+00  7.00D-01  8.91D-01  7.80D-01  8.91D-01
                    CP:  1.14D+00  1.31D+00  8.70D-01 -5.43D-01 -1.94D+00
                    CP: -9.03D-01  1.15D+00 -8.22D-01  1.60D+00
 E= -1507.84903066923     Delta-E=       -0.000005284786 Rises=F Damp=F
 DIIS: error= 7.70D-06 at cycle  15 NSaved=  15.
 NSaved=15 IEnMin=15 EnMin= -1507.84903066923     IErMin=15 ErrMin= 7.70D-06
 ErrMax= 7.70D-06  0.00D+00 EMaxC= 1.00D-01 BMatC= 3.35D-08 BMatP= 1.15D-07
 IDIUse=1 WtCom= 1.00D+00 WtEn= 0.00D+00
 Coeff-Com: -0.668D-04 0.150D-03 0.737D-03 0.130D-02 0.800D-03-0.448D-02
 Coeff-Com: -0.265D-01-0.366D-01 0.885D-01 0.749D+00-0.758D+00 0.556D+00
 Coeff-Com: -0.644D+00 0.539D+00 0.535D+00
 Coeff:     -0.668D-04 0.150D-03 0.737D-03 0.130D-02 0.800D-03-0.448D-02
 Coeff:     -0.265D-01-0.366D-01 0.885D-01 0.749D+00-0.758D+00 0.556D+00
 Coeff:     -0.644D+00 0.539D+00 0.535D+00
 Gap=     0.159 Goal=   None    Shift=    0.000
 RMSDP=7.95D-06 MaxDP=9.74D-04 DE=-5.28D-06 OVMax= 4.27D-05

 Initial convergence to 1.0D-05 achieved.  Increase integral accuracy.
 Cycle  16  Pass 1  IDiag  1:
 E= -1507.84890102043     Delta-E=        0.000129648809 Rises=F Damp=F
 DIIS: error= 4.24D-04 at cycle   1 NSaved=   1.
 NSaved= 1 IEnMin= 1 EnMin= -1507.84890102043     IErMin= 1 ErrMin= 4.24D-04
 ErrMax= 4.24D-04  0.00D+00 EMaxC= 1.00D-01 BMatC= 9.33D-05 BMatP= 9.33D-05
 IDIUse=3 WtCom= 9.96D-01 WtEn= 4.24D-03
 Coeff-Com:  0.100D+01
 Coeff-En:   0.100D+01
 Coeff:      0.100D+01
 Gap=     0.159 Goal=   None    Shift=    0.000
 RMSDP=7.95D-06 MaxDP=9.74D-04 DE= 1.30D-04 OVMax= 1.24D-03

 Cycle  17  Pass 1  IDiag  1:
 RMSU=  4.92D-04    CP:  9.92D-01
 E= -1507.84896166342     Delta-E=       -0.000060642996 Rises=F Damp=F
 DIIS: error= 6.84D-06 at cycle   2 NSaved=   2.
 NSaved= 2 IEnMin= 2 EnMin= -1507.84896166342     IErMin= 2 ErrMin= 6.84D-06
 ErrMax= 6.84D-06  0.00D+00 EMaxC= 1.00D-01 BMatC= 6.45D-08 BMatP= 9.33D-05
 IDIUse=1 WtCom= 1.00D+00 WtEn= 0.00D+00
 Coeff-Com: -0.165D-01 0.102D+01
 Coeff:     -0.165D-01 0.102D+01
 Gap=     0.159 Goal=   None    Shift=    0.000
 RMSDP=1.75D-05 MaxDP=1.50D-03 DE=-6.06D-05 OVMax= 1.48D-04

 Cycle  18  Pass 1  IDiag  1:
 RMSU=  5.38D-06    CP:  9.92D-01  1.03D+00
 E= -1507.84896172638     Delta-E=       -0.000000062960 Rises=F Damp=F
 DIIS: error= 3.14D-06 at cycle   3 NSaved=   3.
 NSaved= 3 IEnMin= 3 EnMin= -1507.84896172638     IErMin= 3 ErrMin= 3.14D-06
 ErrMax= 3.14D-06  0.00D+00 EMaxC= 1.00D-01 BMatC= 2.80D-08 BMatP= 6.45D-08
 IDIUse=1 WtCom= 1.00D+00 WtEn= 0.00D+00
 Coeff-Com: -0.759D-02 0.449D+00 0.559D+00
 Coeff:     -0.759D-02 0.449D+00 0.559D+00
 Gap=     0.159 Goal=   None    Shift=    0.000
 RMSDP=5.62D-07 MaxDP=5.77D-05 DE=-6.30D-08 OVMax= 1.39D-04

 Cycle  19  Pass 1  IDiag  1:
 RMSU=  4.66D-07    CP:  9.92D-01  1.03D+00  1.02D+00
 E= -1507.84896174684     Delta-E=       -0.000000020462 Rises=F Damp=F
 DIIS: error= 1.76D-06 at cycle   4 NSaved=   4.
 NSaved= 4 IEnMin= 4 EnMin= -1507.84896174684     IErMin= 4 ErrMin= 1.76D-06
 ErrMax= 1.76D-06  0.00D+00 EMaxC= 1.00D-01 BMatC= 7.99D-09 BMatP= 2.80D-08
 IDIUse=1 WtCom= 1.00D+00 WtEn= 0.00D+00
 Coeff-Com: -0.722D-03 0.329D-01 0.342D+00 0.626D+00
 Coeff:     -0.722D-03 0.329D-01 0.342D+00 0.626D+00
 Gap=     0.159 Goal=   None    Shift=    0.000
 RMSDP=3.40D-07 MaxDP=3.17D-05 DE=-2.05D-08 OVMax= 6.19D-05

 Cycle  20  Pass 1  IDiag  1:
 RMSU=  1.65D-07    CP:  9.92D-01  1.03D+00  1.06D+00  7.45D-01
 E= -1507.84896175461     Delta-E=       -0.000000007763 Rises=F Damp=F
 DIIS: error= 5.72D-07 at cycle   5 NSaved=   5.
 NSaved= 5 IEnMin= 5 EnMin= -1507.84896175461     IErMin= 5 ErrMin= 5.72D-07
 ErrMax= 5.72D-07  0.00D+00 EMaxC= 1.00D-01 BMatC= 7.59D-10 BMatP= 7.99D-09
 IDIUse=1 WtCom= 1.00D+00 WtEn= 0.00D+00
 Coeff-Com:  0.320D-03-0.243D-01 0.138D+00 0.344D+00 0.542D+00
 Coeff:      0.320D-03-0.243D-01 0.138D+00 0.344D+00 0.542D+00
 Gap=     0.159 Goal=   None    Shift=    0.000
 RMSDP=6.81D-08 MaxDP=4.67D-06 DE=-7.76D-09 OVMax= 1.03D-05

 Cycle  21  Pass 1  IDiag  1:
 RMSU=  4.66D-08    CP:  9.92D-01  1.03D+00  1.06D+00  7.79D-01  1.01D+00
 E= -1507.84896175537     Delta-E=       -0.000000000763 Rises=F Damp=F
 DIIS: error= 8.76D-08 at cycle   6 NSaved=   6.
 NSaved= 6 IEnMin= 6 EnMin= -1507.84896175537     IErMin= 6 ErrMin= 8.76D-08
 ErrMax= 8.76D-08  0.00D+00 EMaxC= 1.00D-01 BMatC= 2.47D-11 BMatP= 7.59D-10
 IDIUse=1 WtCom= 1.00D+00 WtEn= 0.00D+00
 Coeff-Com:  0.165D-03-0.111D-01 0.255D-01 0.823D-01 0.198D+00 0.705D+00
 Coeff:      0.165D-03-0.111D-01 0.255D-01 0.823D-01 0.198D+00 0.705D+00
 Gap=     0.159 Goal=   None    Shift=    0.000
 RMSDP=1.96D-08 MaxDP=3.01D-06 DE=-7.63D-10 OVMax= 2.90D-06

 Cycle  22  Pass 1  IDiag  1:
 RMSU=  1.36D-08    CP:  9.92D-01  1.03D+00  1.06D+00  7.80D-01  1.09D+00
                    CP:  1.01D+00
 E= -1507.84896175544     Delta-E=       -0.000000000067 Rises=F Damp=F
 DIIS: error= 4.79D-08 at cycle   7 NSaved=   7.
 NSaved= 7 IEnMin= 7 EnMin= -1507.84896175544     IErMin= 7 ErrMin= 4.79D-08
 ErrMax= 4.79D-08  0.00D+00 EMaxC= 1.00D-01 BMatC= 6.96D-12 BMatP= 2.47D-11
 IDIUse=1 WtCom= 1.00D+00 WtEn= 0.00D+00
 Coeff-Com:  0.200D-04-0.761D-03-0.150D-01-0.268D-01-0.876D-02 0.357D+00
 Coeff-Com:  0.694D+00
 Coeff:      0.200D-04-0.761D-03-0.150D-01-0.268D-01-0.876D-02 0.357D+00
 Coeff:      0.694D+00
 Gap=     0.159 Goal=   None    Shift=    0.000
 RMSDP=9.45D-09 MaxDP=1.39D-06 DE=-6.73D-11 OVMax= 1.22D-06

 Cycle  23  Pass 1  IDiag  1:
 RMSU=  6.63D-09    CP:  9.92D-01  1.03D+00  1.06D+00  7.80D-01  1.12D+00
                    CP:  1.10D+00  1.07D+00
 E= -1507.84896175543     Delta-E=        0.000000000005 Rises=F Damp=F
 DIIS: error= 2.83D-08 at cycle   8 NSaved=   8.
 NSaved= 8 IEnMin= 7 EnMin= -1507.84896175544     IErMin= 8 ErrMin= 2.83D-08
 ErrMax= 2.83D-08  0.00D+00 EMaxC= 1.00D-01 BMatC= 1.42D-12 BMatP= 6.96D-12
 IDIUse=1 WtCom= 1.00D+00 WtEn= 0.00D+00
 Coeff-Com: -0.164D-04 0.142D-02-0.121D-01-0.273D-01-0.389D-01 0.814D-01
 Coeff-Com:  0.381D+00 0.615D+00
 Coeff:     -0.164D-04 0.142D-02-0.121D-01-0.273D-01-0.389D-01 0.814D-01
 Coeff:      0.381D+00 0.615D+00
 Gap=     0.159 Goal=   None    Shift=    0.000
 RMSDP=4.34D-09 MaxDP=1.02D-06 DE= 5.00D-12 OVMax= 8.37D-07

 Cycle  24  Pass 1  IDiag  1:
 RMSU=  2.52D-09    CP:  9.92D-01  1.03D+00  1.06D+00  7.78D-01  1.13D+00
                    CP:  1.13D+00  1.22D+00  1.16D+00
 E= -1507.84896175540     Delta-E=        0.000000000027 Rises=F Damp=F
 DIIS: error= 8.33D-09 at cycle   9 NSaved=   9.
 NSaved= 9 IEnMin= 7 EnMin= -1507.84896175544     IErMin= 9 ErrMin= 8.33D-09
 ErrMax= 8.33D-09  0.00D+00 EMaxC= 1.00D-01 BMatC= 1.49D-13 BMatP= 1.42D-12
 IDIUse=1 WtCom= 1.00D+00 WtEn= 0.00D+00
 Coeff-Com: -0.957D-05 0.687D-03-0.277D-02-0.668D-02-0.160D-01-0.174D-01
 Coeff-Com:  0.538D-01 0.259D+00 0.730D+00
 Coeff:     -0.957D-05 0.687D-03-0.277D-02-0.668D-02-0.160D-01-0.174D-01
 Coeff:      0.538D-01 0.259D+00 0.730D+00
 Gap=     0.159 Goal=   None    Shift=    0.000
 RMSDP=1.61D-09 MaxDP=3.19D-07 DE= 2.73D-11 OVMax= 3.15D-07

 SCF Done:  E(RM062X) =  -1507.84896176     A.U. after   24 cycles
            NFock= 24  Conv=0.16D-08     -V/T= 2.0041
 KE= 1.501713839357D+03 PE=-8.415561149827D+03 EE= 2.967226101295D+03
 Leave Link  502 at Sun Feb 19 04:43:06 2023, MaxMem=  2684354560 cpu:            9472.2 elap:             593.0
 (Enter /storage/apps/GAUSSIAN/G16_RevA03/g16/l601.exe)
 Copying SCF densities to generalized density rwf, IOpCl= 0 IROHF=0.

 **********************************************************************

            Population analysis using the SCF density.

 **********************************************************************

 Alpha  occ. eigenvalues --  -89.87280 -19.65859 -19.64369 -19.61857 -19.60452
 Alpha  occ. eigenvalues --  -19.57847 -14.83805 -14.78575 -10.66087 -10.64931
 Alpha  occ. eigenvalues --  -10.62177 -10.61404 -10.60877 -10.60862 -10.60666
 Alpha  occ. eigenvalues --  -10.60577 -10.58900 -10.57463 -10.56888 -10.55089
 Alpha  occ. eigenvalues --  -10.54181 -10.53212 -10.52439 -10.50884  -8.23167
 Alpha  occ. eigenvalues --   -6.15116  -6.14899  -6.14663  -1.21638  -1.17539
 Alpha  occ. eigenvalues --   -1.16665  -1.14421  -1.12116  -1.11676  -1.03283
 Alpha  occ. eigenvalues --   -0.95410  -0.90341  -0.89600  -0.88423  -0.87397
 Alpha  occ. eigenvalues --   -0.85134  -0.80560  -0.78877  -0.77891  -0.74955
 Alpha  occ. eigenvalues --   -0.71953  -0.71850  -0.69604  -0.68395  -0.65836
 Alpha  occ. eigenvalues --   -0.65580  -0.64094  -0.62352  -0.61204  -0.60207
 Alpha  occ. eigenvalues --   -0.59122  -0.57494  -0.56359  -0.55641  -0.54965
 Alpha  occ. eigenvalues --   -0.53554  -0.53199  -0.52012  -0.51424  -0.51198
 Alpha  occ. eigenvalues --   -0.50872  -0.50115  -0.49553  -0.49506  -0.49305
 Alpha  occ. eigenvalues --   -0.48316  -0.47174  -0.47038  -0.46532  -0.46075
 Alpha  occ. eigenvalues --   -0.45648  -0.44806  -0.44193  -0.43553  -0.42907
 Alpha  occ. eigenvalues --   -0.42637  -0.41036  -0.40084  -0.39078  -0.37160
 Alpha  occ. eigenvalues --   -0.36503  -0.36336  -0.35860  -0.35455  -0.35058
 Alpha  occ. eigenvalues --   -0.34051  -0.31909  -0.29173  -0.27650  -0.21093
 Alpha virt. eigenvalues --   -0.05144  -0.02116   0.03829   0.04177   0.05378
 Alpha virt. eigenvalues --    0.05623   0.07286   0.07596   0.08202   0.08350
 Alpha virt. eigenvalues --    0.08887   0.09609   0.09880   0.10676   0.10964
 Alpha virt. eigenvalues --    0.11437   0.11998   0.12911   0.13127   0.13592
 Alpha virt. eigenvalues --    0.13971   0.14187   0.14456   0.15130   0.15463
 Alpha virt. eigenvalues --    0.15812   0.16263   0.16471   0.17116   0.17565
 Alpha virt. eigenvalues --    0.18540   0.18946   0.19188   0.19526   0.19820
 Alpha virt. eigenvalues --    0.20310   0.21148   0.21170   0.21657   0.22319
 Alpha virt. eigenvalues --    0.22578   0.23096   0.23646   0.24351   0.24886
 Alpha virt. eigenvalues --    0.25027   0.25143   0.25932   0.26378   0.26614
 Alpha virt. eigenvalues --    0.27023   0.27683   0.27940   0.28431   0.28542
 Alpha virt. eigenvalues --    0.29384   0.29572   0.30373   0.30840   0.31317
 Alpha virt. eigenvalues --    0.31623   0.32023   0.32083   0.32438   0.33113
 Alpha virt. eigenvalues --    0.33277   0.33979   0.34428   0.35184   0.35429
 Alpha virt. eigenvalues --    0.36441   0.37615   0.37679   0.37838   0.38240
 Alpha virt. eigenvalues --    0.38890   0.39135   0.39556   0.39850   0.40399
 Alpha virt. eigenvalues --    0.40638   0.40729   0.41032   0.41123   0.41665
 Alpha virt. eigenvalues --    0.42061   0.42722   0.43042   0.43558   0.43712
 Alpha virt. eigenvalues --    0.44214   0.44474   0.44788   0.45337   0.45550
 Alpha virt. eigenvalues --    0.45998   0.46301   0.46666   0.46918   0.47263
 Alpha virt. eigenvalues --    0.47771   0.48185   0.48365   0.49118   0.49270
 Alpha virt. eigenvalues --    0.49544   0.49993   0.50173   0.50464   0.50627
 Alpha virt. eigenvalues --    0.51017   0.51184   0.51710   0.52081   0.52616
 Alpha virt. eigenvalues --    0.52856   0.53216   0.53878   0.54023   0.54873
 Alpha virt. eigenvalues --    0.55313   0.55568   0.55921   0.56192   0.57140
 Alpha virt. eigenvalues --    0.57425   0.57793   0.58540   0.59017   0.59339
 Alpha virt. eigenvalues --    0.60075   0.60438   0.60784   0.61614   0.61744
 Alpha virt. eigenvalues --    0.62389   0.62597   0.63418   0.63897   0.64362
 Alpha virt. eigenvalues --    0.65427   0.65982   0.66596   0.67193   0.67540
 Alpha virt. eigenvalues --    0.67598   0.68684   0.68800   0.69396   0.69961
 Alpha virt. eigenvalues --    0.71060   0.71809   0.72101   0.73305   0.73508
 Alpha virt. eigenvalues --    0.74144   0.75392   0.75877   0.76732   0.77494
 Alpha virt. eigenvalues --    0.77857   0.78589   0.79381   0.79977   0.81121
 Alpha virt. eigenvalues --    0.81719   0.82553   0.83173   0.83562   0.84053
 Alpha virt. eigenvalues --    0.84463   0.85320   0.85855   0.86660   0.86916
 Alpha virt. eigenvalues --    0.87894   0.88604   0.89212   0.89809   0.90342
 Alpha virt. eigenvalues --    0.90608   0.91328   0.92613   0.92748   0.93014
 Alpha virt. eigenvalues --    0.94302   0.95082   0.96402   0.96512   0.96986
 Alpha virt. eigenvalues --    0.97219   0.97628   0.98363   0.99393   0.99416
 Alpha virt. eigenvalues --    1.00444   1.00669   1.02271   1.02966   1.04258
 Alpha virt. eigenvalues --    1.04628   1.05104   1.05517   1.05821   1.06209
 Alpha virt. eigenvalues --    1.06927   1.07677   1.08723   1.09334   1.09713
 Alpha virt. eigenvalues --    1.10546   1.11231   1.12092   1.12690   1.13467
 Alpha virt. eigenvalues --    1.13902   1.14338   1.14876   1.15301   1.15926
 Alpha virt. eigenvalues --    1.16611   1.16667   1.18016   1.18230   1.20039
 Alpha virt. eigenvalues --    1.20715   1.21213   1.21872   1.22532   1.23204
 Alpha virt. eigenvalues --    1.24551   1.25711   1.26228   1.26847   1.27466
 Alpha virt. eigenvalues --    1.28157   1.28975   1.29636   1.30818   1.30886
 Alpha virt. eigenvalues --    1.31921   1.33074   1.34068   1.34756   1.35789
 Alpha virt. eigenvalues --    1.36228   1.37107   1.37579   1.38039   1.39223
 Alpha virt. eigenvalues --    1.40476   1.41469   1.42707   1.43452   1.43884
 Alpha virt. eigenvalues --    1.45229   1.45449   1.47030   1.48713   1.49829
 Alpha virt. eigenvalues --    1.50071   1.51176   1.51477   1.51935   1.52330
 Alpha virt. eigenvalues --    1.53168   1.54243   1.55314   1.55602   1.56136
 Alpha virt. eigenvalues --    1.56389   1.56930   1.57339   1.57889   1.58508
 Alpha virt. eigenvalues --    1.59027   1.59188   1.59802   1.60689   1.60778
 Alpha virt. eigenvalues --    1.61139   1.61950   1.62040   1.62862   1.63469
 Alpha virt. eigenvalues --    1.64100   1.64670   1.65013   1.65540   1.66345
 Alpha virt. eigenvalues --    1.66745   1.67129   1.67602   1.68295   1.68918
 Alpha virt. eigenvalues --    1.69175   1.69413   1.69787   1.70402   1.70977
 Alpha virt. eigenvalues --    1.72006   1.72975   1.73049   1.73730   1.74755
 Alpha virt. eigenvalues --    1.75297   1.75625   1.75878   1.76844   1.78195
 Alpha virt. eigenvalues --    1.78678   1.79303   1.79907   1.79995   1.80791
 Alpha virt. eigenvalues --    1.82449   1.82800   1.83261   1.84129   1.84951
 Alpha virt. eigenvalues --    1.85379   1.86065   1.86655   1.87296   1.87525
 Alpha virt. eigenvalues --    1.88172   1.88717   1.89338   1.89610   1.90716
 Alpha virt. eigenvalues --    1.90949   1.92009   1.92757   1.93599   1.94421
 Alpha virt. eigenvalues --    1.94614   1.95294   1.95737   1.96238   1.97178
 Alpha virt. eigenvalues --    1.97518   1.98349   1.98920   1.99739   2.00823
 Alpha virt. eigenvalues --    2.01621   2.02147   2.02742   2.03756   2.04273
 Alpha virt. eigenvalues --    2.05642   2.05734   2.06889   2.07512   2.08496
 Alpha virt. eigenvalues --    2.09462   2.10353   2.11024   2.12143   2.12583
 Alpha virt. eigenvalues --    2.13332   2.13951   2.14054   2.15062   2.15742
 Alpha virt. eigenvalues --    2.16148   2.16688   2.18571   2.19284   2.19888
 Alpha virt. eigenvalues --    2.19935   2.21105   2.21522   2.21718   2.22933
 Alpha virt. eigenvalues --    2.23144   2.24210   2.24635   2.25214   2.26144
 Alpha virt. eigenvalues --    2.27127   2.28060   2.28661   2.28738   2.29386
 Alpha virt. eigenvalues --    2.29834   2.30358   2.31502   2.31841   2.32267
 Alpha virt. eigenvalues --    2.33160   2.33567   2.34386   2.34853   2.35608
 Alpha virt. eigenvalues --    2.36463   2.36725   2.38151   2.38561   2.40127
 Alpha virt. eigenvalues --    2.40677   2.41078   2.42285   2.43885   2.44677
 Alpha virt. eigenvalues --    2.44738   2.45255   2.46229   2.46268   2.47714
 Alpha virt. eigenvalues --    2.48425   2.48947   2.49184   2.50614   2.51104
 Alpha virt. eigenvalues --    2.51843   2.52579   2.53894   2.54987   2.55330
 Alpha virt. eigenvalues --    2.56185   2.56582   2.57587   2.57718   2.58040
 Alpha virt. eigenvalues --    2.58674   2.59026   2.59644   2.60321   2.61127
 Alpha virt. eigenvalues --    2.61529   2.61967   2.63014   2.63777   2.64376
 Alpha virt. eigenvalues --    2.65491   2.65958   2.67097   2.68083   2.68245
 Alpha virt. eigenvalues --    2.68851   2.69363   2.69616   2.70628   2.71063
 Alpha virt. eigenvalues --    2.71634   2.72126   2.72586   2.73005   2.73586
 Alpha virt. eigenvalues --    2.74297   2.75338   2.76306   2.76613   2.77835
 Alpha virt. eigenvalues --    2.78588   2.78774   2.79625   2.79872   2.81160
 Alpha virt. eigenvalues --    2.81693   2.82344   2.83351   2.83640   2.84418
 Alpha virt. eigenvalues --    2.84918   2.85742   2.86353   2.87682   2.88057
 Alpha virt. eigenvalues --    2.88608   2.89361   2.90675   2.91215   2.92442
 Alpha virt. eigenvalues --    2.94139   2.94407   2.95053   2.95753   2.96239
 Alpha virt. eigenvalues --    2.97443   2.98045   2.98375   2.98941   3.00506
 Alpha virt. eigenvalues --    3.01186   3.02279   3.02767   3.03254   3.03669
 Alpha virt. eigenvalues --    3.04647   3.05147   3.05451   3.07081   3.07459
 Alpha virt. eigenvalues --    3.07689   3.08328   3.09194   3.09308   3.09454
 Alpha virt. eigenvalues --    3.10677   3.11126   3.11897   3.12131   3.12394
 Alpha virt. eigenvalues --    3.13147   3.14243   3.14734   3.15511   3.16057
 Alpha virt. eigenvalues --    3.16278   3.16989   3.17701   3.18307   3.18942
 Alpha virt. eigenvalues --    3.19139   3.19410   3.20092   3.20967   3.21503
 Alpha virt. eigenvalues --    3.22531   3.23032   3.23727   3.24939   3.25577
 Alpha virt. eigenvalues --    3.26276   3.27383   3.27606   3.28176   3.28344
 Alpha virt. eigenvalues --    3.29362   3.29570   3.30008   3.31372   3.31863
 Alpha virt. eigenvalues --    3.32232   3.32435   3.33137   3.34161   3.34620
 Alpha virt. eigenvalues --    3.34748   3.35271   3.36040   3.36887   3.37166
 Alpha virt. eigenvalues --    3.37464   3.37781   3.38311   3.39228   3.39913
 Alpha virt. eigenvalues --    3.40973   3.41590   3.42117   3.42194   3.43120
 Alpha virt. eigenvalues --    3.43401   3.43735   3.44796   3.45800   3.46333
 Alpha virt. eigenvalues --    3.47250   3.47937   3.48267   3.48524   3.48774
 Alpha virt. eigenvalues --    3.49180   3.50604   3.51236   3.51397   3.52232
 Alpha virt. eigenvalues --    3.53008   3.54063   3.54570   3.54911   3.56575
 Alpha virt. eigenvalues --    3.57188   3.57297   3.58832   3.60005   3.60503
 Alpha virt. eigenvalues --    3.60614   3.61521   3.62743   3.63542   3.64341
 Alpha virt. eigenvalues --    3.65500   3.67428   3.68071   3.68934   3.70873
 Alpha virt. eigenvalues --    3.71514   3.72257   3.72637   3.73167   3.74530
 Alpha virt. eigenvalues --    3.74806   3.75689   3.76054   3.76920   3.77810
 Alpha virt. eigenvalues --    3.78632   3.78907   3.80877   3.81734   3.82931
 Alpha virt. eigenvalues --    3.84042   3.84980   3.86988   3.88329   3.89942
 Alpha virt. eigenvalues --    3.90111   3.91174   3.91496   3.92357   3.93705
 Alpha virt. eigenvalues --    3.94854   3.95896   3.96231   3.97034   3.99013
 Alpha virt. eigenvalues --    3.99706   4.02139   4.03592   4.04066   4.05049
 Alpha virt. eigenvalues --    4.06632   4.08537   4.09393   4.10159   4.10246
 Alpha virt. eigenvalues --    4.11088   4.12856   4.13742   4.14955   4.16696
 Alpha virt. eigenvalues --    4.20024   4.20221   4.23259   4.24368   4.25079
 Alpha virt. eigenvalues --    4.25704   4.26989   4.27557   4.28234   4.28659
 Alpha virt. eigenvalues --    4.29150   4.31002   4.32080   4.34791   4.36382
 Alpha virt. eigenvalues --    4.38088   4.38665   4.39113   4.39889   4.40771
 Alpha virt. eigenvalues --    4.42215   4.44739   4.45243   4.45940   4.48826
 Alpha virt. eigenvalues --    4.50969   4.51998   4.52834   4.54091   4.55943
 Alpha virt. eigenvalues --    4.60088   4.62212   4.64377   4.64923   4.67269
 Alpha virt. eigenvalues --    4.70366   4.71073   4.73461   4.73752   4.75020
 Alpha virt. eigenvalues --    4.76346   4.77644   4.79641   4.80606   4.82693
 Alpha virt. eigenvalues --    4.84228   4.85269   4.85925   4.90449   4.91179
 Alpha virt. eigenvalues --    4.91885   4.93265   4.94900   4.97107   4.97256
 Alpha virt. eigenvalues --    4.98342   5.01916   5.02005   5.03888   5.06564
 Alpha virt. eigenvalues --    5.08205   5.11945   5.14401   5.16528   5.19356
 Alpha virt. eigenvalues --    5.21776   5.25134   5.25138   5.25639   5.26885
 Alpha virt. eigenvalues --    5.27737   5.28997   5.30670   5.33809   5.34395
 Alpha virt. eigenvalues --    5.36081   5.40687   5.41869   5.43185   5.45432
 Alpha virt. eigenvalues --    5.47025   5.48831   5.53232   5.56573   5.58692
 Alpha virt. eigenvalues --    5.62789   5.66178   5.73023   5.75380   5.76399
 Alpha virt. eigenvalues --    5.78715   5.79491   5.83063   5.83595   5.86115
 Alpha virt. eigenvalues --    5.86941   5.88423   5.90369   5.91969   5.92623
 Alpha virt. eigenvalues --    5.99464   6.02735   6.06322   6.16666   6.19271
 Alpha virt. eigenvalues --    6.21640   6.24201   6.26993   6.30842   6.34848
 Alpha virt. eigenvalues --    6.37673   6.43516   6.46906   6.48903   6.52032
 Alpha virt. eigenvalues --    6.58220   6.61050   6.68815   6.73239   6.74916
 Alpha virt. eigenvalues --    6.76984   6.79843   6.82668   6.85338   6.85906
 Alpha virt. eigenvalues --    6.89525   6.91206   6.98255   7.03241   7.07439
 Alpha virt. eigenvalues --    7.08278   7.09120   7.10360   7.15391   7.23252
 Alpha virt. eigenvalues --    7.25626   7.33431   9.02210   9.41537   9.53879
 Alpha virt. eigenvalues --   19.77322  22.30767  22.41460  22.48068  22.54691
 Alpha virt. eigenvalues --   22.64113  22.68664  22.71242  22.74085  22.77662
 Alpha virt. eigenvalues --   22.85501  22.86579  23.02027  23.02380  23.07722
 Alpha virt. eigenvalues --   23.20931  23.50763  32.14240  33.17567  44.15536
 Alpha virt. eigenvalues --   44.18115  44.23745  44.28409  44.55505
          Condensed to atoms (all electrons):
               1          2          3          4          5          6
     1  C    5.112029   0.421094   0.415009  -0.019660   0.000105  -0.000132
     2  H    0.421094   0.508549  -0.022288  -0.001527   0.000411  -0.000005
     3  H    0.415009  -0.022288   0.534705   0.001511  -0.000019  -0.000005
     4  C   -0.019660  -0.001527   0.001511   5.668764   0.473172   0.254171
     5  H    0.000105   0.000411  -0.000019   0.473172   0.561087  -0.031751
     6  O   -0.000132  -0.000005  -0.000005   0.254171  -0.031751   8.022097
     7  H   -0.000021  -0.000007   0.000004  -0.060789  -0.004635   0.284912
     8  C    0.014359   0.013500  -0.009946  -0.196266  -0.084417  -0.055899
     9  H    0.012442   0.000044  -0.002387  -0.134272   0.003485   0.002676
    10  O    0.007439  -0.000360   0.000337  -0.047287   0.002150   0.000397
    11  H   -0.000657  -0.000191   0.000485   0.012769  -0.000884  -0.000540
    12  C   -0.003029  -0.000042   0.001157  -0.083495  -0.060228  -0.003032
    13  H    0.000052   0.000043   0.000106  -0.106776   0.006358   0.002148
    14  C    0.173432  -0.048293  -0.039783   0.170856   0.020134   0.009342
    15  H   -0.069734  -0.006740  -0.003669  -0.013405  -0.000058   0.000079
    16  O   -0.030811   0.000587   0.005032  -0.082028  -0.002072   0.005761
    17  N   -0.000060  -0.000092  -0.000030   0.032241  -0.016366  -0.006501
    18  C   -0.001334  -0.000019   0.000020   0.002464  -0.006769   0.004702
    19  H    0.000074  -0.000043   0.000028  -0.010947  -0.001201   0.001047
    20  C   -0.000014   0.000006  -0.000002   0.003433   0.006620  -0.002823
    21  H    0.000004   0.000000  -0.000000  -0.000055   0.000162  -0.000050
    22  C   -0.000015  -0.000001   0.000000   0.001720  -0.000379   0.000178
    23  H   -0.000000   0.000000   0.000000   0.000043   0.000003   0.000001
    24  H    0.000000  -0.000000  -0.000000  -0.000621  -0.000076   0.000004
    25  C   -0.000066  -0.000006   0.000001  -0.005501  -0.000540  -0.000722
    26  C   -0.000395   0.000034  -0.000003   0.029609  -0.001011  -0.003823
    27  H   -0.000018   0.000001  -0.000000   0.000987  -0.000053   0.000152
    28  C    0.000000  -0.000000  -0.000000   0.000054   0.000000  -0.000015
    29  O   -0.000000   0.000000  -0.000000  -0.000002  -0.000000  -0.000000
    30  N   -0.000000  -0.000000   0.000000   0.000000  -0.000000  -0.000000
    31  H   -0.000000   0.000000   0.000000   0.000000   0.000000  -0.000000
    32  H    0.000000   0.000000  -0.000000   0.000001   0.000000   0.000000
    33  C    0.000001  -0.000000   0.000000  -0.000269  -0.000360  -0.013476
    34  C    0.000001  -0.000000  -0.000000   0.001380   0.000097  -0.000065
    35  C    0.000000   0.000000  -0.000000   0.000748   0.000117   0.000473
    36  C   -0.000000   0.000000   0.000000   0.000003   0.000000   0.000001
    37  C   -0.000000   0.000000   0.000000   0.000353   0.000015   0.000068
    38  O   -0.000000   0.000000  -0.000000  -0.002853  -0.000084  -0.026114
    39  S    0.000000  -0.000000  -0.000000   0.000095   0.000018   0.000621
    40  H   -0.000000   0.000000  -0.000000   0.000168   0.000023   0.000311
    41  H   -0.000001   0.000000  -0.000000  -0.003037   0.000507   0.013741
    42  H    0.000000   0.000000  -0.000000  -0.000000   0.000000  -0.000000
    43  H    0.000000   0.000000  -0.000000  -0.000000  -0.000000  -0.000000
    44  H    0.000000   0.000000  -0.000000  -0.000000  -0.000000  -0.000000
    45  H   -0.000000   0.000000   0.000000   0.000038   0.000004   0.000022
    46  H    0.000000  -0.000000  -0.000000  -0.000053  -0.000000   0.000008
    47  H    0.380353  -0.022558  -0.024382   0.003385  -0.000899   0.000057
    48  H    0.000000   0.000000  -0.000000   0.000091   0.000003   0.000395
               7          8          9         10         11         12
     1  C   -0.000021   0.014359   0.012442   0.007439  -0.000657  -0.003029
     2  H   -0.000007   0.013500   0.000044  -0.000360  -0.000191  -0.000042
     3  H    0.000004  -0.009946  -0.002387   0.000337   0.000485   0.001157
     4  C   -0.060789  -0.196266  -0.134272  -0.047287   0.012769  -0.083495
     5  H   -0.004635  -0.084417   0.003485   0.002150  -0.000884  -0.060228
     6  O    0.284912  -0.055899   0.002676   0.000397  -0.000540  -0.003032
     7  H    0.414136   0.003271  -0.000906  -0.001105   0.000256   0.004934
     8  C    0.003271   5.621058   0.537181   0.266503  -0.038495   0.034551
     9  H   -0.000906   0.537181   0.566733  -0.056803  -0.001684   0.015959
    10  O   -0.001105   0.266503  -0.056803   8.030040   0.287551  -0.013092
    11  H    0.000256  -0.038495  -0.001684   0.287551   0.425911  -0.002408
    12  C    0.004934   0.034551   0.015959  -0.013092  -0.002408   5.595525
[...]
      5        1           0.003585776    0.004307026    0.001962775
      6        8           0.007096268    0.001704577   -0.005311468
      7        1          -0.004248577   -0.006529656    0.004085973
      8        6          -0.003651525   -0.011485496   -0.000961646
      9        1          -0.001286952    0.005564495   -0.003810417
     10        8           0.026936449    0.001703496   -0.005027879
     11        1          -0.024988482    0.004706460    0.007862779
     12        6          -0.001354836    0.007960535    0.005597825
     13        1          -0.001375658   -0.002029754   -0.002574066
     14        6           0.007365514   -0.000451023    0.000743405
     15        1          -0.003294383    0.002794723    0.001482246
     16        8           0.004341617   -0.004551837   -0.006490593
     17        7           0.005381372    0.002667015   -0.000334691
     18        6          -0.012220654   -0.003576437   -0.002004459
     19        1          -0.001916991    0.007719895   -0.001775235
     20        6           0.005585765   -0.006522243    0.003750249
     21        1           0.003713651    0.004900049   -0.000593629
     22        6          -0.006016331    0.000356418   -0.001784418
     23        1           0.005052984   -0.002969762    0.002136941
     24        1          -0.001366718    0.000159402    0.002198829
     25        6           0.007788951    0.001773113    0.000924156
     26        6          -0.005389560    0.002955560   -0.004202315
     27        1          -0.007286533   -0.005068269    0.002118791
     28        6           0.019244102   -0.001723449    0.019711655
     29        8          -0.006736236   -0.004689752   -0.007701030
     30        7          -0.006170681    0.001565869   -0.027100863
     31        1          -0.006125038   -0.006731801    0.007037992
     32        1           0.006711848    0.012022227    0.009716856
     33        6          -0.006679939   -0.013245212   -0.003058584
     34        6           0.003790764   -0.017817462    0.016269097
     35        6          -0.010556663    0.002598919   -0.012090803
     36        6          -0.002043022    0.002912438   -0.004736152
     37        6           0.003928725    0.006615051    0.010961101
     38        8           0.003189901    0.012774447   -0.010521573
     39       16           0.005612252    0.002276615   -0.000067359
     40        1           0.005531962    0.002820619   -0.003240775
     41        1          -0.001580876    0.005688502    0.004760297
     42        1          -0.000769195   -0.000634457    0.004804543
     43        1          -0.002431378   -0.003953712    0.003239635
     44        1           0.007094172   -0.002753825   -0.001670639
     45        1           0.004680928   -0.000533130   -0.006548537
     46        1          -0.002626689   -0.006386782    0.001811918
     47        1           0.001499232   -0.004618190   -0.001175520
     48        1          -0.002028870    0.003918412   -0.004606424
 -------------------------------------------------------------------
 Cartesian Forces:  Max     0.027100863 RMS     0.007047781
 Leave Link  716 at Sun Feb 19 04:46:11 2023, MaxMem=  2684354560 cpu:               0.4 elap:               0.0
 (Enter /storage/apps/GAUSSIAN/G16_RevA03/g16/l103.exe)

 GradGradGradGradGradGradGradGradGradGradGradGradGradGradGradGradGradGrad
 Berny optimization.
 Search for a local minimum.
 Step number   1 out of a maximum of    2
 All quantities printed in internal units (Hartrees-Bohrs-Radians)
 Second derivative matrix not updated -- first step.
 ITU=  0
     Eigenvalues ---    0.00048   0.00063   0.00103   0.00147   0.00183
     Eigenvalues ---    0.00269   0.00335   0.00388   0.00471   0.00515
     Eigenvalues ---    0.00576   0.00709   0.00822   0.00847   0.01041
     Eigenvalues ---    0.01072   0.01111   0.01314   0.01465   0.01731
     Eigenvalues ---    0.01777   0.01994   0.02178   0.02579   0.02783
     Eigenvalues ---    0.03030   0.03244   0.03528   0.03722   0.04123
     Eigenvalues ---    0.04262   0.04541   0.04854   0.04962   0.05078
     Eigenvalues ---    0.05210   0.05398   0.05496   0.05825   0.06065
     Eigenvalues ---    0.06298   0.06532   0.06704   0.06829   0.06997
     Eigenvalues ---    0.07147   0.07305   0.07783   0.07903   0.08217
     Eigenvalues ---    0.08556   0.08863   0.09292   0.09916   0.10087
     Eigenvalues ---    0.10584   0.10847   0.11502   0.12229   0.12413
     Eigenvalues ---    0.12739   0.12860   0.12906   0.13129   0.13309
     Eigenvalues ---    0.13862   0.14292   0.14922   0.15609   0.16192
     Eigenvalues ---    0.16766   0.17545   0.18318   0.19093   0.19984
     Eigenvalues ---    0.20566   0.20661   0.21462   0.22336   0.24789
     Eigenvalues ---    0.26123   0.27158   0.27675   0.28544   0.31424
     Eigenvalues ---    0.32857   0.33445   0.34099   0.36886   0.37026
     Eigenvalues ---    0.37026   0.37026   0.37026   0.37026   0.39452
     Eigenvalues ---    0.42503   0.45750   0.48440   0.54461   0.56693
     Eigenvalues ---    0.58245   0.60760   0.66491   0.67638   0.70770
     Eigenvalues ---    0.74154   0.78708   0.81433   0.87238   0.87336
     Eigenvalues ---    0.88941   0.89330   0.91820   0.92084   0.92373
     Eigenvalues ---    0.92828   0.96962   0.99306   0.99982   1.00927
     Eigenvalues ---    1.03980   1.05636   1.09507   1.11175   1.12667
     Eigenvalues ---    1.15720   1.20952   1.22595   1.26928   1.29963
     Eigenvalues ---    1.30840   1.39123   1.43355   1.49102   1.69367
     Eigenvalues ---    1.71990   1.95679   2.28128
 Quadratic step=4.251D+00 exceeds max=3.000D-01 adjusted using Lamda=-2.820D-02.
 Angle between NR and scaled steps=  62.46 degrees.
 Angle between quadratic step and forces=  61.84 degrees.
 Linear search not attempted -- first point.
 Variable       Old X    -DE/DX   Delta X   Delta X   Delta X     New X
                                 (Linear)    (Quad)   (Total)
    X1        6.38248  -0.00139   0.00000  -0.02379  -0.02379   6.35869
    Y1       -6.96710   0.00842   0.00000   0.01871   0.01871  -6.94839
    Z1       -1.05032  -0.00003   0.00000   0.00278   0.00278  -1.04754
    X2        6.53272  -0.00074   0.00000  -0.01669  -0.01669   6.51603
    Y2       -7.26313  -0.00033   0.00000   0.00713   0.00713  -7.25600
    Z2       -3.09998   0.00675   0.00000   0.02145   0.02145  -3.07852
    X3        8.09975  -0.00667   0.00000  -0.04466  -0.04466   8.05509
    Y3       -7.67269  -0.00154   0.00000  -0.02316  -0.02316  -7.69585
    Z3       -0.11643  -0.00320   0.00000  -0.02357  -0.02357  -0.14000
    X4        2.87222  -0.00718   0.00000   0.00608   0.00608   2.87830
    Y4       -2.60405  -0.00275   0.00000   0.00586   0.00586  -2.59819
    Z4        2.17733   0.00269   0.00000   0.00441   0.00441   2.18174
    X5        1.72235   0.00359   0.00000   0.02739   0.02739   1.74974
    Y5       -4.33495   0.00431   0.00000   0.00707   0.00707  -4.32788
    Z5        1.91187   0.00196   0.00000   0.03632   0.03632   1.94819
    X6        1.99615   0.00710   0.00000   0.05640   0.05640   2.05255
    Y6       -1.18244   0.00170   0.00000   0.00829   0.00829  -1.17415
    Z6        4.19882  -0.00531   0.00000   0.01071   0.01071   4.20953
    X7        0.72514  -0.00425   0.00000  -0.07629  -0.07629   0.64886
    Y7        0.05418  -0.00653   0.00000  -0.10631  -0.10631  -0.05212
    Z7        3.65815   0.00409   0.00000   0.07351   0.07351   3.73166
    X8        5.63255  -0.00365   0.00000   0.00320   0.00320   5.63576
    Y8       -3.48014  -0.01149   0.00000   0.00676   0.00676  -3.47338
    Z8        2.33503  -0.00096   0.00000  -0.01323  -0.01323   2.32181
    X9        5.85516  -0.00129   0.00000   0.00697   0.00697   5.86213
    Y9       -5.15079   0.00556   0.00000   0.02283   0.02283  -5.12796
    Z9        3.56902  -0.00381   0.00000  -0.02386  -0.02386   3.54517
   X10        7.12441   0.02694   0.00000   0.00502   0.00502   7.12943
   Y10       -1.47023   0.00170   0.00000   0.02104   0.02104  -1.44920
   Z10        3.17613  -0.00503   0.00000  -0.00847  -0.00847   3.16765
   X11        8.90777  -0.02499   0.00000  -0.03769  -0.03769   8.87008
   Y11       -1.81164   0.00471   0.00000   0.02033   0.02033  -1.79131
   Z11        2.72399   0.00786   0.00000   0.02638   0.02638   2.75037
   X12        2.97402  -0.00135   0.00000  -0.00809  -0.00809   2.96592
   Y12       -1.25537   0.00796   0.00000   0.00388   0.00388  -1.25149
   Z12       -0.36750   0.00560   0.00000  -0.00065  -0.00065  -0.36815
   X13        4.07181  -0.00138   0.00000  -0.00371  -0.00371   4.06810
   Y13        0.49381  -0.00203   0.00000  -0.00176  -0.00176   0.49204
   Z13       -0.12551  -0.00257   0.00000  -0.03825  -0.03825  -0.16376
   X14        6.16733   0.00737   0.00000   0.00934   0.00934   6.17667
   Y14       -4.15922  -0.00045   0.00000   0.01433   0.01433  -4.14489
   Z14       -0.47940   0.00074   0.00000  -0.00416  -0.00416  -0.48356
   X15        7.96668  -0.00329   0.00000  -0.00854  -0.00854   7.95814
   Y15       -3.27628   0.00279   0.00000   0.04002   0.04002  -3.23625
   Z15       -1.03592   0.00148   0.00000  -0.00205  -0.00205  -1.03797
   X16        4.17958   0.00434   0.00000   0.00240   0.00240   4.18198
   Y16       -3.01497  -0.00455   0.00000  -0.00241  -0.00241  -3.01737
   Z16       -1.92337  -0.00649   0.00000  -0.01036  -0.01036  -1.93373
   X17        0.55363   0.00538   0.00000  -0.01302  -0.01302   0.54061
   Y17       -0.54166   0.00267   0.00000  -0.00071  -0.00071  -0.54237
   Z17       -1.43449  -0.00033   0.00000   0.00895   0.00895  -1.42554
   X18       -1.36279  -0.01222   0.00000  -0.02775  -0.02775  -1.39053
   Y18       -2.29070  -0.00358   0.00000   0.00828   0.00828  -2.28242
   Z18       -1.55691  -0.00200   0.00000   0.01634   0.01634  -1.54057
   X19       -0.91149  -0.00192   0.00000  -0.02606  -0.02606  -0.93754
   Y19       -4.18231   0.00772   0.00000   0.03002   0.03002  -4.15229
   Z19       -0.88264  -0.00178   0.00000   0.01372   0.01372  -0.86892
   X20       -3.65817   0.00559   0.00000  -0.00638  -0.00638  -3.66455
   Y20       -1.67829  -0.00652   0.00000   0.00272   0.00272  -1.67557
   Z20       -2.52191   0.00375   0.00000   0.01310   0.01310  -2.50880
   X21       -5.12986   0.00371   0.00000   0.00522   0.00522  -5.12464
   Y21       -3.11504   0.00490   0.00000   0.01552   0.01552  -3.09952
   Z21       -2.54690  -0.00059   0.00000  -0.00116  -0.00116  -2.54806
   X22       -4.10894  -0.00602   0.00000  -0.00403  -0.00403  -4.11297
   Y22        0.82874   0.00036   0.00000  -0.00182  -0.00182   0.82693
   Z22       -3.46328  -0.00178   0.00000   0.00217   0.00217  -3.46111
   X23       -5.77784   0.00505   0.00000   0.02598   0.02598  -5.75186
   Y23        1.18514  -0.00297   0.00000  -0.03356  -0.03356   1.15159
   Z23       -4.62365   0.00214   0.00000  -0.02128  -0.02128  -4.64492
   X24       -5.22181  -0.00137   0.00000  -0.00065  -0.00065  -5.22246
   Y24        2.44219   0.00016   0.00000   0.02402   0.02402   2.46620
   Z24       -1.33573   0.00220   0.00000   0.02879   0.02879  -1.30694
   X25       -1.93321   0.00779   0.00000   0.00363   0.00363  -1.92957
   Y25        2.37656   0.00177   0.00000  -0.00192  -0.00192   2.37464
   Z25       -3.77978   0.00092   0.00000   0.00783   0.00783  -3.77196
   X26        0.28403  -0.00539   0.00000  -0.02191  -0.02191   0.26212
   Y26        1.74161   0.00296   0.00000  -0.00809  -0.00809   1.73352
   Z26       -2.59985  -0.00420   0.00000   0.00930   0.00930  -2.59055
   X27        1.93235  -0.00729   0.00000  -0.03613  -0.03613   1.89623
   Y27        2.98711  -0.00507   0.00000  -0.02387  -0.02387   2.96324
   Z27       -2.68536   0.00212   0.00000   0.02109   0.02109  -2.66427
   X28       -2.03039   0.01924   0.00000   0.03839   0.03839  -1.99200
   Y28        4.80669  -0.00172   0.00000  -0.01137  -0.01137   4.79532
   Z28       -5.23331   0.01971   0.00000   0.00498   0.00498  -5.22833
   X29       -0.63364  -0.00674   0.00000   0.02400   0.02400  -0.60964
   Y29        6.56102  -0.00469   0.00000  -0.00169  -0.00169   6.55933
   Z29       -4.71375  -0.00770   0.00000  -0.03545  -0.03545  -4.74919
   X30       -3.74980  -0.00617   0.00000   0.03106   0.03106  -3.71874
   Y30        4.89608   0.00157   0.00000   0.00235   0.00235   4.89844
   Z30       -7.12496  -0.02710   0.00000  -0.01913  -0.01913  -7.14409
   X31       -3.41126  -0.00613   0.00000  -0.04608  -0.04608  -3.45734
   Y31        6.34934  -0.00673   0.00000   0.00258   0.00258   6.35192
   Z31       -8.35334   0.00704   0.00000  -0.00276  -0.00276  -8.35610
   X32       -4.41489   0.00671   0.00000   0.04461   0.04461  -4.37028
   Y32        3.27181   0.01202   0.00000   0.01439   0.01439   3.28620
   Z32       -7.94885   0.00972   0.00000   0.02802   0.02802  -7.92083
   X33        0.91530  -0.00668   0.00000  -0.03497  -0.03497   0.88033
   Y33        4.21268  -0.01325   0.00000  -0.02335  -0.02335   4.18933
   Z33        7.31390  -0.00306   0.00000  -0.01263  -0.01263   7.30128
   X34       -2.18880   0.00379   0.00000  -0.00586  -0.00586  -2.19465
   Y34        4.19071  -0.01782   0.00000  -0.01249  -0.01249   4.17821
   Z34        3.06652   0.01627   0.00000   0.01471   0.01471   3.08123
   X35       -3.40957  -0.01056   0.00000  -0.02626  -0.02626  -3.43584
   Y35        5.32372   0.00260   0.00000   0.00332   0.00332   5.32704
   Z35        0.99465  -0.01209   0.00000   0.01470   0.01470   1.00935
   X36       -7.22248  -0.00204   0.00000   0.00849   0.00849  -7.21398
   Y36        6.07727   0.00291   0.00000   0.00305   0.00305   6.08032
   Z36       -1.73513  -0.00474   0.00000   0.00405   0.00405  -1.73108
   X37       -5.72119   0.00393   0.00000  -0.00545  -0.00545  -5.72664
   Y37        4.29255   0.00662   0.00000   0.02071   0.02071   4.31325
   Z37       -0.02354   0.01096   0.00000   0.02537   0.02537   0.00183
   X38       -2.38180   0.00319   0.00000   0.04252   0.04252  -2.33928
   Y38        1.94058   0.01277   0.00000  -0.02213  -0.02213   1.91845
   Z38        3.75554  -0.01052   0.00000  -0.06597  -0.06597   3.68957
   X39       -0.34255   0.00561   0.00000   0.01042   0.01042  -0.33213
   Y39        6.33867   0.00228   0.00000  -0.01142  -0.01142   6.32725
   Z39        4.94568  -0.00007   0.00000  -0.00612  -0.00612   4.93955
   X40       -0.66232   0.00553   0.00000  -0.01151  -0.01151  -0.67383
   Y40        3.35121   0.00282   0.00000  -0.01196  -0.01196   3.33924
   Z40        8.35334  -0.00324   0.00000  -0.01064  -0.01064   8.34270
   X41        1.99250  -0.00158   0.00000   0.01081   0.01081   2.00331
   Y41        2.69752   0.00569   0.00000   0.00861   0.00861   2.70613
   Z41        6.39473   0.00476   0.00000   0.03356   0.03356   6.42829
   X42       -7.86392  -0.00077   0.00000  -0.01541  -0.01541  -7.87933
   Y42        5.15576  -0.00063   0.00000  -0.01707  -0.01707   5.13869
   Z42       -3.47977   0.00480   0.00000   0.03462   0.03462  -3.44514
   X43       -6.04629  -0.00243   0.00000   0.01265   0.01265  -6.03364
   Y43        7.67269  -0.00395   0.00000  -0.01691  -0.01691   7.65577
   Z43       -2.35686   0.00324   0.00000   0.00387   0.00387  -2.35298
   X44       -8.90777   0.00709   0.00000   0.04444   0.04444  -8.86332
   Y44        6.84220  -0.00275   0.00000   0.01699   0.01699   6.85919
   Z44       -0.78311  -0.00167   0.00000   0.00967   0.00967  -0.77344
   X45       -6.88169   0.00468   0.00000   0.01059   0.01059  -6.87110
   Y45        3.35013  -0.00053   0.00000  -0.01450  -0.01450   3.33563
   Z45        1.42940  -0.00655   0.00000  -0.01595  -0.01595   1.41345
   X46       -2.69914  -0.00263   0.00000  -0.02626  -0.02626  -2.72540
   Y46        7.13749  -0.00639   0.00000  -0.01538  -0.01538   7.12211
   Z46        0.30781   0.00181   0.00000   0.01589   0.01589   0.32370
   X47        4.70995   0.00150   0.00000  -0.00325  -0.00325   4.70670
   Y47       -7.92141  -0.00462   0.00000  -0.03023  -0.03023  -7.95165
   Z47       -0.31908  -0.00118   0.00000  -0.01660  -0.01660  -0.33568
   X48        2.13373  -0.00203   0.00000  -0.06022  -0.06022   2.07351
   Y48        5.22253   0.00392   0.00000   0.04784   0.04784   5.27037
   Z48        8.63240  -0.00461   0.00000  -0.04778  -0.04778   8.58462
         Item               Value     Threshold  Converged?
 Maximum Force            0.027101     0.000450     NO 
 RMS     Force            0.007048     0.000300     NO 
 Maximum Displacement     0.106306     0.001800     NO 
 RMS     Displacement     0.025005     0.001200     NO 
 Predicted change in Energy=-7.257643D-03
 GradGradGradGradGradGradGradGradGradGradGradGradGradGradGradGradGradGrad

 Leave Link  103 at Sun Feb 19 04:46:11 2023, MaxMem=  2684354560 cpu:               1.3 elap:               0.1
 (Enter /storage/apps/GAUSSIAN/G16_RevA03/g16/l9999.exe)

 Test job not archived.
 1\1\GINC-T059\Force\RM062X\def2TZVP\C16H24N2O5S1\LV87696\19-Feb-2023\0
 \\#P M062X/Def2TZVP scf=(direct,conver=8) EmpiricalDispersion=GD3 NoSy
 mm Force pop=(NBORead) Charge Prop=(Field,Read)\\Gaussian run using SA
 NDER external interface, route from template gau_job.tpl\\0,1\C,3.3774
 615331,-3.6868280921,-0.5558046451\H,3.4569669229,-3.8434835047,-1.640
 4368587\H,4.2862013367,-4.0602126106,-0.0616122116\C,1.5199141975,-1.3
 780042152,1.1521927649\H,0.9114282405,-2.2939549644,1.0117187622\O,1.0
 563172337,-0.6257217538,2.2219203078\H,0.383729242,0.0286725469,1.9358
 104213\C,2.9806190651,-1.8416100319,1.2356468752\H,3.0984146297,-2.725
 678587,1.8886449865\O,3.7700742606,-0.7780144731,1.6807352661\H,4.7137
 864465,-0.9586774987,1.4414751112\C,1.5737833993,-0.6643151143,-0.1944
 709967\H,2.1547098649,0.2613119877,-0.0664186961\C,3.2636098289,-2.200
 9639615,-0.2536891623\H,4.215787287,-1.7337303782,-0.5481857578\O,2.21
 17363726,-1.5954516338,-1.0178012357\N,0.2929683654,-0.2866353485,-0.7
 590978567\C,-0.7211553583,-1.2121888216,-0.8238806848\H,-0.4823388793,
 -2.2131817644,-0.4670748361\C,-1.9358196812,-0.8881110445,-1.334536387
 6\H,-2.7146047189,-1.6484094815,-1.3477620494\C,-2.1743572577,0.438552
 1576,-1.8326912618\H,-3.0575038461,0.6271503279,-2.4467276421\H,-2.763
 2645216,1.2923492046,-0.7068379026\C,-1.0230082961,1.2576222014,-2.000
 1740291\C,0.1503015211,0.921620716,-1.3757837386\H,1.0225566863,1.5807
 109258,-1.4210315354\C,-1.0744378552,2.5435905643,-2.7693479185\O,-0.3
 35308124,3.4719411265,-2.4944088039\N,-1.9843100084,2.5908961545,-3.77
 03656561\H,-1.8051629454,3.3599254405,-4.4203953342\H,-2.3362600675,1.
 7313667538,-4.2063511908\C,0.4843579644,2.2292550439,3.8703514077\C,-1
 .1582628181,2.2176276899,1.6227313775\C,-1.804268307,2.8171933628,0.52
 6348132\C,-3.8219697314,3.2159544897,-0.9181926453\C,-3.0275236874,2.2
 715182379,-0.0124555193\O,-1.2603928438,1.0269127184,1.9873458228\S,-0
 .1812685901,3.3542804751,2.6171388954\H,-0.3504844763,1.773381827,4.42
 03953342\H,1.0543851374,1.4274676898,3.3839432149\H,-4.1614049419,2.72
 83133294,-1.8414125876\H,-3.199558745,4.0602126106,-1.2471940984\H,-4.
 7137864465,3.6207363508,-0.4144060952\H,-3.6416346791,1.7728127293,0.7
 564068626\H,-1.4283212247,3.7769996966,0.1628865993\H,2.4923981303,-4.
 1918310524,-0.1688488555\H,1.1291194704,2.7636439997,4.568069864\\Vers
 ion=ES64L-G16RevA.03\HF=-1507.8489618\RMSD=1.614e-09\RMSF=7.048e-03\Di
 pole=0.4018159,-2.3185418,-2.4028848\Quadrupole=12.9153402,-11.231198,
 -1.6841422,-6.9308568,11.196483,-5.2658071\PG=C01 [X(C16H24N2O5S1)]\\@


 IMAGINATION WILL OFTEN CARRY US TO WORLDS THAT NEVER WERE.
 BUT WITHOUT IT, WE GO NOWHERE. -- CARL SAGAN (COSMOS)
 Job cpu time:       0 days  3 hours 28 minutes 17.0 seconds.
 Elapsed time:       0 days  0 hours 13 minutes  2.8 seconds.
 File lengths (MBytes):  RWF=    435 Int=      0 D2E=      0 Chk=     48 Scr=      1
 Normal termination of Gaussian 16 at Sun Feb 19 04:46:11 2023.
