 Entering Gaussian System, Link 0=g16
 Initial command:
 /storage/apps/GAUSSIAN/G16_RevA03/g16/l1.exe "/scratch/tmp/1267169/Gau-25549.inp" -scrdir="/scratch/tmp/1267169/"
 Entering Link 1 = /storage/apps/GAUSSIAN/G16_RevA03/g16/l1.exe PID=     25550.
  
 Copyright (c) 1988,1990,1992,1993,1995,1998,2003,2009,2016,
            Gaussian, Inc.  All Rights Reserved.
  
 This is part of the Gaussian(R) 16 program.  It is based on
 the Gaussian(R) 09 system (copyright 2009, Gaussian, Inc.),
 the Gaussian(R) 03 system (copyright 2003, Gaussian, Inc.),
 the Gaussian(R) 98 system (copyright 1998, Gaussian, Inc.),
 the Gaussian(R) 94 system (copyright 1995, Gaussian, Inc.),
 the Gaussian 92(TM) system (copyright 1992, Gaussian, Inc.),
 the Gaussian 90(TM) system (copyright 1990, Gaussian, Inc.),
 the Gaussian 88(TM) system (copyright 1988, Gaussian, Inc.),
 the Gaussian 86(TM) system (copyright 1986, Carnegie Mellon
 University), and the Gaussian 82(TM) system (copyright 1983,
 Carnegie Mellon University). Gaussian is a federally registered
 trademark of Gaussian, Inc.
  
 This software contains proprietary and confidential information,
 including trade secrets, belonging to Gaussian, Inc.
  
 This software is provided under written license and may be
 used, copied, transmitted, or stored only in accord with that
 written license.
  
 The following legend is applicable only to US Government
 contracts under FAR:
  
                    RESTRICTED RIGHTS LEGEND
  
 Use, reproduction and disclosure by the US Government is
 subject to restrictions as set forth in subparagraphs (a)
 and (c) of the Commercial Computer Software - Restricted
 Rights clause in FAR 52.227-19.
  
 Gaussian, Inc.
 340 Quinnipiac St., Bldg. 40, Wallingford CT 06492
  
  
 ---------------------------------------------------------------
 Warning -- This program may not be used in any manner that
 competes with the business of Gaussian, Inc. or will provide
 assistance to any competitor of Gaussian, Inc.  The licensee
 of this program is prohibited from giving any competitor of
 Gaussian, Inc. access to this program.  By using this program,
 the user acknowledges that Gaussian, Inc. is engaged in the
 business of creating and licensing software in the field of
 computational chemistry and represents and warrants to the
 licensee that it is not a competitor of Gaussian, Inc. and that
 it will not use this program in any manner prohibited above.
 ---------------------------------------------------------------
  

 Cite this work as:
 Gaussian 16, Revision A.03,
 M. J. Frisch, G. W. Trucks, H. B. Schlegel, G. E. Scuseria, 
 M. A. Robb, J. R. Cheeseman, G. Scalmani, V. Barone, 
 G. A. Petersson, H. Nakatsuji, X. Li, M. Caricato, A. V. Marenich, 
 J. Bloino, B. G. Janesko, R. Gomperts, B. Mennucci, H. P. Hratchian, 
 J. V. Ortiz, A. F. Izmaylov, J. L. Sonnenberg, D. Williams-Young, 
 F. Ding, F. Lipparini, F. Egidi, J. Goings, B. Peng, A. Petrone, 
 T. Henderson, D. Ranasinghe, V. G. Zakrzewski, J. Gao, N. Rega, 
 G. Zheng, W. Liang, M. Hada, M. Ehara, K. Toyota, R. Fukuda, 
 J. Hasegawa, M. Ishida, T. Nakajima, Y. Honda, O. Kitao, H. Nakai, 
 T. Vreven, K. Throssell, J. A. Montgomery, Jr., J. E. Peralta, 
 F. Ogliaro, M. J. Bearpark, J. J. Heyd, E. N. Brothers, K. N. Kudin, 
 V. N. Staroverov, T. A. Keith, R. Kobayashi, J. Normand, 
 K. Raghavachari, A. P. Rendell, J. C. Burant, S. S. Iyengar, 
 J. Tomasi, M. Cossi, J. M. Millam, M. Klene, C. Adamo, R. Cammi, 
 J. W. Ochterski, R. L. Martin, K. Morokuma, O. Farkas, 
 J. B. Foresman, and D. J. Fox, Gaussian, Inc., Wallingford CT, 2016.
 
 ******************************************
 Gaussian 16:  ES64L-G16RevA.03 25-Dec-2016
                19-Feb-2023 
 ******************************************
 %chk=gau_job.chk
 %NProcShared=16
 Will use up to   16 processors via shared memory.
 %mem=20GB
 ----------------------------------------------------------------------
 #P M062X/Def2TZVP scf=(direct,conver=8) EmpiricalDispersion=GD3 NoSymm
  Force pop=(NBORead) Charge Prop=(Field,Read)
 ----------------------------------------------------------------------
 1/10=7,18=10,28=-2,30=1,38=1,125=101/1,3;
 2/12=2,15=1,17=6,18=5,29=2,40=1/2;
 3/5=44,7=101,11=2,25=1,30=1,71=1,74=-55,124=31/1,2,3;
 4//1;
 5/5=2,6=8,38=5/2;
 6/7=2,8=2,9=2,10=2,14=2,15=1,28=1,40=2/1,2,7;
 7/7=1,16=-2,29=1,30=1/1,2,3,16;
 1/10=7,18=10,28=-2,30=1/3;
 99/12=1/99;
 Leave Link    1 at Sun Feb 19 04:33:34 2023, MaxMem=  2684354560 cpu:               0.8 elap:               0.1
 (Enter /storage/apps/GAUSSIAN/G16_RevA03/g16/l101.exe)
 ----------------------------------------------------------------------
 Gaussian run using SANDER external interface, route from template gau_
 job.tpl
 ----------------------------------------------------------------------
 Symbolic Z-matrix:
 Charge =  0 Multiplicity = 1
 C                     3.34197  -3.67277  -0.54434 
 H                     3.41928  -3.82725  -1.62945 
 H                     4.254    -4.04616  -0.05565 
 C                     1.48684  -1.35208   1.17531 
 H                     0.87969  -2.26908   1.02586 
 O                     1.03334  -0.60795   2.24565 
 H                     0.31492   0.02857   1.99089 
 C                     2.948    -1.82571   1.2513 
 H                     3.05806  -2.70869   1.90681 
 O                     3.74404  -0.76616   1.69133 
 H                     4.68707  -0.95335   1.45225 
 C                     1.55037  -0.64163  -0.17281 
 H                     2.1205    0.29048  -0.04939 
 C                     3.23039  -2.18798  -0.23595 
 H                     4.18303  -1.7232   -0.5315 
 O                     2.17934  -1.57107  -0.99828 
 N                     0.265    -0.27815  -0.76981 
 C                    -0.7239   -1.21313  -0.82375 
 H                    -0.49847  -2.18609  -0.3944 
 C                    -1.92737  -0.92633  -1.40339 
 H                    -2.70933  -1.6815   -1.38526 
 C                    -2.12266   0.34024  -1.99551 
 H                    -3.04677   0.56805  -2.52913 
 H                    -2.84917   1.32184  -0.6364 
 C                    -1.04561   1.22947  -2.04714 
 C                     0.12068   0.9263   -1.36609 
 H                     0.96839   1.61709  -1.3634 
 C                    -1.10188   2.53834  -2.79106 
 O                    -0.36108   3.45128  -2.4958 
 N                    -2.00795   2.59755  -3.79415 
 H                    -1.82659   3.37632  -4.43307 
 H                    -2.35816   1.74349  -4.24093 
 C                     0.48501   2.21974   3.88083 
 C                    -1.139     2.1853    1.6033 
 C                    -1.81857   2.79292   0.56223 
 C                    -3.83617   3.23218  -0.88286 
 C                    -3.06519   2.2315   -0.00942 
 O                    -1.18011   0.96666   1.94418 
 S                    -0.18772   3.33736   2.62817 
 H                    -0.34652   1.75858   4.43307 
 H                     1.06167   1.42062   3.39852 
 H                    -4.23204   2.77211  -1.7974 
 H                    -3.1806    4.04616  -1.22596 
 H                    -4.68707   3.68606  -0.34984 
 H                    -3.70202   1.81409   0.78993 
 H                    -1.5268    3.81013   0.28553 
 H                     2.4602   -4.18194  -0.15532 
 H                     1.12394   2.76229   4.57762 
 
 ITRead=  0  0  0  0  0  0  0  0  0  0  0  0  0  0  0  0  0  0  0  0
 ITRead=  0  0  0  0  0  0  0  0  0  0  0  0  0  0  0  0  0  0  0  0
 ITRead=  0  0  0  0  0  0  0  0
 MicOpt= -1 -1 -1 -1 -1 -1 -1 -1 -1 -1 -1 -1 -1 -1 -1 -1 -1 -1 -1 -1
 MicOpt= -1 -1 -1 -1 -1 -1 -1 -1 -1 -1 -1 -1 -1 -1 -1 -1 -1 -1 -1 -1
 MicOpt= -1 -1 -1 -1 -1 -1 -1 -1
 NAtoms=     48 NQM=       48 NQMF=       0 NMMI=      0 NMMIF=      0
                NMic=       0 NMicF=      0.
                    Isotopes and Nuclear Properties:
 (Nuclear quadrupole moments (NQMom) in fm**2, nuclear magnetic moments (NMagM)
  in nuclear magnetons)

  Atom         1           2           3           4           5           6           7           8           9          10
 IAtWgt=          12           1           1          12           1          16           1          12           1          16
 AtmWgt=  12.0000000   1.0078250   1.0078250  12.0000000   1.0078250  15.9949146   1.0078250  12.0000000   1.0078250  15.9949146
 NucSpn=           0           1           1           0           1           0           1           0           1           0
 AtZEff=  -0.0000000  -0.0000000  -0.0000000  -0.0000000  -0.0000000  -0.0000000  -0.0000000  -0.0000000  -0.0000000  -0.0000000
 NQMom=    0.0000000   0.0000000   0.0000000   0.0000000   0.0000000   0.0000000   0.0000000   0.0000000   0.0000000   0.0000000
 NMagM=    0.0000000   2.7928460   2.7928460   0.0000000   2.7928460   0.0000000   2.7928460   0.0000000   2.7928460   0.0000000
 AtZNuc=   6.0000000   1.0000000   1.0000000   6.0000000   1.0000000   8.0000000   1.0000000   6.0000000   1.0000000   8.0000000

  Atom        11          12          13          14          15          16          17          18          19          20
 IAtWgt=           1          12           1          12           1          16          14          12           1          12
 AtmWgt=   1.0078250  12.0000000   1.0078250  12.0000000   1.0078250  15.9949146  14.0030740  12.0000000   1.0078250  12.0000000
 NucSpn=           1           0           1           0           1           0           2           0           1           0
 AtZEff=  -0.0000000  -0.0000000  -0.0000000  -0.0000000  -0.0000000  -0.0000000  -0.0000000  -0.0000000  -0.0000000  -0.0000000
 NQMom=    0.0000000   0.0000000   0.0000000   0.0000000   0.0000000   0.0000000   2.0440000   0.0000000   0.0000000   0.0000000
 NMagM=    2.7928460   0.0000000   2.7928460   0.0000000   2.7928460   0.0000000   0.4037610   0.0000000   2.7928460   0.0000000
 AtZNuc=   1.0000000   6.0000000   1.0000000   6.0000000   1.0000000   8.0000000   7.0000000   6.0000000   1.0000000   6.0000000

  Atom        21          22          23          24          25          26          27          28          29          30
 IAtWgt=           1          12           1           1          12          12           1          12          16          14
 AtmWgt=   1.0078250  12.0000000   1.0078250   1.0078250  12.0000000  12.0000000   1.0078250  12.0000000  15.9949146  14.0030740
 NucSpn=           1           0           1           1           0           0           1           0           0           2
 AtZEff=  -0.0000000  -0.0000000  -0.0000000  -0.0000000  -0.0000000  -0.0000000  -0.0000000  -0.0000000  -0.0000000  -0.0000000
 NQMom=    0.0000000   0.0000000   0.0000000   0.0000000   0.0000000   0.0000000   0.0000000   0.0000000   0.0000000   2.0440000
 NMagM=    2.7928460   0.0000000   2.7928460   2.7928460   0.0000000   0.0000000   2.7928460   0.0000000   0.0000000   0.4037610
 AtZNuc=   1.0000000   6.0000000   1.0000000   1.0000000   6.0000000   6.0000000   1.0000000   6.0000000   8.0000000   7.0000000

  Atom        31          32          33          34          35          36          37          38          39          40
 IAtWgt=           1           1          12          12          12          12          12          16          32           1
 AtmWgt=   1.0078250   1.0078250  12.0000000  12.0000000  12.0000000  12.0000000  12.0000000  15.9949146  31.9720718   1.0078250
 NucSpn=           1           1           0           0           0           0           0           0           0           1
 AtZEff=  -0.0000000  -0.0000000  -0.0000000  -0.0000000  -0.0000000  -0.0000000  -0.0000000  -0.0000000  -0.0000000  -0.0000000
 NQMom=    0.0000000   0.0000000   0.0000000   0.0000000   0.0000000   0.0000000   0.0000000   0.0000000   0.0000000   0.0000000
 NMagM=    2.7928460   2.7928460   0.0000000   0.0000000   0.0000000   0.0000000   0.0000000   0.0000000   0.0000000   2.7928460
 AtZNuc=   1.0000000   1.0000000   6.0000000   6.0000000   6.0000000   6.0000000   6.0000000   8.0000000  16.0000000   1.0000000

  Atom        41          42          43          44          45          46          47          48
 IAtWgt=           1           1           1           1           1           1           1           1
 AtmWgt=   1.0078250   1.0078250   1.0078250   1.0078250   1.0078250   1.0078250   1.0078250   1.0078250
 NucSpn=           1           1           1           1           1           1           1           1
 AtZEff=  -0.0000000  -0.0000000  -0.0000000  -0.0000000  -0.0000000  -0.0000000  -0.0000000  -0.0000000
 NQMom=    0.0000000   0.0000000   0.0000000   0.0000000   0.0000000   0.0000000   0.0000000   0.0000000
 NMagM=    2.7928460   2.7928460   2.7928460   2.7928460   2.7928460   2.7928460   2.7928460   2.7928460
 AtZNuc=   1.0000000   1.0000000   1.0000000   1.0000000   1.0000000   1.0000000   1.0000000   1.0000000
 Background charge distribution read from input stream:
 Leave Link  101 at Sun Feb 19 04:33:34 2023, MaxMem=  2684354560 cpu:               2.0 elap:               0.2
 (Enter /storage/apps/GAUSSIAN/G16_RevA03/g16/l103.exe)

 GradGradGradGradGradGradGradGradGradGradGradGradGradGradGradGradGradGrad
 Berny optimization.
 Initialization pass.
 Trust Radius=3.00D-01 FncErr=1.00D-07 GrdErr=1.00D-07 EigMax=2.50D+02 EigMin=1.00D-04
 Number of steps in this run=      2 maximum allowed number of steps=      2.
 GradGradGradGradGradGradGradGradGradGradGradGradGradGradGradGradGradGrad

 Leave Link  103 at Sun Feb 19 04:33:34 2023, MaxMem=  2684354560 cpu:               0.3 elap:               0.1
 (Enter /storage/apps/GAUSSIAN/G16_RevA03/g16/l202.exe)
 ---------------------------------------------------------------------------------------------------
                            Z-MATRIX (ANGSTROMS AND DEGREES)
   CD    Cent   Atom    N1       Length/X        N2       Alpha/Y        N3        Beta/Z          J
 ---------------------------------------------------------------------------------------------------
      1      1  C        0   3.341968         -3.672768         -0.544336
      2      2  H        0   3.419278         -3.827250         -1.629448
      3      3  H        0   4.254005         -4.046160         -0.055655
      4      4  C        0   1.486843         -1.352080          1.175308
      5      5  H        0   0.879692         -2.269078          1.025864
      6      6  O        0   1.033337         -0.607952          2.245648
      7      7  H        0   0.314915          0.028567          1.990894
      8      8  C        0   2.948001         -1.825705          1.251299
      9      9  H        0   3.058061         -2.708690          1.906806
     10     10  O        0   3.744045         -0.766161          1.691326
     11     11  H        0   4.687069         -0.953347          1.452247
     12     12  C        0   1.550373         -0.641632         -0.172814
     13     13  H        0   2.120500          0.290475         -0.049394
     14     14  C        0   3.230395         -2.187982         -0.235954
     15     15  H        0   4.183032         -1.723204         -0.531500
     16     16  O        0   2.179340         -1.571069         -0.998278
     17     17  N        0   0.265001         -0.278148         -0.769806
     18     18  C        0  -0.723902         -1.213129         -0.823747
     19     19  H        0  -0.498469         -2.186089         -0.394402
     20     20  C        0  -1.927369         -0.926326         -1.403394
     21     21  H        0  -2.709329         -1.681496         -1.385259
     22     22  C        0  -2.122661          0.340239         -1.995510
     23     23  H        0  -3.046771          0.568054         -2.529128
     24     24  H        0  -2.849174          1.321844         -0.636399
     25     25  C        0  -1.045612          1.229468         -2.047143
     26     26  C        0   0.120677          0.926297         -1.366086
     27     27  H        0   0.968385          1.617094         -1.363403
     28     28  C        0  -1.101884          2.538340         -2.791057
     29     29  O        0  -0.361078          3.451281         -2.495804
     30     30  N        0  -2.007952          2.597551         -3.794147
     31     31  H        0  -1.826593          3.376315         -4.433067
     32     32  H        0  -2.358164          1.743493         -4.240935
     33     33  C        0   0.485008          2.219739          3.880833
     34     34  C        0  -1.139003          2.185298          1.603296
     35     35  C        0  -1.818565          2.792924          0.562231
     36     36  C        0  -3.836168          3.232179         -0.882857
     37     37  C        0  -3.065187          2.231496         -0.009420
     38     38  O        0  -1.180113          0.966660          1.944176
     39     39  S        0  -0.187720          3.337361          2.628167
     40     40  H        0  -0.346516          1.758583          4.433067
     41     41  H        0   1.061671          1.420621          3.398515
     42     42  H        0  -4.232036          2.772114         -1.797402
     43     43  H        0  -3.180596          4.046160         -1.225964
     44     44  H        0  -4.687069          3.686056         -0.349837
     45     45  H        0  -3.702020          1.814087          0.789928
     46     46  H        0  -1.526800          3.810133          0.285527
     47     47  H        0   2.460203         -4.181942         -0.155320
     48     48  H        0   1.123936          2.762293          4.577616
 ---------------------------------------------------------------------------------------------------
                         Z-Matrix orientation:                         
 ---------------------------------------------------------------------
 Center     Atomic      Atomic             Coordinates (Angstroms)
 Number     Number       Type             X           Y           Z
 ---------------------------------------------------------------------
      1          6           0        3.341968   -3.672768   -0.544336
      2          1           0        3.419278   -3.827250   -1.629448
      3          1           0        4.254005   -4.046160   -0.055655
      4          6           0        1.486843   -1.352080    1.175308
      5          1           0        0.879692   -2.269078    1.025864
      6          8           0        1.033337   -0.607952    2.245648
      7          1           0        0.314915    0.028567    1.990894
      8          6           0        2.948001   -1.825705    1.251299
      9          1           0        3.058061   -2.708690    1.906806
     10          8           0        3.744045   -0.766161    1.691326
     11          1           0        4.687069   -0.953347    1.452247
     12          6           0        1.550373   -0.641632   -0.172814
     13          1           0        2.120500    0.290475   -0.049394
     14          6           0        3.230395   -2.187982   -0.235954
     15          1           0        4.183032   -1.723204   -0.531500
     16          8           0        2.179340   -1.571069   -0.998278
     17          7           0        0.265001   -0.278148   -0.769806
     18          6           0       -0.723902   -1.213129   -0.823747
     19          1           0       -0.498469   -2.186089   -0.394402
     20          6           0       -1.927369   -0.926326   -1.403394
     21          1           0       -2.709329   -1.681496   -1.385259
     22          6           0       -2.122661    0.340239   -1.995510
     23          1           0       -3.046771    0.568054   -2.529128
     24          1           0       -2.849174    1.321844   -0.636399
     25          6           0       -1.045612    1.229468   -2.047143
     26          6           0        0.120677    0.926297   -1.366086
     27          1           0        0.968385    1.617094   -1.363403
     28          6           0       -1.101884    2.538340   -2.791057
     29          8           0       -0.361078    3.451281   -2.495804
     30          7           0       -2.007952    2.597551   -3.794147
     31          1           0       -1.826593    3.376315   -4.433067
     32          1           0       -2.358164    1.743493   -4.240935
     33          6           0        0.485008    2.219739    3.880833
     34          6           0       -1.139003    2.185298    1.603296
     35          6           0       -1.818565    2.792924    0.562231
     36          6           0       -3.836168    3.232179   -0.882857
     37          6           0       -3.065187    2.231496   -0.009420
     38          8           0       -1.180113    0.966660    1.944176
     39         16           0       -0.187720    3.337361    2.628167
     40          1           0       -0.346516    1.758583    4.433067
     41          1           0        1.061671    1.420621    3.398515
     42          1           0       -4.232036    2.772114   -1.797402
     43          1           0       -3.180596    4.046160   -1.225964
     44          1           0       -4.687069    3.686056   -0.349837
     45          1           0       -3.702020    1.814087    0.789928
     46          1           0       -1.526800    3.810133    0.285527
     47          1           0        2.460203   -4.181942   -0.155320
     48          1           0        1.123936    2.762293    4.577616
 ---------------------------------------------------------------------
                    Distance matrix (angstroms):
                    1          2          3          4          5
     1  C    0.000000
     2  H    1.098777   0.000000
     3  H    1.100019   1.794858   0.000000
     4  C    3.432820   4.210396   4.053458   0.000000
     5  H    3.240166   3.991001   3.964050   1.109888   0.000000
     6  O    4.744141   5.574313   5.243087   1.380225   2.066596
     7  H    5.412053   6.132803   6.025627   1.986147   2.555275
     8  C    2.605985   3.539349   2.888631   1.537881   2.127276
     9  H    2.649178   3.726493   2.659014   2.200955   2.390524
    10  O    3.688931   4.528055   3.751052   2.388417   3.302441
    11  H    3.631927   4.400393   3.467968   3.236840   4.050811
    12  C    3.540568   3.970233   4.349041   1.525190   2.129607
    13  H    4.176631   4.597724   4.833041   2.144623   3.040905
    14  C    1.520572   2.159793   2.129110   2.393818   2.669189
    15  H    2.123288   2.493155   2.372254   3.212532   3.692617
    16  O    2.444362   2.650694   3.364349   2.291720   2.504687
    17  N    4.587156   4.825409   5.533540   2.535684   2.750650
    18  C    4.760167   4.964749   5.778891   2.983776   2.666009
    19  H    4.120879   4.423516   5.114745   2.664774   1.980750
    20  C    6.003901   6.087125   7.054016   4.299745   3.947640
    21  H    6.425769   6.497978   7.473119   4.926751   4.363467
    22  C    6.933419   6.943707   7.979060   5.093775   4.995134
    23  H    7.920855   7.870065   8.983895   6.161445   6.008693
    24  H    7.955178   8.172687   8.922325   5.406773   5.437121
    25  C    6.748422   6.758706   7.738489   4.843749   5.038849
    26  C    5.674803   5.791921   6.597496   3.676424   4.062998
    27  H    5.855545   5.976499   6.676672   3.940792   4.562762
    28  C    7.960744   7.893731   8.917602   6.129350   6.450334
    29  O    8.262739   8.247345   9.135915   6.321721   6.831118
    30  N    8.860012   8.684402   9.865462   7.246286   7.433376
    31  H    9.566913   9.341884  10.546494   8.049251   8.306285
    32  H    8.688627   8.439899   9.734343   7.328188   7.370455
    33  C    7.903542   8.691331   8.304382   4.591452   5.334426
    34  C    7.681690   8.208490   8.406409   4.426204   4.924431
    35  C    8.346302   8.721535   9.166840   5.336913   5.754947
    36  C    9.965868  10.150588  10.913724   7.320240   7.493089
    37  C    8.729152   9.021153   9.642700   5.913254   6.073636
    38  O    6.940186   7.543657   7.658806   3.616678   3.944121
    39  S    8.465541   9.081266   9.024866   5.187082   5.927808
    40  H    8.238873   9.062938   8.660742   4.863170   5.416149
    41  H    6.832894   7.640608   7.211656   3.579287   4.390498
    42  H   10.023582  10.105564  11.024311   7.651898   7.714545
    43  H   10.128687  10.281621  11.051179   7.529415   7.838297
    44  H   10.892912  11.126547  11.824402   8.113326   8.267103
    45  H    9.027935   9.401647   9.917451   6.090766   6.141660
    46  H    8.965901   9.298411   9.759889   6.043360   6.579978
    47  H    1.090000   1.794069   1.801692   3.275076   2.748138
    48  H    8.518454   9.339075   8.810196   5.351212   6.163545
                    6          7          8          9         10
     6  O    0.000000
     7  H    0.993070   0.000000
     8  C    2.477415   3.304310   0.000000
     9  H    2.937246   3.876144   1.105198   0.000000
    10  O    2.771324   3.532742   1.396404   2.071334   0.000000
    11  H    3.754802   4.513316   1.955951   2.437523   0.990702
    12  C    2.473341   2.580147   2.320235   3.297069   2.881444
    13  H    2.693755   2.737062   2.618164   3.701450   2.604320
    14  C    3.671771   4.286253   1.556571   2.211844   2.449452
    15  H    4.344757   4.938978   2.171216   2.860433   2.459592
    16  O    3.572670   3.869117   2.390874   3.241271   3.214054
    17  N    3.129228   2.778134   3.698417   4.568693   4.289414
    18  C    3.588219   3.247022   4.261917   4.898557   5.146642
    19  H    3.436104   3.354986   3.836191   4.268204   4.936130
    20  C    4.709845   4.178618   5.623656   6.244097   6.462807
    21  H    5.323865   4.844459   6.243206   6.719792   7.207583
    22  C    5.370923   4.682983   6.398805   7.166862   7.016774
    23  H    6.389738   5.658849   7.480575   8.227000   8.106019
    24  H    5.206169   4.311228   6.861320   7.590027   7.297164
    25  C    5.111379   4.427069   6.013547   6.926971   6.395272
    26  C    4.028833   3.480368   4.734764   5.705539   5.033983
    27  H    4.240318   3.768521   4.754831   5.811490   4.766085
    28  C    6.310842   5.583309   7.196326   8.179632   7.382040
    29  O    6.395556   5.683520   7.268933   8.307751   7.222944
    30  N    7.483570   6.742559   8.341655   9.290939   8.630785
    31  H    8.286062   7.553857   9.064755  10.053910   9.257446
    32  H    7.688129   6.994427   8.429662   9.324813   8.872826
    33  C    3.312150   2.898627   5.417232   5.899729   4.932633
    34  C    3.596377   2.629752   5.737216   6.454345   5.706401
    35  C    4.746915   3.772862   6.672833   7.473762   6.699595
    36  C    6.945951   5.979387   8.727071   9.518746   8.948339
    37  C    5.472267   4.503248   7.362658   8.097624   7.631784
    38  O    2.733066   1.765590   5.031769   5.609964   5.226273
    39  S    4.147626   3.406887   6.195625   6.900014   5.759804
    40  H    3.505608   3.065070   5.815893   6.158707   5.533911
    41  H    2.333456   2.115859   4.325207   4.823067   3.858969
    42  H    7.449514   6.523266   9.054692   9.844078   9.397259
    43  H    7.174265   6.221561   8.841682   9.714066   8.922985
    44  H    7.609080   6.623903   9.551829  10.294282   9.750500
    45  H    5.514436   4.556991   7.594981   8.209849   7.931840
    46  H    5.469539   4.538770   7.260801   8.132929   7.120432
    47  H    4.535857   5.190076   2.787181   2.603895   4.089732
    48  H    4.099370   3.849533   5.953261   6.387935   5.257911
                   11         12         13         14         15
    11  H    0.000000
    12  C    3.546385   0.000000
    13  H    3.223243   1.099592   0.000000
    14  C    2.548773   2.284219   2.722025   0.000000
    15  H    2.186775   2.868684   2.922562   1.100402   0.000000
    16  O    3.560247   1.393141   2.090261   1.437510   2.062962
    17  N    4.994807   1.463114   2.070073   3.567355   4.182815
    18  C    5.875903   2.433650   3.309240   4.114888   4.942023
    19  H    5.640884   2.575306   3.620967   3.732229   4.706327
    20  C    7.204596   3.700009   4.438374   5.436655   6.223521
    21  H    7.955398   4.549330   5.385208   6.071059   6.945164
    22  C    7.741629   4.216335   4.668433   6.176014   6.794329
    23  H    8.830531   5.305590   5.738190   7.228913   7.842859
    24  H    8.144562   4.840058   5.109399   7.031386   7.663892
    25  C    7.062156   3.708539   3.859660   5.765726   6.193074
    26  C    5.685772   2.434406   2.477346   4.543818   4.921293
    27  H    5.325755   2.618789   2.194061   4.567979   4.709948
    28  C    7.981823   4.899173   4.790968   6.901834   7.155188
    29  O    7.776352   5.079554   4.704662   7.057400   7.161197
    30  N    9.217204   6.022296   6.032404   7.937402   8.224481
    31  H    9.788294   6.759997   6.657217   8.611056   8.794483
    32  H    9.450957   6.124957   6.303865   7.920124   8.280408
    33  C    5.798605   5.074889   4.673711   6.626695   6.977884
    34  C    6.619442   4.287056   4.116564   6.449810   6.939582
    35  C    7.559759   4.866848   4.706652   7.137122   7.590180
    36  C    9.778390   6.672736   6.695534   8.929330   9.433284
    37  C    8.507477   5.439206   5.537194   7.695288   8.273386
    38  O    6.192918   3.811011   3.914791   5.844425   6.490582
    39  S    6.599737   5.167093   4.666983   7.100431   7.395694
    40  H    6.448010   5.529319   5.322966   7.083038   7.568790
    41  H    4.750494   4.152844   3.779739   5.561901   5.922124
    42  H   10.197534   6.908633   7.040510   9.095523   9.624124
    43  H    9.698868   6.742892   6.602356   8.996969   9.380345
    44  H   10.613483   7.593807   7.613359   9.859184  10.390947
    45  H    8.858565   5.877505   6.076809   8.070153   8.742577
    46  H    7.916069   5.431140   5.079661   7.673345   7.992968
    47  H    4.238753   3.655392   4.486551   2.139059   3.025730
    48  H    6.022443   5.859619   5.339686   7.218922   7.455254
                   16         17         18         19         20
    16  O    0.000000
    17  N    2.321322   0.000000
    18  C    2.930426   1.361994   0.000000
    19  H    2.813108   2.089031   1.087110   0.000000
    20  C    4.176705   2.372352   1.366228   2.155649   0.000000
    21  H    4.905205   3.345865   2.115794   2.474736   1.087232
    22  C    4.811942   2.754213   2.396353   3.403510   1.411711
    23  H    5.850776   3.844360   3.387721   4.316967   2.180255
    24  H    5.812560   3.503692   3.313302   4.229654   2.547995
    25  C    4.398118   2.371119   2.750723   3.833660   2.416476
    26  C    3.257332   1.351691   2.363173   3.318804   2.761900
    27  H    3.429885   2.106905   3.341441   4.189848   3.854345
    28  C    5.555874   3.726452   4.252846   5.331820   3.822427
    29  O    5.824115   4.156885   4.968314   6.017866   4.775990
    30  N    6.536643   4.752116   4.999335   6.059705   4.259098
    31  H    7.233387   5.581161   5.941895   7.001076   5.263250
    32  H    6.487688   4.797579   4.805164   5.804817   3.919842
    33  C    6.406770   5.283586   5.948035   6.217410   6.606083
    34  C    5.647112   3.697487   4.196684   4.848722   4.398171
    35  C    6.120692   3.942975   4.378091   5.239119   4.208128
    36  C    7.698756   5.399516   5.426828   6.382512   4.605176
    37  C    6.553045   4.238709   4.243841   5.123604   3.634506
    38  O    5.136538   3.317167   3.552605   3.984145   3.917653
    39  S    6.545744   4.982277   5.736738   6.304046   6.120367
    40  H    6.853177   5.620686   6.050420   6.236023   6.616049
    41  H    5.434260   4.571149   5.287004   5.461558   6.123794
    42  H    7.785087   5.530226   5.397885   6.363310   4.375522
    43  H    7.767497   5.547960   5.818698   6.835659   5.131050
    44  H    8.672105   6.357223   6.319279   7.213074   5.477225
    45  H    7.017646   4.748419   4.542816   5.259923   3.933181
    46  H    6.658901   4.586755   5.206562   6.121638   5.044497
    47  H    2.757920   4.520632   4.404449   3.576916   5.604240
    48  H    7.140202   6.211036   6.956522   7.199975   7.660864
                   21         22         23         24         25
    21  H    0.000000
    22  C    2.191802   0.000000
    23  H    2.546130   1.091158   0.000000
    24  H    3.098451   1.827171   2.046868   0.000000
    25  C    3.417566   1.397652   2.162039   2.291631   0.000000
    26  C    3.848361   2.402541   3.393188   3.083652   1.384189
    27  H    4.940319   3.403599   4.310554   3.897366   2.161929
    28  C    4.729394   2.550790   2.780866   3.029098   1.506560
    29  O    5.752651   3.609994   3.940438   3.765968   2.367771
    30  N    4.960334   2.888549   2.607350   3.508056   2.418631
    31  H    5.970746   3.904753   3.605571   4.436351   3.303259
    32  H    4.473114   2.658292   2.187720   3.662179   2.607631
    33  C    7.290758   6.698049   7.502608   5.685804   6.201962
    34  C    5.133175   4.162119   4.830319   2.947282   3.774658
    35  C    4.960505   3.556708   4.001878   2.159384   3.138580
    36  C    5.066199   3.540822   3.229693   2.164320   3.626792
    37  C    4.163061   2.899959   3.019322   1.125713   3.038924
    38  O    4.520660   4.099015   4.863512   3.093749   4.002223
    39  S    6.903262   5.839959   6.514670   4.669372   5.199781
    40  H    7.160304   6.818577   7.561805   5.670407   6.539253
    41  H    6.835794   6.356312   7.262446   5.620053   5.842292
    42  H    4.724737   3.225325   2.607327   2.315927   3.549004
    43  H    5.749218   3.930048   3.716633   2.807013   3.628532
    44  H    5.813275   4.525363   4.142683   3.008234   4.709128
    45  H    4.235088   3.524949   3.605286   1.733222   3.930301
    46  H    5.860707   4.195038   4.554522   2.964827   3.511798
    47  H    5.872738   6.696198   7.650111   7.662414   6.719605
    48  H    8.366425   7.720927   8.527326   6.711664   7.137501
                   26         27         28         29         30
    26  C    0.000000
    27  H    1.093534   0.000000
    28  C    2.474648   2.678228   0.000000
    29  O    2.807828   2.532597   1.212200   0.000000
    30  N    3.635881   3.965905   1.353017   2.264231   0.000000
    31  H    4.381874   4.508836   1.980808   2.430297   1.023515
    32  H    3.882939   4.400238   2.076576   3.154421   1.025516
    33  C    5.416261   5.300834   6.865410   6.549356   8.078546
    34  C    3.462529   3.683102   4.408668   4.360104   5.482465
    35  C    3.311097   3.585768   3.438457   3.450983   4.364867
    36  C    4.605130   5.091478   3.405722   3.837428   3.495816
    37  C    3.700515   4.298891   3.418511   3.870683   3.946631
    38  O    3.556897   3.997397   4.989863   5.153405   6.022747
    39  S    4.675724   4.497614   5.553568   5.128168   6.716151
    40  H    5.877172   5.945423   7.305243   7.132650   8.435123
    41  H    4.881726   4.766883   6.651397   6.394591   7.908359
    42  H    4.747544   5.344792   3.292393   3.991660   2.993996
    43  H    4.544401   4.809708   3.007337   3.148977   3.173188
    44  H    5.635907   6.106724   4.486687   4.834717   4.497308
    45  H    4.477676   5.146682   4.484274   4.963703   4.949488
    46  H    3.709247   3.708684   3.356096   3.037019   4.283177
    47  H    5.747473   6.108503   8.049707   8.467798   8.897585
    48  H    6.301190   6.052386   7.700764   7.260389   8.939926
                   31         32         33         34         35
    31  H    0.000000
    32  H    1.727886   0.000000
    33  C    8.706440   8.618210   0.000000
    34  C    6.191041   5.986366   2.797458   0.000000
    35  C    5.029256   4.945995   4.080209   1.383774   0.000000
    36  C    4.082053   3.959465   6.510786   3.814658   2.520306
    37  C    4.734277   4.317840   5.266697   2.512603   1.481908
    38  O    6.847890   6.344042   2.844903   1.266084   2.377527
    39  S    7.249031   7.378062   1.808539   1.811780   2.687780
    40  H    9.133237   8.904227   1.099573   2.969466   4.268508
    41  H    8.573243   8.376199   1.097160   2.941175   4.268897
    42  H    3.619108   3.246584   7.402565   4.634216   3.375373
    43  H    3.545070   3.881844   6.546132   3.954191   2.573591
    44  H    4.995101   4.933355   6.840981   4.319233   3.139724
    45  H    5.765195   5.207736   5.220101   2.714484   2.134800
    46  H    4.747968   5.044900   4.416214   2.127672   1.093804
    47  H    9.685195   8.661391   7.821346   7.522550   8.214103
    48  H    9.501318   9.535712   1.090000   3.781586   4.978209
                   36         37         38         39         40
    36  C    0.000000
    37  C    1.535796   0.000000
    38  O    4.492140   2.994972   0.000000
    39  S    5.064536   4.057046   2.659495   0.000000
    40  H    6.527496   5.229772   2.741643   2.403211   0.000000
    41  H    6.752831   5.413179   2.710494   2.414189   1.779749
    42  H    1.097617   2.202426   5.154930   6.021765   7.412372
    43  H    1.100028   2.187762   4.851293   4.930925   6.729759
    44  H    1.101884   2.205023   4.995633   5.406869   6.740305
    45  H    2.197088   1.103968   2.900076   4.248505   4.953277
    46  H    2.651854   2.223898   3.310083   2.739454   4.775355
    47  H    9.754117   8.466606   6.645892   8.443887   8.013789
    48  H    7.391900   6.234693   3.932931   2.418987   1.786214
                   41         42         43         44         45
    41  H    0.000000
    42  H    7.539723   0.000000
    43  H    6.802653   1.747930   0.000000
    44  H    7.227057   1.771381   1.779532   0.000000
    45  H    5.445392   2.809450   3.052517   2.402843   0.000000
    46  H    4.701132   3.568526   2.252855   3.225892   2.995030
    47  H    6.780439   9.789862  10.033273  10.631403   8.649790
    48  H    1.787243   8.326307   7.338859   7.674692   6.207699
                   46         47         48
    46  H    0.000000
    47  H    8.942248   0.000000
    48  H    5.152319   8.509330   0.000000
 Symmetry turned off by external request.
 Stoichiometry    C16H24N2O5S
 Framework group  C1[X(C16H24N2O5S)]
 Deg. of freedom   138
 Full point group                 C1      NOp   1
 Rotational constants (GHZ):           0.2866751           0.1690041           0.1258421
 Leave Link  202 at Sun Feb 19 04:33:34 2023, MaxMem=  2684354560 cpu:               0.4 elap:               0.1
 (Enter /storage/apps/GAUSSIAN/G16_RevA03/g16/l301.exe)
 Standard basis: def2TZVP (5D, 7F)
 Ernie: Thresh=  0.10000D-02 Tol=  0.10000D-05 Strict=F.
   894 basis functions,  1434 primitive gaussians,  1014 cartesian basis functions
    95 alpha electrons       95 beta electrons
       nuclear repulsion energy      2439.4762809052 Hartrees.
 IExCor= 4336 DFT=T Ex+Corr=M062X ExCW=0 ScaHFX=  0.540000
 ScaDFX=  1.000000  1.000000  1.000000  1.000000 ScalE2=  1.000000  1.000000
 IRadAn=      5 IRanWt=     -1 IRanGd=            0 ICorTp=0 IEmpDi=131
 NAtoms=   48 NActive=   48 NUniq=   48 SFac= 1.00D+00 NAtFMM=   60 NAOKFM=F Big=F
 Integral buffers will be    131072 words long.
 Raffenetti 2 integral format.
 Two-electron integral symmetry is turned off.
 R6Disp:  Grimme-D3 Dispersion energy=       -0.0041540396 Hartrees.
 Nuclear repulsion after empirical dispersion term =     2439.4721268657 Hartrees.
 Leave Link  301 at Sun Feb 19 04:33:35 2023, MaxMem=  2684354560 cpu:               1.4 elap:               0.1
 (Enter /storage/apps/GAUSSIAN/G16_RevA03/g16/l302.exe)
 NPDir=0 NMtPBC=     1 NCelOv=     1 NCel=       1 NClECP=     1 NCelD=      1
         NCelK=      1 NCelE2=     1 NClLst=     1 CellRange=     0.0.
 One-electron integrals computed using PRISM.
   1 Symmetry operations used in ECPInt.
 ECPInt:  NShTT=   65703 NPrTT=  200010 LenC2=   56046 LenP2D=  118923.
 LDataN:  DoStor=T MaxTD1= 6 Len=  172
 NBasis=   894 RedAO= T EigKep=  2.06D-05  NBF=   894
 NBsUse=   894 1.00D-06 EigRej= -1.00D+00 NBFU=   894
 Precomputing XC quadrature grid using
 IXCGrd= 4 IRadAn=           5 IRanWt=          -1 IRanGd=           0 AccXCQ= 0.00D+00.
 Generated NRdTot=       0 NPtTot=           0 NUsed=           0 NTot=          32
 NSgBfM=   998   995   995   995   998 MxSgAt=    48 MxSgA2=    48.
 Leave Link  302 at Sun Feb 19 04:33:36 2023, MaxMem=  2684354560 cpu:              19.5 elap:               1.3
 (Enter /storage/apps/GAUSSIAN/G16_RevA03/g16/l303.exe)
 DipDrv:  MaxL=1.
 Leave Link  303 at Sun Feb 19 04:33:36 2023, MaxMem=  2684354560 cpu:               2.2 elap:               0.2
 (Enter /storage/apps/GAUSSIAN/G16_RevA03/g16/l401.exe)
 ExpMin= 9.52D-02 ExpMax= 6.07D+04 ExpMxC= 2.07D+03 IAcc=3 IRadAn=         5 AccDes= 0.00D+00
 Harris functional with IExCor= 1009 and IRadAn=       5 diagonalized for initial guess.
 HarFok:  IExCor= 1009 AccDes= 0.00D+00 IRadAn=         5 IDoV= 1 UseB2=F ITyADJ=14
 ICtDFT=  3500011 ScaDFX=  1.000000  1.000000  1.000000  1.000000
 FoFCou: FMM=F IPFlag=           0 FMFlag=      100000 FMFlg1=           0
         NFxFlg=           0 DoJE=T BraDBF=F KetDBF=T FulRan=T
         wScrn=  0.000000 ICntrl=       500 IOpCl=  0 I1Cent=   200000004 NGrid=           0
         NMat0=    1 NMatS0=      1 NMatT0=    0 NMatD0=    1 NMtDS0=    0 NMtDT0=    0
 Symmetry not used in FoFCou.
 Harris En= -1507.20957448397    
 JPrj=0 DoOrth=F DoCkMO=F.
 Leave Link  401 at Sun Feb 19 04:33:40 2023, MaxMem=  2684354560 cpu:              61.4 elap:               3.9
 (Enter /storage/apps/GAUSSIAN/G16_RevA03/g16/l502.exe)
 Two-electron integral symmetry not used.
 Closed shell SCF:
 Using DIIS extrapolation, IDIIS=  1040.
 NGot=  2684354560 LenX=  2682275214 LenY=  2681246004
 Requested convergence on RMS density matrix=1.00D-08 within 128 cycles.
 Requested convergence on MAX density matrix=1.00D-06.
 Requested convergence on             energy=1.00D-06.
 No special actions if energy rises.
 Fock matrices will be formed incrementally for  20 cycles.
 Integral accuracy reduced to 1.0D-05 until final iterations.

 Cycle   1  Pass 0  IDiag  1:
 FoFJK:  IHMeth= 1 ICntrl=       0 DoSepK=F KAlg= 0 I1Cent=           0 FoldK=F
 IRaf= 780000000 NMat=       1 IRICut=       1 DoRegI=T DoRafI=F ISym2E= 0 IDoP0=0 IntGTp=1.
 FoFCou: FMM=F IPFlag=           0 FMFlag=      100000 FMFlg1=           0
         NFxFlg=           0 DoJE=F BraDBF=F KetDBF=F FulRan=T
         wScrn=  0.000000 ICntrl=         0 IOpCl=  0 I1Cent=           0 NGrid=           0
         NMat0=    1 NMatS0=      1 NMatT0=    0 NMatD0=    1 NMtDS0=    0 NMtDT0=    0
 Symmetry not used in FoFCou.
 E= -1507.08259714368    
 DIIS: error= 1.51D-02 at cycle   1 NSaved=   1.
 NSaved= 1 IEnMin= 1 EnMin= -1507.08259714368     IErMin= 1 ErrMin= 1.51D-02
 ErrMax= 1.51D-02  0.00D+00 EMaxC= 1.00D-01 BMatC= 1.01D+00 BMatP= 1.01D+00
 IDIUse=3 WtCom= 8.49D-01 WtEn= 1.51D-01
 Coeff-Com:  0.100D+01
 Coeff-En:   0.100D+01
 Coeff:      0.100D+01
 Gap=     0.121 Goal=   None    Shift=    0.000
 GapD=    0.121 DampG=1.000 DampE=0.500 DampFc=0.5000 IDamp=-1.
 Damping current iteration by 5.00D-01
 RMSDP=4.60D-03 MaxDP=1.23D+00              OVMax= 7.65D-01

 Cycle   2  Pass 0  IDiag  1:
 RMSU=  2.30D-03    CP:  1.02D+00
 E= -1507.31155483035     Delta-E=       -0.228957686670 Rises=F Damp=T
 DIIS: error= 5.35D-03 at cycle   2 NSaved=   2.
 NSaved= 2 IEnMin= 2 EnMin= -1507.31155483035     IErMin= 2 ErrMin= 5.35D-03
 ErrMax= 5.35D-03  0.00D+00 EMaxC= 1.00D-01 BMatC= 1.40D-01 BMatP= 1.01D+00
 IDIUse=3 WtCom= 9.47D-01 WtEn= 5.35D-02
 Coeff-Com:  0.917D-01 0.908D+00
 Coeff-En:   0.296D+00 0.704D+00
 Coeff:      0.103D+00 0.897D+00
 Gap=     0.156 Goal=   None    Shift=    0.000
 RMSDP=1.67D-03 MaxDP=3.80D-01 DE=-2.29D-01 OVMax= 7.14D-01

 Cycle   3  Pass 0  IDiag  1:
 RMSU=  1.29D-03    CP:  1.00D+00  5.36D-01
 E= -1507.67120711027     Delta-E=       -0.359652279920 Rises=F Damp=F
 DIIS: error= 7.49D-03 at cycle   3 NSaved=   3.
 NSaved= 3 IEnMin= 3 EnMin= -1507.67120711027     IErMin= 2 ErrMin= 5.35D-03
 ErrMax= 7.49D-03  0.00D+00 EMaxC= 1.00D-01 BMatC= 1.62D-01 BMatP= 1.40D-01
 IDIUse=3 WtCom= 1.04D-01 WtEn= 8.96D-01
 Coeff-Com: -0.475D-01 0.541D+00 0.506D+00
 Coeff-En:   0.000D+00 0.000D+00 0.100D+01
 Coeff:     -0.492D-02 0.561D-01 0.949D+00
 Gap=     0.004 Goal=   None    Shift=    0.000
 RMSDP=2.14D-03 MaxDP=3.24D-01 DE=-3.60D-01 OVMax= 8.62D-01

 Cycle   4  Pass 0  IDiag  1:
 RMSU=  1.37D-03    CP:  1.01D+00  1.12D+00  2.52D-01
 E= -1506.93939679677     Delta-E=        0.731810313491 Rises=F Damp=F
 DIIS: error= 1.55D-02 at cycle   4 NSaved=   4.
 NSaved= 4 IEnMin= 3 EnMin= -1507.67120711027     IErMin= 2 ErrMin= 5.35D-03
 ErrMax= 1.55D-02  0.00D+00 EMaxC= 1.00D-01 BMatC= 6.99D-01 BMatP= 1.40D-01
 IDIUse=2 WtCom= 0.00D+00 WtEn= 1.00D+00
 Coeff-En:   0.000D+00 0.000D+00 0.779D+00 0.221D+00
 Coeff:      0.000D+00 0.000D+00 0.779D+00 0.221D+00
 Gap=     0.197 Goal=   None    Shift=    0.000
 RMSDP=1.42D-03 MaxDP=2.47D-01 DE= 7.32D-01 OVMax= 6.17D-01

 Cycle   5  Pass 0  IDiag  1:
 RMSU=  5.66D-04    CP:  1.01D+00  7.62D-01  6.64D-01  3.63D-01
 E= -1507.80448397065     Delta-E=       -0.865087173872 Rises=F Damp=F
 DIIS: error= 4.43D-03 at cycle   5 NSaved=   5.
 NSaved= 5 IEnMin= 5 EnMin= -1507.80448397065     IErMin= 5 ErrMin= 4.43D-03
 ErrMax= 4.43D-03  0.00D+00 EMaxC= 1.00D-01 BMatC= 4.49D-02 BMatP= 1.40D-01
 IDIUse=3 WtCom= 9.56D-01 WtEn= 4.43D-02
 Coeff-Com:  0.928D-02-0.331D-02 0.303D+00-0.324D-01 0.723D+00
 Coeff-En:   0.000D+00 0.000D+00 0.239D+00 0.000D+00 0.761D+00
 Coeff:      0.887D-02-0.316D-02 0.300D+00-0.310D-01 0.725D+00
 Gap=     0.123 Goal=   None    Shift=    0.000
 RMSDP=3.27D-04 MaxDP=4.64D-02 DE=-8.65D-01 OVMax= 1.41D-01

 Cycle   6  Pass 0  IDiag  1:
 RMSU=  1.70D-04    CP:  1.00D+00  6.78D-01  7.75D-01  2.68D-01  9.12D-01
 E= -1507.85155768557     Delta-E=       -0.047073714920 Rises=F Damp=F
 DIIS: error= 5.91D-04 at cycle   6 NSaved=   6.
 NSaved= 6 IEnMin= 6 EnMin= -1507.85155768557     IErMin= 6 ErrMin= 5.91D-04
 ErrMax= 5.91D-04  0.00D+00 EMaxC= 1.00D-01 BMatC= 7.91D-04 BMatP= 4.49D-02
 IDIUse=3 WtCom= 9.94D-01 WtEn= 5.91D-03
 Coeff-Com: -0.736D-03 0.492D-02 0.518D-01-0.402D-01 0.267D+00 0.718D+00
 Coeff-En:   0.000D+00 0.000D+00 0.000D+00 0.000D+00 0.000D+00 0.100D+01
 Coeff:     -0.731D-03 0.489D-02 0.515D-01-0.399D-01 0.265D+00 0.719D+00
 Gap=     0.134 Goal=   None    Shift=    0.000
 RMSDP=7.26D-05 MaxDP=6.90D-03 DE=-4.71D-02 OVMax= 1.72D-02

 Cycle   7  Pass 0  IDiag  1:
 RMSU=  6.83D-05    CP:  1.00D+00  6.84D-01  7.79D-01  2.67D-01  9.36D-01
                    CP:  1.08D+00
 E= -1507.85224708069     Delta-E=       -0.000689395123 Rises=F Damp=F
 DIIS: error= 2.77D-04 at cycle   7 NSaved=   7.
 NSaved= 7 IEnMin= 7 EnMin= -1507.85224708069     IErMin= 7 ErrMin= 2.77D-04
 ErrMax= 2.77D-04  0.00D+00 EMaxC= 1.00D-01 BMatC= 2.21D-04 BMatP= 7.91D-04
 IDIUse=3 WtCom= 9.97D-01 WtEn= 2.77D-03
 Coeff-Com: -0.895D-03 0.728D-03-0.148D-01-0.279D-02-0.162D-01 0.348D+00
 Coeff-Com:  0.686D+00
 Coeff-En:   0.000D+00 0.000D+00 0.000D+00 0.000D+00 0.000D+00 0.678D-01
 Coeff-En:   0.932D+00
 Coeff:     -0.893D-03 0.726D-03-0.148D-01-0.279D-02-0.162D-01 0.348D+00
 Coeff:      0.686D+00
 Gap=     0.133 Goal=   None    Shift=    0.000
 RMSDP=3.74D-05 MaxDP=2.98D-03 DE=-6.89D-04 OVMax= 7.32D-03

 Cycle   8  Pass 0  IDiag  1:
 RMSU=  3.06D-05    CP:  1.00D+00  6.82D-01  7.82D-01  2.69D-01  9.39D-01
                    CP:  1.19D+00  1.10D+00
 E= -1507.85244535660     Delta-E=       -0.000198275907 Rises=F Damp=F
 DIIS: error= 8.21D-05 at cycle   8 NSaved=   8.
 NSaved= 8 IEnMin= 8 EnMin= -1507.85244535660     IErMin= 8 ErrMin= 8.21D-05
 ErrMax= 8.21D-05  0.00D+00 EMaxC= 1.00D-01 BMatC= 2.49D-05 BMatP= 2.21D-04
 IDIUse=1 WtCom= 1.00D+00 WtEn= 0.00D+00
 Coeff-Com: -0.465D-03 0.273D-03-0.146D-01 0.239D-02-0.295D-01 0.136D+00
 Coeff-Com:  0.317D+00 0.589D+00
 Coeff:     -0.465D-03 0.273D-03-0.146D-01 0.239D-02-0.295D-01 0.136D+00
 Coeff:      0.317D+00 0.589D+00
 Gap=     0.132 Goal=   None    Shift=    0.000
 RMSDP=1.57D-05 MaxDP=1.66D-03 DE=-1.98D-04 OVMax= 2.56D-03

 Cycle   9  Pass 0  IDiag  1:
 RMSU=  1.17D-05    CP:  1.00D+00  6.82D-01  7.82D-01  2.73D-01  9.39D-01
                    CP:  1.22D+00  1.18D+00  1.15D+00
 E= -1507.85246164286     Delta-E=       -0.000016286263 Rises=F Damp=F
 DIIS: error= 8.40D-05 at cycle   9 NSaved=   9.
 NSaved= 9 IEnMin= 9 EnMin= -1507.85246164286     IErMin= 8 ErrMin= 8.21D-05
 ErrMax= 8.40D-05  0.00D+00 EMaxC= 1.00D-01 BMatC= 9.18D-06 BMatP= 2.49D-05
 IDIUse=1 WtCom= 1.00D+00 WtEn= 0.00D+00
 Coeff-Com: -0.240D-03 0.311D-03-0.682D-02 0.178D-02-0.744D-02 0.618D-02
 Coeff-Com: -0.321D-01 0.180D+00 0.858D+00
 Coeff:     -0.240D-03 0.311D-03-0.682D-02 0.178D-02-0.744D-02 0.618D-02
 Coeff:     -0.321D-01 0.180D+00 0.858D+00
 Gap=     0.132 Goal=   None    Shift=    0.000
 RMSDP=1.86D-05 MaxDP=2.81D-03 DE=-1.63D-05 OVMax= 1.40D-03

 Cycle  10  Pass 0  IDiag  1:
 RMSU=  1.24D-05    CP:  1.00D+00  6.84D-01  7.82D-01  2.76D-01  9.44D-01
                    CP:  1.25D+00  1.20D+00  1.33D+00  1.83D+00
 E= -1507.85246682023     Delta-E=       -0.000005177373 Rises=F Damp=F
 DIIS: error= 3.17D-05 at cycle  10 NSaved=  10.
 NSaved=10 IEnMin=10 EnMin= -1507.85246682023     IErMin=10 ErrMin= 3.17D-05
 ErrMax= 3.17D-05  0.00D+00 EMaxC= 1.00D-01 BMatC= 2.57D-06 BMatP= 9.18D-06
 IDIUse=1 WtCom= 1.00D+00 WtEn= 0.00D+00
 Coeff-Com: -0.175D-03 0.306D-03-0.307D-02 0.807D-03 0.838D-04-0.108D-01
 Coeff-Com: -0.732D-01-0.395D-02 0.475D+00 0.615D+00
 Coeff:     -0.175D-03 0.306D-03-0.307D-02 0.807D-03 0.838D-04-0.108D-01
 Coeff:     -0.732D-01-0.395D-02 0.475D+00 0.615D+00
 Gap=     0.131 Goal=   None    Shift=    0.000
 RMSDP=1.83D-05 MaxDP=2.94D-03 DE=-5.18D-06 OVMax= 4.75D-04

 Cycle  11  Pass 0  IDiag  1:
 RMSU=  6.34D-06    CP:  1.00D+00  6.85D-01  7.82D-01  2.77D-01  9.47D-01
                    CP:  1.27D+00  1.21D+00  1.48D+00  2.78D+00  1.92D+00
 E= -1507.85246743366     Delta-E=       -0.000000613427 Rises=F Damp=F
 DIIS: error= 1.71D-05 at cycle  11 NSaved=  11.
 NSaved=11 IEnMin=11 EnMin= -1507.85246743366     IErMin=11 ErrMin= 1.71D-05
 ErrMax= 1.71D-05  0.00D+00 EMaxC= 1.00D-01 BMatC= 6.44D-07 BMatP= 2.57D-06
 IDIUse=1 WtCom= 1.00D+00 WtEn= 0.00D+00
 Coeff-Com: -0.123D-03 0.218D-03-0.188D-02 0.525D-03 0.207D-03-0.443D-02
 Coeff-Com: -0.431D-01-0.146D-01 0.227D+00 0.384D+00 0.453D+00
 Coeff:     -0.123D-03 0.218D-03-0.188D-02 0.525D-03 0.207D-03-0.443D-02
 Coeff:     -0.431D-01-0.146D-01 0.227D+00 0.384D+00 0.453D+00
 Gap=     0.131 Goal=   None    Shift=    0.000
 RMSDP=1.96D-05 MaxDP=3.16D-03 DE=-6.13D-07 OVMax= 1.26D-04

 Cycle  12  Pass 0  IDiag  1:
 RMSU=  9.28D-06    CP:  1.00D+00  6.86D-01  7.83D-01  2.78D-01  9.48D-01
                    CP:  1.28D+00  1.22D+00  1.62D+00  3.00D+00  2.94D+00
                    CP:  2.21D+00
 E= -1507.85246549012     Delta-E=        0.000001943542 Rises=F Damp=F
 DIIS: error= 2.58D-05 at cycle  12 NSaved=  12.
 NSaved=12 IEnMin=11 EnMin= -1507.85246743366     IErMin=11 ErrMin= 1.71D-05
 ErrMax= 2.58D-05  0.00D+00 EMaxC= 1.00D-01 BMatC= 6.74D-07 BMatP= 6.44D-07
 IDIUse=1 WtCom= 1.00D+00 WtEn= 0.00D+00
 Coeff-Com: -0.137D-03 0.267D-03-0.156D-02 0.477D-03 0.111D-02-0.479D-02
 Coeff-Com: -0.485D-01-0.447D-01 0.148D+00 0.485D+00 0.148D+01-0.102D+01
 Coeff:     -0.137D-03 0.267D-03-0.156D-02 0.477D-03 0.111D-02-0.479D-02
 Coeff:     -0.485D-01-0.447D-01 0.148D+00 0.485D+00 0.148D+01-0.102D+01
 Gap=     0.131 Goal=   None    Shift=    0.000
 RMSDP=3.44D-05 MaxDP=5.39D-03 DE= 1.94D-06 OVMax= 7.22D-05

 Cycle  13  Pass 0  IDiag  1:
 RMSU=  6.76D-06    CP:  1.00D+00  6.85D-01  7.81D-01  2.77D-01  9.46D-01
                    CP:  1.27D+00  1.20D+00  1.40D+00  2.15D+00  1.25D+00
                    CP: -1.84D-01 -2.29D-01
 E= -1507.85246831569     Delta-E=       -0.000002825574 Rises=F Damp=F
 DIIS: error= 1.35D-05 at cycle  13 NSaved=  13.
 NSaved=13 IEnMin=13 EnMin= -1507.85246831569     IErMin=13 ErrMin= 1.35D-05
 ErrMax= 1.35D-05  0.00D+00 EMaxC= 1.00D-01 BMatC= 2.75D-07 BMatP= 6.44D-07
 IDIUse=1 WtCom= 1.00D+00 WtEn= 0.00D+00
 Coeff-Com: -0.599D-04 0.114D-03-0.395D-03 0.199D-03 0.838D-03 0.112D-02
 Coeff-Com: -0.153D-01-0.368D-01-0.543D-01 0.171D+00 0.117D+01-0.104D+01
 Coeff-Com:  0.813D+00
 Coeff:     -0.599D-04 0.114D-03-0.395D-03 0.199D-03 0.838D-03 0.112D-02
 Coeff:     -0.153D-01-0.368D-01-0.543D-01 0.171D+00 0.117D+01-0.104D+01
 Coeff:      0.813D+00
 Gap=     0.131 Goal=   None    Shift=    0.000
 RMSDP=1.26D-05 MaxDP=1.55D-03 DE=-2.83D-06 OVMax= 1.11D-04

 Cycle  14  Pass 0  IDiag  1:
 RMSU=  6.56D-06    CP:  1.00D+00  6.85D-01  7.80D-01  2.78D-01  9.45D-01
                    CP:  1.27D+00  1.19D+00  1.36D+00  1.85D+00  8.52D-01
                    CP: -7.63D-01 -4.88D-01  2.10D+00
 E= -1507.85247204584     Delta-E=       -0.000003730150 Rises=F Damp=F
 DIIS: error= 1.89D-05 at cycle  14 NSaved=  14.
 NSaved=14 IEnMin=14 EnMin= -1507.85247204584     IErMin=13 ErrMin= 1.35D-05
 ErrMax= 1.89D-05  0.00D+00 EMaxC= 1.00D-01 BMatC= 1.41D-07 BMatP= 2.75D-07
 IDIUse=1 WtCom= 1.00D+00 WtEn= 0.00D+00
 Coeff-Com: -0.616D-04 0.116D-03-0.389D-03 0.204D-03 0.904D-03 0.118D-02
 Coeff-Com: -0.159D-01-0.394D-01-0.612D-01 0.178D+00 0.124D+01-0.112D+01
 Coeff-Com:  0.886D+00-0.757D-01
 Coeff:     -0.616D-04 0.116D-03-0.389D-03 0.204D-03 0.904D-03 0.118D-02
 Coeff:     -0.159D-01-0.394D-01-0.612D-01 0.178D+00 0.124D+01-0.112D+01
 Coeff:      0.886D+00-0.757D-01
 Gap=     0.131 Goal=   None    Shift=    0.000
 RMSDP=1.74D-06 MaxDP=1.72D-04 DE=-3.73D-06 OVMax= 4.89D-06

 Initial convergence to 1.0D-05 achieved.  Increase integral accuracy.
 Cycle  15  Pass 1  IDiag  1:
 E= -1507.85238415500     Delta-E=        0.000087890843 Rises=F Damp=F
 DIIS: error= 4.53D-04 at cycle   1 NSaved=   1.
 NSaved= 1 IEnMin= 1 EnMin= -1507.85238415500     IErMin= 1 ErrMin= 4.53D-04
 ErrMax= 4.53D-04  0.00D+00 EMaxC= 1.00D-01 BMatC= 9.60D-05 BMatP= 9.60D-05
 IDIUse=3 WtCom= 9.95D-01 WtEn= 4.53D-03
 Coeff-Com:  0.100D+01
 Coeff-En:   0.100D+01
 Coeff:      0.100D+01
 Gap=     0.131 Goal=   None    Shift=    0.000
 RMSDP=1.74D-06 MaxDP=1.72D-04 DE= 8.79D-05 OVMax= 1.11D-03

 Cycle  16  Pass 1  IDiag  1:
 RMSU=  5.55D-04    CP:  9.90D-01
 E= -1507.85244625793     Delta-E=       -0.000062102928 Rises=F Damp=F
 DIIS: error= 8.90D-06 at cycle   2 NSaved=   2.
 NSaved= 2 IEnMin= 2 EnMin= -1507.85244625793     IErMin= 2 ErrMin= 8.90D-06
 ErrMax= 8.90D-06  0.00D+00 EMaxC= 1.00D-01 BMatC= 1.27D-07 BMatP= 9.60D-05
 IDIUse=1 WtCom= 1.00D+00 WtEn= 0.00D+00
 Coeff-Com: -0.155D-01 0.102D+01
 Coeff:     -0.155D-01 0.102D+01
 Gap=     0.131 Goal=   None    Shift=    0.000
 RMSDP=1.98D-05 MaxDP=1.84D-03 DE=-6.21D-05 OVMax= 5.31D-04

 Cycle  17  Pass 1  IDiag  1:
 RMSU=  6.79D-06    CP:  9.90D-01  1.03D+00
 E= -1507.85244615700     Delta-E=        0.000000100929 Rises=F Damp=F
 DIIS: error= 1.00D-05 at cycle   3 NSaved=   3.
 NSaved= 3 IEnMin= 2 EnMin= -1507.85244625793     IErMin= 2 ErrMin= 8.90D-06
 ErrMax= 1.00D-05  0.00D+00 EMaxC= 1.00D-01 BMatC= 2.39D-07 BMatP= 1.27D-07
 IDIUse=1 WtCom= 1.00D+00 WtEn= 0.00D+00
 Coeff-Com: -0.104D-01 0.621D+00 0.389D+00
 Coeff:     -0.104D-01 0.621D+00 0.389D+00
 Gap=     0.131 Goal=   None    Shift=    0.000
 RMSDP=9.92D-07 MaxDP=7.00D-05 DE= 1.01D-07 OVMax= 3.74D-04

 Cycle  18  Pass 1  IDiag  1:
 RMSU=  9.60D-07    CP:  9.90D-01  1.03D+00  1.01D+00
 E= -1507.85244641495     Delta-E=       -0.000000257950 Rises=F Damp=F
 DIIS: error= 1.48D-06 at cycle   4 NSaved=   4.
 NSaved= 4 IEnMin= 4 EnMin= -1507.85244641495     IErMin= 4 ErrMin= 1.48D-06
 ErrMax= 1.48D-06  0.00D+00 EMaxC= 1.00D-01 BMatC= 4.25D-09 BMatP= 1.27D-07
 IDIUse=1 WtCom= 1.00D+00 WtEn= 0.00D+00
 Coeff-Com: -0.186D-02 0.101D+00 0.131D+00 0.770D+00
 Coeff:     -0.186D-02 0.101D+00 0.131D+00 0.770D+00
 Gap=     0.131 Goal=   None    Shift=    0.000
 RMSDP=4.17D-07 MaxDP=4.51D-05 DE=-2.58D-07 OVMax= 6.24D-05

 Cycle  19  Pass 1  IDiag  1:
 RMSU=  1.96D-07    CP:  9.90D-01  1.03D+00  1.05D+00  9.38D-01
 E= -1507.85244641822     Delta-E=       -0.000000003271 Rises=F Damp=F
 DIIS: error= 7.63D-07 at cycle   5 NSaved=   5.
 NSaved= 5 IEnMin= 5 EnMin= -1507.85244641822     IErMin= 5 ErrMin= 7.63D-07
 ErrMax= 7.63D-07  0.00D+00 EMaxC= 1.00D-01 BMatC= 2.04D-09 BMatP= 4.25D-09
 IDIUse=1 WtCom= 1.00D+00 WtEn= 0.00D+00
 Coeff-Com:  0.207D-03-0.185D-01 0.289D-01 0.473D+00 0.517D+00
 Coeff:      0.207D-03-0.185D-01 0.289D-01 0.473D+00 0.517D+00
 Gap=     0.131 Goal=   None    Shift=    0.000
 RMSDP=1.37D-07 MaxDP=1.57D-05 DE=-3.27D-09 OVMax= 1.34D-05

 Cycle  20  Pass 1  IDiag  1:
 RMSU=  8.61D-08    CP:  9.90D-01  1.03D+00  1.06D+00  9.74D-01  9.73D-01
 E= -1507.85244641997     Delta-E=       -0.000000001755 Rises=F Damp=F
 DIIS: error= 1.39D-07 at cycle   6 NSaved=   6.
 NSaved= 6 IEnMin= 6 EnMin= -1507.85244641997     IErMin= 6 ErrMin= 1.39D-07
 ErrMax= 1.39D-07  0.00D+00 EMaxC= 1.00D-01 BMatC= 8.40D-11 BMatP= 2.04D-09
 IDIUse=1 WtCom= 1.00D+00 WtEn= 0.00D+00
 Coeff-Com:  0.234D-03-0.162D-01 0.173D-02 0.166D+00 0.240D+00 0.608D+00
 Coeff:      0.234D-03-0.162D-01 0.173D-02 0.166D+00 0.240D+00 0.608D+00
 Gap=     0.131 Goal=   None    Shift=    0.000
 RMSDP=2.66D-08 MaxDP=1.86D-06 DE=-1.75D-09 OVMax= 3.63D-06

 Cycle  21  Pass 1  IDiag  1:
 RMSU=  1.87D-08    CP:  9.90D-01  1.03D+00  1.06D+00  9.76D-01  1.04D+00
                    CP:  1.02D+00
 E= -1507.85244642005     Delta-E=       -0.000000000071 Rises=F Damp=F
 DIIS: error= 5.94D-08 at cycle   7 NSaved=   7.
 NSaved= 7 IEnMin= 7 EnMin= -1507.85244642005     IErMin= 7 ErrMin= 5.94D-08
 ErrMax= 5.94D-08  0.00D+00 EMaxC= 1.00D-01 BMatC= 1.01D-11 BMatP= 8.40D-11
 IDIUse=1 WtCom= 1.00D+00 WtEn= 0.00D+00
 Coeff-Com:  0.483D-04-0.266D-02-0.562D-02-0.148D-01-0.465D-02 0.220D+00
 Coeff-Com:  0.808D+00
 Coeff:      0.483D-04-0.266D-02-0.562D-02-0.148D-01-0.465D-02 0.220D+00
 Coeff:      0.808D+00
 Gap=     0.131 Goal=   None    Shift=    0.000
 RMSDP=1.32D-08 MaxDP=1.07D-06 DE=-7.14D-11 OVMax= 2.86D-06

 Cycle  22  Pass 1  IDiag  1:
 RMSU=  7.83D-09    CP:  9.90D-01  1.03D+00  1.06D+00  9.79D-01  1.08D+00
                    CP:  1.09D+00  1.21D+00
 E= -1507.85244642007     Delta-E=       -0.000000000022 Rises=F Damp=F
 DIIS: error= 2.83D-08 at cycle   8 NSaved=   8.
 NSaved= 8 IEnMin= 8 EnMin= -1507.85244642007     IErMin= 8 ErrMin= 2.83D-08
 ErrMax= 2.83D-08  0.00D+00 EMaxC= 1.00D-01 BMatC= 2.33D-12 BMatP= 1.01D-11
 IDIUse=1 WtCom= 1.00D+00 WtEn= 0.00D+00
 Coeff-Com: -0.213D-04 0.177D-02-0.352D-02-0.347D-01-0.495D-01-0.112D-01
 Coeff-Com:  0.360D+00 0.737D+00
 Coeff:     -0.213D-04 0.177D-02-0.352D-02-0.347D-01-0.495D-01-0.112D-01
 Coeff:      0.360D+00 0.737D+00
 Gap=     0.131 Goal=   None    Shift=    0.000
 RMSDP=6.00D-09 MaxDP=4.75D-07 DE=-2.23D-11 OVMax= 1.40D-06

 SCF Done:  E(RM062X) =  -1507.85244642     A.U. after   22 cycles
            NFock= 22  Conv=0.60D-08     -V/T= 2.0041
 KE= 1.501756788332D+03 PE=-8.416886385493D+03 EE= 2.967805023874D+03
 Leave Link  502 at Sun Feb 19 04:43:02 2023, MaxMem=  2684354560 cpu:            8987.5 elap:             562.4
 (Enter /storage/apps/GAUSSIAN/G16_RevA03/g16/l601.exe)
 Copying SCF densities to generalized density rwf, IOpCl= 0 IROHF=0.

 **********************************************************************

            Population analysis using the SCF density.

 **********************************************************************

 Alpha  occ. eigenvalues --  -89.85770 -19.66631 -19.64555 -19.61346 -19.61145
 Alpha  occ. eigenvalues --  -19.56081 -14.86216 -14.79291 -10.66995 -10.65765
 Alpha  occ. eigenvalues --  -10.63811 -10.62695 -10.61875 -10.61148 -10.60911
 Alpha  occ. eigenvalues --  -10.60061 -10.59292 -10.58679 -10.58599 -10.55507
 Alpha  occ. eigenvalues --  -10.52102 -10.51975 -10.51358 -10.49106  -8.21650
 Alpha  occ. eigenvalues --   -6.13606  -6.13389  -6.13139  -1.22485  -1.18652
 Alpha  occ. eigenvalues --   -1.16919  -1.14547  -1.13532  -1.09270  -1.04111
 Alpha  occ. eigenvalues --   -0.96866  -0.92019  -0.90110  -0.88189  -0.86570
 Alpha  occ. eigenvalues --   -0.83756  -0.81256  -0.79575  -0.77726  -0.75855
 Alpha  occ. eigenvalues --   -0.72578  -0.70483  -0.70124  -0.69106  -0.66774
 Alpha  occ. eigenvalues --   -0.64930  -0.64671  -0.63082  -0.61735  -0.61510
 Alpha  occ. eigenvalues --   -0.60019  -0.57175  -0.56838  -0.56107  -0.55544
 Alpha  occ. eigenvalues --   -0.54472  -0.53909  -0.52309  -0.51984  -0.51507
 Alpha  occ. eigenvalues --   -0.50677  -0.49997  -0.49714  -0.49470  -0.48870
 Alpha  occ. eigenvalues --   -0.48311  -0.47839  -0.47703  -0.46582  -0.45847
 Alpha  occ. eigenvalues --   -0.45247  -0.44743  -0.43502  -0.42584  -0.42357
 Alpha  occ. eigenvalues --   -0.41502  -0.39711  -0.39286  -0.38320  -0.37163
 Alpha  occ. eigenvalues --   -0.36801  -0.36588  -0.36349  -0.35643  -0.35153
 Alpha  occ. eigenvalues --   -0.34731  -0.34035  -0.27790  -0.26504  -0.19620
 Alpha virt. eigenvalues --   -0.06488  -0.03684   0.03308   0.03874   0.05020
 Alpha virt. eigenvalues --    0.05285   0.07018   0.07246   0.08225   0.08772
 Alpha virt. eigenvalues --    0.09211   0.09457   0.09991   0.10482   0.10922
 Alpha virt. eigenvalues --    0.11690   0.11817   0.12756   0.13319   0.13493
 Alpha virt. eigenvalues --    0.14080   0.14441   0.14490   0.14907   0.15410
 Alpha virt. eigenvalues --    0.16051   0.16569   0.16953   0.17141   0.17743
 Alpha virt. eigenvalues --    0.18015   0.19008   0.19125   0.19443   0.19669
 Alpha virt. eigenvalues --    0.20069   0.20881   0.21030   0.21766   0.22275
 Alpha virt. eigenvalues --    0.22646   0.22893   0.23716   0.23916   0.24596
 Alpha virt. eigenvalues --    0.25083   0.25496   0.25918   0.26422   0.26601
 Alpha virt. eigenvalues --    0.26766   0.27204   0.27691   0.28122   0.28925
 Alpha virt. eigenvalues --    0.29236   0.29943   0.30410   0.30550   0.31130
 Alpha virt. eigenvalues --    0.31536   0.31957   0.32699   0.32836   0.32961
 Alpha virt. eigenvalues --    0.33519   0.33550   0.34207   0.34974   0.35569
 Alpha virt. eigenvalues --    0.36644   0.37400   0.37650   0.37987   0.38337
 Alpha virt. eigenvalues --    0.38755   0.39027   0.39176   0.39619   0.40167
 Alpha virt. eigenvalues --    0.40496   0.40636   0.40732   0.41162   0.41518
 Alpha virt. eigenvalues --    0.42177   0.42350   0.42845   0.43280   0.43890
 Alpha virt. eigenvalues --    0.43926   0.44660   0.44997   0.45283   0.45782
 Alpha virt. eigenvalues --    0.45873   0.46521   0.46587   0.46830   0.47307
 Alpha virt. eigenvalues --    0.47638   0.48035   0.48262   0.49034   0.49042
 Alpha virt. eigenvalues --    0.49373   0.49673   0.49906   0.50420   0.50681
 Alpha virt. eigenvalues --    0.51296   0.51436   0.52048   0.52164   0.52593
 Alpha virt. eigenvalues --    0.53135   0.53348   0.53919   0.54086   0.54710
 Alpha virt. eigenvalues --    0.55571   0.55701   0.55950   0.56452   0.56949
 Alpha virt. eigenvalues --    0.57027   0.57789   0.58260   0.58970   0.59606
 Alpha virt. eigenvalues --    0.59731   0.60530   0.60984   0.61178   0.61867
 Alpha virt. eigenvalues --    0.62272   0.62964   0.63171   0.63614   0.64623
 Alpha virt. eigenvalues --    0.65223   0.66291   0.66563   0.67111   0.67427
 Alpha virt. eigenvalues --    0.68114   0.68773   0.69050   0.69678   0.70255
 Alpha virt. eigenvalues --    0.71175   0.71400   0.71882   0.72930   0.73156
 Alpha virt. eigenvalues --    0.74756   0.75086   0.75644   0.76390   0.77523
 Alpha virt. eigenvalues --    0.78022   0.78316   0.79012   0.80382   0.81404
 Alpha virt. eigenvalues --    0.81906   0.82193   0.82758   0.83584   0.83888
 Alpha virt. eigenvalues --    0.84453   0.85215   0.85801   0.86340   0.86569
 Alpha virt. eigenvalues --    0.88266   0.88452   0.89222   0.89702   0.90029
 Alpha virt. eigenvalues --    0.90531   0.90805   0.92011   0.92325   0.92581
 Alpha virt. eigenvalues --    0.93575   0.94534   0.95504   0.95852   0.96553
 Alpha virt. eigenvalues --    0.97348   0.97597   0.97960   0.98763   0.99614
 Alpha virt. eigenvalues --    0.99927   1.00409   1.02180   1.03172   1.03914
 Alpha virt. eigenvalues --    1.04229   1.04996   1.05489   1.05646   1.06345
 Alpha virt. eigenvalues --    1.07027   1.08375   1.08757   1.09458   1.09634
 Alpha virt. eigenvalues --    1.11004   1.11382   1.11832   1.13125   1.13579
 Alpha virt. eigenvalues --    1.14498   1.14555   1.14898   1.15024   1.15810
 Alpha virt. eigenvalues --    1.16427   1.17006   1.17666   1.18624   1.19633
 Alpha virt. eigenvalues --    1.20418   1.20972   1.21622   1.22222   1.23093
 Alpha virt. eigenvalues --    1.24383   1.24752   1.25566   1.26907   1.27196
 Alpha virt. eigenvalues --    1.27264   1.29007   1.29251   1.29728   1.30815
 Alpha virt. eigenvalues --    1.31561   1.33152   1.33626   1.35048   1.35587
 Alpha virt. eigenvalues --    1.35802   1.36273   1.37807   1.37983   1.38490
 Alpha virt. eigenvalues --    1.40564   1.41434   1.41901   1.43715   1.44113
 Alpha virt. eigenvalues --    1.44906   1.46256   1.46537   1.46915   1.49660
 Alpha virt. eigenvalues --    1.49865   1.50969   1.51634   1.51977   1.52767
 Alpha virt. eigenvalues --    1.53032   1.53433   1.54884   1.55601   1.56232
 Alpha virt. eigenvalues --    1.56715   1.57096   1.57455   1.57829   1.58426
 Alpha virt. eigenvalues --    1.59548   1.59600   1.60414   1.60576   1.60778
 Alpha virt. eigenvalues --    1.61409   1.61617   1.62441   1.63049   1.63536
 Alpha virt. eigenvalues --    1.64339   1.64880   1.65516   1.66378   1.66540
 Alpha virt. eigenvalues --    1.67030   1.67607   1.68056   1.68396   1.68590
 Alpha virt. eigenvalues --    1.69125   1.69643   1.69873   1.71055   1.71516
 Alpha virt. eigenvalues --    1.72053   1.73145   1.73722   1.73870   1.74634
 Alpha virt. eigenvalues --    1.75108   1.75989   1.76327   1.76794   1.77338
 Alpha virt. eigenvalues --    1.78025   1.78491   1.79641   1.80429   1.80957
 Alpha virt. eigenvalues --    1.82108   1.82426   1.83266   1.84226   1.84567
 Alpha virt. eigenvalues --    1.85811   1.86105   1.87007   1.87520   1.87814
 Alpha virt. eigenvalues --    1.89027   1.89172   1.89600   1.90022   1.90550
 Alpha virt. eigenvalues --    1.91420   1.91763   1.92380   1.93729   1.93866
 Alpha virt. eigenvalues --    1.94072   1.94861   1.95838   1.96675   1.97100
 Alpha virt. eigenvalues --    1.97267   1.97751   1.99060   2.00289   2.00805
 Alpha virt. eigenvalues --    2.01493   2.01614   2.02230   2.03789   2.04170
 Alpha virt. eigenvalues --    2.04570   2.05509   2.07243   2.07708   2.08288
 Alpha virt. eigenvalues --    2.09049   2.09732   2.10916   2.12114   2.12449
 Alpha virt. eigenvalues --    2.13004   2.13595   2.13981   2.15164   2.15652
 Alpha virt. eigenvalues --    2.16076   2.16556   2.17764   2.18105   2.19351
 Alpha virt. eigenvalues --    2.19478   2.20003   2.20780   2.21567   2.22319
 Alpha virt. eigenvalues --    2.22630   2.22936   2.24294   2.25296   2.26111
 Alpha virt. eigenvalues --    2.26849   2.27424   2.27876   2.28488   2.29386
 Alpha virt. eigenvalues --    2.29624   2.30603   2.30909   2.31462   2.32369
 Alpha virt. eigenvalues --    2.33146   2.33651   2.33902   2.34766   2.35584
 Alpha virt. eigenvalues --    2.35993   2.37520   2.38226   2.38955   2.39259
 Alpha virt. eigenvalues --    2.40407   2.41359   2.42417   2.42733   2.44005
 Alpha virt. eigenvalues --    2.44452   2.45252   2.45919   2.46337   2.47370
 Alpha virt. eigenvalues --    2.47549   2.48485   2.49224   2.50009   2.50398
 Alpha virt. eigenvalues --    2.51777   2.52422   2.53269   2.54093   2.54803
 Alpha virt. eigenvalues --    2.55385   2.56550   2.57411   2.57793   2.58063
 Alpha virt. eigenvalues --    2.58969   2.59601   2.59794   2.60365   2.60613
 Alpha virt. eigenvalues --    2.61295   2.62062   2.62368   2.63013   2.64765
 Alpha virt. eigenvalues --    2.64880   2.66173   2.66689   2.67579   2.68116
 Alpha virt. eigenvalues --    2.68447   2.68806   2.69693   2.70464   2.70846
 Alpha virt. eigenvalues --    2.71208   2.71831   2.72019   2.72958   2.73572
 Alpha virt. eigenvalues --    2.73881   2.74647   2.75256   2.76797   2.77469
 Alpha virt. eigenvalues --    2.77995   2.78509   2.79271   2.79804   2.80383
 Alpha virt. eigenvalues --    2.81430   2.81487   2.82115   2.83269   2.84001
 Alpha virt. eigenvalues --    2.84527   2.85572   2.85682   2.86745   2.87068
 Alpha virt. eigenvalues --    2.88049   2.89575   2.90120   2.91351   2.91647
 Alpha virt. eigenvalues --    2.93419   2.93603   2.94586   2.95589   2.96098
 Alpha virt. eigenvalues --    2.96749   2.97375   2.97955   2.99061   3.00080
 Alpha virt. eigenvalues --    3.00899   3.02015   3.02477   3.02525   3.03523
 Alpha virt. eigenvalues --    3.03990   3.04659   3.05294   3.06118   3.06829
 Alpha virt. eigenvalues --    3.07803   3.08064   3.08451   3.08798   3.09022
 Alpha virt. eigenvalues --    3.10637   3.10877   3.11198   3.12017   3.12316
 Alpha virt. eigenvalues --    3.13176   3.13630   3.14308   3.15439   3.16265
 Alpha virt. eigenvalues --    3.16510   3.16741   3.17437   3.18088   3.18410
 Alpha virt. eigenvalues --    3.18760   3.18798   3.19667   3.20054   3.21170
 Alpha virt. eigenvalues --    3.21778   3.22384   3.23213   3.24298   3.24772
 Alpha virt. eigenvalues --    3.25481   3.26771   3.26987   3.27573   3.28071
 Alpha virt. eigenvalues --    3.29167   3.29389   3.29724   3.30413   3.30844
 Alpha virt. eigenvalues --    3.31383   3.31930   3.32285   3.33290   3.33618
 Alpha virt. eigenvalues --    3.33856   3.34936   3.35432   3.36398   3.37111
 Alpha virt. eigenvalues --    3.37268   3.38246   3.38548   3.39341   3.40298
 Alpha virt. eigenvalues --    3.40752   3.40926   3.41532   3.41750   3.42642
 Alpha virt. eigenvalues --    3.43521   3.43874   3.44349   3.45133   3.46267
 Alpha virt. eigenvalues --    3.47007   3.47206   3.47442   3.48665   3.49065
 Alpha virt. eigenvalues --    3.49400   3.50536   3.50681   3.51438   3.52037
 Alpha virt. eigenvalues --    3.52799   3.53712   3.54355   3.54554   3.55223
 Alpha virt. eigenvalues --    3.56376   3.57093   3.57879   3.58899   3.60017
 Alpha virt. eigenvalues --    3.60375   3.61458   3.62643   3.63373   3.63878
 Alpha virt. eigenvalues --    3.65233   3.66836   3.67504   3.69103   3.70759
 Alpha virt. eigenvalues --    3.71318   3.71825   3.72286   3.73515   3.74141
 Alpha virt. eigenvalues --    3.74982   3.75083   3.76234   3.76385   3.77059
 Alpha virt. eigenvalues --    3.78534   3.79939   3.81722   3.82118   3.83558
 Alpha virt. eigenvalues --    3.83830   3.85227   3.86177   3.86995   3.89234
 Alpha virt. eigenvalues --    3.89935   3.89963   3.91248   3.92125   3.93240
 Alpha virt. eigenvalues --    3.94514   3.95501   3.95902   3.97103   3.98793
 Alpha virt. eigenvalues --    3.99412   4.01419   4.02980   4.04449   4.06286
 Alpha virt. eigenvalues --    4.07332   4.08966   4.09270   4.09607   4.10277
 Alpha virt. eigenvalues --    4.11787   4.12651   4.13608   4.15105   4.17566
 Alpha virt. eigenvalues --    4.18695   4.18944   4.21637   4.24106   4.25481
 Alpha virt. eigenvalues --    4.26606   4.27052   4.27806   4.28152   4.30017
 Alpha virt. eigenvalues --    4.30687   4.31621   4.32647   4.34792   4.34948
 Alpha virt. eigenvalues --    4.37002   4.38113   4.38694   4.39370   4.40927
 Alpha virt. eigenvalues --    4.42729   4.43387   4.43908   4.45281   4.48401
 Alpha virt. eigenvalues --    4.49956   4.51407   4.54018   4.55023   4.55890
 Alpha virt. eigenvalues --    4.59196   4.62409   4.63355   4.64889   4.66934
 Alpha virt. eigenvalues --    4.69695   4.72339   4.72930   4.73479   4.75534
 Alpha virt. eigenvalues --    4.75914   4.77192   4.79158   4.79803   4.81357
 Alpha virt. eigenvalues --    4.82691   4.85829   4.87376   4.90969   4.91295
 Alpha virt. eigenvalues --    4.92237   4.93280   4.95354   4.97012   4.97909
 Alpha virt. eigenvalues --    4.98021   5.01218   5.02320   5.03705   5.05370
 Alpha virt. eigenvalues --    5.09343   5.11032   5.13405   5.16313   5.19649
 Alpha virt. eigenvalues --    5.20691   5.22782   5.26246   5.27028   5.28398
 Alpha virt. eigenvalues --    5.29059   5.29839   5.30970   5.33765   5.34508
 Alpha virt. eigenvalues --    5.37235   5.40865   5.41072   5.42863   5.44539
 Alpha virt. eigenvalues --    5.46950   5.48694   5.52907   5.55869   5.60139
 Alpha virt. eigenvalues --    5.62474   5.66458   5.72335   5.74373   5.76214
 Alpha virt. eigenvalues --    5.78482   5.79748   5.83169   5.83760   5.86526
 Alpha virt. eigenvalues --    5.87396   5.88190   5.90735   5.91671   5.93586
 Alpha virt. eigenvalues --    6.00572   6.03574   6.05534   6.16470   6.18263
 Alpha virt. eigenvalues --    6.21044   6.22638   6.26528   6.30667   6.36334
 Alpha virt. eigenvalues --    6.36830   6.42474   6.47419   6.52169   6.52741
 Alpha virt. eigenvalues --    6.57984   6.64294   6.68662   6.72498   6.76228
 Alpha virt. eigenvalues --    6.76522   6.79409   6.83400   6.84231   6.86029
 Alpha virt. eigenvalues --    6.90810   6.93952   6.98201   7.04261   7.08426
 Alpha virt. eigenvalues --    7.08511   7.10455   7.11444   7.15322   7.22654
 Alpha virt. eigenvalues --    7.27646   7.33646   9.03472   9.42508   9.55029
 Alpha virt. eigenvalues --   19.74900  22.31840  22.41012  22.48510  22.57009
 Alpha virt. eigenvalues --   22.63661  22.66310  22.71144  22.74986  22.77231
 Alpha virt. eigenvalues --   22.87210  22.88948  23.00338  23.01136  23.10010
 Alpha virt. eigenvalues --   23.23214  23.51896  32.13761  33.15710  44.15975
 Alpha virt. eigenvalues --   44.19563  44.24035  44.29830  44.54706
          Condensed to atoms (all electrons):
               1          2          3          4          5          6
     1  C    5.109987   0.421078   0.415626  -0.021778   0.000133  -0.000133
     2  H    0.421078   0.508657  -0.022203  -0.001597   0.000412  -0.000005
     3  H    0.415626  -0.022203   0.531310   0.001578  -0.000026  -0.000004
     4  C   -0.021778  -0.001597   0.001578   5.679909   0.470027   0.270374
     5  H    0.000133   0.000412  -0.000026   0.470027   0.575845  -0.032573
     6  O   -0.000133  -0.000005  -0.000004   0.270374  -0.032573   8.047221
     7  H   -0.000031  -0.000006   0.000004  -0.052886  -0.005743   0.276351
     8  C    0.015980   0.013525  -0.009851  -0.216112  -0.086014  -0.057600
     9  H    0.013347   0.000049  -0.002466  -0.135340   0.003753   0.002999
    10  O    0.007377  -0.000360   0.000348  -0.050704   0.002172   0.000386
    11  H   -0.000684  -0.000191   0.000490   0.013660  -0.000892  -0.000538
    12  C   -0.002152   0.000125   0.001046  -0.108621  -0.064648  -0.010840
    13  H    0.000229   0.000044   0.000092  -0.104015   0.006900   0.003548
    14  C    0.170545  -0.048441  -0.039286   0.182050   0.021268   0.009206
    15  H   -0.068204  -0.006741  -0.004041  -0.012051   0.000049   0.000088
    16  O   -0.029200   0.000485   0.004907  -0.078897  -0.001335   0.005879
    17  N   -0.000052  -0.000088  -0.000030   0.034143  -0.016759  -0.005847
    18  C   -0.001520  -0.000032   0.000030  -0.000770  -0.008904   0.005425
    19  H    0.000067  -0.000031   0.000021  -0.007768   0.001015   0.000581
    20  C   -0.000002   0.000004  -0.000002   0.001890   0.008057  -0.002733
    21  H    0.000004   0.000000  -0.000000  -0.000090   0.000199  -0.000046
    22  C   -0.000019  -0.000001   0.000000   0.002568  -0.000899   0.000344
    23  H   -0.000000   0.000000  -0.000000   0.000035  -0.000002   0.000001
    24  H    0.000000  -0.000000  -0.000000  -0.000361  -0.000052  -0.000001
    25  C   -0.000061  -0.000006   0.000001  -0.007153  -0.000078  -0.000917
    26  C   -0.000452   0.000040  -0.000003   0.028746  -0.002039  -0.004048
    27  H   -0.000023   0.000001  -0.000000   0.001376  -0.000088   0.000160
    28  C    0.000000  -0.000000  -0.000000  -0.000021   0.000008  -0.000013
    29  O   -0.000000   0.000000  -0.000000  -0.000002  -0.000000  -0.000000
    30  N   -0.000000  -0.000000   0.000000  -0.000000  -0.000000  -0.000000
    31  H   -0.000000   0.000000   0.000000   0.000000   0.000000  -0.000000
    32  H    0.000000   0.000000  -0.000000   0.000001   0.000000   0.000000
    33  C    0.000001  -0.000000   0.000000  -0.000016  -0.000387  -0.014142
    34  C    0.000001  -0.000000  -0.000000   0.002047   0.000181   0.001621
    35  C    0.000000   0.000000  -0.000000   0.000590   0.000115   0.000408
    36  C   -0.000000   0.000000   0.000000   0.000002   0.000000   0.000001
    37  C   -0.000000   0.000000   0.000000   0.000278   0.000019   0.000075
    38  O   -0.000000   0.000000  -0.000000  -0.004189  -0.000065  -0.041929
    39  S   -0.000000  -0.000000   0.000000   0.000160   0.000027   0.000713
    40  H   -0.000000   0.000000  -0.000000   0.000157   0.000026   0.000331
    41  H   -0.000002   0.000000  -0.000000  -0.003097   0.000501   0.013331
    42  H    0.000000   0.000000  -0.000000  -0.000000   0.000000  -0.000000
    43  H    0.000000   0.000000  -0.000000   0.000000  -0.000000  -0.000000
    44  H    0.000000   0.000000  -0.000000  -0.000000  -0.000000  -0.000000
    45  H   -0.000000   0.000000   0.000000   0.000041   0.000003   0.000025
    46  H    0.000000  -0.000000  -0.000000  -0.000050  -0.000001   0.000006
    47  H    0.380263  -0.022967  -0.023940   0.003877  -0.000682   0.000052
    48  H    0.000000   0.000000  -0.000000   0.000099   0.000003   0.000388
               7          8          9         10         11         12
     1  C   -0.000031   0.015980   0.013347   0.007377  -0.000684  -0.002152
     2  H   -0.000006   0.013525   0.000049  -0.000360  -0.000191   0.000125
     3  H    0.000004  -0.009851  -0.002466   0.000348   0.000490   0.001046
     4  C   -0.052886  -0.216112  -0.135340  -0.050704   0.013660  -0.108621
     5  H   -0.005743  -0.086014   0.003753   0.002172  -0.000892  -0.064648
     6  O    0.276351  -0.057600   0.002999   0.000386  -0.000538  -0.010840
     7  H    0.383332   0.002705  -0.000853  -0.001023   0.000227   0.008772
     8  C    0.002705   5.639044   0.539367   0.268242  -0.038191   0.045811
     9  H   -0.000853   0.539367   0.564531  -0.056737  -0.001688   0.016546
    10  O   -0.001023   0.268242  -0.056737   8.027403   0.286872  -0.010920
    11  H    0.000227  -0.038191  -0.001688   0.286872   0.425913  -0.003071
    12  C    0.008772   0.045811   0.016546  -0.010920  -0.003071   5.608904
    13  H   -0.002456   0.016494   0.002819   0.016673  -0.001538   0.463433
    14  C    0.000275   0.004304  -0.115358  -0.048769  -0.004310  -0.120001
    15  H    0.000081  -0.037508   0.010475  -0.006840   0.005211  -0.001700
    16  O    0.000881  -0.040140   0.004724   0.007598   0.000340   0.284200
    17  N    0.013021  -0.000408  -0.000901  -0.000519   0.000030   0.168602
    18  C   -0.002928  -0.004614  -0.000346  -0.000490   0.000023  -0.113732
    19  H    0.000570  -0.000301  -0.000035   0.000002   0.000002   0.012102
    20  C   -0.001775  -0.002320   0.000042   0.000017  -0.000002   0.028363
    21  H   -0.000013  -0.000015   0.000001   0.000000  -0.000000   0.000778
    22  C    0.000919   0.000074  -0.000008  -0.000007   0.000000  -0.023089
    23  H   -0.000013   0.000001  -0.000000  -0.000000   0.000000  -0.000115
    24  H    0.000699   0.000016  -0.000000   0.000000   0.000000   0.001650
    25  C    0.000482  -0.000377   0.000005  -0.000040  -0.000001  -0.005113
    26  C   -0.006322  -0.003159  -0.000169  -0.000900  -0.000053  -0.100223
    27  H   -0.000050  -0.000083  -0.000010  -0.000164   0.000008  -0.002909
    28  C    0.000014   0.000006   0.000000   0.000000  -0.000000   0.000328
    29  O    0.000015   0.000001   0.000000  -0.000000  -0.000000   0.000596
    30  N    0.000000  -0.000000  -0.000000  -0.000000  -0.000000   0.000015
    31  H   -0.000000  -0.000000   0.000000  -0.000000  -0.000000  -0.000005
    32  H   -0.000000  -0.000000   0.000000   0.000000  -0.000000  -0.000008
    33  C    0.003906   0.000757   0.000011  -0.000526   0.000038  -0.000366
    34  C   -0.010533  -0.000060   0.000000   0.000030  -0.000002  -0.004662
    35  C    0.002260  -0.000123  -0.000000   0.000001  -0.000000  -0.000453
[...]
      6        8           0.006535304    0.002046482   -0.005442112
      7        1          -0.003616596   -0.006496770    0.004473984
      8        6          -0.003927406   -0.011424023   -0.000684997
      9        1          -0.001116966    0.005483566   -0.003778336
     10        8           0.027461874    0.001664666   -0.005019710
     11        1          -0.025285695    0.004964702    0.008168349
     12        6          -0.002387492    0.008345206    0.004774408
     13        1          -0.001477636   -0.001998035   -0.002368497
     14        6           0.007187772   -0.000087399    0.000702160
     15        1          -0.003396808    0.002909928    0.001422478
     16        8           0.005389168   -0.005080144   -0.006631229
     17        7           0.007899111    0.000925373    0.002248240
     18        6          -0.013663701   -0.003984007   -0.002584917
     19        1          -0.001330982    0.006923185   -0.001987051
     20        6           0.007223439   -0.006085647    0.003487735
     21        1           0.003371738    0.004332449   -0.001255011
     22        6          -0.004703522   -0.000816887   -0.004934371
     23        1           0.005217117   -0.002729300    0.002892385
     24        1          -0.002100238    0.002573618    0.003864692
     25        6           0.007761643    0.000651107    0.002530778
     26        6          -0.007561110    0.005579105   -0.004863146
     27        1          -0.007175940   -0.005156436    0.002436796
     28        6           0.014767816   -0.005462068    0.017086822
     29        8          -0.004190930   -0.001835530   -0.006299058
     30        7          -0.004791225    0.002012992   -0.026170411
     31        1          -0.006807924   -0.007173483    0.007218936
     32        1           0.006410597    0.012166473    0.009380613
     33        6          -0.006186532   -0.013696778   -0.002839240
     34        6           0.005505840   -0.018700619    0.015122103
     35        6          -0.006601460    0.004883919   -0.011559068
     36        6          -0.002990245    0.004946131   -0.003577204
     37        6           0.001212986    0.002238820    0.007364185
     38        8           0.002524924    0.013359885   -0.010469530
     39       16           0.005277026    0.001694784   -0.000301535
     40        1           0.005884654    0.002926164   -0.003299010
     41        1          -0.001421793    0.005730854    0.004906341
     42        1          -0.000724694   -0.000701812    0.004417696
     43        1          -0.002602535   -0.003905812    0.003055709
     44        1           0.007137746   -0.002805089   -0.002491985
     45        1           0.003365592    0.001158978   -0.004561957
     46        1          -0.002786051   -0.006360066    0.002359617
     47        1           0.001492155   -0.004496906   -0.001170771
     48        1          -0.001818849    0.003644178   -0.004304011
 -------------------------------------------------------------------
 Cartesian Forces:  Max     0.027461874 RMS     0.006901335
 Leave Link  716 at Sun Feb 19 04:46:14 2023, MaxMem=  2684354560 cpu:               0.7 elap:               0.1
 (Enter /storage/apps/GAUSSIAN/G16_RevA03/g16/l103.exe)

 GradGradGradGradGradGradGradGradGradGradGradGradGradGradGradGradGradGrad
 Berny optimization.
 Search for a local minimum.
 Step number   1 out of a maximum of    2
 All quantities printed in internal units (Hartrees-Bohrs-Radians)
 Second derivative matrix not updated -- first step.
 ITU=  0
     Eigenvalues ---    0.00013   0.00045   0.00070   0.00113   0.00162
     Eigenvalues ---    0.00195   0.00260   0.00278   0.00398   0.00458
     Eigenvalues ---    0.00534   0.00682   0.00739   0.00831   0.00888
     Eigenvalues ---    0.01045   0.01073   0.01127   0.01321   0.01473
     Eigenvalues ---    0.01746   0.01795   0.02129   0.02268   0.02642
     Eigenvalues ---    0.02824   0.03195   0.03244   0.03586   0.03756
     Eigenvalues ---    0.04160   0.04502   0.04909   0.05032   0.05069
     Eigenvalues ---    0.05192   0.05343   0.05523   0.05839   0.05881
     Eigenvalues ---    0.06074   0.06370   0.06680   0.06685   0.06935
     Eigenvalues ---    0.07165   0.07331   0.07510   0.07909   0.08077
     Eigenvalues ---    0.08530   0.08838   0.08997   0.09185   0.10074
     Eigenvalues ---    0.10622   0.10878   0.11329   0.11924   0.12237
     Eigenvalues ---    0.12588   0.12731   0.12821   0.12977   0.13163
     Eigenvalues ---    0.13808   0.14224   0.15109   0.15743   0.15885
     Eigenvalues ---    0.16880   0.17616   0.17866   0.18334   0.19245
     Eigenvalues ---    0.20290   0.20683   0.20850   0.21587   0.22497
     Eigenvalues ---    0.24803   0.26435   0.27026   0.27775   0.28869
     Eigenvalues ---    0.32267   0.33034   0.33959   0.34004   0.36693
     Eigenvalues ---    0.37199   0.37199   0.37199   0.37199   0.39309
     Eigenvalues ---    0.42790   0.46984   0.48326   0.54448   0.58215
     Eigenvalues ---    0.58918   0.60544   0.67455   0.70303   0.71535
     Eigenvalues ---    0.78511   0.78963   0.81693   0.87091   0.87165
     Eigenvalues ---    0.88607   0.89081   0.91039   0.91911   0.92847
     Eigenvalues ---    0.93844   0.96677   0.98364   0.99955   1.01334
     Eigenvalues ---    1.03671   1.05719   1.09654   1.10015   1.11486
     Eigenvalues ---    1.15918   1.22380   1.25605   1.26496   1.27109
     Eigenvalues ---    1.31949   1.40640   1.44133   1.51789   1.70593
     Eigenvalues ---    1.75222   1.88070   2.33448
 Quadratic step=1.189D+01 exceeds max=3.000D-01 adjusted using Lamda=-3.091D-02.
 Angle between NR and scaled steps=  70.32 degrees.
 Angle between quadratic step and forces=  62.07 degrees.
 Linear search not attempted -- first point.
 Variable       Old X    -DE/DX   Delta X   Delta X   Delta X     New X
                                 (Linear)    (Quad)   (Total)
    X1        6.31540  -0.00165   0.00000  -0.02573  -0.02573   6.28967
    Y1       -6.94053   0.00838   0.00000   0.02200   0.02200  -6.91853
    Z1       -1.02865   0.00009   0.00000   0.00193   0.00193  -1.02671
    X2        6.46150  -0.00081   0.00000  -0.01541  -0.01541   6.44609
    Y2       -7.23246  -0.00018   0.00000   0.01443   0.01443  -7.21802
    Z2       -3.07921   0.00670   0.00000   0.01960   0.01960  -3.05961
    X3        8.03890  -0.00691   0.00000  -0.04592  -0.04592   7.99298
    Y3       -7.64613  -0.00140   0.00000  -0.01814  -0.01814  -7.66427
    Z3       -0.10517  -0.00311   0.00000  -0.02422  -0.02422  -0.12939
    X4        2.80973  -0.00734   0.00000   0.00269   0.00269   2.81242
    Y4       -2.55506  -0.00302   0.00000   0.00512   0.00512  -2.54994
    Z4        2.22101   0.00269   0.00000   0.00762   0.00762   2.22863
    X5        1.66238   0.00375   0.00000   0.02750   0.02750   1.68987
    Y5       -4.28794   0.00407   0.00000   0.00367   0.00367  -4.28427
    Z5        1.93860   0.00231   0.00000   0.03894   0.03894   1.97754
    X6        1.95272   0.00654   0.00000   0.05063   0.05063   2.00336
    Y6       -1.14886   0.00205   0.00000   0.01032   0.01032  -1.13854
    Z6        4.24366  -0.00544   0.00000   0.01172   0.01172   4.25538
    X7        0.59510  -0.00362   0.00000  -0.06305  -0.06305   0.53205
    Y7        0.05398  -0.00650   0.00000  -0.09865  -0.09865  -0.04466
    Z7        3.76224   0.00447   0.00000   0.07691   0.07691   3.83915
    X8        5.57091  -0.00393   0.00000   0.00058   0.00058   5.57149
    Y8       -3.45008  -0.01142   0.00000   0.00686   0.00686  -3.44322
    Z8        2.36461  -0.00068   0.00000  -0.00956  -0.00956   2.35506
    X9        5.77890  -0.00112   0.00000   0.00727   0.00727   5.78617
    Y9       -5.11868   0.00548   0.00000   0.02085   0.02085  -5.09783
    Z9        3.60334  -0.00378   0.00000  -0.02282  -0.02282   3.58052
   X10        7.07522   0.02746   0.00000   0.00406   0.00406   7.07928
   Y10       -1.44784   0.00166   0.00000   0.02020   0.02020  -1.42764
   Z10        3.19614  -0.00502   0.00000  -0.00419  -0.00419   3.19195
   X11        8.85728  -0.02529   0.00000  -0.03873  -0.03873   8.81855
   Y11       -1.80157   0.00496   0.00000   0.01954   0.01954  -1.78202
   Z11        2.74435   0.00817   0.00000   0.03235   0.03235   2.77670
   X12        2.92978  -0.00239   0.00000  -0.01089  -0.01089   2.91889
   Y12       -1.21251   0.00835   0.00000   0.00474   0.00474  -1.20777
   Z12       -0.32657   0.00477   0.00000   0.00314   0.00314  -0.32343
   X13        4.00717  -0.00148   0.00000  -0.00703  -0.00703   4.00014
   Y13        0.54892  -0.00200   0.00000  -0.00082  -0.00082   0.54810
   Z13       -0.09334  -0.00237   0.00000  -0.03056  -0.03056  -0.12390
   X14        6.10456   0.00719   0.00000   0.00711   0.00711   6.11167
   Y14       -4.13469  -0.00009   0.00000   0.01668   0.01668  -4.11800
   Z14       -0.44589   0.00070   0.00000  -0.00154  -0.00154  -0.44743
   X15        7.90479  -0.00340   0.00000  -0.01046  -0.01046   7.89433
   Y15       -3.25638   0.00291   0.00000   0.04265   0.04265  -3.21374
   Z15       -1.00439   0.00142   0.00000   0.00011   0.00011  -1.00428
   X16        4.11836   0.00539   0.00000   0.00160   0.00160   4.11995
   Y16       -2.96889  -0.00508   0.00000  -0.00036  -0.00036  -2.96925
   Z16       -1.88647  -0.00663   0.00000  -0.00784  -0.00784  -1.89432
   X17        0.50078   0.00790   0.00000  -0.01495  -0.01495   0.48583
   Y17       -0.52562   0.00093   0.00000  -0.00055  -0.00055  -0.52617
   Z17       -1.45472   0.00225   0.00000   0.01765   0.01765  -1.43707
   X18       -1.36798  -0.01366   0.00000  -0.02495  -0.02495  -1.39292
   Y18       -2.29248  -0.00398   0.00000   0.00188   0.00188  -2.29060
   Z18       -1.55666  -0.00258   0.00000   0.01042   0.01042  -1.54623
   X19       -0.94197  -0.00133   0.00000  -0.01749  -0.01749  -0.95946
   Y19       -4.13111   0.00692   0.00000   0.02258   0.02258  -4.10853
   Z19       -0.74531  -0.00199   0.00000   0.00638   0.00638  -0.73893
   X20       -3.64220   0.00722   0.00000   0.00432   0.00432  -3.63787
   Y20       -1.75050  -0.00609   0.00000  -0.01025  -0.01025  -1.76075
   Z20       -2.65203   0.00349   0.00000  -0.00802  -0.00802  -2.66005
   X21       -5.11989   0.00337   0.00000   0.01491   0.01491  -5.10498
   Y21       -3.17757   0.00433   0.00000   0.00099   0.00099  -3.17658
   Z21       -2.61776  -0.00126   0.00000  -0.02724  -0.02724  -2.64500
   X22       -4.01125  -0.00470   0.00000   0.00662   0.00662  -4.00463
   Y22        0.64296  -0.00082   0.00000  -0.01762  -0.01762   0.62534
   Z22       -3.77097  -0.00493   0.00000  -0.02023  -0.02023  -3.79120
   X23       -5.75756   0.00522   0.00000   0.02681   0.02681  -5.73076
   Y23        1.07347  -0.00273   0.00000  -0.03549  -0.03549   1.03798
   Z23       -4.77936   0.00289   0.00000  -0.02573  -0.02573  -4.80509
   X24       -5.38416  -0.00210   0.00000  -0.02630  -0.02630  -5.41046
   Y24        2.49792   0.00257   0.00000   0.01865   0.01865   2.51657
   Z24       -1.20262   0.00386   0.00000   0.05088   0.05088  -1.15174
   X25       -1.97592   0.00776   0.00000   0.00160   0.00160  -1.97432
   Y25        2.32336   0.00065   0.00000  -0.00720  -0.00720   2.31616
   Z25       -3.86854   0.00253   0.00000   0.00675   0.00675  -3.86180
   X26        0.22805  -0.00756   0.00000  -0.03192  -0.03192   0.19613
   Y26        1.75045   0.00558   0.00000  -0.00145  -0.00145   1.74899
   Z26       -2.58153  -0.00486   0.00000   0.02246   0.02246  -2.55907
   X27        1.82998  -0.00718   0.00000  -0.04856  -0.04856   1.78143
   Y27        3.05586  -0.00516   0.00000  -0.01294  -0.01294   3.04293
   Z27       -2.57646   0.00244   0.00000   0.04312   0.04312  -2.53334
   X28       -2.08226   0.01477   0.00000   0.02892   0.02892  -2.05334
   Y28        4.79677  -0.00546   0.00000  -0.01402  -0.01402   4.78274
   Z28       -5.27433   0.01709   0.00000   0.00828   0.00828  -5.26605
   X29       -0.68234  -0.00419   0.00000   0.01505   0.01505  -0.66729
   Y29        6.52198  -0.00184   0.00000  -0.00143  -0.00143   6.52054
   Z29       -4.71639  -0.00630   0.00000  -0.02069  -0.02069  -4.73708
   X30       -3.79448  -0.00479   0.00000   0.02640   0.02640  -3.76808
   Y30        4.90866   0.00201   0.00000   0.00521   0.00521   4.91387
   Z30       -7.16990  -0.02617   0.00000  -0.01648  -0.01648  -7.18637
   X31       -3.45176  -0.00681   0.00000  -0.05237  -0.05237  -3.50413
   Y31        6.38031  -0.00717   0.00000   0.01045   0.01045   6.39076
   Z31       -8.37728   0.00722   0.00000   0.00707   0.00707  -8.37021
   X32       -4.45628   0.00641   0.00000   0.04183   0.04183  -4.41446
   Y32        3.29472   0.01217   0.00000   0.02178   0.02178   3.31650
   Z32       -8.01420   0.00938   0.00000   0.01921   0.01921  -7.99500
   X33        0.91653  -0.00619   0.00000  -0.02765  -0.02765   0.88888
   Y33        4.19470  -0.01370   0.00000  -0.02514  -0.02514   4.16956
   Z33        7.33371  -0.00284   0.00000  -0.01071  -0.01071   7.32300
   X34       -2.15240   0.00551   0.00000   0.00765   0.00765  -2.14475
   Y34        4.12962  -0.01870   0.00000  -0.01326  -0.01326   4.11635
   Z34        3.02979   0.01512   0.00000   0.00450   0.00450   3.03429
   X35       -3.43659  -0.00660   0.00000  -0.01571  -0.01571  -3.45230
   Y35        5.27786   0.00488   0.00000   0.00178   0.00178   5.27965
   Z35        1.06246  -0.01156   0.00000   0.00701   0.00701   1.06948
   X36       -7.24931  -0.00299   0.00000   0.00454   0.00454  -7.24476
   Y36        6.10793   0.00495   0.00000   0.00565   0.00565   6.11358
   Z36       -1.66836  -0.00358   0.00000  -0.00009  -0.00009  -1.66845
   X37       -5.79236   0.00121   0.00000  -0.01436  -0.01436  -5.80672
   Y37        4.21692   0.00224   0.00000   0.02339   0.02339   4.24031
   Z37       -0.01780   0.00736   0.00000   0.03105   0.03105   0.01324
   X38       -2.23009   0.00252   0.00000   0.03986   0.03986  -2.19023
   Y38        1.82672   0.01336   0.00000  -0.01299  -0.01299   1.81373
   Z38        3.67396  -0.01047   0.00000  -0.06534  -0.06534   3.60862
   X39       -0.35474   0.00528   0.00000   0.02935   0.02935  -0.32539
   Y39        6.30670   0.00169   0.00000  -0.01479  -0.01479   6.29191
   Z39        4.96652  -0.00030   0.00000  -0.01621  -0.01621   4.95031
   X40       -0.65482   0.00588   0.00000  -0.00920  -0.00920  -0.66402
   Y40        3.32324   0.00293   0.00000  -0.00649  -0.00649   3.31675
   Z40        8.37728  -0.00330   0.00000  -0.01049  -0.01049   8.36679
   X41        2.00627  -0.00142   0.00000   0.01325   0.01325   2.01952
   Y41        2.68459   0.00573   0.00000   0.00069   0.00069   2.68527
   Z41        6.42226   0.00491   0.00000   0.04165   0.04165   6.46391
   X42       -7.99739  -0.00072   0.00000  -0.01683  -0.01683  -8.01421
   Y42        5.23854  -0.00070   0.00000  -0.02299  -0.02299   5.21555
   Z42       -3.39660   0.00442   0.00000   0.03260   0.03260  -3.36400
   X43       -6.01046  -0.00260   0.00000   0.01429   0.01429  -5.99617
   Y43        7.64613  -0.00391   0.00000  -0.02489  -0.02489   7.62124
   Z43       -2.31674   0.00306   0.00000  -0.01005  -0.01005  -2.32679
   X44       -8.85728   0.00714   0.00000   0.04181   0.04181  -8.81547
   Y44        6.96564  -0.00281   0.00000   0.02628   0.02628   6.99191
   Z44       -0.66110  -0.00249   0.00000  -0.00633  -0.00633  -0.66742
   X45       -6.99580   0.00337   0.00000  -0.00653  -0.00653  -7.00233
   Y45        3.42813   0.00116   0.00000   0.02409   0.02409   3.45221
   Z45        1.49275  -0.00456   0.00000   0.01165   0.01165   1.50440
   X46       -2.88523  -0.00279   0.00000  -0.02107  -0.02107  -2.90630
   Y46        7.20011  -0.00636   0.00000  -0.01454  -0.01454   7.18557
   Z46        0.53957   0.00236   0.00000   0.01497   0.01497   0.55454
   X47        4.64911   0.00149   0.00000  -0.00445  -0.00445   4.64466
   Y47       -7.90273  -0.00450   0.00000  -0.02789  -0.02789  -7.93062
   Z47       -0.29351  -0.00117   0.00000  -0.01968  -0.01968  -0.31319
   X48        2.12393  -0.00182   0.00000  -0.05305  -0.05305   2.07088
   Y48        5.21998   0.00364   0.00000   0.04056   0.04056   5.26053
   Z48        8.65044  -0.00430   0.00000  -0.04222  -0.04222   8.60822
         Item               Value     Threshold  Converged?
 Maximum Force            0.027462     0.000450     NO 
 RMS     Force            0.006901     0.000300     NO 
 Maximum Displacement     0.098646     0.001800     NO 
 RMS     Displacement     0.025007     0.001200     NO 
 Predicted change in Energy=-7.211935D-03
 GradGradGradGradGradGradGradGradGradGradGradGradGradGradGradGradGradGrad

 Leave Link  103 at Sun Feb 19 04:46:14 2023, MaxMem=  2684354560 cpu:               1.8 elap:               0.1
 (Enter /storage/apps/GAUSSIAN/G16_RevA03/g16/l9999.exe)

 Test job not archived.
 1\1\GINC-T033\Force\RM062X\def2TZVP\C16H24N2O5S1\LV87696\19-Feb-2023\0
 \\#P M062X/Def2TZVP scf=(direct,conver=8) EmpiricalDispersion=GD3 NoSy
 mm Force pop=(NBORead) Charge Prop=(Field,Read)\\Gaussian run using SA
 NDER external interface, route from template gau_job.tpl\\0,1\C,3.3419
 676641,-3.6727678949,-0.5443361354\H,3.41927838,-3.8272504849,-1.62944
 84433\H,4.2540046711,-4.0461598227,-0.0556545344\C,1.4868426799,-1.352
 0801761,1.1753076583\H,0.8796915625,-2.2690783359,1.0258643772\O,1.033
 3374097,-0.6079524975,2.2456476525\H,0.314915086,0.028566948,1.9908939
 1\C,2.9480009381,-1.825705414,1.2512992958\H,3.0580605528,-2.708689886
 2,1.9068055303\O,3.7440448622,-0.7661614826,1.6913259867\H,4.687068798
 ,-0.9533472067,1.4522474761\C,1.5503734784,-0.6416321148,-0.1728140569
 \H,2.1205004281,0.2904754373,-0.049394225\C,3.2303948583,-2.187981814,
 -0.2359537395\H,4.1830324721,-1.723204263,-0.5314995275\O,2.1793400015
 ,-1.5710690273,-0.9982778098\N,0.2650012971,-0.278148361,-0.7698057693
 \C,-0.7239018721,-1.2131288678,-0.8237470696\H,-0.4984687153,-2.186089
 1226,-0.3944022537\C,-1.9273685559,-0.9263263388,-1.4033935927\H,-2.70
 9329327,-1.6814958198,-1.3852592877\C,-2.1226614364,0.3402390749,-1.99
 55098956\H,-3.0467705243,0.5680542607,-2.5291281243\H,-2.8491736322,1.
 3218443493,-0.6363987247\C,-1.0456115385,1.2294678746,-2.047143482\C,0
 .1206765774,0.9262968391,-1.3660861237\H,0.9683851424,1.6170938917,-1.
 3634030232\C,-1.1018842266,2.5383404828,-2.791057228\O,-0.361078051,3.
 451281476,-2.4958043585\N,-2.0079522026,2.5975514968,-3.7941472482\H,-
 1.8265931026,3.376315077,-4.4330672183\H,-2.3581644358,1.7434932495,-4
 .2409346429\C,0.4850081073,2.2197393583,3.880832677\C,-1.1390025009,2.
 1852981987,1.6032960095\C,-1.8185653579,2.7929236107,0.5622307929\C,-3
 .836167617,3.2321794049,-0.882857429\C,-3.0651870556,2.2314961378,-0.0
 094203701\O,-1.1801125261,0.9666595915,1.9441756936\S,-0.1877201439,3.
 3373614875,2.6281666318\H,-0.3465164173,1.7585826744,4.4330672183\H,1.
 0616711992,1.4206212218,3.398515221\H,-4.2320356987,2.7721138927,-1.79
 74021629\H,-3.1805959345,4.0461598227,-1.2259642907\H,-4.687068798,3.6
 860555604,-0.3498366429\H,-3.7020204653,1.8140866846,0.7899284385\H,-1
 .5267999284,3.8101329077,0.2855268467\H,2.4602034233,-4.1819422535,-0.
 1553203309\H,1.1239361928,2.7622930646,4.5776155538\\Version=ES64L-G16
 RevA.03\HF=-1507.8524464\RMSD=6.004e-09\RMSF=6.901e-03\Dipole=0.614154
 9,-2.8673918,-3.1175221\Quadrupole=12.5454861,-11.8103262,-0.7351599,-
 5.131242,11.9861675,-7.5341498\PG=C01 [X(C16H24N2O5S1)]\\@


 ... SUBJECTS WHICH DISCLOSE THEIR FULL POWER, MEANING AND BEAUTY AS SOON
 AS THEY ARE PRESENTED TO THE MIND HAVE VERY LITTLE OF THOSE QUALITIES
 TO DISCLOSE.
                           -- CHARLES DUTTON (1882)
 Job cpu time:       0 days  3 hours 22 minutes  6.9 seconds.
 Elapsed time:       0 days  0 hours 12 minutes 39.6 seconds.
 File lengths (MBytes):  RWF=    435 Int=      0 D2E=      0 Chk=     48 Scr=      1
 Normal termination of Gaussian 16 at Sun Feb 19 04:46:14 2023.
