 Entering Gaussian System, Link 0=g16
 Initial command:
 /storage/apps/GAUSSIAN/G16_RevA03/g16/l1.exe "/scratch/tmp/1267171/Gau-143252.inp" -scrdir="/scratch/tmp/1267171/"
 Entering Link 1 = /storage/apps/GAUSSIAN/G16_RevA03/g16/l1.exe PID=    143253.
  
 Copyright (c) 1988,1990,1992,1993,1995,1998,2003,2009,2016,
            Gaussian, Inc.  All Rights Reserved.
  
 This is part of the Gaussian(R) 16 program.  It is based on
 the Gaussian(R) 09 system (copyright 2009, Gaussian, Inc.),
 the Gaussian(R) 03 system (copyright 2003, Gaussian, Inc.),
 the Gaussian(R) 98 system (copyright 1998, Gaussian, Inc.),
 the Gaussian(R) 94 system (copyright 1995, Gaussian, Inc.),
 the Gaussian 92(TM) system (copyright 1992, Gaussian, Inc.),
 the Gaussian 90(TM) system (copyright 1990, Gaussian, Inc.),
 the Gaussian 88(TM) system (copyright 1988, Gaussian, Inc.),
 the Gaussian 86(TM) system (copyright 1986, Carnegie Mellon
 University), and the Gaussian 82(TM) system (copyright 1983,
 Carnegie Mellon University). Gaussian is a federally registered
 trademark of Gaussian, Inc.
  
 This software contains proprietary and confidential information,
 including trade secrets, belonging to Gaussian, Inc.
  
 This software is provided under written license and may be
 used, copied, transmitted, or stored only in accord with that
 written license.
  
 The following legend is applicable only to US Government
 contracts under FAR:
  
                    RESTRICTED RIGHTS LEGEND
  
 Use, reproduction and disclosure by the US Government is
 subject to restrictions as set forth in subparagraphs (a)
 and (c) of the Commercial Computer Software - Restricted
 Rights clause in FAR 52.227-19.
  
 Gaussian, Inc.
 340 Quinnipiac St., Bldg. 40, Wallingford CT 06492
  
  
 ---------------------------------------------------------------
 Warning -- This program may not be used in any manner that
 competes with the business of Gaussian, Inc. or will provide
 assistance to any competitor of Gaussian, Inc.  The licensee
 of this program is prohibited from giving any competitor of
 Gaussian, Inc. access to this program.  By using this program,
 the user acknowledges that Gaussian, Inc. is engaged in the
 business of creating and licensing software in the field of
 computational chemistry and represents and warrants to the
 licensee that it is not a competitor of Gaussian, Inc. and that
 it will not use this program in any manner prohibited above.
 ---------------------------------------------------------------
  

 Cite this work as:
 Gaussian 16, Revision A.03,
 M. J. Frisch, G. W. Trucks, H. B. Schlegel, G. E. Scuseria, 
 M. A. Robb, J. R. Cheeseman, G. Scalmani, V. Barone, 
 G. A. Petersson, H. Nakatsuji, X. Li, M. Caricato, A. V. Marenich, 
 J. Bloino, B. G. Janesko, R. Gomperts, B. Mennucci, H. P. Hratchian, 
 J. V. Ortiz, A. F. Izmaylov, J. L. Sonnenberg, D. Williams-Young, 
 F. Ding, F. Lipparini, F. Egidi, J. Goings, B. Peng, A. Petrone, 
 T. Henderson, D. Ranasinghe, V. G. Zakrzewski, J. Gao, N. Rega, 
 G. Zheng, W. Liang, M. Hada, M. Ehara, K. Toyota, R. Fukuda, 
 J. Hasegawa, M. Ishida, T. Nakajima, Y. Honda, O. Kitao, H. Nakai, 
 T. Vreven, K. Throssell, J. A. Montgomery, Jr., J. E. Peralta, 
 F. Ogliaro, M. J. Bearpark, J. J. Heyd, E. N. Brothers, K. N. Kudin, 
 V. N. Staroverov, T. A. Keith, R. Kobayashi, J. Normand, 
 K. Raghavachari, A. P. Rendell, J. C. Burant, S. S. Iyengar, 
 J. Tomasi, M. Cossi, J. M. Millam, M. Klene, C. Adamo, R. Cammi, 
 J. W. Ochterski, R. L. Martin, K. Morokuma, O. Farkas, 
 J. B. Foresman, and D. J. Fox, Gaussian, Inc., Wallingford CT, 2016.
 
 ******************************************
 Gaussian 16:  ES64L-G16RevA.03 25-Dec-2016
                19-Feb-2023 
 ******************************************
 %chk=gau_job.chk
 %NProcShared=16
 Will use up to   16 processors via shared memory.
 %mem=20GB
 ----------------------------------------------------------------------
 #P M062X/Def2TZVP scf=(direct,conver=8) EmpiricalDispersion=GD3 NoSymm
  Force pop=(NBORead) Charge Prop=(Field,Read)
 ----------------------------------------------------------------------
 1/10=7,18=10,28=-2,30=1,38=1,125=101/1,3;
 2/12=2,15=1,17=6,18=5,29=2,40=1/2;
 3/5=44,7=101,11=2,25=1,30=1,71=1,74=-55,124=31/1,2,3;
 4//1;
 5/5=2,6=8,38=5/2;
 6/7=2,8=2,9=2,10=2,14=2,15=1,28=1,40=2/1,2,7;
 7/7=1,16=-2,29=1,30=1/1,2,3,16;
 1/10=7,18=10,28=-2,30=1/3;
 99/12=1/99;
 Leave Link    1 at Sun Feb 19 04:36:33 2023, MaxMem=  2684354560 cpu:               0.6 elap:               0.0
 (Enter /storage/apps/GAUSSIAN/G16_RevA03/g16/l101.exe)
 ----------------------------------------------------------------------
 Gaussian run using SANDER external interface, route from template gau_
 job.tpl
 ----------------------------------------------------------------------
 Symbolic Z-matrix:
 Charge =  0 Multiplicity = 1
 C                     3.33931  -3.6722   -0.54381 
 H                     3.41633  -3.82633  -1.62894 
 H                     4.2515   -4.04566  -0.0556 
 C                     1.48404  -1.3514    1.17712 
 H                     0.8774   -2.26871   1.02686 
 O                     1.03144  -0.60752   2.24654 
 H                     0.31006   0.02951   1.99482 
 C                     2.94572  -1.82533   1.25221 
 H                     3.05528  -2.70809   1.90816 
 O                     3.74189  -0.76562   1.69128 
 H                     4.6849   -0.95302   1.45335 
 C                     1.54957  -0.64108  -0.17127 
 H                     2.11722   0.29263  -0.04797 
 C                     3.22844  -2.18795  -0.23452 
 H                     4.18061  -1.72273  -0.53057 
 O                     2.17691  -1.5695   -0.99733 
 N                     0.26349  -0.27943  -0.77367 
 C                    -0.72411  -1.21329  -0.8206 
 H                    -0.49913  -2.18552  -0.38911 
 C                    -1.92128  -0.93725  -1.41912 
 H                    -2.70856  -1.68694  -1.39026 
 C                    -2.09234   0.29961  -2.06493 
 H                    -3.03934   0.55697  -2.54103 
 H                    -2.88422   1.3513   -0.57909 
 C                    -1.04595   1.2209   -2.05814 
 C                     0.11683   0.92672  -1.36383 
 H                     0.96359   1.61885  -1.35897 
 C                    -1.10876   2.53542  -2.79322 
 O                    -0.36245   3.44916  -2.495 
 N                    -2.01042   2.5976   -3.79606 
 H                    -1.82865   3.3771   -4.43347 
 H                    -2.35992   1.74374  -4.24493 
 C                     0.4855    2.21856   3.88146 
 C                    -1.13583   2.18384   1.59976 
 C                    -1.81616   2.7941    0.56819 
 C                    -3.83893   3.23505  -0.88186 
 C                    -3.07684   2.24399   0.00402 
 O                    -1.17705   0.95892   1.94199 
 S                    -0.18795   3.33585   2.63021 
 H                    -0.34568   1.75658   4.43347 
 H                     1.06239   1.41931   3.39982 
 H                    -4.23778   2.77461  -1.79602 
 H                    -3.17891   4.04566  -1.22675 
 H                    -4.6849    3.69173  -0.34526 
 H                    -3.713     1.82295   0.79964 
 H                    -1.53524   3.81657   0.29715 
 H                     2.45778  -4.18158  -0.15454 
 H                     1.12381   2.76166   4.57838 
 
 ITRead=  0  0  0  0  0  0  0  0  0  0  0  0  0  0  0  0  0  0  0  0
 ITRead=  0  0  0  0  0  0  0  0  0  0  0  0  0  0  0  0  0  0  0  0
 ITRead=  0  0  0  0  0  0  0  0
 MicOpt= -1 -1 -1 -1 -1 -1 -1 -1 -1 -1 -1 -1 -1 -1 -1 -1 -1 -1 -1 -1
 MicOpt= -1 -1 -1 -1 -1 -1 -1 -1 -1 -1 -1 -1 -1 -1 -1 -1 -1 -1 -1 -1
 MicOpt= -1 -1 -1 -1 -1 -1 -1 -1
 NAtoms=     48 NQM=       48 NQMF=       0 NMMI=      0 NMMIF=      0
                NMic=       0 NMicF=      0.
                    Isotopes and Nuclear Properties:
 (Nuclear quadrupole moments (NQMom) in fm**2, nuclear magnetic moments (NMagM)
  in nuclear magnetons)

  Atom         1           2           3           4           5           6           7           8           9          10
 IAtWgt=          12           1           1          12           1          16           1          12           1          16
 AtmWgt=  12.0000000   1.0078250   1.0078250  12.0000000   1.0078250  15.9949146   1.0078250  12.0000000   1.0078250  15.9949146
 NucSpn=           0           1           1           0           1           0           1           0           1           0
 AtZEff=  -0.0000000  -0.0000000  -0.0000000  -0.0000000  -0.0000000  -0.0000000  -0.0000000  -0.0000000  -0.0000000  -0.0000000
 NQMom=    0.0000000   0.0000000   0.0000000   0.0000000   0.0000000   0.0000000   0.0000000   0.0000000   0.0000000   0.0000000
 NMagM=    0.0000000   2.7928460   2.7928460   0.0000000   2.7928460   0.0000000   2.7928460   0.0000000   2.7928460   0.0000000
 AtZNuc=   6.0000000   1.0000000   1.0000000   6.0000000   1.0000000   8.0000000   1.0000000   6.0000000   1.0000000   8.0000000

  Atom        11          12          13          14          15          16          17          18          19          20
 IAtWgt=           1          12           1          12           1          16          14          12           1          12
 AtmWgt=   1.0078250  12.0000000   1.0078250  12.0000000   1.0078250  15.9949146  14.0030740  12.0000000   1.0078250  12.0000000
 NucSpn=           1           0           1           0           1           0           2           0           1           0
 AtZEff=  -0.0000000  -0.0000000  -0.0000000  -0.0000000  -0.0000000  -0.0000000  -0.0000000  -0.0000000  -0.0000000  -0.0000000
 NQMom=    0.0000000   0.0000000   0.0000000   0.0000000   0.0000000   0.0000000   2.0440000   0.0000000   0.0000000   0.0000000
 NMagM=    2.7928460   0.0000000   2.7928460   0.0000000   2.7928460   0.0000000   0.4037610   0.0000000   2.7928460   0.0000000
 AtZNuc=   1.0000000   6.0000000   1.0000000   6.0000000   1.0000000   8.0000000   7.0000000   6.0000000   1.0000000   6.0000000

  Atom        21          22          23          24          25          26          27          28          29          30
 IAtWgt=           1          12           1           1          12          12           1          12          16          14
 AtmWgt=   1.0078250  12.0000000   1.0078250   1.0078250  12.0000000  12.0000000   1.0078250  12.0000000  15.9949146  14.0030740
 NucSpn=           1           0           1           1           0           0           1           0           0           2
 AtZEff=  -0.0000000  -0.0000000  -0.0000000  -0.0000000  -0.0000000  -0.0000000  -0.0000000  -0.0000000  -0.0000000  -0.0000000
 NQMom=    0.0000000   0.0000000   0.0000000   0.0000000   0.0000000   0.0000000   0.0000000   0.0000000   0.0000000   2.0440000
 NMagM=    2.7928460   0.0000000   2.7928460   2.7928460   0.0000000   0.0000000   2.7928460   0.0000000   0.0000000   0.4037610
 AtZNuc=   1.0000000   6.0000000   1.0000000   1.0000000   6.0000000   6.0000000   1.0000000   6.0000000   8.0000000   7.0000000

  Atom        31          32          33          34          35          36          37          38          39          40
 IAtWgt=           1           1          12          12          12          12          12          16          32           1
 AtmWgt=   1.0078250   1.0078250  12.0000000  12.0000000  12.0000000  12.0000000  12.0000000  15.9949146  31.9720718   1.0078250
 NucSpn=           1           1           0           0           0           0           0           0           0           1
 AtZEff=  -0.0000000  -0.0000000  -0.0000000  -0.0000000  -0.0000000  -0.0000000  -0.0000000  -0.0000000  -0.0000000  -0.0000000
 NQMom=    0.0000000   0.0000000   0.0000000   0.0000000   0.0000000   0.0000000   0.0000000   0.0000000   0.0000000   0.0000000
 NMagM=    2.7928460   2.7928460   0.0000000   0.0000000   0.0000000   0.0000000   0.0000000   0.0000000   0.0000000   2.7928460
 AtZNuc=   1.0000000   1.0000000   6.0000000   6.0000000   6.0000000   6.0000000   6.0000000   8.0000000  16.0000000   1.0000000

  Atom        41          42          43          44          45          46          47          48
 IAtWgt=           1           1           1           1           1           1           1           1
 AtmWgt=   1.0078250   1.0078250   1.0078250   1.0078250   1.0078250   1.0078250   1.0078250   1.0078250
 NucSpn=           1           1           1           1           1           1           1           1
 AtZEff=  -0.0000000  -0.0000000  -0.0000000  -0.0000000  -0.0000000  -0.0000000  -0.0000000  -0.0000000
 NQMom=    0.0000000   0.0000000   0.0000000   0.0000000   0.0000000   0.0000000   0.0000000   0.0000000
 NMagM=    2.7928460   2.7928460   2.7928460   2.7928460   2.7928460   2.7928460   2.7928460   2.7928460
 AtZNuc=   1.0000000   1.0000000   1.0000000   1.0000000   1.0000000   1.0000000   1.0000000   1.0000000
 Background charge distribution read from input stream:
 Leave Link  101 at Sun Feb 19 04:36:33 2023, MaxMem=  2684354560 cpu:               1.4 elap:               0.1
 (Enter /storage/apps/GAUSSIAN/G16_RevA03/g16/l103.exe)

 GradGradGradGradGradGradGradGradGradGradGradGradGradGradGradGradGradGrad
 Berny optimization.
 Initialization pass.
 Trust Radius=3.00D-01 FncErr=1.00D-07 GrdErr=1.00D-07 EigMax=2.50D+02 EigMin=1.00D-04
 Number of steps in this run=      2 maximum allowed number of steps=      2.
 GradGradGradGradGradGradGradGradGradGradGradGradGradGradGradGradGradGrad

 Leave Link  103 at Sun Feb 19 04:36:33 2023, MaxMem=  2684354560 cpu:               0.3 elap:               0.0
 (Enter /storage/apps/GAUSSIAN/G16_RevA03/g16/l202.exe)
 ---------------------------------------------------------------------------------------------------
                            Z-MATRIX (ANGSTROMS AND DEGREES)
   CD    Cent   Atom    N1       Length/X        N2       Alpha/Y        N3        Beta/Z          J
 ---------------------------------------------------------------------------------------------------
      1      1  C        0   3.339309         -3.672197         -0.543812
      2      2  H        0   3.416335         -3.826332         -1.628937
      3      3  H        0   4.251502         -4.045662         -0.055600
      4      4  C        0   1.484043         -1.351399          1.177118
      5      5  H        0   0.877401         -2.268711          1.026858
      6      6  O        0   1.031439         -0.607522          2.246539
      7      7  H        0   0.310065          0.029505          1.994825
      8      8  C        0   2.945722         -1.825327          1.252205
      9      9  H        0   3.055282         -2.708092          1.908164
     10     10  O        0   3.741888         -0.765622          1.691277
     11     11  H        0   4.684898         -0.953019          1.453350
     12     12  C        0   1.549565         -0.641078         -0.171273
     13     13  H        0   2.117221          0.292627         -0.047974
     14     14  C        0   3.228440         -2.187949         -0.234519
     15     15  H        0   4.180609         -1.722726         -0.530572
     16     16  O        0   2.176915         -1.569498         -0.997327
     17     17  N        0   0.263490         -0.279434         -0.773667
     18     18  C        0  -0.724108         -1.213291         -0.820599
     19     19  H        0  -0.499134         -2.185523         -0.389107
     20     20  C        0  -1.921276         -0.937253         -1.419124
     21     21  H        0  -2.708560         -1.686944         -1.390263
     22     22  C        0  -2.092336          0.299607         -2.064930
     23     23  H        0  -3.039338          0.556970         -2.541030
     24     24  H        0  -2.884223          1.351303         -0.579085
     25     25  C        0  -1.045954          1.220901         -2.058140
     26     26  C        0   0.116834          0.926715         -1.363826
     27     27  H        0   0.963589          1.618852         -1.358973
     28     28  C        0  -1.108757          2.535422         -2.793223
     29     29  O        0  -0.362447          3.449158         -2.495005
     30     30  N        0  -2.010421          2.597596         -3.796062
     31     31  H        0  -1.828654          3.377102         -4.433470
     32     32  H        0  -2.359920          1.743740         -4.244934
     33     33  C        0   0.485500          2.218561          3.881455
     34     34  C        0  -1.135833          2.183839          1.599765
     35     35  C        0  -1.816157          2.794100          0.568187
     36     36  C        0  -3.838933          3.235048         -0.881862
     37     37  C        0  -3.076842          2.243993          0.004018
     38     38  O        0  -1.177045          0.958921          1.941989
     39     39  S        0  -0.187948          3.335851          2.630207
     40     40  H        0  -0.345682          1.756583          4.433470
     41     41  H        0   1.062387          1.419315          3.399819
     42     42  H        0  -4.237776          2.774608         -1.796018
     43     43  H        0  -3.178914          4.045662         -1.226753
     44     44  H        0  -4.684898          3.691732         -0.345256
     45     45  H        0  -3.713005          1.822949          0.799644
     46     46  H        0  -1.535238          3.816572          0.297154
     47     47  H        0   2.457778         -4.181581         -0.154543
     48     48  H        0   1.123805          2.761659          4.578384
 ---------------------------------------------------------------------------------------------------
                         Z-Matrix orientation:                         
 ---------------------------------------------------------------------
 Center     Atomic      Atomic             Coordinates (Angstroms)
 Number     Number       Type             X           Y           Z
 ---------------------------------------------------------------------
      1          6           0        3.339309   -3.672197   -0.543812
      2          1           0        3.416335   -3.826332   -1.628937
      3          1           0        4.251502   -4.045662   -0.055600
      4          6           0        1.484043   -1.351399    1.177118
      5          1           0        0.877401   -2.268711    1.026858
      6          8           0        1.031439   -0.607522    2.246539
      7          1           0        0.310065    0.029505    1.994825
      8          6           0        2.945722   -1.825327    1.252205
      9          1           0        3.055282   -2.708092    1.908164
     10          8           0        3.741888   -0.765622    1.691277
     11          1           0        4.684898   -0.953019    1.453350
     12          6           0        1.549565   -0.641078   -0.171273
     13          1           0        2.117221    0.292627   -0.047974
     14          6           0        3.228440   -2.187949   -0.234519
     15          1           0        4.180609   -1.722726   -0.530572
     16          8           0        2.176915   -1.569498   -0.997327
     17          7           0        0.263490   -0.279434   -0.773667
     18          6           0       -0.724108   -1.213291   -0.820599
     19          1           0       -0.499134   -2.185523   -0.389107
     20          6           0       -1.921276   -0.937253   -1.419124
     21          1           0       -2.708560   -1.686944   -1.390263
     22          6           0       -2.092336    0.299607   -2.064930
     23          1           0       -3.039338    0.556970   -2.541030
     24          1           0       -2.884223    1.351303   -0.579085
     25          6           0       -1.045954    1.220901   -2.058140
     26          6           0        0.116834    0.926715   -1.363826
     27          1           0        0.963589    1.618852   -1.358973
     28          6           0       -1.108757    2.535422   -2.793223
     29          8           0       -0.362447    3.449158   -2.495005
     30          7           0       -2.010421    2.597596   -3.796062
     31          1           0       -1.828654    3.377102   -4.433470
     32          1           0       -2.359920    1.743740   -4.244934
     33          6           0        0.485500    2.218561    3.881455
     34          6           0       -1.135833    2.183839    1.599765
     35          6           0       -1.816157    2.794100    0.568187
     36          6           0       -3.838933    3.235048   -0.881862
     37          6           0       -3.076842    2.243993    0.004018
     38          8           0       -1.177045    0.958921    1.941989
     39         16           0       -0.187948    3.335851    2.630207
     40          1           0       -0.345682    1.756583    4.433470
     41          1           0        1.062387    1.419315    3.399819
     42          1           0       -4.237776    2.774608   -1.796018
     43          1           0       -3.178914    4.045662   -1.226753
     44          1           0       -4.684898    3.691732   -0.345256
     45          1           0       -3.713005    1.822949    0.799644
     46          1           0       -1.535238    3.816572    0.297154
     47          1           0        2.457778   -4.181581   -0.154543
     48          1           0        1.123805    2.761659    4.578384
 ---------------------------------------------------------------------
                    Distance matrix (angstroms):
                    1          2          3          4          5
     1  C    0.000000
     2  H    1.098720   0.000000
     3  H    1.099965   1.794714   0.000000
     4  C    3.433616   4.211055   4.054316   0.000000
     5  H    3.240026   3.990690   3.964067   1.109979   0.000000
     6  O    4.743897   5.573848   5.243039   1.379081   2.066615
     7  H    5.415127   6.135800   6.028778   1.988408   2.557465
     8  C    2.606055   3.539276   2.888824   1.538425   2.127280
     9  H    2.649973   3.727184   2.660152   2.200872   2.390172
    10  O    3.688614   4.527444   3.750993   2.388589   3.302425
    11  H    3.632244   4.400644   3.468314   3.237358   4.050922
    12  C    3.539725   3.969314   4.347992   1.525453   2.129908
    13  H    4.178419   4.599235   4.834870   2.145830   3.041853
    14  C    1.520180   2.159631   2.128325   2.394881   2.669265
    15  H    2.123299   2.493126   2.372057   3.213341   3.692542
    16  O    2.445032   2.651112   3.364840   2.292563   2.504986
    17  N    4.585231   4.822074   5.532118   2.538586   2.752453
    18  C    4.757540   4.962324   5.776179   2.980919   2.663051
    19  H    4.119197   4.422706   5.112719   2.661169   1.976545
    20  C    5.993317   6.072964   7.044473   4.302115   3.948190
    21  H    6.421405   6.492171   7.469093   4.927673   4.363490
    22  C    6.898681   6.896297   7.947518   5.101684   4.997474
    23  H    7.909606   7.856269   8.973178   6.158528   6.004593
    24  H    7.998072   8.222355   8.962134   5.428683   5.461993
    25  C    6.742858   6.750614   7.733685   4.846081   5.039235
    26  C    5.675101   5.792102   6.597838   3.676338   4.062583
    27  H    5.856939   5.978199   6.678014   3.940180   4.562100
    28  C    7.961136   7.893284   8.918387   6.131362   6.451166
    29  O    8.259774   8.243908   9.132993   6.319760   6.828965
    30  N    8.860420   8.684064   9.865881   7.248335   7.435120
    31  H    9.567126   9.341561  10.546633   8.050551   8.307413
    32  H    8.689758   8.440039   9.735430   7.331752   7.373724
    33  C    7.901155   8.688782   8.302028   4.588588   5.332722
    34  C    7.675609   8.201762   8.400613   4.420440   4.920014
    35  C    8.344362   8.719888   9.164494   5.333600   5.753060
    36  C    9.967521  10.151853  10.915429   7.321814   7.495224
    37  C    8.744622   9.037518   9.657533   5.924920   6.086603
    38  O    6.929929   7.533213   7.648878   3.606105   3.933932
    39  S    8.463373   9.078988   9.022694   5.184335   5.925944
    40  H    8.235542   9.059496   8.657476   4.859143   5.413310
    41  H    6.830820   7.638473   7.209463   3.577017   4.389385
    42  H   10.027041  10.108696  11.027828   7.655239   7.718079
    43  H   10.125166  10.277516  11.047724   7.526621   7.836055
    44  H   10.892878  11.126505  11.824146   8.112129   8.267331
    45  H    9.040832   9.414874   9.930026   6.101498   6.153465
    46  H    8.974971   9.308162   9.768599   6.049655   6.586651
    47  H    1.090000   1.794121   1.801586   3.275883   2.748157
    48  H    8.517034   9.337460   8.808855   5.349358   6.162685
                    6          7          8          9         10
     6  O    0.000000
     7  H    0.994759   0.000000
     8  C    2.477141   3.307352   0.000000
     9  H    2.936466   3.877907   1.105242   0.000000
    10  O    2.771253   3.535786   1.396294   2.071631   0.000000
    11  H    3.754501   4.516384   1.956045   2.437782   0.990453
    12  C    2.472932   2.584187   2.319049   3.296026   2.879389
    13  H    2.693322   2.740086   2.619658   3.702803   2.604694
    14  C    3.671541   4.289987   1.556205   2.211701   2.448537
    15  H    4.344341   4.942576   2.171121   2.860898   2.458686
    16  O    3.572139   3.872326   2.391005   3.241882   3.213090
    17  N    3.133533   2.786065   3.699772   4.569978   4.290872
    18  C    3.585560   3.246639   4.258962   4.895341   5.143447
    19  H    3.432110   3.353250   3.832843   4.264318   4.932584
    20  C    4.718511   4.191485   5.622486   6.242824   6.463396
    21  H    5.327202   4.849445   6.242812   6.718947   7.207844
    22  C    5.400891   4.725049   6.395370   7.164475   7.020112
    23  H    6.391251   5.663099   7.475621   8.221943   8.102265
    24  H    5.210908   4.309946   6.887152   7.612018   7.317190
    25  C    5.117514   4.436748   6.014263   6.927387   6.397487
    26  C    4.028042   3.481789   4.734972   5.705455   5.033754
    27  H    4.238050   3.768432   4.754942   5.811351   4.765364
    28  C    6.313299   5.587314   7.198640   8.181485   7.384876
    29  O    6.393889   5.683737   7.266757   8.305450   7.220450
    30  N    7.485902   6.746415   8.343297   9.292463   8.631986
    31  H    8.287333   7.556685   9.065695  10.054786   9.257733
    32  H    7.692138   7.000144   8.432474   9.327585   8.875109
    33  C    3.310248   2.895189   5.414672   5.896572   4.930141
    34  C    3.592643   2.624470   5.731780   6.449150   5.700864
    35  C    4.743069   3.768169   6.669519   7.469978   6.695134
    36  C    6.947860   5.980385   8.728870   9.520260   8.949595
    37  C    5.480695   4.509812   7.374863   8.108752   7.641970
    38  O    2.724683   1.754452   5.022455   5.600065   5.218507
    39  S    4.145394   3.403476   6.193265   6.897038   5.757368
    40  H    3.502587   3.059377   5.812389   6.154433   5.530765
    41  H    2.332183   2.114609   4.322834   4.819974   3.856526
    42  H    7.452899   6.526020   9.058351   9.847317   9.400505
    43  H    7.172374   6.219409   8.838830   9.711132   8.919689
    44  H    7.607727   6.620992   9.550717  10.293010   9.748139
    45  H    5.523626   4.563988   7.606140   8.220028   7.941734
    46  H    5.473623   4.541928   7.267885   8.138763   7.126580
    47  H    4.535806   5.192850   2.787286   2.604408   4.089592
    48  H    4.098465   3.847288   5.951747   6.385833   5.256564
                   11         12         13         14         15
    11  H    0.000000
    12  C    3.544999   0.000000
    13  H    3.224682   1.099655   0.000000
    14  C    2.548573   2.283732   2.724493   0.000000
    15  H    2.186939   2.867308   2.924401   1.100321   0.000000
    16  O    3.560315   1.392083   2.091015   1.438771   2.063039
    17  N    4.996216   1.465488   2.071281   3.567077   4.181628
    18  C    5.873324   2.432826   3.307248   4.112916   4.939625
    19  H    5.638077   2.574866   3.619795   3.730779   4.704699
    20  C    7.203673   3.700215   4.438707   5.430203   6.216068
    21  H    7.955376   4.550979   5.385964   6.069162   6.942695
    22  C    7.738105   4.211208   4.667819   6.152154   6.767121
    23  H    8.826039   5.301802   5.733699   7.220776   7.833684
    24  H    8.168984   4.877947   5.139778   7.071752   7.704795
    25  C    7.063934   3.709980   3.861106   5.763358   6.189941
    26  C    5.686571   2.435750   2.476910   4.545169   4.922207
    27  H    5.326521   2.619405   2.192820   4.570085   4.711859
    28  C    7.985553   4.902189   4.793064   6.904236   7.157431
    29  O    7.774598   5.077948   4.701107   7.055583   7.158684
    30  N    9.219029   6.025081   6.033115   7.939250   8.225416
    31  H    9.789329   6.761986   6.657063   8.612501   8.795005
    32  H    9.453699   6.129123   6.305949   7.922839   8.281993
    33  C    5.795651   5.072906   4.670348   6.624371   6.975211
    34  C    6.613791   4.281132   4.107808   6.443912   6.932831
    35  C    7.555670   4.865731   4.701967   7.135343   7.587503
    36  C    9.780021   6.675717   6.695445   8.931725   9.434828
    37  C    8.518572   5.455089   5.548768   7.710745   8.288018
    38  O    6.185198   3.802667   3.905905   5.835090   6.481455
    39  S    6.597275   5.165579   4.663440   7.098642   7.393512
    40  H    6.444362   5.526698   5.319060   7.079816   7.565356
    41  H    4.747557   4.151537   3.777483   5.559905   5.919773
    42  H   10.201359   6.913756   7.042860   9.099980   9.627907
    43  H    9.695840   6.740778   6.597260   8.994254   9.376649
    44  H   10.611399   7.594212   7.609936   9.859201  10.389800
    45  H    8.868941   5.891413   6.087025   8.083344   8.755023
    46  H    7.923124   5.441147   5.087019   7.683071   8.002491
    47  H    4.238985   3.655173   4.488415   2.138898   3.025808
    48  H    6.020471   5.858254   5.337245   7.217489   7.453536
                   16         17         18         19         20
    16  O    0.000000
    17  N    2.318509   0.000000
    18  C    2.928148   1.360015   0.000000
    19  H    2.812589   2.088698   1.087214   0.000000
    20  C    4.168071   2.371191   1.366617   2.154438   0.000000
    21  H    4.902659   3.345797   2.118234   2.476380   1.087514
    22  C    4.781195   2.748193   2.389407   3.394487   1.405756
    23  H    5.840734   3.838205   3.384375   4.313313   2.177484
    24  H    5.858423   3.550389   3.361781   4.270114   2.621148
    25  C    4.393009   2.369709   2.749615   3.832545   2.414985
    26  C    3.257197   1.350775   2.362606   3.318964   2.762486
    27  H    3.430528   2.106232   3.340539   4.189686   3.854833
    28  C    5.556190   3.726270   4.253475   5.332798   3.822016
    29  O    5.820507   4.154179   4.967179   6.016903   4.777873
    30  N    6.536924   4.752141   5.003083   6.063791   4.260626
    31  H    7.233292   5.580455   5.945129   7.004804   5.263887
    32  H    6.489019   4.798459   4.811028   5.811113   3.919864
    33  C    6.404122   5.287667   5.945593   6.213145   6.621773
    34  C    5.639744   3.695808   4.191440   4.842760   4.412689
    35  C    6.118533   3.946152   4.379553   5.239047   4.228883
    36  C    7.699832   5.403070   5.430802   6.385895   4.623219
    37  C    6.568665   4.257968   4.262413   5.140013   3.671647
    38  O    5.126551   3.314128   3.543381   3.972543   3.930195
    39  S    6.543242   4.986024   5.735000   6.300688   6.136850
    40  H    6.849807   5.624120   6.047197   6.230650   6.632654
    41  H    5.432316   4.576240   5.285273   5.457946   6.138231
    42  H    7.788287   5.534778   5.403762   6.368653   4.391598
    43  H    7.763218   5.546340   5.817871   6.834511   5.142771
    44  H    8.671229   6.359265   6.322426   7.215586   5.497118
    45  H    7.030572   4.765273   4.558228   5.273513   3.968871
    46  H    6.668246   4.599929   5.216017   6.129406   5.068875
    47  H    2.759012   4.519398   4.402132   3.575275   5.594724
    48  H    7.138383   6.215532   6.954426   7.196147   7.676235
                   21         22         23         24         25
    21  H    0.000000
    22  C    2.186617   0.000000
    23  H    2.543388   1.090743   0.000000
    24  H    3.149573   1.985166   2.122322   0.000000
    25  C    3.415535   1.394181   2.155822   2.363015   0.000000
    26  C    3.848995   2.401092   3.388797   3.130884   1.385891
    27  H    4.941047   3.402566   4.306771   3.935158   2.164593
    28  C    4.728218   2.548864   2.775792   3.075195   1.507401
    29  O    5.753629   3.618999   3.941145   3.798829   2.371322
    30  N    4.963119   2.878243   2.607285   3.558893   2.417821
    31  H    5.973265   3.892362   3.605583   4.480443   3.302123
    32  H    4.476638   2.628600   2.184794   3.723889   2.604215
    33  C    7.296986   6.759225   7.512236   5.657172   6.214456
    34  C    5.137772   4.230274   4.839031   2.915025   3.783595
    35  C    4.971083   3.637592   4.020964   2.130414   3.156860
    36  C    5.075649   3.614840   3.250276   2.133457   3.638839
    37  C    4.187113   3.005068   3.053640   1.083516   3.069807
    38  O    4.522172   4.162673   4.871052   3.069891   4.010841
    39  S    6.909858   5.906757   6.526431   4.637660   5.214382
    40  H    7.166375   6.884967   7.572218   5.633307   6.551208
    41  H    6.842060   6.408550   7.270590   5.604644   5.854382
    42  H    4.733770   3.286466   2.628539   2.310591   3.559556
    43  H    5.754193   3.989501   3.730654   2.786734   3.635931
    44  H    5.824784   4.602736   4.166057   2.962215   4.720264
    45  H    4.257223   3.626696   3.635468   1.676372   3.955066
    46  H    5.874755   4.273037   4.576310   2.943656   3.538971
    47  H    5.868668   6.665895   7.639860   7.702597   6.714657
    48  H    8.372685   7.780674   8.536889   6.682282   7.150192
                   26         27         28         29         30
    26  C    0.000000
    27  H    1.093650   0.000000
    28  C    2.476527   2.681752   0.000000
    29  O    2.805708   2.529617   1.216892   0.000000
    30  N    3.637695   3.967628   1.350018   2.265772   0.000000
    31  H    4.383153   4.510055   1.979163   2.431584   1.023209
    32  H    3.886210   4.403417   2.073556   3.156042   1.026015
    33  C    5.414587   5.296255   6.869745   6.549246   8.081928
    34  C    3.454331   3.671636   4.407118   4.355031   5.481883
    35  C    3.310024   3.580803   3.444766   3.453335   4.372988
    36  C    4.605299   5.089591   3.405384   3.838493   3.498909
    37  C    3.715613   4.309713   3.432615   3.881427   3.962688
    38  O    3.550151   3.989257   4.991217   5.152840   6.025363
    39  S    4.674305   4.493071   5.558972   5.129433   6.720369
    40  H    5.874627   5.940165   7.308486   7.132240   8.438237
    41  H    4.881500   4.763999   6.656827   6.395262   7.912724
    42  H    4.750171   5.346118   3.292778   3.995219   2.998770
    43  H    4.539666   4.802834   3.003365   3.145912   3.172320
    44  H    5.633777   6.101628   4.485353   4.833616   4.500892
    45  H    4.489042   5.154785   4.494265   4.972475   4.961792
    46  H    3.720144   3.717105   3.372486   3.050669   4.297222
    47  H    5.747788   6.109686   8.049902   8.465200   8.898466
    48  H    6.300070   6.048462   7.705590   7.260471   8.943246
                   31         32         33         34         35
    31  H    0.000000
    32  H    1.727906   0.000000
    33  C    8.708358   8.623229   0.000000
    34  C    6.189006   5.987703   2.799292   0.000000
    35  C    5.035536   4.956317   4.075122   1.378192   0.000000
    36  C    4.083542   3.965064   6.513306   3.817101   2.527587
    37  C    4.746915   4.337952   5.265496   2.513472   1.486685
    38  O    6.849720   6.347688   2.848207   1.272494   2.379848
    39  S    7.251838   7.383756   1.807620   1.813126   2.682626
    40  H    9.134982   8.909097   1.099549   2.972670   4.263701
    41  H    8.576215   8.382106   1.097072   2.942255   4.265465
    42  H    3.622570   3.253648   7.406229   4.637069   3.384388
    43  H    3.543050   3.883170   6.546757   3.953450   2.577852
    44  H    4.997061   4.940414   6.838738   4.318879   3.141623
    45  H    5.775088   5.223493   5.223171   2.722545   2.143534
    46  H    4.760045   5.060365   4.414096   2.126532   1.094451
    47  H    9.685886   8.663194   7.819269   7.517326   8.212733
    48  H    9.503121   9.540621   1.090000   3.783122   4.972536
                   36         37         38         39         40
    36  C    0.000000
    37  C    1.532239   0.000000
    38  O    4.498948   3.002727   0.000000
    39  S    5.066999   4.053977   2.664912   0.000000
    40  H    6.530039   5.226552   2.744978   2.402233   0.000000
    41  H    6.756672   5.417082   2.711511   2.414281   1.779000
    42  H    1.098528   2.206683   5.161152   6.025576   7.415611
    43  H    1.100759   2.184314   4.855551   4.932124   6.730914
    44  H    1.100984   2.191755   5.000478   5.403942   6.738681
    45  H    2.199396   1.102271   2.912488   4.250395   4.954589
    46  H    2.652406   2.221594   3.316618   2.736681   4.771552
    47  H    9.756225   8.482049   6.635672   8.441947   8.010682
    48  H    7.393724   6.232034   3.936288   2.417806   1.786218
                   41         42         43         44         45
    41  H    0.000000
    42  H    7.544884   0.000000
    43  H    6.803786   1.749523   0.000000
    44  H    7.226393   1.773626   1.780532   0.000000
    45  H    5.452357   2.813983   3.054831   2.397441   0.000000
    46  H    4.703300   3.573622   2.253097   3.216930   2.994946
    47  H    6.778690   9.793541  10.030426  10.632180   8.662760
    48  H    1.787366   8.329450   7.339052   7.671265   6.209250
                   46         47         48
    46  H    0.000000
    47  H    8.950902   0.000000
    48  H    5.149009   8.508153   0.000000
 Symmetry turned off by external request.
 Stoichiometry    C16H24N2O5S
 Framework group  C1[X(C16H24N2O5S)]
 Deg. of freedom   138
 Full point group                 C1      NOp   1
 Rotational constants (GHZ):           0.2858311           0.1691202           0.1256935
 Leave Link  202 at Sun Feb 19 04:36:33 2023, MaxMem=  2684354560 cpu:               0.2 elap:               0.0
 (Enter /storage/apps/GAUSSIAN/G16_RevA03/g16/l301.exe)
 Standard basis: def2TZVP (5D, 7F)
 Ernie: Thresh=  0.10000D-02 Tol=  0.10000D-05 Strict=F.
   894 basis functions,  1434 primitive gaussians,  1014 cartesian basis functions
    95 alpha electrons       95 beta electrons
       nuclear repulsion energy      2438.1398054492 Hartrees.
 IExCor= 4336 DFT=T Ex+Corr=M062X ExCW=0 ScaHFX=  0.540000
 ScaDFX=  1.000000  1.000000  1.000000  1.000000 ScalE2=  1.000000  1.000000
 IRadAn=      5 IRanWt=     -1 IRanGd=            0 ICorTp=0 IEmpDi=131
 NAtoms=   48 NActive=   48 NUniq=   48 SFac= 1.00D+00 NAtFMM=   60 NAOKFM=F Big=F
 Integral buffers will be    131072 words long.
 Raffenetti 2 integral format.
 Two-electron integral symmetry is turned off.
 R6Disp:  Grimme-D3 Dispersion energy=       -0.0041596191 Hartrees.
 Nuclear repulsion after empirical dispersion term =     2438.1356458301 Hartrees.
 Leave Link  301 at Sun Feb 19 04:36:34 2023, MaxMem=  2684354560 cpu:               0.8 elap:               0.1
 (Enter /storage/apps/GAUSSIAN/G16_RevA03/g16/l302.exe)
 NPDir=0 NMtPBC=     1 NCelOv=     1 NCel=       1 NClECP=     1 NCelD=      1
         NCelK=      1 NCelE2=     1 NClLst=     1 CellRange=     0.0.
 One-electron integrals computed using PRISM.
   1 Symmetry operations used in ECPInt.
 ECPInt:  NShTT=   65703 NPrTT=  200010 LenC2=   56045 LenP2D=  118873.
 LDataN:  DoStor=T MaxTD1= 6 Len=  172
 NBasis=   894 RedAO= T EigKep=  1.94D-05  NBF=   894
 NBsUse=   894 1.00D-06 EigRej= -1.00D+00 NBFU=   894
 Precomputing XC quadrature grid using
 IXCGrd= 4 IRadAn=           5 IRanWt=          -1 IRanGd=           0 AccXCQ= 0.00D+00.
 Generated NRdTot=       0 NPtTot=           0 NUsed=           0 NTot=          32
 NSgBfM=   998   995   995   995   998 MxSgAt=    48 MxSgA2=    48.
 Leave Link  302 at Sun Feb 19 04:36:35 2023, MaxMem=  2684354560 cpu:              18.5 elap:               1.2
 (Enter /storage/apps/GAUSSIAN/G16_RevA03/g16/l303.exe)
 DipDrv:  MaxL=1.
 Leave Link  303 at Sun Feb 19 04:36:35 2023, MaxMem=  2684354560 cpu:               2.0 elap:               0.2
 (Enter /storage/apps/GAUSSIAN/G16_RevA03/g16/l401.exe)
 ExpMin= 9.52D-02 ExpMax= 6.07D+04 ExpMxC= 2.07D+03 IAcc=3 IRadAn=         5 AccDes= 0.00D+00
 Harris functional with IExCor= 1009 and IRadAn=       5 diagonalized for initial guess.
 HarFok:  IExCor= 1009 AccDes= 0.00D+00 IRadAn=         5 IDoV= 1 UseB2=F ITyADJ=14
 ICtDFT=  3500011 ScaDFX=  1.000000  1.000000  1.000000  1.000000
 FoFCou: FMM=F IPFlag=           0 FMFlag=      100000 FMFlg1=           0
         NFxFlg=           0 DoJE=T BraDBF=F KetDBF=T FulRan=T
         wScrn=  0.000000 ICntrl=       500 IOpCl=  0 I1Cent=   200000004 NGrid=           0
         NMat0=    1 NMatS0=      1 NMatT0=    0 NMatD0=    1 NMtDS0=    0 NMtDT0=    0
 Symmetry not used in FoFCou.
 Harris En= -1507.21595741963    
 JPrj=0 DoOrth=F DoCkMO=F.
 Leave Link  401 at Sun Feb 19 04:36:39 2023, MaxMem=  2684354560 cpu:              59.4 elap:               3.7
 (Enter /storage/apps/GAUSSIAN/G16_RevA03/g16/l502.exe)
 Two-electron integral symmetry not used.
 Closed shell SCF:
 Using DIIS extrapolation, IDIIS=  1040.
 NGot=  2684354560 LenX=  2682275214 LenY=  2681246004
 Requested convergence on RMS density matrix=1.00D-08 within 128 cycles.
 Requested convergence on MAX density matrix=1.00D-06.
 Requested convergence on             energy=1.00D-06.
 No special actions if energy rises.
 Fock matrices will be formed incrementally for  20 cycles.
 Integral accuracy reduced to 1.0D-05 until final iterations.

 Cycle   1  Pass 0  IDiag  1:
 FoFJK:  IHMeth= 1 ICntrl=       0 DoSepK=F KAlg= 0 I1Cent=           0 FoldK=F
 IRaf= 780000000 NMat=       1 IRICut=       1 DoRegI=T DoRafI=F ISym2E= 0 IDoP0=0 IntGTp=1.
 FoFCou: FMM=F IPFlag=           0 FMFlag=      100000 FMFlg1=           0
         NFxFlg=           0 DoJE=F BraDBF=F KetDBF=F FulRan=T
         wScrn=  0.000000 ICntrl=         0 IOpCl=  0 I1Cent=           0 NGrid=           0
         NMat0=    1 NMatS0=      1 NMatT0=    0 NMatD0=    1 NMtDS0=    0 NMtDT0=    0
 Symmetry not used in FoFCou.
 E= -1507.07867525527    
 DIIS: error= 1.64D-02 at cycle   1 NSaved=   1.
 NSaved= 1 IEnMin= 1 EnMin= -1507.07867525527     IErMin= 1 ErrMin= 1.64D-02
 ErrMax= 1.64D-02  0.00D+00 EMaxC= 1.00D-01 BMatC= 1.01D+00 BMatP= 1.01D+00
 IDIUse=3 WtCom= 8.36D-01 WtEn= 1.64D-01
 Coeff-Com:  0.100D+01
 Coeff-En:   0.100D+01
 Coeff:      0.100D+01
 Gap=     0.105 Goal=   None    Shift=    0.000
 GapD=    0.105 DampG=1.000 DampE=0.500 DampFc=0.5000 IDamp=-1.
 Damping current iteration by 5.00D-01
 RMSDP=4.70D-03 MaxDP=1.32D+00              OVMax= 7.77D-01

 Cycle   2  Pass 0  IDiag  1:
 RMSU=  2.34D-03    CP:  1.02D+00
 E= -1507.28967200270     Delta-E=       -0.210996747428 Rises=F Damp=T
 DIIS: error= 5.09D-03 at cycle   2 NSaved=   2.
 NSaved= 2 IEnMin= 2 EnMin= -1507.28967200270     IErMin= 2 ErrMin= 5.09D-03
 ErrMax= 5.09D-03  0.00D+00 EMaxC= 1.00D-01 BMatC= 1.48D-01 BMatP= 1.01D+00
 IDIUse=3 WtCom= 9.49D-01 WtEn= 5.09D-02
 Coeff-Com:  0.101D+00 0.899D+00
 Coeff-En:   0.321D+00 0.679D+00
 Coeff:      0.112D+00 0.888D+00
 Gap=     0.164 Goal=   None    Shift=    0.000
 RMSDP=1.69D-03 MaxDP=4.05D-01 DE=-2.11D-01 OVMax= 7.56D-01

 Cycle   3  Pass 0  IDiag  1:
 RMSU=  1.27D-03    CP:  1.00D+00  5.24D-01
 E= -1507.65168628821     Delta-E=       -0.362014285511 Rises=F Damp=F
 DIIS: error= 7.75D-03 at cycle   3 NSaved=   3.
 NSaved= 3 IEnMin= 3 EnMin= -1507.65168628821     IErMin= 2 ErrMin= 5.09D-03
 ErrMax= 7.75D-03  0.00D+00 EMaxC= 1.00D-01 BMatC= 1.79D-01 BMatP= 1.48D-01
 IDIUse=3 WtCom= 1.02D-01 WtEn= 8.98D-01
 Coeff-Com: -0.442D-01 0.547D+00 0.497D+00
 Coeff-En:   0.000D+00 0.527D-01 0.947D+00
 Coeff:     -0.451D-02 0.103D+00 0.901D+00
 Gap=    -0.007 Goal=   None    Shift=    0.000
 RMSDP=1.84D-03 MaxDP=2.36D-01 DE=-3.62D-01 OVMax= 8.92D-01

 Cycle   4  Pass 0  IDiag  1:
 RMSU=  1.19D-03    CP:  1.00D+00  9.92D-01  3.15D-01
 E= -1506.93614448930     Delta-E=        0.715541798911 Rises=F Damp=F
 DIIS: error= 1.51D-02 at cycle   4 NSaved=   4.
 NSaved= 4 IEnMin= 3 EnMin= -1507.65168628821     IErMin= 2 ErrMin= 5.09D-03
 ErrMax= 1.51D-02  0.00D+00 EMaxC= 1.00D-01 BMatC= 6.79D-01 BMatP= 1.48D-01
 IDIUse=2 WtCom= 0.00D+00 WtEn= 1.00D+00
 Coeff-En:   0.000D+00 0.000D+00 0.762D+00 0.238D+00
 Coeff:      0.000D+00 0.000D+00 0.762D+00 0.238D+00
 Gap=     0.197 Goal=   None    Shift=    0.000
 RMSDP=1.21D-03 MaxDP=1.61D-01 DE= 7.16D-01 OVMax= 6.76D-01

 Cycle   5  Pass 0  IDiag  1:
 RMSU=  5.58D-04    CP:  1.01D+00  7.25D-01  7.01D-01  3.93D-01
 E= -1507.81577218859     Delta-E=       -0.879627699288 Rises=F Damp=F
 DIIS: error= 4.02D-03 at cycle   5 NSaved=   5.
 NSaved= 5 IEnMin= 5 EnMin= -1507.81577218859     IErMin= 5 ErrMin= 4.02D-03
 ErrMax= 4.02D-03  0.00D+00 EMaxC= 1.00D-01 BMatC= 3.50D-02 BMatP= 1.48D-01
 IDIUse=3 WtCom= 9.60D-01 WtEn= 4.02D-02
 Coeff-Com:  0.959D-02-0.227D-02 0.293D+00 0.183D-03 0.699D+00
 Coeff-En:   0.000D+00 0.000D+00 0.163D+00 0.000D+00 0.837D+00
 Coeff:      0.921D-02-0.218D-02 0.288D+00 0.176D-03 0.705D+00
 Gap=     0.114 Goal=   None    Shift=    0.000
 RMSDP=2.92D-04 MaxDP=4.31D-02 DE=-8.80D-01 OVMax= 1.20D-01

 Cycle   6  Pass 0  IDiag  1:
 RMSU=  1.97D-04    CP:  1.00D+00  6.59D-01  7.88D-01  3.08D-01  9.58D-01
 E= -1507.85045822013     Delta-E=       -0.034686031534 Rises=F Damp=F
 DIIS: error= 7.29D-04 at cycle   6 NSaved=   6.
 NSaved= 6 IEnMin= 6 EnMin= -1507.85045822013     IErMin= 6 ErrMin= 7.29D-04
 ErrMax= 7.29D-04  0.00D+00 EMaxC= 1.00D-01 BMatC= 1.46D-03 BMatP= 3.50D-02
 IDIUse=3 WtCom= 9.93D-01 WtEn= 7.29D-03
 Coeff-Com: -0.141D-02 0.536D-02 0.511D-01-0.361D-01 0.319D+00 0.662D+00
 Coeff-En:   0.000D+00 0.000D+00 0.000D+00 0.000D+00 0.000D+00 0.100D+01
 Coeff:     -0.140D-02 0.532D-02 0.507D-01-0.359D-01 0.316D+00 0.665D+00
 Gap=     0.125 Goal=   None    Shift=    0.000
 RMSDP=7.95D-05 MaxDP=1.01D-02 DE=-3.47D-02 OVMax= 1.42D-02

 Cycle   7  Pass 0  IDiag  1:
 RMSU=  6.85D-05    CP:  1.01D+00  6.72D-01  7.85D-01  3.12D-01  1.00D+00
                    CP:  1.04D+00
 E= -1507.85164732959     Delta-E=       -0.001189109467 Rises=F Damp=F
 DIIS: error= 2.75D-04 at cycle   7 NSaved=   7.
 NSaved= 7 IEnMin= 7 EnMin= -1507.85164732959     IErMin= 7 ErrMin= 2.75D-04
 ErrMax= 2.75D-04  0.00D+00 EMaxC= 1.00D-01 BMatC= 1.79D-04 BMatP= 1.46D-03
 IDIUse=3 WtCom= 9.97D-01 WtEn= 2.75D-03
 Coeff-Com: -0.152D-02 0.262D-02-0.122D-01-0.506D-02 0.178D-02 0.271D+00
 Coeff-Com:  0.743D+00
 Coeff-En:   0.000D+00 0.000D+00 0.000D+00 0.000D+00 0.000D+00 0.000D+00
 Coeff-En:   0.100D+01
 Coeff:     -0.151D-02 0.261D-02-0.122D-01-0.505D-02 0.177D-02 0.270D+00
 Coeff:      0.744D+00
 Gap=     0.124 Goal=   None    Shift=    0.000
 RMSDP=3.80D-05 MaxDP=2.99D-03 DE=-1.19D-03 OVMax= 1.05D-02

 Cycle   8  Pass 0  IDiag  1:
 RMSU=  3.09D-05    CP:  1.01D+00  6.72D-01  7.91D-01  3.11D-01  1.00D+00
                    CP:  1.14D+00  1.08D+00
 E= -1507.85181948367     Delta-E=       -0.000172154082 Rises=F Damp=F
 DIIS: error= 1.01D-04 at cycle   8 NSaved=   8.
 NSaved= 8 IEnMin= 8 EnMin= -1507.85181948367     IErMin= 8 ErrMin= 1.01D-04
 ErrMax= 1.01D-04  0.00D+00 EMaxC= 1.00D-01 BMatC= 3.66D-05 BMatP= 1.79D-04
 IDIUse=3 WtCom= 9.99D-01 WtEn= 1.01D-03
 Coeff-Com: -0.736D-03 0.106D-02-0.145D-01 0.187D-02-0.306D-01 0.986D-01
 Coeff-Com:  0.377D+00 0.568D+00
 Coeff-En:   0.000D+00 0.000D+00 0.000D+00 0.000D+00 0.000D+00 0.000D+00
 Coeff-En:   0.000D+00 0.100D+01
 Coeff:     -0.735D-03 0.106D-02-0.144D-01 0.187D-02-0.306D-01 0.985D-01
 Coeff:      0.376D+00 0.568D+00
 Gap=     0.124 Goal=   None    Shift=    0.000
 RMSDP=1.74D-05 MaxDP=1.85D-03 DE=-1.72D-04 OVMax= 3.06D-03

 Cycle   9  Pass 0  IDiag  1:
 RMSU=  1.34D-05    CP:  1.01D+00  6.72D-01  7.91D-01  3.15D-01  1.01D+00
                    CP:  1.18D+00  1.15D+00  1.20D+00
 E= -1507.85184403975     Delta-E=       -0.000024556074 Rises=F Damp=F
 DIIS: error= 9.30D-05 at cycle   9 NSaved=   9.
 NSaved= 9 IEnMin= 9 EnMin= -1507.85184403975     IErMin= 9 ErrMin= 9.30D-05
 ErrMax= 9.30D-05  0.00D+00 EMaxC= 1.00D-01 BMatC= 1.28D-05 BMatP= 3.66D-05
 IDIUse=1 WtCom= 1.00D+00 WtEn= 0.00D+00
 Coeff-Com: -0.375D-03 0.491D-03-0.840D-02 0.211D-02-0.123D-01 0.238D-01
 Coeff-Com:  0.393D-01 0.166D+00 0.790D+00
 Coeff:     -0.375D-03 0.491D-03-0.840D-02 0.211D-02-0.123D-01 0.238D-01
 Coeff:      0.393D-01 0.166D+00 0.790D+00
 Gap=     0.123 Goal=   None    Shift=    0.000
 RMSDP=1.89D-05 MaxDP=3.08D-03 DE=-2.46D-05 OVMax= 1.43D-03

 Cycle  10  Pass 0  IDiag  1:
 RMSU=  1.32D-05    CP:  1.01D+00  6.73D-01  7.92D-01  3.18D-01  1.01D+00
                    CP:  1.20D+00  1.19D+00  1.43D+00  1.67D+00
 E= -1507.85185163113     Delta-E=       -0.000007591378 Rises=F Damp=F
 DIIS: error= 4.64D-05 at cycle  10 NSaved=  10.
 NSaved=10 IEnMin=10 EnMin= -1507.85185163113     IErMin=10 ErrMin= 4.64D-05
 ErrMax= 4.64D-05  0.00D+00 EMaxC= 1.00D-01 BMatC= 4.34D-06 BMatP= 1.28D-05
 IDIUse=1 WtCom= 1.00D+00 WtEn= 0.00D+00
 Coeff-Com: -0.238D-03 0.385D-03-0.357D-02 0.100D-02-0.202D-03-0.101D-02
 Coeff-Com: -0.700D-01-0.666D-01 0.420D+00 0.721D+00
 Coeff:     -0.238D-03 0.385D-03-0.357D-02 0.100D-02-0.202D-03-0.101D-02
 Coeff:     -0.700D-01-0.666D-01 0.420D+00 0.721D+00
 Gap=     0.123 Goal=   None    Shift=    0.000
 RMSDP=2.39D-05 MaxDP=4.17D-03 DE=-7.59D-06 OVMax= 8.32D-04

 Cycle  11  Pass 0  IDiag  1:
 RMSU=  8.75D-06    CP:  1.01D+00  6.74D-01  7.92D-01  3.20D-01  1.01D+00
                    CP:  1.22D+00  1.21D+00  1.67D+00  2.67D+00  2.15D+00
 E= -1507.85185961379     Delta-E=       -0.000007982663 Rises=F Damp=F
 DIIS: error= 2.06D-05 at cycle  11 NSaved=  11.
 NSaved=11 IEnMin=11 EnMin= -1507.85185961379     IErMin=11 ErrMin= 2.06D-05
 ErrMax= 2.06D-05  0.00D+00 EMaxC= 1.00D-01 BMatC= 8.93D-07 BMatP= 4.34D-06
 IDIUse=1 WtCom= 1.00D+00 WtEn= 0.00D+00
 Coeff-Com: -0.166D-03 0.292D-03-0.205D-02 0.607D-03 0.112D-03 0.981D-03
 Coeff-Com: -0.379D-01-0.461D-01 0.164D+00 0.419D+00 0.502D+00
 Coeff:     -0.166D-03 0.292D-03-0.205D-02 0.607D-03 0.112D-03 0.981D-03
 Coeff:     -0.379D-01-0.461D-01 0.164D+00 0.419D+00 0.502D+00
 Gap=     0.123 Goal=   None    Shift=    0.000
 RMSDP=2.69D-05 MaxDP=5.06D-03 DE=-7.98D-06 OVMax= 2.19D-04

 Cycle  12  Pass 0  IDiag  1:
 RMSU=  1.29D-05    CP:  1.01D+00  6.75D-01  7.93D-01  3.21D-01  1.01D+00
                    CP:  1.23D+00  1.22D+00  1.89D+00  3.00D+00  3.00D+00
                    CP:  2.26D+00
 E= -1507.85186411550     Delta-E=       -0.000004501709 Rises=F Damp=F
 DIIS: error= 3.11D-05 at cycle  12 NSaved=  12.
 NSaved=12 IEnMin=12 EnMin= -1507.85186411550     IErMin=11 ErrMin= 2.06D-05
 ErrMax= 3.11D-05  0.00D+00 EMaxC= 1.00D-01 BMatC= 9.16D-07 BMatP= 8.93D-07
 IDIUse=1 WtCom= 1.00D+00 WtEn= 0.00D+00
 Coeff-Com: -0.191D-03 0.377D-03-0.181D-02 0.598D-03 0.130D-02-0.525D-03
 Coeff-Com: -0.510D-01-0.765D-01 0.109D+00 0.545D+00 0.135D+01-0.875D+00
 Coeff:     -0.191D-03 0.377D-03-0.181D-02 0.598D-03 0.130D-02-0.525D-03
 Coeff:     -0.510D-01-0.765D-01 0.109D+00 0.545D+00 0.135D+01-0.875D+00
 Gap=     0.123 Goal=   None    Shift=    0.000
 RMSDP=4.13D-05 MaxDP=7.75D-03 DE=-4.50D-06 OVMax= 9.16D-05

 Cycle  13  Pass 0  IDiag  1:
 RMSU=  8.23D-06    CP:  1.01D+00  6.73D-01  7.90D-01  3.20D-01  1.01D+00
                    CP:  1.21D+00  1.19D+00  1.55D+00  2.20D+00  1.55D+00
                    CP:  2.53D-01 -1.93D-01
 E= -1507.85186028353     Delta-E=        0.000003831972 Rises=F Damp=F
 DIIS: error= 1.51D-05 at cycle  13 NSaved=  13.
 NSaved=13 IEnMin=12 EnMin= -1507.85186411550     IErMin=13 ErrMin= 1.51D-05
 ErrMax= 1.51D-05  0.00D+00 EMaxC= 1.00D-01 BMatC= 4.14D-07 BMatP= 8.93D-07
 IDIUse=1 WtCom= 1.00D+00 WtEn= 0.00D+00
 Coeff-Com: -0.890D-04 0.190D-03-0.457D-03 0.217D-03 0.103D-02 0.185D-02
 Coeff-Com: -0.147D-01-0.371D-01-0.827D-01 0.173D+00 0.111D+01-0.113D+01
 Coeff-Com:  0.978D+00
 Coeff:     -0.890D-04 0.190D-03-0.457D-03 0.217D-03 0.103D-02 0.185D-02
 Coeff:     -0.147D-01-0.371D-01-0.827D-01 0.173D+00 0.111D+01-0.113D+01
 Coeff:      0.978D+00
 Gap=     0.123 Goal=   None    Shift=    0.000
 RMSDP=1.82D-05 MaxDP=2.64D-03 DE= 3.83D-06 OVMax= 1.86D-04

 Cycle  14  Pass 0  IDiag  1:
 RMSU=  8.84D-06    CP:  1.01D+00  6.73D-01  7.89D-01  3.19D-01  1.01D+00
                    CP:  1.21D+00  1.18D+00  1.46D+00  1.73D+00  8.50D-01
                    CP: -5.28D-01 -4.09D-01  1.93D+00
 E= -1507.85186491012     Delta-E=       -0.000004626591 Rises=F Damp=F
 DIIS: error= 1.47D-05 at cycle  14 NSaved=  14.
 NSaved=14 IEnMin=14 EnMin= -1507.85186491012     IErMin=14 ErrMin= 1.47D-05
 ErrMax= 1.47D-05  0.00D+00 EMaxC= 1.00D-01 BMatC= 1.45D-07 BMatP= 4.14D-07
 IDIUse=1 WtCom= 1.00D+00 WtEn= 0.00D+00
 Coeff-Com: -0.787D-04 0.168D-03-0.417D-03 0.192D-03 0.848D-03 0.180D-02
 Coeff-Com: -0.119D-01-0.312D-01-0.725D-01 0.146D+00 0.943D+00-0.967D+00
 Coeff-Com:  0.826D+00 0.164D+00
 Coeff:     -0.787D-04 0.168D-03-0.417D-03 0.192D-03 0.848D-03 0.180D-02
 Coeff:     -0.119D-01-0.312D-01-0.725D-01 0.146D+00 0.943D+00-0.967D+00
 Coeff:      0.826D+00 0.164D+00
 Gap=     0.123 Goal=   None    Shift=    0.000
 RMSDP=4.74D-06 MaxDP=5.58D-04 DE=-4.63D-06 OVMax= 2.36D-05

 Initial convergence to 1.0D-05 achieved.  Increase integral accuracy.
 Cycle  15  Pass 1  IDiag  1:
 E= -1507.85175162240     Delta-E=        0.000113287714 Rises=F Damp=F
 DIIS: error= 4.00D-04 at cycle   1 NSaved=   1.
 NSaved= 1 IEnMin= 1 EnMin= -1507.85175162240     IErMin= 1 ErrMin= 4.00D-04
 ErrMax= 4.00D-04  0.00D+00 EMaxC= 1.00D-01 BMatC= 9.60D-05 BMatP= 9.60D-05
 IDIUse=3 WtCom= 9.96D-01 WtEn= 4.00D-03
 Coeff-Com:  0.100D+01
 Coeff-En:   0.100D+01
 Coeff:      0.100D+01
 Gap=     0.123 Goal=   None    Shift=    0.000
 RMSDP=4.74D-06 MaxDP=5.58D-04 DE= 1.13D-04 OVMax= 1.08D-03

 Cycle  16  Pass 1  IDiag  1:
 RMSU=  5.67D-04    CP:  9.90D-01
 E= -1507.85181383370     Delta-E=       -0.000062211298 Rises=F Damp=F
 DIIS: error= 8.33D-06 at cycle   2 NSaved=   2.
 NSaved= 2 IEnMin= 2 EnMin= -1507.85181383370     IErMin= 2 ErrMin= 8.33D-06
 ErrMax= 8.33D-06  0.00D+00 EMaxC= 1.00D-01 BMatC= 1.16D-07 BMatP= 9.60D-05
 IDIUse=1 WtCom= 1.00D+00 WtEn= 0.00D+00
 Coeff-Com: -0.156D-01 0.102D+01
 Coeff:     -0.156D-01 0.102D+01
 Gap=     0.123 Goal=   None    Shift=    0.000
 RMSDP=2.05D-05 MaxDP=2.02D-03 DE=-6.22D-05 OVMax= 5.40D-04

 Cycle  17  Pass 1  IDiag  1:
 RMSU=  7.28D-06    CP:  9.90D-01  1.03D+00
 E= -1507.85181375433     Delta-E=        0.000000079368 Rises=F Damp=F
 DIIS: error= 9.23D-06 at cycle   3 NSaved=   3.
 NSaved= 3 IEnMin= 2 EnMin= -1507.85181383370     IErMin= 2 ErrMin= 8.33D-06
 ErrMax= 9.23D-06  0.00D+00 EMaxC= 1.00D-01 BMatC= 2.12D-07 BMatP= 1.16D-07
 IDIUse=1 WtCom= 1.00D+00 WtEn= 0.00D+00
 Coeff-Com: -0.104D-01 0.621D+00 0.389D+00
 Coeff:     -0.104D-01 0.621D+00 0.389D+00
 Gap=     0.123 Goal=   None    Shift=    0.000
 RMSDP=9.17D-07 MaxDP=5.99D-05 DE= 7.94D-08 OVMax= 3.65D-04

 Cycle  18  Pass 1  IDiag  1:
 RMSU=  8.69D-07    CP:  9.90D-01  1.03D+00  1.02D+00
 E= -1507.85181398397     Delta-E=       -0.000000229638 Rises=F Damp=F
 DIIS: error= 1.55D-06 at cycle   4 NSaved=   4.
 NSaved= 4 IEnMin= 4 EnMin= -1507.85181398397     IErMin= 4 ErrMin= 1.55D-06
 ErrMax= 1.55D-06  0.00D+00 EMaxC= 1.00D-01 BMatC= 3.82D-09 BMatP= 1.16D-07
 IDIUse=1 WtCom= 1.00D+00 WtEn= 0.00D+00
 Coeff-Com: -0.156D-02 0.834D-01 0.126D+00 0.792D+00
 Coeff:     -0.156D-02 0.834D-01 0.126D+00 0.792D+00
 Gap=     0.123 Goal=   None    Shift=    0.000
 RMSDP=4.41D-07 MaxDP=5.31D-05 DE=-2.30D-07 OVMax= 7.02D-05

 Cycle  19  Pass 1  IDiag  1:
 RMSU=  1.92D-07    CP:  9.90D-01  1.03D+00  1.05D+00  9.58D-01
 E= -1507.85181398760     Delta-E=       -0.000000003631 Rises=F Damp=F
 DIIS: error= 8.57D-07 at cycle   5 NSaved=   5.
 NSaved= 5 IEnMin= 5 EnMin= -1507.85181398760     IErMin= 5 ErrMin= 8.57D-07
 ErrMax= 8.57D-07  0.00D+00 EMaxC= 1.00D-01 BMatC= 1.71D-09 BMatP= 3.82D-09
 IDIUse=1 WtCom= 1.00D+00 WtEn= 0.00D+00
 Coeff-Com:  0.232D-03-0.198D-01 0.269D-01 0.471D+00 0.522D+00
 Coeff:      0.232D-03-0.198D-01 0.269D-01 0.471D+00 0.522D+00
 Gap=     0.123 Goal=   None    Shift=    0.000
 RMSDP=1.24D-07 MaxDP=1.16D-05 DE=-3.63D-09 OVMax= 1.52D-05

 Cycle  20  Pass 1  IDiag  1:
 RMSU=  7.58D-08    CP:  9.90D-01  1.03D+00  1.06D+00  9.87D-01  1.07D+00
 E= -1507.85181398914     Delta-E=       -0.000000001537 Rises=F Damp=F
 DIIS: error= 1.82D-07 at cycle   6 NSaved=   6.
 NSaved= 6 IEnMin= 6 EnMin= -1507.85181398914     IErMin= 6 ErrMin= 1.82D-07
 ErrMax= 1.82D-07  0.00D+00 EMaxC= 1.00D-01 BMatC= 9.97D-11 BMatP= 1.71D-09
 IDIUse=1 WtCom= 1.00D+00 WtEn= 0.00D+00
 Coeff-Com:  0.250D-03-0.168D-01-0.356D-02 0.150D+00 0.238D+00 0.632D+00
 Coeff:      0.250D-03-0.168D-01-0.356D-02 0.150D+00 0.238D+00 0.632D+00
 Gap=     0.123 Goal=   None    Shift=    0.000
 RMSDP=3.48D-08 MaxDP=2.40D-06 DE=-1.54D-09 OVMax= 1.03D-05

 Cycle  21  Pass 1  IDiag  1:
 RMSU=  2.52D-08    CP:  9.90D-01  1.03D+00  1.06D+00  9.88D-01  1.17D+00
                    CP:  1.02D+00
 E= -1507.85181398936     Delta-E=       -0.000000000219 Rises=F Damp=F
 DIIS: error= 8.53D-08 at cycle   7 NSaved=   7.
 NSaved= 7 IEnMin= 7 EnMin= -1507.85181398936     IErMin= 7 ErrMin= 8.53D-08
 ErrMax= 8.53D-08  0.00D+00 EMaxC= 1.00D-01 BMatC= 1.71D-11 BMatP= 9.97D-11
 IDIUse=1 WtCom= 1.00D+00 WtEn= 0.00D+00
 Coeff-Com:  0.335D-04-0.140D-02-0.101D-01-0.408D-01-0.361D-01 0.204D+00
 Coeff-Com:  0.884D+00
 Coeff:      0.335D-04-0.140D-02-0.101D-01-0.408D-01-0.361D-01 0.204D+00
 Coeff:      0.884D+00
 Gap=     0.123 Goal=   None    Shift=    0.000
 RMSDP=2.44D-08 MaxDP=1.58D-06 DE=-2.19D-10 OVMax= 1.05D-05

 Cycle  22  Pass 1  IDiag  1:
 RMSU=  1.35D-08    CP:  9.90D-01  1.03D+00  1.06D+00  9.90D-01  1.23D+00
                    CP:  1.14D+00  1.51D+00
 E= -1507.85181398939     Delta-E=       -0.000000000033 Rises=F Damp=F
 DIIS: error= 4.87D-08 at cycle   8 NSaved=   8.
 NSaved= 8 IEnMin= 8 EnMin= -1507.85181398939     IErMin= 8 ErrMin= 4.87D-08
 ErrMax= 4.87D-08  0.00D+00 EMaxC= 1.00D-01 BMatC= 4.72D-12 BMatP= 1.71D-11
 IDIUse=1 WtCom= 1.00D+00 WtEn= 0.00D+00
 Coeff-Com: -0.410D-04 0.318D-02-0.512D-02-0.498D-01-0.750D-01-0.502D-01
 Coeff-Com:  0.422D+00 0.755D+00
 Coeff:     -0.410D-04 0.318D-02-0.512D-02-0.498D-01-0.750D-01-0.502D-01
 Coeff:      0.422D+00 0.755D+00
 Gap=     0.123 Goal=   None    Shift=    0.000
 RMSDP=1.34D-08 MaxDP=7.71D-07 DE=-3.32D-11 OVMax= 5.69D-06

 Cycle  23  Pass 1  IDiag  1:
 RMSU=  5.04D-09    CP:  9.90D-01  1.03D+00  1.06D+00  9.91D-01  1.25D+00
                    CP:  1.21D+00  1.85D+00  1.46D+00
 E= -1507.85181398941     Delta-E=       -0.000000000019 Rises=F Damp=F
 DIIS: error= 2.01D-08 at cycle   9 NSaved=   9.
 NSaved= 9 IEnMin= 9 EnMin= -1507.85181398941     IErMin= 9 ErrMin= 2.01D-08
 ErrMax= 2.01D-08  0.00D+00 EMaxC= 1.00D-01 BMatC= 4.65D-13 BMatP= 4.72D-12
 IDIUse=1 WtCom= 1.00D+00 WtEn= 0.00D+00
 Coeff-Com: -0.174D-04 0.114D-02-0.204D-03-0.598D-02-0.154D-01-0.518D-01
 Coeff-Com: -0.197D-01 0.178D+00 0.914D+00
 Coeff:     -0.174D-04 0.114D-02-0.204D-03-0.598D-02-0.154D-01-0.518D-01
 Coeff:     -0.197D-01 0.178D+00 0.914D+00
 Gap=     0.123 Goal=   None    Shift=    0.000
 RMSDP=6.43D-09 MaxDP=3.19D-07 DE=-1.91D-11 OVMax= 2.77D-06

 SCF Done:  E(RM062X) =  -1507.85181399     A.U. after   23 cycles
            NFock= 23  Conv=0.64D-08     -V/T= 2.0040
 KE= 1.501788420609D+03 PE=-8.414192387400D+03 EE= 2.966416506972D+03
 Leave Link  502 at Sun Feb 19 04:46:23 2023, MaxMem=  2684354560 cpu:            9339.5 elap:             584.7
 (Enter /storage/apps/GAUSSIAN/G16_RevA03/g16/l601.exe)
 Copying SCF densities to generalized density rwf, IOpCl= 0 IROHF=0.

 **********************************************************************

            Population analysis using the SCF density.

 **********************************************************************

 Alpha  occ. eigenvalues --  -89.85386 -19.66856 -19.64630 -19.61524 -19.61067
 Alpha  occ. eigenvalues --  -19.55561 -14.86868 -14.79529 -10.67262 -10.66014
 Alpha  occ. eigenvalues --  -10.64267 -10.63191 -10.62023 -10.61257 -10.61038
 Alpha  occ. eigenvalues --  -10.60266 -10.59831 -10.59075 -10.58132 -10.55632
 Alpha  occ. eigenvalues --  -10.51806 -10.51139 -10.51099 -10.48611  -8.21265
 Alpha  occ. eigenvalues --   -6.13223  -6.13005  -6.12752  -1.22729  -1.18607
 Alpha  occ. eigenvalues --   -1.17024  -1.14891  -1.13626  -1.08480  -1.04378
 Alpha  occ. eigenvalues --   -0.97250  -0.92497  -0.90282  -0.88310  -0.86356
 Alpha  occ. eigenvalues --   -0.83440  -0.81474  -0.80018  -0.77471  -0.76122
 Alpha  occ. eigenvalues --   -0.72794  -0.70354  -0.70188  -0.69315  -0.67056
 Alpha  occ. eigenvalues --   -0.64875  -0.64809  -0.63283  -0.62015  -0.61786
 Alpha  occ. eigenvalues --   -0.60212  -0.57354  -0.57149  -0.56061  -0.55656
 Alpha  occ. eigenvalues --   -0.54713  -0.53971  -0.52446  -0.52133  -0.51644
 Alpha  occ. eigenvalues --   -0.50828  -0.49969  -0.49505  -0.49276  -0.48929
 Alpha  occ. eigenvalues --   -0.48349  -0.48049  -0.47688  -0.46813  -0.45651
 Alpha  occ. eigenvalues --   -0.45242  -0.44466  -0.43463  -0.42245  -0.42059
 Alpha  occ. eigenvalues --   -0.41191  -0.39606  -0.39330  -0.37987  -0.37371
 Alpha  occ. eigenvalues --   -0.36918  -0.36721  -0.36442  -0.35531  -0.35403
 Alpha  occ. eigenvalues --   -0.34729  -0.34505  -0.27408  -0.26172  -0.19189
 Alpha virt. eigenvalues --   -0.06920  -0.04129   0.03147   0.03775   0.04893
 Alpha virt. eigenvalues --    0.05154   0.06863   0.07127   0.08135   0.08793
 Alpha virt. eigenvalues --    0.09281   0.09371   0.10112   0.10398   0.10825
 Alpha virt. eigenvalues --    0.11713   0.11859   0.12643   0.13351   0.13445
 Alpha virt. eigenvalues --    0.13918   0.14405   0.14621   0.14926   0.15401
 Alpha virt. eigenvalues --    0.16134   0.16632   0.16807   0.17323   0.17722
 Alpha virt. eigenvalues --    0.17927   0.19015   0.19160   0.19445   0.19685
 Alpha virt. eigenvalues --    0.20060   0.20712   0.20996   0.21594   0.22215
 Alpha virt. eigenvalues --    0.22668   0.22935   0.23648   0.23766   0.24531
 Alpha virt. eigenvalues --    0.25003   0.25496   0.25963   0.26375   0.26470
 Alpha virt. eigenvalues --    0.26817   0.27074   0.27818   0.28085   0.28965
 Alpha virt. eigenvalues --    0.29115   0.29877   0.30336   0.30455   0.31040
 Alpha virt. eigenvalues --    0.31423   0.31947   0.32720   0.32927   0.32992
 Alpha virt. eigenvalues --    0.33498   0.33648   0.34204   0.34950   0.35661
 Alpha virt. eigenvalues --    0.36812   0.37210   0.37630   0.37919   0.38411
 Alpha virt. eigenvalues --    0.38476   0.38917   0.39119   0.39623   0.40140
 Alpha virt. eigenvalues --    0.40463   0.40516   0.40749   0.41219   0.41542
 Alpha virt. eigenvalues --    0.42220   0.42490   0.42738   0.43098   0.43741
 Alpha virt. eigenvalues --    0.43910   0.44723   0.44798   0.45498   0.45645
 Alpha virt. eigenvalues --    0.45932   0.46366   0.46631   0.46904   0.47202
 Alpha virt. eigenvalues --    0.47593   0.48067   0.48514   0.48813   0.49143
 Alpha virt. eigenvalues --    0.49378   0.49603   0.49906   0.50589   0.50693
 Alpha virt. eigenvalues --    0.51350   0.51544   0.52173   0.52213   0.52738
 Alpha virt. eigenvalues --    0.53216   0.53469   0.53845   0.54086   0.54689
 Alpha virt. eigenvalues --    0.55465   0.56032   0.56181   0.56443   0.56898
 Alpha virt. eigenvalues --    0.57221   0.57835   0.58246   0.58889   0.59561
 Alpha virt. eigenvalues --    0.59736   0.60440   0.60945   0.61266   0.61742
 Alpha virt. eigenvalues --    0.62085   0.62955   0.63177   0.63456   0.64685
 Alpha virt. eigenvalues --    0.64890   0.66184   0.66339   0.66970   0.67273
 Alpha virt. eigenvalues --    0.68046   0.68886   0.68990   0.69432   0.69929
 Alpha virt. eigenvalues --    0.70886   0.71421   0.71921   0.72746   0.73127
 Alpha virt. eigenvalues --    0.74995   0.75382   0.75446   0.76116   0.77178
 Alpha virt. eigenvalues --    0.77800   0.78320   0.78950   0.80330   0.80812
 Alpha virt. eigenvalues --    0.81814   0.82364   0.82878   0.83401   0.83636
 Alpha virt. eigenvalues --    0.84302   0.85225   0.85844   0.86107   0.86780
 Alpha virt. eigenvalues --    0.87560   0.88641   0.88763   0.89364   0.89927
 Alpha virt. eigenvalues --    0.90468   0.90727   0.91922   0.92223   0.92662
 Alpha virt. eigenvalues --    0.93371   0.94242   0.95039   0.95627   0.96395
 Alpha virt. eigenvalues --    0.97176   0.97410   0.97947   0.98496   0.99539
 Alpha virt. eigenvalues --    1.00095   1.00341   1.02207   1.02990   1.03690
 Alpha virt. eigenvalues --    1.04202   1.04861   1.05523   1.05754   1.06459
 Alpha virt. eigenvalues --    1.06868   1.08272   1.08576   1.09469   1.09684
 Alpha virt. eigenvalues --    1.10894   1.11154   1.11896   1.13140   1.13528
 Alpha virt. eigenvalues --    1.14207   1.14522   1.14669   1.15134   1.15509
 Alpha virt. eigenvalues --    1.16484   1.17185   1.17733   1.18737   1.19545
 Alpha virt. eigenvalues --    1.20032   1.20958   1.21370   1.22242   1.22707
 Alpha virt. eigenvalues --    1.24088   1.24721   1.25721   1.26468   1.27174
 Alpha virt. eigenvalues --    1.27324   1.28866   1.29513   1.29577   1.30812
 Alpha virt. eigenvalues --    1.31445   1.32874   1.33255   1.34474   1.35118
 Alpha virt. eigenvalues --    1.35799   1.36612   1.37706   1.38198   1.38305
 Alpha virt. eigenvalues --    1.40436   1.41591   1.41725   1.43503   1.44301
 Alpha virt. eigenvalues --    1.44828   1.45657   1.46319   1.46817   1.49545
 Alpha virt. eigenvalues --    1.49806   1.50879   1.51575   1.51713   1.52753
 Alpha virt. eigenvalues --    1.53021   1.53995   1.54732   1.55505   1.56088
 Alpha virt. eigenvalues --    1.56646   1.57031   1.57665   1.57898   1.58378
 Alpha virt. eigenvalues --    1.59411   1.59680   1.60078   1.60468   1.60812
 Alpha virt. eigenvalues --    1.61308   1.61677   1.62567   1.63149   1.63548
 Alpha virt. eigenvalues --    1.64547   1.64850   1.65510   1.66678   1.66755
 Alpha virt. eigenvalues --    1.67026   1.67734   1.68117   1.68433   1.68669
 Alpha virt. eigenvalues --    1.69019   1.69640   1.70140   1.70977   1.71594
 Alpha virt. eigenvalues --    1.72352   1.72817   1.73738   1.74251   1.74561
 Alpha virt. eigenvalues --    1.74829   1.76213   1.76460   1.76836   1.77260
 Alpha virt. eigenvalues --    1.77402   1.78332   1.79444   1.80299   1.80935
 Alpha virt. eigenvalues --    1.81963   1.82239   1.83492   1.84190   1.84285
 Alpha virt. eigenvalues --    1.85753   1.86356   1.86577   1.87365   1.87840
 Alpha virt. eigenvalues --    1.88561   1.89361   1.89797   1.90304   1.90842
 Alpha virt. eigenvalues --    1.91535   1.91688   1.92753   1.93576   1.93738
 Alpha virt. eigenvalues --    1.93965   1.95174   1.95588   1.96264   1.97097
 Alpha virt. eigenvalues --    1.97367   1.97808   1.99160   2.00192   2.01071
 Alpha virt. eigenvalues --    2.01268   2.01681   2.02320   2.03718   2.03907
 Alpha virt. eigenvalues --    2.04396   2.05446   2.06892   2.07829   2.08201
 Alpha virt. eigenvalues --    2.08804   2.09663   2.11151   2.11995   2.12126
 Alpha virt. eigenvalues --    2.12685   2.13446   2.14285   2.15027   2.15207
 Alpha virt. eigenvalues --    2.16129   2.16669   2.17008   2.17813   2.18953
 Alpha virt. eigenvalues --    2.19369   2.20071   2.20583   2.21507   2.22250
 Alpha virt. eigenvalues --    2.22581   2.22946   2.24163   2.25352   2.25568
 Alpha virt. eigenvalues --    2.27126   2.27511   2.27809   2.28584   2.29278
 Alpha virt. eigenvalues --    2.29629   2.30668   2.30989   2.31072   2.32087
 Alpha virt. eigenvalues --    2.32949   2.33096   2.33727   2.34133   2.35515
 Alpha virt. eigenvalues --    2.36278   2.37620   2.38071   2.39173   2.39336
 Alpha virt. eigenvalues --    2.40247   2.40840   2.41972   2.42446   2.43904
 Alpha virt. eigenvalues --    2.44313   2.45246   2.45827   2.46182   2.47122
 Alpha virt. eigenvalues --    2.47296   2.48074   2.48314   2.49282   2.50491
 Alpha virt. eigenvalues --    2.51093   2.51793   2.53082   2.54315   2.54429
 Alpha virt. eigenvalues --    2.55182   2.55894   2.57371   2.57574   2.57854
 Alpha virt. eigenvalues --    2.58670   2.59539   2.59967   2.59983   2.60451
 Alpha virt. eigenvalues --    2.61237   2.62243   2.62267   2.63238   2.64599
 Alpha virt. eigenvalues --    2.65134   2.65540   2.66575   2.66979   2.67864
 Alpha virt. eigenvalues --    2.68192   2.68502   2.69093   2.70204   2.70833
 Alpha virt. eigenvalues --    2.71167   2.71858   2.72001   2.72698   2.73340
 Alpha virt. eigenvalues --    2.73376   2.74648   2.75552   2.77080   2.77631
 Alpha virt. eigenvalues --    2.77963   2.78253   2.79374   2.79662   2.80251
 Alpha virt. eigenvalues --    2.81158   2.81518   2.82221   2.82850   2.84292
 Alpha virt. eigenvalues --    2.84360   2.85657   2.86313   2.86887   2.87103
 Alpha virt. eigenvalues --    2.87941   2.89453   2.89707   2.91023   2.91595
 Alpha virt. eigenvalues --    2.92794   2.93287   2.94785   2.95262   2.95838
 Alpha virt. eigenvalues --    2.96418   2.97275   2.98059   2.98536   2.99360
 Alpha virt. eigenvalues --    3.00905   3.01571   3.02155   3.02443   3.03464
 Alpha virt. eigenvalues --    3.03706   3.04260   3.04773   3.05989   3.06633
 Alpha virt. eigenvalues --    3.06919   3.07761   3.08189   3.08433   3.08663
 Alpha virt. eigenvalues --    3.10343   3.11016   3.11041   3.11905   3.12623
 Alpha virt. eigenvalues --    3.13030   3.13472   3.14524   3.15167   3.16219
 Alpha virt. eigenvalues --    3.16499   3.16659   3.17364   3.17873   3.18032
 Alpha virt. eigenvalues --    3.18606   3.18725   3.19656   3.20197   3.20593
 Alpha virt. eigenvalues --    3.21680   3.21786   3.22731   3.24064   3.24843
 Alpha virt. eigenvalues --    3.25147   3.26433   3.27016   3.27524   3.28095
 Alpha virt. eigenvalues --    3.28538   3.28758   3.29049   3.30206   3.30611
 Alpha virt. eigenvalues --    3.31104   3.31579   3.31868   3.32651   3.33346
 Alpha virt. eigenvalues --    3.33949   3.34918   3.35553   3.35972   3.36939
 Alpha virt. eigenvalues --    3.37250   3.37941   3.38578   3.39413   3.40270
 Alpha virt. eigenvalues --    3.40680   3.40742   3.41277   3.41487   3.42122
 Alpha virt. eigenvalues --    3.43209   3.43892   3.44284   3.44645   3.45605
 Alpha virt. eigenvalues --    3.46428   3.46738   3.47758   3.48155   3.48674
 Alpha virt. eigenvalues --    3.49522   3.50323   3.50677   3.51617   3.52228
 Alpha virt. eigenvalues --    3.53049   3.53549   3.54308   3.54479   3.55165
 Alpha virt. eigenvalues --    3.56140   3.57235   3.57422   3.58867   3.59674
 Alpha virt. eigenvalues --    3.60248   3.61703   3.63154   3.63564   3.63686
 Alpha virt. eigenvalues --    3.65012   3.66370   3.67151   3.68852   3.69018
 Alpha virt. eigenvalues --    3.70427   3.71638   3.72119   3.73446   3.74109
 Alpha virt. eigenvalues --    3.74290   3.74956   3.75859   3.76292   3.77162
 Alpha virt. eigenvalues --    3.78483   3.79942   3.81363   3.81844   3.83349
 Alpha virt. eigenvalues --    3.83548   3.84706   3.86281   3.86855   3.88391
 Alpha virt. eigenvalues --    3.89730   3.90404   3.91265   3.91891   3.93104
 Alpha virt. eigenvalues --    3.94370   3.95516   3.95788   3.96826   3.98634
 Alpha virt. eigenvalues --    3.99375   4.01210   4.02800   4.04412   4.06297
 Alpha virt. eigenvalues --    4.06628   4.08810   4.08948   4.09946   4.10405
 Alpha virt. eigenvalues --    4.12109   4.12720   4.13342   4.15181   4.17484
 Alpha virt. eigenvalues --    4.18777   4.18959   4.20165   4.24464   4.25450
 Alpha virt. eigenvalues --    4.26658   4.27295   4.27724   4.29097   4.30172
 Alpha virt. eigenvalues --    4.30978   4.31590   4.33122   4.34446   4.35356
 Alpha virt. eigenvalues --    4.37224   4.38285   4.38670   4.39414   4.41286
 Alpha virt. eigenvalues --    4.42878   4.43310   4.44173   4.45768   4.48149
 Alpha virt. eigenvalues --    4.49187   4.51316   4.54276   4.55133   4.56713
 Alpha virt. eigenvalues --    4.58756   4.62449   4.62654   4.65269   4.67080
 Alpha virt. eigenvalues --    4.69495   4.72056   4.72686   4.73137   4.75677
 Alpha virt. eigenvalues --    4.76758   4.78064   4.79545   4.79644   4.81499
 Alpha virt. eigenvalues --    4.83327   4.86489   4.87520   4.90668   4.91423
 Alpha virt. eigenvalues --    4.92085   4.93322   4.95542   4.96934   4.97685
 Alpha virt. eigenvalues --    4.98626   5.00922   5.02088   5.02842   5.05049
 Alpha virt. eigenvalues --    5.09736   5.11047   5.13081   5.16307   5.19267
 Alpha virt. eigenvalues --    5.20447   5.22276   5.25619   5.27446   5.28668
 Alpha virt. eigenvalues --    5.29246   5.30413   5.31022   5.33725   5.34499
 Alpha virt. eigenvalues --    5.37525   5.40672   5.41151   5.42525   5.44238
 Alpha virt. eigenvalues --    5.46581   5.48652   5.52858   5.55778   5.60089
 Alpha virt. eigenvalues --    5.62288   5.65988   5.72131   5.74109   5.76093
 Alpha virt. eigenvalues --    5.78289   5.79519   5.83037   5.83627   5.86335
 Alpha virt. eigenvalues --    5.87283   5.87984   5.90718   5.91451   5.93720
 Alpha virt. eigenvalues --    6.00518   6.03449   6.05110   6.14947   6.17968
 Alpha virt. eigenvalues --    6.20900   6.22286   6.26127   6.30510   6.35146
 Alpha virt. eigenvalues --    6.36095   6.42045   6.47395   6.52188   6.53308
 Alpha virt. eigenvalues --    6.57829   6.64689   6.68592   6.72368   6.75813
 Alpha virt. eigenvalues --    6.76170   6.79251   6.83411   6.83686   6.85988
 Alpha virt. eigenvalues --    6.90671   6.94347   6.98156   7.04458   7.07784
 Alpha virt. eigenvalues --    7.08606   7.10530   7.11504   7.15305   7.22337
 Alpha virt. eigenvalues --    7.27826   7.33556   9.03840   9.42791   9.55409
 Alpha virt. eigenvalues --   19.74918  22.32156  22.40930  22.48966  22.57773
 Alpha virt. eigenvalues --   22.63596  22.67368  22.71124  22.74962  22.79179
 Alpha virt. eigenvalues --   22.87315  22.89387  22.99975  23.00854  23.10191
 Alpha virt. eigenvalues --   23.23543  23.51634  32.13880  33.14695  44.16020
 Alpha virt. eigenvalues --   44.19885  44.24082  44.30154  44.54447
          Condensed to atoms (all electrons):
               1          2          3          4          5          6
     1  C    5.109845   0.421151   0.415813  -0.021929   0.000146  -0.000132
     2  H    0.421151   0.508598  -0.022110  -0.001600   0.000412  -0.000005
     3  H    0.415813  -0.022110   0.530328   0.001554  -0.000026  -0.000004
     4  C   -0.021929  -0.001600   0.001554   5.680577   0.470229   0.274220
     5  H    0.000146   0.000412  -0.000026   0.470229   0.577865  -0.032782
     6  O   -0.000132  -0.000005  -0.000004   0.274220  -0.032782   8.048925
     7  H   -0.000028  -0.000006   0.000004  -0.052231  -0.005702   0.274391
     8  C    0.016231   0.013518  -0.009781  -0.220907  -0.086950  -0.058026
     9  H    0.013580   0.000052  -0.002497  -0.135323   0.003768   0.003067
    10  O    0.007380  -0.000360   0.000349  -0.051014   0.002171   0.000340
    11  H   -0.000687  -0.000191   0.000489   0.013696  -0.000890  -0.000540
    12  C   -0.002120   0.000151   0.001039  -0.110157  -0.065584  -0.012291
    13  H    0.000251   0.000044   0.000090  -0.103474   0.006926   0.003695
    14  C    0.169313  -0.048528  -0.039249   0.184328   0.021475   0.009195
    15  H   -0.067793  -0.006761  -0.004102  -0.011978   0.000051   0.000087
    16  O   -0.028750   0.000461   0.004886  -0.078812  -0.001265   0.005882
    17  N   -0.000056  -0.000088  -0.000030   0.034108  -0.016494  -0.005729
    18  C   -0.001540  -0.000033   0.000031  -0.003015  -0.009504   0.005569
    19  H    0.000058  -0.000029   0.000021  -0.007964   0.001352   0.000531
    20  C   -0.000021   0.000003  -0.000002   0.002780   0.008720  -0.002620
    21  H    0.000003   0.000000  -0.000000  -0.000057   0.000225  -0.000045
    22  C   -0.000013  -0.000000   0.000000   0.002107  -0.001149   0.000307
    23  H   -0.000000   0.000000  -0.000000   0.000025  -0.000004   0.000001
    24  H    0.000000  -0.000000  -0.000000  -0.000296  -0.000038  -0.000004
    25  C   -0.000067  -0.000006   0.000001  -0.007223   0.000129  -0.000876
    26  C   -0.000446   0.000042  -0.000003   0.028857  -0.002322  -0.004086
    27  H   -0.000023   0.000001  -0.000000   0.001397  -0.000100   0.000158
    28  C    0.000000  -0.000000  -0.000000  -0.000024   0.000010  -0.000011
    29  O   -0.000000   0.000000  -0.000000  -0.000002  -0.000000  -0.000000
    30  N   -0.000000  -0.000000   0.000000  -0.000000  -0.000000  -0.000000
    31  H   -0.000000   0.000000   0.000000   0.000000   0.000000  -0.000000
    32  H    0.000000   0.000000  -0.000000   0.000001   0.000000   0.000000
    33  C    0.000001  -0.000000   0.000000  -0.000019  -0.000387  -0.014076
    34  C    0.000000  -0.000000  -0.000000   0.002153   0.000191   0.001915
    35  C    0.000000   0.000000  -0.000000   0.000552   0.000121   0.000345
    36  C   -0.000000   0.000000   0.000000   0.000002   0.000000   0.000001
    37  C   -0.000000   0.000000   0.000000   0.000269   0.000012   0.000083
    38  O   -0.000000   0.000000  -0.000000  -0.004446  -0.000090  -0.044158
    39  S   -0.000000  -0.000000   0.000000   0.000140   0.000027   0.000715
    40  H    0.000000   0.000000  -0.000000   0.000147   0.000026   0.000334
    41  H   -0.000002   0.000000  -0.000000  -0.002979   0.000494   0.013025
    42  H    0.000000   0.000000  -0.000000  -0.000000   0.000000  -0.000000
    43  H   -0.000000   0.000000  -0.000000   0.000000  -0.000000  -0.000000
    44  H    0.000000   0.000000  -0.000000  -0.000000  -0.000000  -0.000000
    45  H   -0.000000   0.000000   0.000000   0.000041   0.000003   0.000026
    46  H    0.000000  -0.000000  -0.000000  -0.000051  -0.000001   0.000005
    47  H    0.380192  -0.023086  -0.023835   0.003974  -0.000678   0.000051
    48  H    0.000000   0.000000  -0.000000   0.000102   0.000003   0.000381
               7          8          9         10         11         12
     1  C   -0.000028   0.016231   0.013580   0.007380  -0.000687  -0.002120
     2  H   -0.000006   0.013518   0.000052  -0.000360  -0.000191   0.000151
     3  H    0.000004  -0.009781  -0.002497   0.000349   0.000489   0.001039
     4  C   -0.052231  -0.220907  -0.135323  -0.051014   0.013696  -0.110157
     5  H   -0.005702  -0.086950   0.003768   0.002171  -0.000890  -0.065584
     6  O    0.274391  -0.058026   0.003067   0.000340  -0.000540  -0.012291
     7  H    0.380021   0.002472  -0.000836  -0.001004   0.000223   0.009571
     8  C    0.002472   5.644381   0.539793   0.268396  -0.037882   0.047358
     9  H   -0.000836   0.539793   0.563432  -0.056595  -0.001687   0.016534
    10  O   -0.001004   0.268396  -0.056595   8.026302   0.286759  -0.010409
    11  H    0.000223  -0.037882  -0.001687   0.286759   0.425732  -0.003188
    12  C    0.009571   0.047358   0.016534  -0.010409  -0.003188   5.607600
    13  H   -0.002379   0.016435   0.002794   0.016601  -0.001527   0.462559
    14  C    0.000307   0.001137  -0.115631  -0.048820  -0.004262  -0.120876
    15  H    0.000077  -0.037097   0.010366  -0.006804   0.005171  -0.001766
    16  O    0.000853  -0.039646   0.004684   0.007577   0.000338   0.283398
    17  N    0.012137  -0.000199  -0.000880  -0.000499   0.000029   0.168739
    18  C   -0.002310  -0.004581  -0.000337  -0.000489   0.000023  -0.107246
    19  H    0.000612  -0.000377  -0.000037   0.000003   0.000002   0.012245
    20  C   -0.002463  -0.002288   0.000044   0.000016  -0.000002   0.022430
    21  H   -0.000032  -0.000015   0.000001   0.000000  -0.000000   0.000636
    22  C    0.001352   0.000046  -0.000009  -0.000006   0.000000  -0.018762
    23  H   -0.000003   0.000001  -0.000000  -0.000000   0.000000  -0.000062
[...]
      5        1           0.003747730    0.003993866    0.002291771
      6        8           0.006805632    0.001718705   -0.005417180
      7        1          -0.004299481   -0.006013716    0.004498924
      8        6          -0.003856515   -0.011354654   -0.000636308
      9        1          -0.001118138    0.005516388   -0.003804718
     10        8           0.027181531    0.001679638   -0.004955953
     11        1          -0.025088825    0.004906278    0.008122017
     12        6          -0.002292435    0.008477544    0.004899117
     13        1          -0.001498113   -0.002105442   -0.002335425
     14        6           0.007043619    0.000112891    0.000528202
     15        1          -0.003426734    0.002866287    0.001425382
     16        8           0.005650053   -0.005223061   -0.006615218
     17        7           0.006731810    0.001288402    0.001723940
     18        6          -0.011042250   -0.005328533   -0.002841317
     19        1          -0.001475363    0.007516077   -0.000726238
     20        6           0.006289459   -0.006403565    0.000098809
     21        1           0.003791828    0.004146836   -0.001419417
     22        6          -0.006713004    0.004791549    0.003570800
     23        1           0.005752034   -0.004111609    0.000201997
     24        1           0.003032382   -0.011070426   -0.007752849
     25        6           0.005708603   -0.001229449    0.000069553
     26        6          -0.005815067    0.004476543   -0.004156054
     27        1          -0.007734502   -0.004724803    0.003303549
     28        6           0.020687791   -0.000004139    0.018538279
     29        8          -0.009037543   -0.007718824   -0.007315861
     30        7          -0.005860386    0.001268361   -0.027182890
     31        1          -0.006844682   -0.006839204    0.007229795
     32        1           0.006306583    0.012618466    0.009533472
     33        6          -0.005976973   -0.013822443   -0.002689356
     34        6           0.005738945   -0.020834638    0.015736784
     35        6          -0.005280669    0.007754202   -0.010723250
     36        6          -0.003812818    0.007379473   -0.002326918
     37        6          -0.001220215    0.004762075    0.010211753
     38        8           0.003078991    0.015507738   -0.011057129
     39       16           0.005592318    0.001610539   -0.000317543
     40        1           0.005877756    0.002925835   -0.003235862
     41        1          -0.001315959    0.005744309    0.004916796
     42        1          -0.000331057   -0.000842142    0.005246285
     43        1          -0.003106885   -0.003944900    0.003156998
     44        1           0.006290359   -0.001572722   -0.003527166
     45        1           0.001543771    0.005323416   -0.000985693
     46        1          -0.002649714   -0.006354605    0.003619074
     47        1           0.001499145   -0.004498340   -0.001168260
     48        1          -0.001741702    0.003555555   -0.004211627
 -------------------------------------------------------------------
 Cartesian Forces:  Max     0.027182890 RMS     0.007273978
 Leave Link  716 at Sun Feb 19 04:49:29 2023, MaxMem=  2684354560 cpu:               0.4 elap:               0.0
 (Enter /storage/apps/GAUSSIAN/G16_RevA03/g16/l103.exe)

 GradGradGradGradGradGradGradGradGradGradGradGradGradGradGradGradGradGrad
 Berny optimization.
 Search for a local minimum.
 Step number   1 out of a maximum of    2
 All quantities printed in internal units (Hartrees-Bohrs-Radians)
 Second derivative matrix not updated -- first step.
 ITU=  0
     Eigenvalues ---    0.00014   0.00044   0.00074   0.00113   0.00161
     Eigenvalues ---    0.00195   0.00269   0.00290   0.00401   0.00460
     Eigenvalues ---    0.00541   0.00686   0.00751   0.00846   0.00905
     Eigenvalues ---    0.01042   0.01071   0.01135   0.01324   0.01475
     Eigenvalues ---    0.01746   0.01796   0.02137   0.02292   0.02652
     Eigenvalues ---    0.02824   0.03200   0.03244   0.03584   0.03757
     Eigenvalues ---    0.04206   0.04502   0.04916   0.05039   0.05185
     Eigenvalues ---    0.05289   0.05418   0.05534   0.05837   0.05935
     Eigenvalues ---    0.06084   0.06380   0.06679   0.06681   0.06945
     Eigenvalues ---    0.07171   0.07347   0.07505   0.07934   0.08114
     Eigenvalues ---    0.08644   0.08870   0.09053   0.09277   0.10035
     Eigenvalues ---    0.10737   0.10971   0.11298   0.11956   0.12259
     Eigenvalues ---    0.12577   0.12730   0.12884   0.13004   0.13254
     Eigenvalues ---    0.13805   0.14235   0.15180   0.15783   0.15927
     Eigenvalues ---    0.16902   0.17899   0.17913   0.18326   0.19265
     Eigenvalues ---    0.20412   0.20754   0.20939   0.21601   0.22519
     Eigenvalues ---    0.24980   0.26485   0.27162   0.27790   0.28804
     Eigenvalues ---    0.32489   0.32960   0.34004   0.34229   0.36693
     Eigenvalues ---    0.37272   0.37272   0.37272   0.37272   0.39541
     Eigenvalues ---    0.42795   0.47027   0.48363   0.54533   0.58311
     Eigenvalues ---    0.59613   0.60510   0.67426   0.71655   0.72135
     Eigenvalues ---    0.78592   0.81545   0.81899   0.87121   0.87159
     Eigenvalues ---    0.88572   0.89077   0.90858   0.91950   0.92843
     Eigenvalues ---    0.95516   0.96672   0.99130   0.99964   1.01358
     Eigenvalues ---    1.03577   1.05829   1.09616   1.11318   1.11498
     Eigenvalues ---    1.15821   1.22562   1.26116   1.26831   1.27197
     Eigenvalues ---    1.32224   1.40941   1.44570   1.52977   1.70655
     Eigenvalues ---    1.75940   1.85382   2.30073
 Quadratic step=8.233D+00 exceeds max=3.000D-01 adjusted using Lamda=-3.213D-02.
 Angle between NR and scaled steps=  69.34 degrees.
 Angle between quadratic step and forces=  61.69 degrees.
 Linear search not attempted -- first point.
 Variable       Old X    -DE/DX   Delta X   Delta X   Delta X     New X
                                 (Linear)    (Quad)   (Total)
    X1        6.31038  -0.00169   0.00000  -0.02480  -0.02480   6.28558
    Y1       -6.93945   0.00829   0.00000   0.02051   0.02051  -6.91894
    Z1       -1.02766   0.00009   0.00000   0.00208   0.00208  -1.02558
    X2        6.45594  -0.00080   0.00000  -0.01390  -0.01390   6.44204
    Y2       -7.23072  -0.00019   0.00000   0.01263   0.01263  -7.21808
    Z2       -3.07824   0.00666   0.00000   0.01961   0.01961  -3.05864
    X3        8.03418  -0.00690   0.00000  -0.04445  -0.04445   7.98972
    Y3       -7.64519  -0.00143   0.00000  -0.01879  -0.01879  -7.66398
    Z3       -0.10507  -0.00310   0.00000  -0.02391  -0.02391  -0.12898
    X4        2.80444  -0.00743   0.00000   0.00154   0.00154   2.80597
    Y4       -2.55377  -0.00261   0.00000   0.00638   0.00638  -2.54739
    Z4        2.22443   0.00283   0.00000   0.00675   0.00675   2.23118
    X5        1.65805   0.00375   0.00000   0.02744   0.02744   1.68548
    Y5       -4.28724   0.00399   0.00000   0.00406   0.00406  -4.28319
    Z5        1.94048   0.00229   0.00000   0.03724   0.03724   1.97772
    X6        1.94914   0.00681   0.00000   0.04681   0.04681   1.99594
    Y6       -1.14805   0.00172   0.00000   0.01176   0.01176  -1.13629
    Z6        4.24534  -0.00542   0.00000   0.00977   0.00977   4.25511
    X7        0.58594  -0.00430   0.00000  -0.06592  -0.06592   0.52002
    Y7        0.05576  -0.00601   0.00000  -0.09467  -0.09467  -0.03891
    Z7        3.76967   0.00450   0.00000   0.07543   0.07543   3.84511
    X8        5.56661  -0.00386   0.00000  -0.00028  -0.00028   5.56633
    Y8       -3.44937  -0.01135   0.00000   0.00669   0.00669  -3.44268
    Z8        2.36632  -0.00064   0.00000  -0.00957  -0.00957   2.35676
    X9        5.77365  -0.00112   0.00000   0.00656   0.00656   5.78021
    Y9       -5.11755   0.00552   0.00000   0.02067   0.02067  -5.09688
    Z9        3.60591  -0.00380   0.00000  -0.02285  -0.02285   3.58305
   X10        7.07114   0.02718   0.00000   0.00405   0.00405   7.07519
   Y10       -1.44682   0.00168   0.00000   0.01903   0.01903  -1.42778
   Z10        3.19605  -0.00496   0.00000  -0.00409  -0.00409   3.19196
   X11        8.85318  -0.02509   0.00000  -0.03829  -0.03829   8.81489
   Y11       -1.80095   0.00491   0.00000   0.01769   0.01769  -1.78325
   Z11        2.74643   0.00812   0.00000   0.03205   0.03205   2.77849
   X12        2.92825  -0.00229   0.00000  -0.01035  -0.01035   2.91791
   Y12       -1.21146   0.00848   0.00000   0.00471   0.00471  -1.20675
   Z12       -0.32366   0.00490   0.00000   0.00197   0.00197  -0.32169
   X13        4.00097  -0.00150   0.00000  -0.00605  -0.00605   3.99492
   Y13        0.55299  -0.00211   0.00000  -0.00150  -0.00150   0.55149
   Z13       -0.09066  -0.00234   0.00000  -0.03090  -0.03090  -0.12156
   X14        6.10087   0.00704   0.00000   0.00725   0.00725   6.10812
   Y14       -4.13462   0.00011   0.00000   0.01561   0.01561  -4.11901
   Z14       -0.44318   0.00053   0.00000  -0.00160  -0.00160  -0.44478
   X15        7.90021  -0.00343   0.00000  -0.00977  -0.00977   7.89044
   Y15       -3.25548   0.00287   0.00000   0.04054   0.04054  -3.21494
   Z15       -1.00264   0.00143   0.00000   0.00022   0.00022  -1.00242
   X16        4.11377   0.00565   0.00000   0.00284   0.00284   4.11661
   Y16       -2.96592  -0.00522   0.00000  -0.00116  -0.00116  -2.96708
   Z16       -1.88467  -0.00662   0.00000  -0.00829  -0.00829  -1.89296
   X17        0.49792   0.00673   0.00000  -0.01447  -0.01447   0.48345
   Y17       -0.52805   0.00129   0.00000  -0.00146  -0.00146  -0.52951
   Z17       -1.46202   0.00172   0.00000   0.01489   0.01489  -1.44712
   X18       -1.36837  -0.01104   0.00000  -0.02020  -0.02020  -1.38857
   Y18       -2.29279  -0.00533   0.00000  -0.00145  -0.00145  -2.29423
   Z18       -1.55071  -0.00284   0.00000   0.00351   0.00351  -1.54719
   X19       -0.94323  -0.00148   0.00000  -0.01450  -0.01450  -0.95773
   Y19       -4.13004   0.00752   0.00000   0.02483   0.02483  -4.10521
   Z19       -0.73531  -0.00073   0.00000   0.01265   0.01265  -0.72265
   X20       -3.63069   0.00629   0.00000   0.00494   0.00494  -3.62575
   Y20       -1.77115  -0.00640   0.00000  -0.00882  -0.00882  -1.77997
   Z20       -2.68176   0.00010   0.00000  -0.01234  -0.01234  -2.69409
   X21       -5.11844   0.00379   0.00000   0.02134   0.02134  -5.09710
   Y21       -3.18786   0.00415   0.00000  -0.00367  -0.00367  -3.19153
   Z21       -2.62722  -0.00142   0.00000  -0.03934  -0.03934  -2.66656
   X22       -3.95394  -0.00671   0.00000  -0.00809  -0.00809  -3.96204
   Y22        0.56618   0.00479   0.00000   0.00342   0.00342   0.56960
   Z22       -3.90215   0.00357   0.00000   0.01687   0.01687  -3.88528
   X23       -5.74352   0.00575   0.00000   0.02324   0.02324  -5.72028
   Y23        1.05252  -0.00411   0.00000  -0.03417  -0.03417   1.01835
   Z23       -4.80185   0.00020   0.00000  -0.02612  -0.02612  -4.82797
   X24       -5.45039   0.00303   0.00000  -0.00294  -0.00294  -5.45333
   Y24        2.55359  -0.01107   0.00000  -0.03234  -0.03234   2.52125
   Z24       -1.09431  -0.00775   0.00000  -0.00115  -0.00115  -1.09546
   X25       -1.97657   0.00571   0.00000  -0.00234  -0.00234  -1.97890
   Y25        2.30717  -0.00123   0.00000  -0.00556  -0.00556   2.30161
   Z25       -3.88932   0.00007   0.00000   0.01017   0.01017  -3.87915
   X26        0.22078  -0.00582   0.00000  -0.03162  -0.03162   0.18917
   Y26        1.75124   0.00448   0.00000  -0.00249  -0.00249   1.74875
   Z26       -2.57726  -0.00416   0.00000   0.02279   0.02279  -2.55446
   X27        1.82092  -0.00773   0.00000  -0.05229  -0.05229   1.76863
   Y27        3.05919  -0.00472   0.00000  -0.00942  -0.00942   3.04977
   Z27       -2.56809   0.00330   0.00000   0.05128   0.05128  -2.51681
   X28       -2.09525   0.02069   0.00000   0.03472   0.03472  -2.06053
   Y28        4.79125  -0.00000   0.00000  -0.01748  -0.01748   4.77377
   Z28       -5.27843   0.01854   0.00000   0.00146   0.00146  -5.27697
   X29       -0.68493  -0.00904   0.00000   0.01238   0.01238  -0.67255
   Y29        6.51796  -0.00772   0.00000  -0.01050  -0.01050   6.50747
   Z29       -4.71488  -0.00732   0.00000  -0.02005  -0.02005  -4.73493
   X30       -3.79914  -0.00586   0.00000   0.02857   0.02857  -3.77058
   Y30        4.90875   0.00127   0.00000   0.00373   0.00373   4.91248
   Z30       -7.17352  -0.02718   0.00000  -0.02220  -0.02220  -7.19572
   X31       -3.45566  -0.00684   0.00000  -0.05115  -0.05115  -3.50681
   Y31        6.38180  -0.00684   0.00000   0.01159   0.01159   6.39339
   Z31       -8.37804   0.00723   0.00000   0.00368   0.00368  -8.37436
   X32       -4.45960   0.00631   0.00000   0.03890   0.03890  -4.42071
   Y32        3.29519   0.01262   0.00000   0.02319   0.02319   3.31838
   Z32       -8.02176   0.00953   0.00000   0.01404   0.01404  -8.00772
   X33        0.91746  -0.00598   0.00000  -0.02755  -0.02755   0.88991
   Y33        4.19247  -0.01382   0.00000  -0.02426  -0.02426   4.16822
   Z33        7.33489  -0.00269   0.00000  -0.00687  -0.00687   7.32802
   X34       -2.14641   0.00574   0.00000   0.00867   0.00867  -2.13775
   Y34        4.12686  -0.02083   0.00000  -0.01074  -0.01074   4.11612
   Z34        3.02312   0.01574   0.00000   0.00508   0.00508   3.02819
   X35       -3.43204  -0.00528   0.00000  -0.01613  -0.01613  -3.44817
   Y35        5.28008   0.00775   0.00000   0.00278   0.00278   5.28286
   Z35        1.07372  -0.01072   0.00000   0.00677   0.00677   1.08048
   X36       -7.25453  -0.00381   0.00000   0.00063   0.00063  -7.25390
   Y36        6.11335   0.00738   0.00000   0.00959   0.00959   6.12295
   Z36       -1.66648  -0.00233   0.00000   0.00608   0.00608  -1.66039
   X37       -5.81439  -0.00122   0.00000  -0.00817  -0.00817  -5.82255
   Y37        4.24053   0.00476   0.00000   0.00219   0.00219   4.24272
   Z37        0.00759   0.01021   0.00000   0.01239   0.01239   0.01998
   X38       -2.22429   0.00308   0.00000   0.04840   0.04840  -2.17590
   Y38        1.81210   0.01551   0.00000  -0.00831  -0.00831   1.80379
   Z38        3.66983  -0.01106   0.00000  -0.06880  -0.06880   3.60102
   X39       -0.35517   0.00559   0.00000   0.02884   0.02884  -0.32633
   Y39        6.30384   0.00161   0.00000  -0.01283  -0.01283   6.29101
   Z39        4.97037  -0.00032   0.00000  -0.01243  -0.01243   4.95794
   X40       -0.65324   0.00588   0.00000  -0.00936  -0.00936  -0.66260
   Y40        3.31946   0.00293   0.00000  -0.00540  -0.00540   3.31406
   Z40        8.37804  -0.00324   0.00000  -0.00650  -0.00650   8.37155
   X41        2.00762  -0.00132   0.00000   0.01277   0.01277   2.02039
   Y41        2.68212   0.00574   0.00000   0.00192   0.00192   2.68404
   Z41        6.42473   0.00492   0.00000   0.04420   0.04420   6.46892
   X42       -8.00824  -0.00033   0.00000  -0.02075  -0.02075  -8.02899
   Y42        5.24325  -0.00084   0.00000  -0.01618  -0.01618   5.22707
   Z42       -3.39398   0.00525   0.00000   0.03959   0.03959  -3.35439
   X43       -6.00728  -0.00311   0.00000   0.00836   0.00836  -5.99892
   Y43        7.64519  -0.00394   0.00000  -0.02126  -0.02126   7.62394
   Z43       -2.31823   0.00316   0.00000  -0.00406  -0.00406  -2.32228
   X44       -8.85318   0.00629   0.00000   0.03447   0.03447  -8.81871
   Y44        6.97636  -0.00157   0.00000   0.03544   0.03544   7.01180
   Z44       -0.65244  -0.00353   0.00000  -0.00665  -0.00665  -0.65909
   X45       -7.01656   0.00154   0.00000  -0.00962  -0.00962  -7.02619
   Y45        3.44487   0.00532   0.00000   0.05359   0.05359   3.49847
   Z45        1.51111  -0.00099   0.00000   0.02194   0.02194   1.53305
   X46       -2.90118  -0.00265   0.00000  -0.03040  -0.03040  -2.93158
   Y46        7.21228  -0.00635   0.00000  -0.00705  -0.00705   7.20523
   Z46        0.56154   0.00362   0.00000   0.03357   0.03357   0.59511
   X47        4.64453   0.00150   0.00000  -0.00320  -0.00320   4.64132
   Y47       -7.90204  -0.00450   0.00000  -0.02938  -0.02938  -7.93142
   Z47       -0.29204  -0.00117   0.00000  -0.01921  -0.01921  -0.31126
   X48        2.12368  -0.00174   0.00000  -0.05207  -0.05207   2.07162
   Y48        5.21878   0.00356   0.00000   0.03964   0.03964   5.25842
   Z48        8.65189  -0.00421   0.00000  -0.03763  -0.03763   8.61426
         Item               Value     Threshold  Converged?
 Maximum Force            0.027183     0.000450     NO 
 RMS     Force            0.007274     0.000300     NO 
 Maximum Displacement     0.094669     0.001800     NO 
 RMS     Displacement     0.025014     0.001200     NO 
 Predicted change in Energy=-7.660121D-03
 GradGradGradGradGradGradGradGradGradGradGradGradGradGradGradGradGradGrad

 Leave Link  103 at Sun Feb 19 04:49:29 2023, MaxMem=  2684354560 cpu:               3.2 elap:               0.2
 (Enter /storage/apps/GAUSSIAN/G16_RevA03/g16/l9999.exe)

 Test job not archived.
 1\1\GINC-T046\Force\RM062X\def2TZVP\C16H24N2O5S1\LV87696\19-Feb-2023\0
 \\#P M062X/Def2TZVP scf=(direct,conver=8) EmpiricalDispersion=GD3 NoSy
 mm Force pop=(NBORead) Charge Prop=(Field,Read)\\Gaussian run using SA
 NDER external interface, route from template gau_job.tpl\\0,1\C,3.3393
 09251,-3.6721973393,-0.5438123185\H,3.416334761,-3.8263318569,-1.62893
 67071\H,4.2515024194,-4.0456618435,-0.0556004541\C,1.484043333,-1.3513
 986966,1.1771177927\H,0.8774014711,-2.2687107652,1.0268577653\O,1.0314
 394768,-0.6075218314,2.2465392763\H,0.3100645705,0.0295050545,1.994824
 505\C,2.9457223468,-1.8253266801,1.2522051244\H,3.0552822632,-2.708091
 7041,1.9081637238\O,3.7418879378,-0.7656222768,1.6912773765\H,4.684898
 4768,-0.9530194825,1.4533497107\C,1.5495652054,-0.6410777262,-0.171272
 6597\H,2.117221231,0.292627193,-0.0479739582\C,3.2284400251,-2.1879487
 426,-0.2345189672\H,4.1806094492,-1.7227263833,-0.5305719501\O,2.17691
 48326,-1.56949752,-0.9973266008\N,0.2634899851,-0.2794339994,-0.773666
 6039\C,-0.7241077971,-1.2132909536,-0.8205990858\H,-0.4991343321,-2.18
 55231528,-0.3891073837\C,-1.9212762718,-0.9372527755,-1.4191244189\H,-
 2.7085603508,-1.6869437104,-1.3902632943\C,-2.0923356205,0.2996071931,
 -2.0649302211\H,-3.039338238,0.5569696641,-2.5410296079\H,-2.884223179
 7,1.3513027192,-0.5790850383\C,-1.0459543076,1.2209005872,-2.058139586
 5\C,0.1168339611,0.9267152623,-1.3638259439\H,0.9635889094,1.618851729
 8,-1.3589734017\C,-1.1087569557,2.5354221181,-2.7932232911\O,-0.362447
 195,3.4491584903,-2.4950047635\N,-2.0104206396,2.5975964105,-3.7960618
 8\H,-1.8286542881,3.3771017316,-4.4334696114\H,-2.3599197684,1.7437401
 906,-4.2449343994\C,0.4855001201,2.2185607451,3.8814553772\C,-1.135832
 6026,2.1838389321,1.5997649453\C,-1.8161572854,2.7941004573,0.56818726
 87\C,-3.8389327609,3.2350478891,-0.8818617396\C,-3.0768417877,2.243992
 7962,0.0040178518\O,-1.1770453789,0.9589208648,1.9419885177\S,-0.18794
 82117,3.3358506666,2.6302072804\H,-0.3456822606,1.756582521,4.43346961
 14\H,1.0623872377,1.4193146468,3.3998193622\H,-4.2377759841,2.77460820
 4,-1.7960183507\H,-3.1789138843,4.0456618435,-1.2267532035\H,-4.684898
 4768,3.6917324159,-0.3452556896\H,-3.7130047032,1.8229490029,0.7996439
 85\H,-1.5352377516,3.816572418,0.2971536117\H,2.4577775359,-4.18158067
 49,-0.1545431921\H,1.1238053953,2.7616594632,4.5783844683\\Version=ES6
 4L-G16RevA.03\HF=-1507.851814\RMSD=6.434e-09\RMSF=7.274e-03\Dipole=0.6
 806546,-3.0313526,-3.3105112\Quadrupole=12.5875166,-12.0415999,-0.5459
 166,-4.7161598,12.3231269,-8.1097058\PG=C01 [X(C16H24N2O5S1)]\\@


 IF AT FIRST YOU DON'T SUCCEED, TRY, TRY AGAIN.
 THEN GIVE UP;
 THERE'S NO USE BEING A DAMN FOOL ABOUT IT.

                                 -- W. C. FIELDS
 Job cpu time:       0 days  3 hours 26 minutes 25.7 seconds.
 Elapsed time:       0 days  0 hours 12 minutes 55.7 seconds.
 File lengths (MBytes):  RWF=    435 Int=      0 D2E=      0 Chk=     48 Scr=      1
 Normal termination of Gaussian 16 at Sun Feb 19 04:49:29 2023.
