 Entering Gaussian System, Link 0=g16
 Initial command:
 /storage/apps/GAUSSIAN/G16_RevA03/g16/l1.exe "/scratch/tmp/1267172/Gau-7730.inp" -scrdir="/scratch/tmp/1267172/"
 Entering Link 1 = /storage/apps/GAUSSIAN/G16_RevA03/g16/l1.exe PID=      7731.
  
 Copyright (c) 1988,1990,1992,1993,1995,1998,2003,2009,2016,
            Gaussian, Inc.  All Rights Reserved.
  
 This is part of the Gaussian(R) 16 program.  It is based on
 the Gaussian(R) 09 system (copyright 2009, Gaussian, Inc.),
 the Gaussian(R) 03 system (copyright 2003, Gaussian, Inc.),
 the Gaussian(R) 98 system (copyright 1998, Gaussian, Inc.),
 the Gaussian(R) 94 system (copyright 1995, Gaussian, Inc.),
 the Gaussian 92(TM) system (copyright 1992, Gaussian, Inc.),
 the Gaussian 90(TM) system (copyright 1990, Gaussian, Inc.),
 the Gaussian 88(TM) system (copyright 1988, Gaussian, Inc.),
 the Gaussian 86(TM) system (copyright 1986, Carnegie Mellon
 University), and the Gaussian 82(TM) system (copyright 1983,
 Carnegie Mellon University). Gaussian is a federally registered
 trademark of Gaussian, Inc.
  
 This software contains proprietary and confidential information,
 including trade secrets, belonging to Gaussian, Inc.
  
 This software is provided under written license and may be
 used, copied, transmitted, or stored only in accord with that
 written license.
  
 The following legend is applicable only to US Government
 contracts under FAR:
  
                    RESTRICTED RIGHTS LEGEND
  
 Use, reproduction and disclosure by the US Government is
 subject to restrictions as set forth in subparagraphs (a)
 and (c) of the Commercial Computer Software - Restricted
 Rights clause in FAR 52.227-19.
  
 Gaussian, Inc.
 340 Quinnipiac St., Bldg. 40, Wallingford CT 06492
  
  
 ---------------------------------------------------------------
 Warning -- This program may not be used in any manner that
 competes with the business of Gaussian, Inc. or will provide
 assistance to any competitor of Gaussian, Inc.  The licensee
 of this program is prohibited from giving any competitor of
 Gaussian, Inc. access to this program.  By using this program,
 the user acknowledges that Gaussian, Inc. is engaged in the
 business of creating and licensing software in the field of
 computational chemistry and represents and warrants to the
 licensee that it is not a competitor of Gaussian, Inc. and that
 it will not use this program in any manner prohibited above.
 ---------------------------------------------------------------
  

 Cite this work as:
 Gaussian 16, Revision A.03,
 M. J. Frisch, G. W. Trucks, H. B. Schlegel, G. E. Scuseria, 
 M. A. Robb, J. R. Cheeseman, G. Scalmani, V. Barone, 
 G. A. Petersson, H. Nakatsuji, X. Li, M. Caricato, A. V. Marenich, 
 J. Bloino, B. G. Janesko, R. Gomperts, B. Mennucci, H. P. Hratchian, 
 J. V. Ortiz, A. F. Izmaylov, J. L. Sonnenberg, D. Williams-Young, 
 F. Ding, F. Lipparini, F. Egidi, J. Goings, B. Peng, A. Petrone, 
 T. Henderson, D. Ranasinghe, V. G. Zakrzewski, J. Gao, N. Rega, 
 G. Zheng, W. Liang, M. Hada, M. Ehara, K. Toyota, R. Fukuda, 
 J. Hasegawa, M. Ishida, T. Nakajima, Y. Honda, O. Kitao, H. Nakai, 
 T. Vreven, K. Throssell, J. A. Montgomery, Jr., J. E. Peralta, 
 F. Ogliaro, M. J. Bearpark, J. J. Heyd, E. N. Brothers, K. N. Kudin, 
 V. N. Staroverov, T. A. Keith, R. Kobayashi, J. Normand, 
 K. Raghavachari, A. P. Rendell, J. C. Burant, S. S. Iyengar, 
 J. Tomasi, M. Cossi, J. M. Millam, M. Klene, C. Adamo, R. Cammi, 
 J. W. Ochterski, R. L. Martin, K. Morokuma, O. Farkas, 
 J. B. Foresman, and D. J. Fox, Gaussian, Inc., Wallingford CT, 2016.
 
 ******************************************
 Gaussian 16:  ES64L-G16RevA.03 25-Dec-2016
                19-Feb-2023 
 ******************************************
 %chk=gau_job.chk
 %NProcShared=16
 Will use up to   16 processors via shared memory.
 %mem=20GB
 ----------------------------------------------------------------------
 #P M062X/Def2TZVP scf=(direct,conver=8) EmpiricalDispersion=GD3 NoSymm
  Force pop=(NBORead) Charge Prop=(Field,Read)
 ----------------------------------------------------------------------
 1/10=7,18=10,28=-2,30=1,38=1,125=101/1,3;
 2/12=2,15=1,17=6,18=5,29=2,40=1/2;
 3/5=44,7=101,11=2,25=1,30=1,71=1,74=-55,124=31/1,2,3;
 4//1;
 5/5=2,6=8,38=5/2;
 6/7=2,8=2,9=2,10=2,14=2,15=1,28=1,40=2/1,2,7;
 7/7=1,16=-2,29=1,30=1/1,2,3,16;
 1/10=7,18=10,28=-2,30=1/3;
 99/12=1/99;
 Leave Link    1 at Sun Feb 19 04:37:34 2023, MaxMem=  2684354560 cpu:               0.7 elap:               0.0
 (Enter /storage/apps/GAUSSIAN/G16_RevA03/g16/l101.exe)
 ----------------------------------------------------------------------
 Gaussian run using SANDER external interface, route from template gau_
 job.tpl
 ----------------------------------------------------------------------
 Symbolic Z-matrix:
 Charge =  0 Multiplicity = 1
 C                     3.33492  -3.66936  -0.54211 
 H                     3.4106   -3.8224   -1.62758 
 H                     4.24811  -4.04358  -0.05628 
 C                     1.47985  -1.34576   1.184 
 H                     0.87604  -2.26499   1.03223 
 O                     1.02775  -0.60304   2.25288 
 H                     0.29605   0.0323    2.00978 
 C                     2.94247  -1.82151   1.25638 
 H                     3.0508   -2.70347   1.91322 
 O                     3.73979  -0.76181   1.69259 
 H                     4.68249  -0.95207   1.45687 
 C                     1.54712  -0.63586  -0.16467 
 H                     2.10899   0.30128  -0.04085 
 C                     3.22561  -2.18506  -0.23005 
 H                     4.17867  -1.72159  -0.52589 
 O                     2.17778  -1.56185  -0.9916 
 N                     0.26742  -0.28707  -0.78629 
 C                    -0.70543  -1.23457  -0.84792 
 H                    -0.49719  -2.17768  -0.35041 
 C                    -1.88978  -0.97821  -1.48328 
 H                    -2.67803  -1.72836  -1.44498 
 C                    -2.06723   0.25699  -2.1282 
 H                    -2.99159   0.48153  -2.65742 
 H                    -2.93521   1.30654  -0.51712 
 C                    -1.0351    1.18937  -2.10423 
 C                     0.11842   0.91192  -1.38279 
 H                     0.94015   1.6327   -1.32801 
 C                    -1.10888   2.51499  -2.81635 
 O                    -0.37252   3.42816  -2.49023 
 N                    -2.01871   2.59849  -3.81089 
 H                    -1.83759   3.38723  -4.43784 
 H                    -2.36443   1.74995  -4.2733 
 C                     0.49823   2.20993   3.88654 
 C                    -1.12652   2.18045   1.5993 
 C                    -1.83047   2.80828   0.59767 
 C                    -3.84532   3.25855  -0.86113 
 C                    -3.10271   2.25654   0.04192 
 O                    -1.14607   0.94881   1.91868 
 S                    -0.17009   3.32912   2.63466 
 H                    -0.33366   1.74713   4.43784 
 H                     1.07858   1.41189   3.40658 
 H                    -4.24796   2.78633  -1.76366 
 H                    -3.17233   4.04358  -1.22059 
 H                    -4.68249   3.74557  -0.348 
 H                    -3.75948   1.94113   0.87686 
 H                    -1.56726   3.84008   0.3694 
 H                     2.4542   -4.1796   -0.15212 
 H                     1.13322   2.75681   4.58354 
 
 ITRead=  0  0  0  0  0  0  0  0  0  0  0  0  0  0  0  0  0  0  0  0
 ITRead=  0  0  0  0  0  0  0  0  0  0  0  0  0  0  0  0  0  0  0  0
 ITRead=  0  0  0  0  0  0  0  0
 MicOpt= -1 -1 -1 -1 -1 -1 -1 -1 -1 -1 -1 -1 -1 -1 -1 -1 -1 -1 -1 -1
 MicOpt= -1 -1 -1 -1 -1 -1 -1 -1 -1 -1 -1 -1 -1 -1 -1 -1 -1 -1 -1 -1
 MicOpt= -1 -1 -1 -1 -1 -1 -1 -1
 NAtoms=     48 NQM=       48 NQMF=       0 NMMI=      0 NMMIF=      0
                NMic=       0 NMicF=      0.
                    Isotopes and Nuclear Properties:
 (Nuclear quadrupole moments (NQMom) in fm**2, nuclear magnetic moments (NMagM)
  in nuclear magnetons)

  Atom         1           2           3           4           5           6           7           8           9          10
 IAtWgt=          12           1           1          12           1          16           1          12           1          16
 AtmWgt=  12.0000000   1.0078250   1.0078250  12.0000000   1.0078250  15.9949146   1.0078250  12.0000000   1.0078250  15.9949146
 NucSpn=           0           1           1           0           1           0           1           0           1           0
 AtZEff=  -0.0000000  -0.0000000  -0.0000000  -0.0000000  -0.0000000  -0.0000000  -0.0000000  -0.0000000  -0.0000000  -0.0000000
 NQMom=    0.0000000   0.0000000   0.0000000   0.0000000   0.0000000   0.0000000   0.0000000   0.0000000   0.0000000   0.0000000
 NMagM=    0.0000000   2.7928460   2.7928460   0.0000000   2.7928460   0.0000000   2.7928460   0.0000000   2.7928460   0.0000000
 AtZNuc=   6.0000000   1.0000000   1.0000000   6.0000000   1.0000000   8.0000000   1.0000000   6.0000000   1.0000000   8.0000000

  Atom        11          12          13          14          15          16          17          18          19          20
 IAtWgt=           1          12           1          12           1          16          14          12           1          12
 AtmWgt=   1.0078250  12.0000000   1.0078250  12.0000000   1.0078250  15.9949146  14.0030740  12.0000000   1.0078250  12.0000000
 NucSpn=           1           0           1           0           1           0           2           0           1           0
 AtZEff=  -0.0000000  -0.0000000  -0.0000000  -0.0000000  -0.0000000  -0.0000000  -0.0000000  -0.0000000  -0.0000000  -0.0000000
 NQMom=    0.0000000   0.0000000   0.0000000   0.0000000   0.0000000   0.0000000   2.0440000   0.0000000   0.0000000   0.0000000
 NMagM=    2.7928460   0.0000000   2.7928460   0.0000000   2.7928460   0.0000000   0.4037610   0.0000000   2.7928460   0.0000000
 AtZNuc=   1.0000000   6.0000000   1.0000000   6.0000000   1.0000000   8.0000000   7.0000000   6.0000000   1.0000000   6.0000000

  Atom        21          22          23          24          25          26          27          28          29          30
 IAtWgt=           1          12           1           1          12          12           1          12          16          14
 AtmWgt=   1.0078250  12.0000000   1.0078250   1.0078250  12.0000000  12.0000000   1.0078250  12.0000000  15.9949146  14.0030740
 NucSpn=           1           0           1           1           0           0           1           0           0           2
 AtZEff=  -0.0000000  -0.0000000  -0.0000000  -0.0000000  -0.0000000  -0.0000000  -0.0000000  -0.0000000  -0.0000000  -0.0000000
 NQMom=    0.0000000   0.0000000   0.0000000   0.0000000   0.0000000   0.0000000   0.0000000   0.0000000   0.0000000   2.0440000
 NMagM=    2.7928460   0.0000000   2.7928460   2.7928460   0.0000000   0.0000000   2.7928460   0.0000000   0.0000000   0.4037610
 AtZNuc=   1.0000000   6.0000000   1.0000000   1.0000000   6.0000000   6.0000000   1.0000000   6.0000000   8.0000000   7.0000000

  Atom        31          32          33          34          35          36          37          38          39          40
 IAtWgt=           1           1          12          12          12          12          12          16          32           1
 AtmWgt=   1.0078250   1.0078250  12.0000000  12.0000000  12.0000000  12.0000000  12.0000000  15.9949146  31.9720718   1.0078250
 NucSpn=           1           1           0           0           0           0           0           0           0           1
 AtZEff=  -0.0000000  -0.0000000  -0.0000000  -0.0000000  -0.0000000  -0.0000000  -0.0000000  -0.0000000  -0.0000000  -0.0000000
 NQMom=    0.0000000   0.0000000   0.0000000   0.0000000   0.0000000   0.0000000   0.0000000   0.0000000   0.0000000   0.0000000
 NMagM=    2.7928460   2.7928460   0.0000000   0.0000000   0.0000000   0.0000000   0.0000000   0.0000000   0.0000000   2.7928460
 AtZNuc=   1.0000000   1.0000000   6.0000000   6.0000000   6.0000000   6.0000000   6.0000000   8.0000000  16.0000000   1.0000000

  Atom        41          42          43          44          45          46          47          48
 IAtWgt=           1           1           1           1           1           1           1           1
 AtmWgt=   1.0078250   1.0078250   1.0078250   1.0078250   1.0078250   1.0078250   1.0078250   1.0078250
 NucSpn=           1           1           1           1           1           1           1           1
 AtZEff=  -0.0000000  -0.0000000  -0.0000000  -0.0000000  -0.0000000  -0.0000000  -0.0000000  -0.0000000
 NQMom=    0.0000000   0.0000000   0.0000000   0.0000000   0.0000000   0.0000000   0.0000000   0.0000000
 NMagM=    2.7928460   2.7928460   2.7928460   2.7928460   2.7928460   2.7928460   2.7928460   2.7928460
 AtZNuc=   1.0000000   1.0000000   1.0000000   1.0000000   1.0000000   1.0000000   1.0000000   1.0000000
 Background charge distribution read from input stream:
 Leave Link  101 at Sun Feb 19 04:37:34 2023, MaxMem=  2684354560 cpu:               1.5 elap:               0.1
 (Enter /storage/apps/GAUSSIAN/G16_RevA03/g16/l103.exe)

 GradGradGradGradGradGradGradGradGradGradGradGradGradGradGradGradGradGrad
 Berny optimization.
 Initialization pass.
 Trust Radius=3.00D-01 FncErr=1.00D-07 GrdErr=1.00D-07 EigMax=2.50D+02 EigMin=1.00D-04
 Number of steps in this run=      2 maximum allowed number of steps=      2.
 GradGradGradGradGradGradGradGradGradGradGradGradGradGradGradGradGradGrad

 Leave Link  103 at Sun Feb 19 04:37:34 2023, MaxMem=  2684354560 cpu:               0.3 elap:               0.0
 (Enter /storage/apps/GAUSSIAN/G16_RevA03/g16/l202.exe)
 ---------------------------------------------------------------------------------------------------
                            Z-MATRIX (ANGSTROMS AND DEGREES)
   CD    Cent   Atom    N1       Length/X        N2       Alpha/Y        N3        Beta/Z          J
 ---------------------------------------------------------------------------------------------------
      1      1  C        0   3.334919         -3.669363         -0.542114
      2      2  H        0   3.410600         -3.822403         -1.627582
      3      3  H        0   4.248112         -4.043585         -0.056279
      4      4  C        0   1.479850         -1.345758          1.183999
      5      5  H        0   0.876040         -2.264995          1.032229
      6      6  O        0   1.027751         -0.603041          2.252885
      7      7  H        0   0.296053          0.032301          2.009783
      8      8  C        0   2.942471         -1.821514          1.256379
      9      9  H        0   3.050803         -2.703473          1.913216
     10     10  O        0   3.739790         -0.761808          1.692590
     11     11  H        0   4.682491         -0.952068          1.456871
     12     12  C        0   1.547121         -0.635855         -0.164674
     13     13  H        0   2.108990          0.301281         -0.040848
     14     14  C        0   3.225612         -2.185057         -0.230048
     15     15  H        0   4.178675         -1.721592         -0.525888
     16     16  O        0   2.177782         -1.561847         -0.991598
     17     17  N        0   0.267421         -0.287070         -0.786291
     18     18  C        0  -0.705430         -1.234566         -0.847924
     19     19  H        0  -0.497190         -2.177681         -0.350406
     20     20  C        0  -1.889778         -0.978210         -1.483285
     21     21  H        0  -2.678025         -1.728359         -1.444977
     22     22  C        0  -2.067227          0.256988         -2.128205
     23     23  H        0  -2.991589          0.481534         -2.657418
     24     24  H        0  -2.935212          1.306543         -0.517123
     25     25  C        0  -1.035105          1.189366         -2.104233
     26     26  C        0   0.118422          0.911924         -1.382788
     27     27  H        0   0.940147          1.632697         -1.328005
     28     28  C        0  -1.108877          2.514987         -2.816353
     29     29  O        0  -0.372521          3.428164         -2.490235
     30     30  N        0  -2.018713          2.598494         -3.810895
     31     31  H        0  -1.837592          3.387226         -4.437840
     32     32  H        0  -2.364426          1.749948         -4.273301
     33     33  C        0   0.498227          2.209930          3.886543
     34     34  C        0  -1.126520          2.180452          1.599304
     35     35  C        0  -1.830466          2.808281          0.597671
     36     36  C        0  -3.845319          3.258551         -0.861125
     37     37  C        0  -3.102713          2.256535          0.041923
     38     38  O        0  -1.146071          0.948814          1.918685
     39     39  S        0  -0.170094          3.329119          2.634656
     40     40  H        0  -0.333656          1.747129          4.437840
     41     41  H        0   1.078584          1.411893          3.406583
     42     42  H        0  -4.247964          2.786327         -1.763662
     43     43  H        0  -3.172330          4.043585         -1.220593
     44     44  H        0  -4.682491          3.745568         -0.347997
     45     45  H        0  -3.759485          1.941128          0.876863
     46     46  H        0  -1.567255          3.840077          0.369400
     47     47  H        0   2.454204         -4.179602         -0.152117
     48     48  H        0   1.133216          2.756814          4.583541
 ---------------------------------------------------------------------------------------------------
                         Z-Matrix orientation:                         
 ---------------------------------------------------------------------
 Center     Atomic      Atomic             Coordinates (Angstroms)
 Number     Number       Type             X           Y           Z
 ---------------------------------------------------------------------
      1          6           0        3.334919   -3.669363   -0.542114
      2          1           0        3.410600   -3.822403   -1.627582
      3          1           0        4.248112   -4.043585   -0.056279
      4          6           0        1.479850   -1.345758    1.183999
      5          1           0        0.876040   -2.264995    1.032229
      6          8           0        1.027751   -0.603041    2.252885
      7          1           0        0.296053    0.032301    2.009783
      8          6           0        2.942471   -1.821514    1.256379
      9          1           0        3.050803   -2.703473    1.913216
     10          8           0        3.739790   -0.761808    1.692590
     11          1           0        4.682491   -0.952068    1.456871
     12          6           0        1.547121   -0.635855   -0.164674
     13          1           0        2.108990    0.301281   -0.040848
     14          6           0        3.225612   -2.185057   -0.230048
     15          1           0        4.178675   -1.721592   -0.525888
     16          8           0        2.177782   -1.561847   -0.991598
     17          7           0        0.267421   -0.287070   -0.786291
     18          6           0       -0.705430   -1.234566   -0.847924
     19          1           0       -0.497190   -2.177681   -0.350406
     20          6           0       -1.889778   -0.978210   -1.483285
     21          1           0       -2.678025   -1.728359   -1.444977
     22          6           0       -2.067227    0.256988   -2.128205
     23          1           0       -2.991589    0.481534   -2.657418
     24          1           0       -2.935212    1.306543   -0.517123
     25          6           0       -1.035105    1.189366   -2.104233
     26          6           0        0.118422    0.911924   -1.382788
     27          1           0        0.940147    1.632697   -1.328005
     28          6           0       -1.108877    2.514987   -2.816353
     29          8           0       -0.372521    3.428164   -2.490235
     30          7           0       -2.018713    2.598494   -3.810895
     31          1           0       -1.837592    3.387226   -4.437840
     32          1           0       -2.364426    1.749948   -4.273301
     33          6           0        0.498227    2.209930    3.886543
     34          6           0       -1.126520    2.180452    1.599304
     35          6           0       -1.830466    2.808281    0.597671
     36          6           0       -3.845319    3.258551   -0.861125
     37          6           0       -3.102713    2.256535    0.041923
     38          8           0       -1.146071    0.948814    1.918685
     39         16           0       -0.170094    3.329119    2.634656
     40          1           0       -0.333656    1.747129    4.437840
     41          1           0        1.078584    1.411893    3.406583
     42          1           0       -4.247964    2.786327   -1.763662
     43          1           0       -3.172330    4.043585   -1.220593
     44          1           0       -4.682491    3.745568   -0.347997
     45          1           0       -3.759485    1.941128    0.876863
     46          1           0       -1.567255    3.840077    0.369400
     47          1           0        2.454204   -4.179602   -0.152117
     48          1           0        1.133216    2.756814    4.583541
 ---------------------------------------------------------------------
                    Distance matrix (angstroms):
                    1          2          3          4          5
     1  C    0.000000
     2  H    1.098813   0.000000
     3  H    1.100000   1.794252   0.000000
     4  C    3.438006   4.215039   4.059536   0.000000
     5  H    3.239890   3.990502   3.964732   1.110232   0.000000
     6  O    4.747354   5.576763   5.247886   1.377875   2.067633
     7  H    5.426711   6.147321   6.041542   1.995580   2.563116
     8  C    2.608282   3.541176   2.892295   1.539754   2.125336
     9  H    2.653735   3.730778   2.666150   2.200691   2.387047
    10  O    3.689403   4.527599   3.753265   2.388931   3.301016
    11  H    3.632572   4.401179   3.469262   3.238266   4.048847
    12  C    3.541306   3.970735   4.349680   1.525585   2.130029
    13  H    4.185711   4.606157   4.842927   2.146813   3.042603
    14  C    1.520689   2.160607   2.128339   2.398257   2.668374
    15  H    2.122734   2.493406   2.370022   3.216927   3.691938
    16  O    2.445940   2.652250   3.364537   2.295000   2.506955
    17  N    4.572643   4.804781   5.521795   2.544179   2.754927
    18  C    4.727174   4.924070   5.749336   2.986055   2.664171
    19  H    4.116664   4.427991   5.107445   2.637268   1.950658
    20  C    5.951938   6.016998   7.007608   4.313223   3.953907
    21  H    6.382645   6.441251   7.433716   4.934149   4.365308
    22  C    6.864043   6.848258   7.916521   5.110894   5.001156
    23  H    7.856790   7.782830   8.925015   6.171649   6.009615
    24  H    8.004674   8.234593   8.968634   5.424139   5.448121
    25  C    6.718970   6.716346   7.712993   4.854310   5.042071
    26  C    5.660457   5.771673   6.585669   3.679540   4.061909
    27  H    5.870638   5.995915   6.691793   3.933528   4.557062
    28  C    7.947683   7.874093   8.906750   6.132673   6.449783
    29  O    8.241065   8.223556   9.115997   6.302508   6.810192
    30  N    8.867487   8.687473   9.873573   7.262646   7.449091
    31  H    9.577421   9.349856  10.557027   8.062980   8.320640
    32  H    8.704782   8.449962   9.750588   7.358260   7.400611
    33  C    7.888339   8.676204   8.289386   4.572772   5.321165
    34  C    7.662274   8.187339   8.388460   4.404520   4.908546
    35  C    8.363024   8.739936   9.182855   5.343970   5.766467
    36  C    9.982663  10.167385  10.930352   7.330731   7.509033
    37  C    8.769291   9.064435   9.681724   5.939759   6.103722
    38  O    6.889293   7.490244   7.610633   3.563746   3.899142
    39  S    8.447231   9.062687   9.006577   5.165384   5.912383
    40  H    8.221725   9.045909   8.644193   4.841718   5.399879
    41  H    6.819267   7.627513   7.197191   3.564482   4.381562
    42  H   10.033356  10.116691  11.033865   7.653149   7.719345
    43  H   10.114058  10.265201  11.037250   7.514643   7.827048
    44  H   10.922350  11.153907  11.853762   8.138984   8.302359
    45  H    9.155417   9.534182  10.040376   6.192623   6.261286
    46  H    9.014091   9.353105   9.805703   6.069704   6.609155
    47  H    1.090000   1.794235   1.801608   3.281044   2.749363
    48  H    8.509734   9.330092   8.802041   5.339301   6.156015
                    6          7          8          9         10
     6  O    0.000000
     7  H    0.999069   0.000000
     8  C    2.478680   3.317797   0.000000
     9  H    2.935972   3.883611   1.104999   0.000000
    10  O    2.773859   3.548316   1.396057   2.072062   0.000000
    11  H    3.756673   4.529408   1.955455   2.436816   0.990176
    12  C    2.472937   2.596126   2.317796   3.294500   2.876298
    13  H    2.692227   2.750306   2.623689   3.705931   2.606621
    14  C    3.674006   4.303003   1.556212   2.211988   2.446743
    15  H    4.347534   4.957874   2.171327   2.861016   2.456715
    16  O    3.573310   3.884649   2.388635   3.240898   3.206992
    17  N    3.148735   2.814400   3.699042   4.568759   4.292735
    18  C    3.608013   3.282439   4.252032   4.887829   5.141760
    19  H    3.403242   3.329226   3.813119   4.241309   4.912284
    20  C    4.755175   4.242701   5.618501   6.238758   6.467229
    21  H    5.354745   4.886760   6.236664   6.711765   7.208807
    22  C    5.432539   4.770588   6.393172   7.161818   7.025515
    23  H    6.437582   5.726531   7.472275   8.218605   8.110483
    24  H    5.198512   4.295348   6.890371   7.603891   7.329158
    25  C    5.143206   4.476149   6.015000   6.927390   6.404886
    26  C    4.042291   3.509249   4.734146   5.703823   5.037225
    27  H    4.222437   3.757253   4.756040   5.810573   4.763995
    28  C    6.323326   5.606170   7.197625   8.179491   7.387660
    29  O    6.380326   5.677062   7.251579   8.288938   7.208536
    30  N    7.503345   6.769326   8.356260   9.304638   8.645249
    31  H    8.300495   7.574946   9.077671  10.066228   9.268433
    32  H    7.722339   7.036022   8.455523   9.350437   8.897316
    33  C    3.295761   2.881869   5.398576   5.878026   4.914507
    34  C    3.579928   2.608977   5.717518   6.434384   5.687404
    35  C    4.748290   3.771234   6.682052   7.479096   6.706127
    36  C    6.953831   5.983458   8.738706   9.528861   8.956485
    37  C    5.488739   4.513458   7.392539   8.122142   7.658652
    38  O    2.691736   1.711145   4.982925   5.563540   5.181600
    39  S    4.128252   3.387738   6.173874   6.876541   5.736755
    40  H    3.485793   3.038525   5.795681   6.134831   5.515807
    41  H    2.322404   2.113452   4.307246   4.801669   3.839891
    42  H    7.446720   6.517027   9.058433   9.845270   9.398892
    43  H    7.162182   6.209300   8.827546   9.699017   8.908189
    44  H    7.634255   6.643296   9.576350  10.320226   9.768073
    45  H    5.593197   4.623258   7.695305   8.308211   8.013139
    46  H    5.479312   4.545539   7.292323   8.156462   7.147930
    47  H    4.539889   5.203033   2.789775   2.607775   4.091087
    48  H    4.090441   3.840319   5.941759   6.373579   5.247144
                   11         12         13         14         15
    11  H    0.000000
    12  C    3.544001   0.000000
    13  H    3.230627   1.099661   0.000000
    14  C    2.547244   2.285089   2.732127   0.000000
    15  H    2.185710   2.869560   2.934429   1.100295   0.000000
    16  O    3.555333   1.392478   2.092822   1.437462   2.060577
    17  N    4.996683   1.464818   2.072008   3.558462   4.174154
    18  C    5.866991   2.428842   3.306231   4.091246   4.918880
    19  H    5.621163   2.567281   3.610160   3.724754   4.701332
    20  C    7.199995   3.697055   4.439355   5.403175   6.188324
    21  H    7.949877   4.548033   5.385772   6.044631   6.918027
    22  C    7.737782   4.209054   4.669027   6.130312   6.744886
    23  H    8.824630   5.297378   5.735402   7.187240   7.798068
    24  H    8.187025   4.897800   5.165401   7.087273   7.731563
    25  C    7.068105   3.709611   3.864141   5.749175   6.176435
    26  C    5.689363   2.433229   2.477105   4.535938   4.914807
    27  H    5.333075   2.620703   2.189894   4.583024   4.731037
    28  C    7.988795   4.900360   4.791512   6.896896   7.152135
    29  O    7.766545   5.060584   4.683459   7.040117   7.147868
    30  N    9.233741   6.039132   6.043871   7.950331   8.237841
    31  H    9.802478   6.775058   6.665742   8.625073   8.809021
    32  H    9.476012   6.154111   6.326433   7.942335   8.301016
    33  C    5.780104   5.060734   4.654234   6.610662   6.962191
    34  C    6.601332   4.265157   4.085329   6.430027   6.920078
    35  C    7.569482   4.883784   4.712969   7.154192   7.608673
    36  C    9.789074   6.688038   6.698664   8.945904   9.449798
    37  C    8.538537   5.479924   5.567021   7.736240   8.316641
    38  O    6.148070   3.755642   3.854152   5.792220   6.438937
    39  S    6.577486   5.148407   4.639003   7.081206   7.376347
    40  H    6.429119   5.513536   5.302419   7.065384   7.551936
    41  H    4.730522   4.143269   3.765631   5.547329   5.907082
    42  H   10.202964   6.917450   7.039490   9.106096   9.636476
    43  H    9.686257   6.729439   6.579436   8.983920   9.367878
    44  H   10.631474   7.618304   7.621133   9.885561  10.413536
    45  H    8.942816   5.990468   6.162004   8.187932   8.854242
    46  H    7.950256   5.478918   5.119195   7.722250   8.046702
    47  H    4.239231   3.658019   4.495539   2.139943   3.025776
    48  H    6.010759   5.850391   5.326045   7.209081   7.445616
                   16         17         18         19         20
    16  O    0.000000
    17  N    2.305793   0.000000
    18  C    2.905282   1.359408   0.000000
    19  H    2.818839   2.085435   1.086441   0.000000
    20  C    4.138530   2.370018   1.368241   2.159039   0.000000
    21  H    4.879768   3.344673   2.119300   2.481133   1.088817
    22  C    4.756063   2.747237   2.391306   3.399000   1.404679
    23  H    5.802823   3.835755   3.383163   4.314598   2.173345
    24  H    5.881793   3.587327   3.396850   4.255768   2.691932
    25  C    4.373759   2.369263   2.749990   3.834354   2.411312
    26  C    3.242458   1.347440   2.360558   3.315185   2.759634
    27  H    3.442386   2.105117   3.340599   4.188152   3.853495
    28  C    5.545487   3.723824   4.254013   5.336308   3.819594
    29  O    5.800876   4.137138   4.954701   6.001659   4.767824
    30  N    6.547323   4.764568   5.019587   6.091130   4.269333
    31  H    7.245215   5.591542   5.960726   7.033633   5.271542
    32  H    6.509164   4.820301   4.836611   5.856787   3.930945
    33  C    6.390889   5.303174   5.977334   6.180107   6.685945
    34  C    5.624587   3.704430   4.222392   4.815678   4.479070
    35  C    6.139205   3.987190   4.438476   5.247504   4.321043
    36  C    7.715634   5.430622   5.481530   6.404953   4.707586
    37  C    6.597866   4.302752   4.327422   5.157999   3.776380
    38  O    5.081452   3.292760   3.551822   3.917243   3.979940
    39  S    6.525625   4.997111   5.765602   6.272355   6.202244
    40  H    6.836332   5.638334   6.080133   6.193398   6.701396
    41  H    5.421748   4.596156   5.318579   5.429832   6.199562
    42  H    7.796981   5.548850   5.436516   6.380202   4.450999
    43  H    7.752225   5.547529   5.838095   6.827719   5.189640
    44  H    8.697483   6.399680   6.392861   7.252698   5.603767
    45  H    7.142346   4.893559   4.731508   5.395678   4.193880
    46  H    6.712555   4.662081   5.289293   6.154394   5.172267
    47  H    2.762930   4.509546   4.375006   3.571797   5.557977
    48  H    7.129104   6.232971   6.986598   7.165982   7.739204
                   21         22         23         24         25
    21  H    0.000000
    22  C    2.186659   0.000000
    23  H    2.540071   1.088546   0.000000
    24  H    3.183973   2.109632   2.294489   0.000000
    25  C    3.412758   1.391107   2.152874   2.478519   0.000000
    26  C    3.846437   2.400344   3.388523   3.198403   1.388554
    27  H    4.939792   3.402527   4.307094   3.972696   2.168108
    28  C    4.727460   2.547654   2.775751   3.175263   1.506595
    29  O    5.744357   3.613786   3.945896   3.868053   2.366481
    30  N    4.975330   2.883825   2.599714   3.654865   2.421945
    31  H    5.986047   3.896862   3.597868   4.572312   3.304587
    32  H    4.494038   2.630341   2.147856   3.825085   2.605034
    33  C    7.350088   6.824421   7.615090   5.656579   6.267540
    34  C    5.191687   4.298717   4.948180   2.917936   3.834945
    35  C    5.046966   3.741063   4.166241   2.172199   3.248657
    36  C    5.154873   3.711668   3.415749   2.181047   3.704612
    37  C    4.274413   3.127279   3.232556   1.114932   3.165414
    38  O    4.563810   4.207668   4.956310   3.043379   4.031631
    39  S    6.964998   5.976783   6.638947   4.655148   5.271039
    40  H    7.223754   6.952606   7.681733   5.613722   6.603170
    41  H    6.892817   6.470224   7.362335   5.614011   5.906462
    42  H    4.790476   3.359474   2.772968   2.338149   3.603990
    43  H    5.797414   4.047632   3.845171   2.835929   3.673570
    44  H    5.931705   4.709452   4.341255   3.005068   4.787689
    45  H    4.475000   3.838032   3.900156   1.739344   4.107837
    46  H    5.960977   4.396194   4.740270   3.012644   3.664467
    47  H    5.832655   6.635631   7.593378   7.699145   6.694166
    48  H    8.425281   7.844711   8.638426   6.683724   7.203113
                   26         27         28         29         30
    26  C    0.000000
    27  H    1.094415   0.000000
    28  C    2.476122   2.681811   0.000000
    29  O    2.792655   2.509497   1.217565   0.000000
    30  N    3.647954   3.981501   1.350514   2.267696   0.000000
    31  H    4.391635   4.523857   1.980164   2.437474   1.023701
    32  H    3.901524   4.428173   2.069876   3.156488   1.026336
    33  C    5.440121   5.264979   6.899613   6.550236   8.107806
    34  C    3.471588   3.624953   4.428347   4.341616   5.499184
    35  C    3.364009   3.573027   3.501753   3.470594   4.417568
    36  C    4.635735   5.075634   3.444404   3.839674   3.531757
    37  C    3.770079   4.314000   3.494556   3.903651   4.016989
    38  O    3.535538   3.919310   4.987470   5.117043   6.025863
    39  S    4.697438   4.451198   5.590851   5.129843   6.745097
    40  H    5.897597   5.905983   7.335795   7.129208   8.462025
    41  H    4.910188   4.741755   6.687804   6.398711   7.943126
    42  H    4.766947   5.332650   3.321996   3.994863   3.032492
    43  H    4.545619   4.768268   3.023392   3.135230   3.182575
    44  H    5.670018   6.085943   4.514181   4.823461   4.516985
    45  H    4.604720   5.200299   4.582017   5.002014   5.043559
    46  H    3.806015   3.747102   3.480661   3.126432   4.384086
    47  H    5.735335   6.120286   8.038111   8.446021   8.907089
    48  H    6.326967   6.020573   7.735884   7.263351   8.968070
                   31         32         33         34         35
    31  H    0.000000
    32  H    1.727804   0.000000
    33  C    8.725677   8.659643   0.000000
    34  C    6.197503   6.017079   2.805732   0.000000
    35  C    5.068688   5.013138   4.074005   1.375856   0.000000
    36  C    4.103707   4.013959   6.519690   3.822026   2.527937
    37  C    4.790331   4.407137   5.267831   2.517253   1.493952
    38  O    6.843206   6.361359   2.857725   1.272524   2.381405
    39  S    7.266645   7.418136   1.807335   1.818279   2.679069
    40  H    9.150379   8.944720   1.100065   2.978873   4.255982
    41  H    8.598895   8.423135   1.097287   2.952867   4.278137
    42  H    3.649959   3.304555   7.401580   4.628179   3.379449
    43  H    3.544434   3.902884   6.551192   3.950750   2.575395
    44  H    4.994865   4.976337   6.865083   4.345860   3.147514
    45  H    5.833604   5.339187   5.220972   2.740748   2.133311
    46  H    4.836085   5.153522   4.392481   2.112171   1.089031
    47  H    9.697620   8.681183   7.807864   7.505955   8.231106
    48  H    9.518847   9.575538   1.090000   3.787383   4.967215
                   36         37         38         39         40
    36  C    0.000000
    37  C    1.539804   0.000000
    38  O    4.510895   3.010119   0.000000
    39  S    5.072746   4.058689   2.670392   0.000000
    40  H    6.534157   5.220274   2.764682   2.404354   0.000000
    41  H    6.772614   5.433010   2.716131   2.414709   1.780533
    42  H    1.095304   2.202821   5.153434   6.022363   7.406779
    43  H    1.094719   2.189141   4.851639   4.938302   6.734215
    44  H    1.096058   2.205664   5.046380   5.425069   6.768335
    45  H    2.182561   1.108131   2.983289   4.230849   4.945149
    46  H    2.653666   2.229905   3.307125   2.710077   4.738607
    47  H    9.773066   8.505342   6.599307   8.428163   7.997876
    48  H    7.394725   6.230544   3.945310   2.413360   1.786731
                   41         42         43         44         45
    41  H    0.000000
    42  H    7.549346   0.000000
    43  H    6.812256   1.741439   0.000000
    44  H    7.261742   1.764388   1.769414   0.000000
    45  H    5.485115   2.815199   3.027276   2.368170   0.000000
    46  H    4.703298   3.584208   2.268427   3.198169   2.944384
    47  H    6.769158   9.800016  10.020995  10.666729   8.782486
    48  H    1.788024   8.321356   7.340401   7.688964   6.192200
                   46         47         48
    46  H    0.000000
    47  H    8.986622   0.000000
    48  H    5.121034   8.502078   0.000000
 Symmetry turned off by external request.
 Stoichiometry    C16H24N2O5S
 Framework group  C1[X(C16H24N2O5S)]
 Deg. of freedom   138
 Full point group                 C1      NOp   1
 Rotational constants (GHZ):           0.2836419           0.1694511           0.1252533
 Leave Link  202 at Sun Feb 19 04:37:34 2023, MaxMem=  2684354560 cpu:               0.2 elap:               0.0
 (Enter /storage/apps/GAUSSIAN/G16_RevA03/g16/l301.exe)
 Standard basis: def2TZVP (5D, 7F)
 Ernie: Thresh=  0.10000D-02 Tol=  0.10000D-05 Strict=F.
   894 basis functions,  1434 primitive gaussians,  1014 cartesian basis functions
    95 alpha electrons       95 beta electrons
       nuclear repulsion energy      2434.3465046340 Hartrees.
 IExCor= 4336 DFT=T Ex+Corr=M062X ExCW=0 ScaHFX=  0.540000
 ScaDFX=  1.000000  1.000000  1.000000  1.000000 ScalE2=  1.000000  1.000000
 IRadAn=      5 IRanWt=     -1 IRanGd=            0 ICorTp=0 IEmpDi=131
 NAtoms=   48 NActive=   48 NUniq=   48 SFac= 1.00D+00 NAtFMM=   60 NAOKFM=F Big=F
 Integral buffers will be    131072 words long.
 Raffenetti 2 integral format.
 Two-electron integral symmetry is turned off.
 R6Disp:  Grimme-D3 Dispersion energy=       -0.0041715501 Hartrees.
 Nuclear repulsion after empirical dispersion term =     2434.3423330839 Hartrees.
 Leave Link  301 at Sun Feb 19 04:37:34 2023, MaxMem=  2684354560 cpu:               0.8 elap:               0.1
 (Enter /storage/apps/GAUSSIAN/G16_RevA03/g16/l302.exe)
 NPDir=0 NMtPBC=     1 NCelOv=     1 NCel=       1 NClECP=     1 NCelD=      1
         NCelK=      1 NCelE2=     1 NClLst=     1 CellRange=     0.0.
 One-electron integrals computed using PRISM.
   1 Symmetry operations used in ECPInt.
 ECPInt:  NShTT=   65703 NPrTT=  200010 LenC2=   56031 LenP2D=  118769.
 LDataN:  DoStor=T MaxTD1= 6 Len=  172
 NBasis=   894 RedAO= T EigKep=  2.00D-05  NBF=   894
 NBsUse=   894 1.00D-06 EigRej= -1.00D+00 NBFU=   894
 Precomputing XC quadrature grid using
 IXCGrd= 4 IRadAn=           5 IRanWt=          -1 IRanGd=           0 AccXCQ= 0.00D+00.
 Generated NRdTot=       0 NPtTot=           0 NUsed=           0 NTot=          32
 NSgBfM=   996   995   995   995   996 MxSgAt=    48 MxSgA2=    48.
 Leave Link  302 at Sun Feb 19 04:37:35 2023, MaxMem=  2684354560 cpu:              18.0 elap:               1.1
 (Enter /storage/apps/GAUSSIAN/G16_RevA03/g16/l303.exe)
 DipDrv:  MaxL=1.
 Leave Link  303 at Sun Feb 19 04:37:35 2023, MaxMem=  2684354560 cpu:               2.0 elap:               0.2
 (Enter /storage/apps/GAUSSIAN/G16_RevA03/g16/l401.exe)
 ExpMin= 9.52D-02 ExpMax= 6.07D+04 ExpMxC= 2.07D+03 IAcc=3 IRadAn=         5 AccDes= 0.00D+00
 Harris functional with IExCor= 1009 and IRadAn=       5 diagonalized for initial guess.
 HarFok:  IExCor= 1009 AccDes= 0.00D+00 IRadAn=         5 IDoV= 1 UseB2=F ITyADJ=14
 ICtDFT=  3500011 ScaDFX=  1.000000  1.000000  1.000000  1.000000
 FoFCou: FMM=F IPFlag=           0 FMFlag=      100000 FMFlg1=           0
         NFxFlg=           0 DoJE=T BraDBF=F KetDBF=T FulRan=T
         wScrn=  0.000000 ICntrl=       500 IOpCl=  0 I1Cent=   200000004 NGrid=           0
         NMat0=    1 NMatS0=      1 NMatT0=    0 NMatD0=    1 NMtDS0=    0 NMtDT0=    0
 Symmetry not used in FoFCou.
 Harris En= -1507.21849707112    
 JPrj=0 DoOrth=F DoCkMO=F.
 Leave Link  401 at Sun Feb 19 04:37:39 2023, MaxMem=  2684354560 cpu:              57.4 elap:               3.6
 (Enter /storage/apps/GAUSSIAN/G16_RevA03/g16/l502.exe)
 Two-electron integral symmetry not used.
 Closed shell SCF:
 Using DIIS extrapolation, IDIIS=  1040.
 NGot=  2684354560 LenX=  2682275214 LenY=  2681246004
 Requested convergence on RMS density matrix=1.00D-08 within 128 cycles.
 Requested convergence on MAX density matrix=1.00D-06.
 Requested convergence on             energy=1.00D-06.
 No special actions if energy rises.
 Fock matrices will be formed incrementally for  20 cycles.
 Integral accuracy reduced to 1.0D-05 until final iterations.

 Cycle   1  Pass 0  IDiag  1:
 FoFJK:  IHMeth= 1 ICntrl=       0 DoSepK=F KAlg= 0 I1Cent=           0 FoldK=F
 IRaf= 780000000 NMat=       1 IRICut=       1 DoRegI=T DoRafI=F ISym2E= 0 IDoP0=0 IntGTp=1.
 FoFCou: FMM=F IPFlag=           0 FMFlag=      100000 FMFlg1=           0
         NFxFlg=           0 DoJE=F BraDBF=F KetDBF=F FulRan=T
         wScrn=  0.000000 ICntrl=         0 IOpCl=  0 I1Cent=           0 NGrid=           0
         NMat0=    1 NMatS0=      1 NMatT0=    0 NMatD0=    1 NMtDS0=    0 NMtDT0=    0
 Symmetry not used in FoFCou.
 E= -1507.08544846980    
 DIIS: error= 1.62D-02 at cycle   1 NSaved=   1.
 NSaved= 1 IEnMin= 1 EnMin= -1507.08544846980     IErMin= 1 ErrMin= 1.62D-02
 ErrMax= 1.62D-02  0.00D+00 EMaxC= 1.00D-01 BMatC= 1.01D+00 BMatP= 1.01D+00
 IDIUse=3 WtCom= 8.38D-01 WtEn= 1.62D-01
 Coeff-Com:  0.100D+01
 Coeff-En:   0.100D+01
 Coeff:      0.100D+01
 Gap=     0.097 Goal=   None    Shift=    0.000
 GapD=    0.097 DampG=0.500 DampE=0.500 DampFc=0.2500 IDamp=-1.
 Damping current iteration by 2.50D-01
 RMSDP=4.60D-03 MaxDP=1.29D+00              OVMax= 8.21D-01

 Cycle   2  Pass 0  IDiag  1:
 RMSU=  1.15D-03    CP:  1.01D+00
 E= -1507.33459882585     Delta-E=       -0.249150356049 Rises=F Damp=T
 DIIS: error= 8.35D-03 at cycle   2 NSaved=   2.
 NSaved= 2 IEnMin= 2 EnMin= -1507.33459882585     IErMin= 2 ErrMin= 8.35D-03
 ErrMax= 8.35D-03  0.00D+00 EMaxC= 1.00D-01 BMatC= 3.03D-01 BMatP= 1.01D+00
 IDIUse=3 WtCom= 9.17D-01 WtEn= 8.35D-02
 Coeff-Com: -0.786D+00 0.179D+01
 Coeff-En:   0.000D+00 0.100D+01
 Coeff:     -0.720D+00 0.172D+01
 Gap=     0.139 Goal=   None    Shift=    0.000
 RMSDP=1.30D-03 MaxDP=8.97D-02 DE=-2.49D-01 OVMax= 7.89D-01

 Cycle   3  Pass 0  IDiag  1:
 RMSU=  1.29D-03    CP:  1.00D+00  1.11D+00
 E= -1507.66349467459     Delta-E=       -0.328895848735 Rises=F Damp=F
 DIIS: error= 8.12D-03 at cycle   3 NSaved=   3.
 NSaved= 3 IEnMin= 3 EnMin= -1507.66349467459     IErMin= 3 ErrMin= 8.12D-03
 ErrMax= 8.12D-03  0.00D+00 EMaxC= 1.00D-01 BMatC= 1.69D-01 BMatP= 3.03D-01
 IDIUse=3 WtCom= 9.19D-01 WtEn= 8.12D-02
 Coeff-Com: -0.558D+00 0.106D+01 0.494D+00
 Coeff-En:   0.000D+00 0.000D+00 0.100D+01
 Coeff:     -0.513D+00 0.978D+00 0.535D+00
 Gap=     0.085 Goal=   None    Shift=    0.000
 RMSDP=7.68D-04 MaxDP=3.68D-02 DE=-3.29D-01 OVMax= 2.85D-01

 Cycle   4  Pass 0  IDiag  1:
 RMSU=  6.55D-04    CP:  1.00D+00  1.31D+00  7.49D-01
 E= -1507.84564866176     Delta-E=       -0.182153987171 Rises=F Damp=F
 DIIS: error= 1.67D-03 at cycle   4 NSaved=   4.
 NSaved= 4 IEnMin= 4 EnMin= -1507.84564866176     IErMin= 4 ErrMin= 1.67D-03
 ErrMax= 1.67D-03  0.00D+00 EMaxC= 1.00D-01 BMatC= 9.12D-03 BMatP= 1.69D-01
 IDIUse=3 WtCom= 9.83D-01 WtEn= 1.67D-02
 Coeff-Com: -0.182D+00 0.286D+00 0.205D+00 0.691D+00
 Coeff-En:   0.000D+00 0.000D+00 0.000D+00 0.100D+01
 Coeff:     -0.179D+00 0.281D+00 0.201D+00 0.696D+00
 Gap=     0.112 Goal=   None    Shift=    0.000
 RMSDP=2.00D-04 MaxDP=1.85D-02 DE=-1.82D-01 OVMax= 4.85D-02

 Cycle   5  Pass 0  IDiag  1:
 RMSU=  1.89D-04    CP:  1.01D+00  1.35D+00  7.84D-01  9.61D-01
 E= -1507.85169918981     Delta-E=       -0.006050528054 Rises=F Damp=F
 DIIS: error= 1.43D-03 at cycle   5 NSaved=   5.
 NSaved= 5 IEnMin= 5 EnMin= -1507.85169918981     IErMin= 5 ErrMin= 1.43D-03
 ErrMax= 1.43D-03  0.00D+00 EMaxC= 1.00D-01 BMatC= 2.12D-03 BMatP= 9.12D-03
 IDIUse=3 WtCom= 9.86D-01 WtEn= 1.43D-02
 Coeff-Com: -0.631D-01 0.883D-01 0.474D-01 0.357D+00 0.570D+00
 Coeff-En:   0.000D+00 0.000D+00 0.000D+00 0.163D+00 0.837D+00
 Coeff:     -0.622D-01 0.871D-01 0.468D-01 0.354D+00 0.574D+00
 Gap=     0.113 Goal=   None    Shift=    0.000
 RMSDP=9.66D-05 MaxDP=6.68D-03 DE=-6.05D-03 OVMax= 2.55D-02

 Cycle   6  Pass 0  IDiag  1:
 RMSU=  7.72D-05    CP:  1.01D+00  1.36D+00  7.64D-01  1.04D+00  9.91D-01
 E= -1507.85376472034     Delta-E=       -0.002065530525 Rises=F Damp=F
 DIIS: error= 3.69D-04 at cycle   6 NSaved=   6.
 NSaved= 6 IEnMin= 6 EnMin= -1507.85376472034     IErMin= 6 ErrMin= 3.69D-04
 ErrMax= 3.69D-04  0.00D+00 EMaxC= 1.00D-01 BMatC= 2.28D-04 BMatP= 2.12D-03
 IDIUse=3 WtCom= 9.96D-01 WtEn= 3.69D-03
 Coeff-Com: -0.106D-01 0.122D-01-0.833D-02 0.758D-01 0.292D+00 0.639D+00
 Coeff-En:   0.000D+00 0.000D+00 0.000D+00 0.000D+00 0.000D+00 0.100D+01
 Coeff:     -0.106D-01 0.121D-01-0.830D-02 0.755D-01 0.290D+00 0.641D+00
 Gap=     0.117 Goal=   None    Shift=    0.000
 RMSDP=4.05D-05 MaxDP=3.84D-03 DE=-2.07D-03 OVMax= 5.27D-03

 Cycle   7  Pass 0  IDiag  1:
 RMSU=  3.21D-05    CP:  1.01D+00  1.36D+00  7.65D-01  1.05D+00  1.11D+00
                    CP:  1.01D+00
 E= -1507.85396200897     Delta-E=       -0.000197288635 Rises=F Damp=F
 DIIS: error= 1.47D-04 at cycle   7 NSaved=   7.
 NSaved= 7 IEnMin= 7 EnMin= -1507.85396200897     IErMin= 7 ErrMin= 1.47D-04
 ErrMax= 1.47D-04  0.00D+00 EMaxC= 1.00D-01 BMatC= 2.82D-05 BMatP= 2.28D-04
 IDIUse=3 WtCom= 9.99D-01 WtEn= 1.47D-03
 Coeff-Com:  0.257D-02-0.436D-02-0.110D-01-0.155D-01 0.621D-01 0.306D+00
 Coeff-Com:  0.660D+00
 Coeff-En:   0.000D+00 0.000D+00 0.000D+00 0.000D+00 0.000D+00 0.000D+00
 Coeff-En:   0.100D+01
 Coeff:      0.256D-02-0.435D-02-0.110D-01-0.155D-01 0.620D-01 0.306D+00
 Coeff:      0.660D+00
 Gap=     0.117 Goal=   None    Shift=    0.000
 RMSDP=2.53D-05 MaxDP=2.87D-03 DE=-1.97D-04 OVMax= 2.16D-03

 Cycle   8  Pass 0  IDiag  1:
 RMSU=  1.81D-05    CP:  1.01D+00  1.36D+00  7.66D-01  1.06D+00  1.16D+00
                    CP:  1.12D+00  1.31D+00
 E= -1507.85399435222     Delta-E=       -0.000032343242 Rises=F Damp=F
 DIIS: error= 2.96D-05 at cycle   8 NSaved=   8.
 NSaved= 8 IEnMin= 8 EnMin= -1507.85399435222     IErMin= 8 ErrMin= 2.96D-05
 ErrMax= 2.96D-05  0.00D+00 EMaxC= 1.00D-01 BMatC= 3.01D-06 BMatP= 2.82D-05
 IDIUse=1 WtCom= 1.00D+00 WtEn= 0.00D+00
 Coeff-Com:  0.204D-02-0.280D-02-0.301D-02-0.149D-01-0.105D-01 0.301D-01
 Coeff-Com:  0.264D+00 0.735D+00
 Coeff:      0.204D-02-0.280D-02-0.301D-02-0.149D-01-0.105D-01 0.301D-01
 Coeff:      0.264D+00 0.735D+00
 Gap=     0.117 Goal=   None    Shift=    0.000
 RMSDP=2.37D-05 MaxDP=3.45D-03 DE=-3.23D-05 OVMax= 1.08D-03

 Cycle   9  Pass 0  IDiag  1:
 RMSU=  1.49D-05    CP:  1.01D+00  1.35D+00  7.66D-01  1.06D+00  1.17D+00
                    CP:  1.17D+00  1.69D+00  1.64D+00
 E= -1507.85399906682     Delta-E=       -0.000004714601 Rises=F Damp=F
 DIIS: error= 2.12D-05 at cycle   9 NSaved=   9.
 NSaved= 9 IEnMin= 9 EnMin= -1507.85399906682     IErMin= 9 ErrMin= 2.12D-05
 ErrMax= 2.12D-05  0.00D+00 EMaxC= 1.00D-01 BMatC= 6.24D-07 BMatP= 3.01D-06
 IDIUse=1 WtCom= 1.00D+00 WtEn= 0.00D+00
 Coeff-Com:  0.557D-03-0.702D-03-0.488D-03-0.485D-02-0.918D-02-0.160D-01
 Coeff-Com:  0.422D-01 0.297D+00 0.692D+00
 Coeff:      0.557D-03-0.702D-03-0.488D-03-0.485D-02-0.918D-02-0.160D-01
 Coeff:      0.422D-01 0.297D+00 0.692D+00
 Gap=     0.117 Goal=   None    Shift=    0.000
 RMSDP=2.95D-05 MaxDP=4.88D-03 DE=-4.71D-06 OVMax= 3.12D-04

 Cycle  10  Pass 0  IDiag  1:
 RMSU=  9.61D-06    CP:  1.01D+00  1.35D+00  7.69D-01  1.07D+00  1.18D+00
                    CP:  1.22D+00  2.12D+00  2.64D+00  2.02D+00
 E= -1507.85400147199     Delta-E=       -0.000002405176 Rises=F Damp=F
 DIIS: error= 3.02D-05 at cycle  10 NSaved=  10.
 NSaved=10 IEnMin=10 EnMin= -1507.85400147199     IErMin= 9 ErrMin= 2.12D-05
 ErrMax= 3.02D-05  0.00D+00 EMaxC= 1.00D-01 BMatC= 7.00D-07 BMatP= 6.24D-07
 IDIUse=1 WtCom= 1.00D+00 WtEn= 0.00D+00
 Coeff-Com:  0.600D-03-0.749D-03-0.489D-03-0.525D-02-0.101D-01-0.178D-01
 Coeff-Com:  0.458D-01 0.324D+00 0.760D+00-0.961D-01
 Coeff:      0.600D-03-0.749D-03-0.489D-03-0.525D-02-0.101D-01-0.178D-01
 Coeff:      0.458D-01 0.324D+00 0.760D+00-0.961D-01
 Gap=     0.117 Goal=   None    Shift=    0.000
 RMSDP=5.21D-06 MaxDP=8.55D-04 DE=-2.41D-06 OVMax= 1.33D-05

 Initial convergence to 1.0D-05 achieved.  Increase integral accuracy.
 Cycle  11  Pass 1  IDiag  1:
 E= -1507.85381397158     Delta-E=        0.000187500417 Rises=F Damp=F
 DIIS: error= 3.37D-04 at cycle   1 NSaved=   1.
 NSaved= 1 IEnMin= 1 EnMin= -1507.85381397158     IErMin= 1 ErrMin= 3.37D-04
 ErrMax= 3.37D-04  0.00D+00 EMaxC= 1.00D-01 BMatC= 1.00D-04 BMatP= 1.00D-04
 IDIUse=3 WtCom= 9.97D-01 WtEn= 3.37D-03
 Coeff-Com:  0.100D+01
 Coeff-En:   0.100D+01
 Coeff:      0.100D+01
 Gap=     0.117 Goal=   None    Shift=    0.000
 RMSDP=5.21D-06 MaxDP=8.55D-04 DE= 1.88D-04 OVMax= 1.10D-03

 Cycle  12  Pass 1  IDiag  1:
 RMSU=  5.76D-04    CP:  9.91D-01
 E= -1507.85387975211     Delta-E=       -0.000065780538 Rises=F Damp=F
 DIIS: error= 9.63D-06 at cycle   2 NSaved=   2.
 NSaved= 2 IEnMin= 2 EnMin= -1507.85387975211     IErMin= 2 ErrMin= 9.63D-06
 ErrMax= 9.63D-06  0.00D+00 EMaxC= 1.00D-01 BMatC= 1.78D-07 BMatP= 1.00D-04
 IDIUse=1 WtCom= 1.00D+00 WtEn= 0.00D+00
 Coeff-Com: -0.150D-01 0.102D+01
 Coeff:     -0.150D-01 0.102D+01
 Gap=     0.117 Goal=   None    Shift=    0.000
 RMSDP=2.12D-05 MaxDP=2.10D-03 DE=-6.58D-05 OVMax= 4.70D-04

 Cycle  13  Pass 1  IDiag  1:
 RMSU=  7.23D-06    CP:  9.91D-01  1.03D+00
 E= -1507.85387965870     Delta-E=        0.000000093416 Rises=F Damp=F
 DIIS: error= 1.27D-05 at cycle   3 NSaved=   3.
 NSaved= 3 IEnMin= 2 EnMin= -1507.85387975211     IErMin= 2 ErrMin= 9.63D-06
 ErrMax= 1.27D-05  0.00D+00 EMaxC= 1.00D-01 BMatC= 3.09D-07 BMatP= 1.78D-07
 IDIUse=1 WtCom= 1.00D+00 WtEn= 0.00D+00
 Coeff-Com: -0.103D-01 0.601D+00 0.409D+00
 Coeff:     -0.103D-01 0.601D+00 0.409D+00
 Gap=     0.117 Goal=   None    Shift=    0.000
 RMSDP=1.08D-06 MaxDP=6.55D-05 DE= 9.34D-08 OVMax= 3.20D-04

 Cycle  14  Pass 1  IDiag  1:
 RMSU=  1.03D-06    CP:  9.91D-01  1.04D+00  1.01D+00
 E= -1507.85387997377     Delta-E=       -0.000000315071 Rises=F Damp=F
 DIIS: error= 2.12D-06 at cycle   4 NSaved=   4.
 NSaved= 4 IEnMin= 4 EnMin= -1507.85387997377     IErMin= 4 ErrMin= 2.12D-06
 ErrMax= 2.12D-06  0.00D+00 EMaxC= 1.00D-01 BMatC= 5.20D-09 BMatP= 1.78D-07
 IDIUse=1 WtCom= 1.00D+00 WtEn= 0.00D+00
 Coeff-Com: -0.228D-02 0.121D+00 0.133D+00 0.748D+00
 Coeff:     -0.228D-02 0.121D+00 0.133D+00 0.748D+00
 Gap=     0.117 Goal=   None    Shift=    0.000
 RMSDP=4.22D-07 MaxDP=3.11D-05 DE=-3.15D-07 OVMax= 8.98D-05

 Cycle  15  Pass 1  IDiag  1:
 RMSU=  2.38D-07    CP:  9.91D-01  1.04D+00  1.04D+00  9.73D-01
 E= -1507.85387997817     Delta-E=       -0.000000004404 Rises=F Damp=F
 DIIS: error= 1.35D-06 at cycle   5 NSaved=   5.
 NSaved= 5 IEnMin= 5 EnMin= -1507.85387997817     IErMin= 5 ErrMin= 1.35D-06
 ErrMax= 1.35D-06  0.00D+00 EMaxC= 1.00D-01 BMatC= 2.98D-09 BMatP= 5.20D-09
 IDIUse=1 WtCom= 1.00D+00 WtEn= 0.00D+00
 Coeff-Com:  0.421D-03-0.312D-01 0.521D-02 0.466D+00 0.560D+00
 Coeff:      0.421D-03-0.312D-01 0.521D-02 0.466D+00 0.560D+00
 Gap=     0.117 Goal=   None    Shift=    0.000
 RMSDP=1.79D-07 MaxDP=1.55D-05 DE=-4.40D-09 OVMax= 3.16D-05

 Cycle  16  Pass 1  IDiag  1:
 RMSU=  1.02D-07    CP:  9.91D-01  1.04D+00  1.05D+00  1.03D+00  1.03D+00
 E= -1507.85387998146     Delta-E=       -0.000000003287 Rises=F Damp=F
 DIIS: error= 3.30D-07 at cycle   6 NSaved=   6.
 NSaved= 6 IEnMin= 6 EnMin= -1507.85387998146     IErMin= 6 ErrMin= 3.30D-07
 ErrMax= 3.30D-07  0.00D+00 EMaxC= 1.00D-01 BMatC= 1.78D-10 BMatP= 2.98D-09
 IDIUse=1 WtCom= 1.00D+00 WtEn= 0.00D+00
 Coeff-Com:  0.399D-03-0.254D-01-0.129D-01 0.156D+00 0.253D+00 0.629D+00
 Coeff:      0.399D-03-0.254D-01-0.129D-01 0.156D+00 0.253D+00 0.629D+00
 Gap=     0.117 Goal=   None    Shift=    0.000
 RMSDP=4.32D-08 MaxDP=4.63D-06 DE=-3.29D-09 OVMax= 1.18D-05

 Cycle  17  Pass 1  IDiag  1:
 RMSU=  3.09D-08    CP:  9.91D-01  1.04D+00  1.05D+00  1.04D+00  1.14D+00
                    CP:  1.05D+00
 E= -1507.85387998168     Delta-E=       -0.000000000217 Rises=F Damp=F
 DIIS: error= 2.07D-07 at cycle   7 NSaved=   7.
 NSaved= 7 IEnMin= 7 EnMin= -1507.85387998168     IErMin= 7 ErrMin= 2.07D-07
 ErrMax= 2.07D-07  0.00D+00 EMaxC= 1.00D-01 BMatC= 3.73D-11 BMatP= 1.78D-10
 IDIUse=1 WtCom= 1.00D+00 WtEn= 0.00D+00
 Coeff-Com:  0.577D-04-0.239D-02-0.942D-02-0.575D-01-0.556D-01 0.272D+00
 Coeff-Com:  0.853D+00
 Coeff:      0.577D-04-0.239D-02-0.942D-02-0.575D-01-0.556D-01 0.272D+00
 Coeff:      0.853D+00
 Gap=     0.117 Goal=   None    Shift=    0.000
 RMSDP=3.04D-08 MaxDP=2.25D-06 DE=-2.17D-10 OVMax= 9.52D-06

 Cycle  18  Pass 1  IDiag  1:
 RMSU=  1.82D-08    CP:  9.91D-01  1.04D+00  1.05D+00  1.05D+00  1.20D+00
                    CP:  1.20D+00  1.28D+00
 E= -1507.85387998178     Delta-E=       -0.000000000106 Rises=F Damp=F
 DIIS: error= 6.75D-08 at cycle   8 NSaved=   8.
 NSaved= 8 IEnMin= 8 EnMin= -1507.85387998178     IErMin= 8 ErrMin= 6.75D-08
 ErrMax= 6.75D-08  0.00D+00 EMaxC= 1.00D-01 BMatC= 8.38D-12 BMatP= 3.73D-11
 IDIUse=1 WtCom= 1.00D+00 WtEn= 0.00D+00
 Coeff-Com: -0.408D-04 0.327D-02-0.319D-02-0.557D-01-0.757D-01 0.352D-01
 Coeff-Com:  0.447D+00 0.649D+00
 Coeff:     -0.408D-04 0.327D-02-0.319D-02-0.557D-01-0.757D-01 0.352D-01
 Coeff:      0.447D+00 0.649D+00
 Gap=     0.117 Goal=   None    Shift=    0.000
 RMSDP=1.20D-08 MaxDP=7.09D-07 DE=-1.06D-10 OVMax= 4.46D-06

 Cycle  19  Pass 1  IDiag  1:
 RMSU=  5.66D-09    CP:  9.91D-01  1.04D+00  1.05D+00  1.05D+00  1.21D+00
                    CP:  1.24D+00  1.52D+00  1.27D+00
 E= -1507.85387998181     Delta-E=       -0.000000000022 Rises=F Damp=F
 DIIS: error= 3.01D-08 at cycle   9 NSaved=   9.
 NSaved= 9 IEnMin= 9 EnMin= -1507.85387998181     IErMin= 9 ErrMin= 3.01D-08
 ErrMax= 3.01D-08  0.00D+00 EMaxC= 1.00D-01 BMatC= 1.01D-12 BMatP= 8.38D-12
 IDIUse=1 WtCom= 1.00D+00 WtEn= 0.00D+00
 Coeff-Com: -0.257D-04 0.175D-02-0.168D-03-0.151D-01-0.257D-01-0.243D-01
 Coeff-Com:  0.727D-01 0.287D+00 0.703D+00
 Coeff:     -0.257D-04 0.175D-02-0.168D-03-0.151D-01-0.257D-01-0.243D-01
 Coeff:      0.727D-01 0.287D+00 0.703D+00
 Gap=     0.117 Goal=   None    Shift=    0.000
 RMSDP=5.17D-09 MaxDP=3.38D-07 DE=-2.18D-11 OVMax= 2.07D-06

 SCF Done:  E(RM062X) =  -1507.85387998     A.U. after   19 cycles
            NFock= 19  Conv=0.52D-08     -V/T= 2.0041
 KE= 1.501735793869D+03 PE=-8.406590445166D+03 EE= 2.962658438232D+03
 Leave Link  502 at Sun Feb 19 04:46:02 2023, MaxMem=  2684354560 cpu:            8039.3 elap:             503.0
 (Enter /storage/apps/GAUSSIAN/G16_RevA03/g16/l601.exe)
 Copying SCF densities to generalized density rwf, IOpCl= 0 IROHF=0.

 **********************************************************************

            Population analysis using the SCF density.

 **********************************************************************

 Alpha  occ. eigenvalues --  -89.85053 -19.66930 -19.64619 -19.61672 -19.60794
 Alpha  occ. eigenvalues --  -19.55330 -14.87306 -14.79709 -10.67431 -10.66109
 Alpha  occ. eigenvalues --  -10.64548 -10.63552 -10.62042 -10.61270 -10.61075
 Alpha  occ. eigenvalues --  -10.60625 -10.60161 -10.59482 -10.57735 -10.55670
 Alpha  occ. eigenvalues --  -10.51608 -10.51372 -10.50740 -10.48149  -8.20932
 Alpha  occ. eigenvalues --   -6.12892  -6.12673  -6.12417  -1.22884  -1.18718
 Alpha  occ. eigenvalues --   -1.17049  -1.15146  -1.13486  -1.08252  -1.04536
 Alpha  occ. eigenvalues --   -0.97545  -0.92797  -0.90317  -0.88343  -0.85831
 Alpha  occ. eigenvalues --   -0.83107  -0.81632  -0.80347  -0.77220  -0.76307
 Alpha  occ. eigenvalues --   -0.72885  -0.70398  -0.69879  -0.69362  -0.67245
 Alpha  occ. eigenvalues --   -0.64977  -0.64304  -0.63389  -0.62247  -0.61948
 Alpha  occ. eigenvalues --   -0.60321  -0.57439  -0.57357  -0.56076  -0.55533
 Alpha  occ. eigenvalues --   -0.54721  -0.54007  -0.52580  -0.52195  -0.51814
 Alpha  occ. eigenvalues --   -0.50921  -0.49988  -0.49302  -0.48996  -0.48882
 Alpha  occ. eigenvalues --   -0.48522  -0.48115  -0.47513  -0.47040  -0.45580
 Alpha  occ. eigenvalues --   -0.45108  -0.44244  -0.43369  -0.41979  -0.41852
 Alpha  occ. eigenvalues --   -0.41105  -0.39534  -0.38949  -0.37757  -0.37496
 Alpha  occ. eigenvalues --   -0.36953  -0.36763  -0.36621  -0.35536  -0.35423
 Alpha  occ. eigenvalues --   -0.34764  -0.34430  -0.27157  -0.25959  -0.18891
 Alpha virt. eigenvalues --   -0.07205  -0.04447   0.03002   0.03751   0.04869
 Alpha virt. eigenvalues --    0.04989   0.06747   0.07139   0.08029   0.08764
 Alpha virt. eigenvalues --    0.09363   0.09383   0.10207   0.10424   0.10765
 Alpha virt. eigenvalues --    0.11778   0.11848   0.12639   0.13311   0.13542
 Alpha virt. eigenvalues --    0.13894   0.14373   0.14704   0.14838   0.15463
 Alpha virt. eigenvalues --    0.16125   0.16717   0.16799   0.17439   0.17667
 Alpha virt. eigenvalues --    0.17993   0.18947   0.19111   0.19321   0.19509
 Alpha virt. eigenvalues --    0.20028   0.20503   0.20993   0.21541   0.22007
 Alpha virt. eigenvalues --    0.22649   0.22945   0.23541   0.23651   0.24395
 Alpha virt. eigenvalues --    0.24799   0.25488   0.25889   0.26292   0.26374
 Alpha virt. eigenvalues --    0.26816   0.27085   0.27662   0.28128   0.29005
 Alpha virt. eigenvalues --    0.29279   0.29891   0.30274   0.30395   0.31051
 Alpha virt. eigenvalues --    0.31353   0.32040   0.32729   0.32877   0.32949
 Alpha virt. eigenvalues --    0.33346   0.33648   0.34041   0.34862   0.35583
 Alpha virt. eigenvalues --    0.36919   0.37035   0.37528   0.37830   0.38376
 Alpha virt. eigenvalues --    0.38405   0.38881   0.38994   0.39265   0.39926
 Alpha virt. eigenvalues --    0.40311   0.40398   0.40650   0.41218   0.41663
 Alpha virt. eigenvalues --    0.42199   0.42395   0.42738   0.42916   0.43587
 Alpha virt. eigenvalues --    0.43865   0.44462   0.44850   0.45503   0.45522
 Alpha virt. eigenvalues --    0.45854   0.46440   0.46473   0.46850   0.47155
 Alpha virt. eigenvalues --    0.47486   0.47897   0.48122   0.48638   0.48889
 Alpha virt. eigenvalues --    0.49307   0.49611   0.49984   0.50401   0.50520
 Alpha virt. eigenvalues --    0.51415   0.51656   0.51973   0.52100   0.52653
 Alpha virt. eigenvalues --    0.53110   0.53475   0.53744   0.54094   0.54801
 Alpha virt. eigenvalues --    0.55413   0.55878   0.56026   0.56450   0.56961
 Alpha virt. eigenvalues --    0.57290   0.57782   0.58101   0.58873   0.59433
 Alpha virt. eigenvalues --    0.59765   0.60330   0.60892   0.61149   0.61695
 Alpha virt. eigenvalues --    0.62040   0.62419   0.62991   0.63293   0.64656
 Alpha virt. eigenvalues --    0.64819   0.66141   0.66546   0.66929   0.67121
 Alpha virt. eigenvalues --    0.68090   0.68657   0.69167   0.69606   0.69826
 Alpha virt. eigenvalues --    0.70792   0.71063   0.72400   0.72867   0.72989
 Alpha virt. eigenvalues --    0.74913   0.74977   0.75051   0.76095   0.77332
 Alpha virt. eigenvalues --    0.77707   0.78105   0.78875   0.80033   0.80643
 Alpha virt. eigenvalues --    0.81836   0.82360   0.82464   0.83162   0.83705
 Alpha virt. eigenvalues --    0.84044   0.84305   0.85395   0.85690   0.86266
 Alpha virt. eigenvalues --    0.87506   0.87738   0.88304   0.89429   0.89956
 Alpha virt. eigenvalues --    0.90396   0.90464   0.91715   0.92146   0.92564
 Alpha virt. eigenvalues --    0.92853   0.93901   0.94785   0.95254   0.95997
 Alpha virt. eigenvalues --    0.96824   0.97227   0.97749   0.98433   0.99195
 Alpha virt. eigenvalues --    0.99964   1.00368   1.02120   1.03022   1.03218
 Alpha virt. eigenvalues --    1.04092   1.05056   1.05127   1.05551   1.06636
 Alpha virt. eigenvalues --    1.06701   1.08234   1.08699   1.09342   1.09782
 Alpha virt. eigenvalues --    1.10798   1.10970   1.11910   1.12986   1.13262
 Alpha virt. eigenvalues --    1.14187   1.14258   1.14831   1.14937   1.15399
 Alpha virt. eigenvalues --    1.16346   1.17101   1.18160   1.18823   1.19017
 Alpha virt. eigenvalues --    1.19929   1.20488   1.21419   1.21923   1.22398
 Alpha virt. eigenvalues --    1.24058   1.24390   1.25430   1.26323   1.26871
 Alpha virt. eigenvalues --    1.27005   1.28484   1.29093   1.29331   1.30589
 Alpha virt. eigenvalues --    1.31336   1.32584   1.33326   1.34368   1.34816
 Alpha virt. eigenvalues --    1.35721   1.36250   1.37327   1.38000   1.38441
 Alpha virt. eigenvalues --    1.40539   1.41072   1.41927   1.43240   1.44103
 Alpha virt. eigenvalues --    1.44577   1.45617   1.46132   1.46802   1.49365
 Alpha virt. eigenvalues --    1.49525   1.50415   1.51366   1.51833   1.52693
 Alpha virt. eigenvalues --    1.52949   1.53742   1.54608   1.55085   1.55731
 Alpha virt. eigenvalues --    1.56687   1.56953   1.57682   1.58060   1.58459
 Alpha virt. eigenvalues --    1.59090   1.59915   1.60057   1.60407   1.60862
 Alpha virt. eigenvalues --    1.61346   1.61745   1.62601   1.62924   1.63293
 Alpha virt. eigenvalues --    1.64464   1.64673   1.65482   1.66179   1.66792
 Alpha virt. eigenvalues --    1.66957   1.67669   1.67831   1.68400   1.68628
 Alpha virt. eigenvalues --    1.69015   1.69289   1.70619   1.70758   1.71441
 Alpha virt. eigenvalues --    1.72466   1.72674   1.73621   1.73872   1.74453
 Alpha virt. eigenvalues --    1.74827   1.75699   1.76187   1.76795   1.76874
 Alpha virt. eigenvalues --    1.77537   1.78478   1.78660   1.80387   1.80702
 Alpha virt. eigenvalues --    1.81677   1.82758   1.83180   1.83638   1.84150
 Alpha virt. eigenvalues --    1.85447   1.85767   1.86301   1.87261   1.87903
 Alpha virt. eigenvalues --    1.88473   1.89003   1.89717   1.90070   1.90399
 Alpha virt. eigenvalues --    1.91264   1.91511   1.92548   1.93010   1.93754
 Alpha virt. eigenvalues --    1.94017   1.94972   1.95356   1.95644   1.96518
 Alpha virt. eigenvalues --    1.97300   1.97693   1.99149   2.00118   2.00893
 Alpha virt. eigenvalues --    2.01208   2.01525   2.02153   2.03228   2.03802
 Alpha virt. eigenvalues --    2.04186   2.05251   2.06730   2.07155   2.08162
 Alpha virt. eigenvalues --    2.08614   2.09172   2.10771   2.11501   2.12127
 Alpha virt. eigenvalues --    2.12496   2.13065   2.13570   2.14661   2.14800
 Alpha virt. eigenvalues --    2.15812   2.16178   2.16563   2.17495   2.18610
 Alpha virt. eigenvalues --    2.19402   2.20056   2.20228   2.20971   2.21494
 Alpha virt. eigenvalues --    2.22050   2.22364   2.23939   2.24825   2.25972
 Alpha virt. eigenvalues --    2.27068   2.27287   2.27534   2.27925   2.29000
 Alpha virt. eigenvalues --    2.29345   2.30254   2.30794   2.31292   2.32080
 Alpha virt. eigenvalues --    2.32509   2.32966   2.33539   2.34067   2.35609
 Alpha virt. eigenvalues --    2.36110   2.37607   2.37812   2.38406   2.39318
 Alpha virt. eigenvalues --    2.39877   2.40883   2.42033   2.42408   2.43115
 Alpha virt. eigenvalues --    2.43886   2.44230   2.45193   2.45860   2.46751
 Alpha virt. eigenvalues --    2.47322   2.47504   2.48191   2.48827   2.50231
 Alpha virt. eigenvalues --    2.51033   2.51169   2.52526   2.53830   2.54499
 Alpha virt. eigenvalues --    2.55018   2.55391   2.57328   2.57708   2.58153
 Alpha virt. eigenvalues --    2.58328   2.59372   2.59835   2.60114   2.60695
 Alpha virt. eigenvalues --    2.61122   2.62002   2.62480   2.63099   2.64563
 Alpha virt. eigenvalues --    2.64891   2.65508   2.66107   2.66829   2.67086
 Alpha virt. eigenvalues --    2.67381   2.68394   2.68459   2.70250   2.70359
 Alpha virt. eigenvalues --    2.71232   2.71709   2.72133   2.73027   2.73350
 Alpha virt. eigenvalues --    2.73768   2.74275   2.74666   2.76585   2.77021
 Alpha virt. eigenvalues --    2.77790   2.78331   2.78537   2.79451   2.80121
 Alpha virt. eigenvalues --    2.80808   2.81837   2.82100   2.82734   2.83168
 Alpha virt. eigenvalues --    2.83958   2.85048   2.85533   2.85988   2.87135
 Alpha virt. eigenvalues --    2.87836   2.89628   2.90269   2.90964   2.91311
 Alpha virt. eigenvalues --    2.92541   2.93724   2.94129   2.95260   2.95761
 Alpha virt. eigenvalues --    2.96241   2.97205   2.97846   2.98184   2.99626
 Alpha virt. eigenvalues --    3.00484   3.01011   3.01792   3.02282   3.03024
 Alpha virt. eigenvalues --    3.03538   3.03875   3.04164   3.06153   3.06511
 Alpha virt. eigenvalues --    3.07206   3.07461   3.07802   3.07959   3.08460
 Alpha virt. eigenvalues --    3.10277   3.10789   3.10904   3.11611   3.12184
 Alpha virt. eigenvalues --    3.12724   3.13356   3.14127   3.14710   3.15816
 Alpha virt. eigenvalues --    3.15942   3.16661   3.17197   3.17534   3.17914
 Alpha virt. eigenvalues --    3.18433   3.18619   3.19123   3.19487   3.20500
 Alpha virt. eigenvalues --    3.20789   3.21932   3.22524   3.23835   3.24651
 Alpha virt. eigenvalues --    3.24857   3.26391   3.26599   3.27093   3.27608
 Alpha virt. eigenvalues --    3.27931   3.28855   3.28972   3.29247   3.29801
 Alpha virt. eigenvalues --    3.31035   3.31475   3.32152   3.32289   3.33216
 Alpha virt. eigenvalues --    3.33790   3.34174   3.34599   3.35520   3.36596
 Alpha virt. eigenvalues --    3.36986   3.38027   3.38727   3.39183   3.39693
 Alpha virt. eigenvalues --    3.40100   3.40658   3.41163   3.41286   3.42093
 Alpha virt. eigenvalues --    3.42256   3.42968   3.43777   3.44583   3.45193
 Alpha virt. eigenvalues --    3.45447   3.46549   3.47399   3.48224   3.48648
 Alpha virt. eigenvalues --    3.49425   3.49607   3.50348   3.51238   3.52241
 Alpha virt. eigenvalues --    3.53142   3.53498   3.53813   3.54162   3.54780
 Alpha virt. eigenvalues --    3.55408   3.57030   3.57220   3.58449   3.59371
 Alpha virt. eigenvalues --    3.59900   3.61887   3.62928   3.63257   3.63669
 Alpha virt. eigenvalues --    3.64791   3.66030   3.66886   3.68553   3.69037
 Alpha virt. eigenvalues --    3.70018   3.71390   3.72175   3.73130   3.73274
 Alpha virt. eigenvalues --    3.74604   3.74928   3.75616   3.76291   3.76956
 Alpha virt. eigenvalues --    3.78274   3.80481   3.81234   3.82376   3.82934
 Alpha virt. eigenvalues --    3.83594   3.84615   3.86256   3.86595   3.88497
 Alpha virt. eigenvalues --    3.89356   3.89513   3.91107   3.91831   3.92247
 Alpha virt. eigenvalues --    3.93861   3.94579   3.95874   3.96462   3.98023
 Alpha virt. eigenvalues --    3.98330   4.00145   4.02224   4.04475   4.06233
 Alpha virt. eigenvalues --    4.06653   4.08653   4.08954   4.09741   4.10302
 Alpha virt. eigenvalues --    4.11266   4.11930   4.12942   4.15296   4.17432
 Alpha virt. eigenvalues --    4.18437   4.18608   4.19946   4.24405   4.25000
 Alpha virt. eigenvalues --    4.26530   4.27031   4.27579   4.28947   4.30181
 Alpha virt. eigenvalues --    4.31049   4.31433   4.32434   4.34015   4.34663
 Alpha virt. eigenvalues --    4.37123   4.38039   4.38524   4.39142   4.40460
 Alpha virt. eigenvalues --    4.42550   4.42876   4.43627   4.44436   4.48072
 Alpha virt. eigenvalues --    4.49079   4.51405   4.53566   4.54567   4.56997
 Alpha virt. eigenvalues --    4.58061   4.61823   4.62295   4.66448   4.66629
 Alpha virt. eigenvalues --    4.69553   4.72085   4.72584   4.73312   4.75280
 Alpha virt. eigenvalues --    4.75696   4.76698   4.78167   4.79472   4.80219
 Alpha virt. eigenvalues --    4.81396   4.86040   4.86940   4.89910   4.91032
 Alpha virt. eigenvalues --    4.92058   4.93178   4.95302   4.96298   4.98027
 Alpha virt. eigenvalues --    4.98305   5.01010   5.02026   5.02376   5.04819
 Alpha virt. eigenvalues --    5.09398   5.10962   5.13110   5.16077   5.18928
 Alpha virt. eigenvalues --    5.20373   5.21777   5.25448   5.27556   5.28736
 Alpha virt. eigenvalues --    5.29493   5.30099   5.31074   5.33660   5.34419
 Alpha virt. eigenvalues --    5.37227   5.40638   5.41074   5.42678   5.44004
 Alpha virt. eigenvalues --    5.46387   5.48687   5.53016   5.55793   5.60818
 Alpha virt. eigenvalues --    5.62424   5.65455   5.72008   5.73983   5.76111
 Alpha virt. eigenvalues --    5.78153   5.79370   5.83023   5.83720   5.86116
 Alpha virt. eigenvalues --    5.87527   5.88057   5.90895   5.91807   5.93934
 Alpha virt. eigenvalues --    6.00490   6.03894   6.05478   6.14391   6.18121
 Alpha virt. eigenvalues --    6.20962   6.22270   6.26347   6.30938   6.34751
 Alpha virt. eigenvalues --    6.36975   6.41811   6.47444   6.52362   6.54706
 Alpha virt. eigenvalues --    6.57636   6.64515   6.68626   6.72294   6.75591
 Alpha virt. eigenvalues --    6.76119   6.79299   6.83582   6.83731   6.86185
 Alpha virt. eigenvalues --    6.90794   6.95133   6.98222   7.05663   7.07455
 Alpha virt. eigenvalues --    7.09026   7.10746   7.12572   7.15369   7.22470
 Alpha virt. eigenvalues --    7.28698   7.33957   9.04117   9.42615   9.55520
 Alpha virt. eigenvalues --   19.73217  22.32209  22.40824  22.49610  22.56172
 Alpha virt. eigenvalues --   22.63367  22.65574  22.69646  22.71197  22.77836
 Alpha virt. eigenvalues --   22.87438  22.89524  22.99622  23.00326  23.11070
 Alpha virt. eigenvalues --   23.22959  23.50942  32.13717  33.14298  44.15173
 Alpha virt. eigenvalues --   44.20483  44.24202  44.30710  44.54565
          Condensed to atoms (all electrons):
               1          2          3          4          5          6
     1  C    5.109562   0.420931   0.415923  -0.022751   0.000106  -0.000129
     2  H    0.420931   0.508847  -0.022128  -0.001609   0.000410  -0.000005
     3  H    0.415923  -0.022128   0.529922   0.001570  -0.000018  -0.000003
     4  C   -0.022751  -0.001609   0.001570   5.679467   0.465592   0.279632
     5  H    0.000106   0.000410  -0.000018   0.465592   0.583380  -0.032818
     6  O   -0.000129  -0.000005  -0.000003   0.279632  -0.032818   8.059115
     7  H   -0.000029  -0.000005   0.000004  -0.049553  -0.005816   0.272373
     8  C    0.016461   0.013464  -0.009711  -0.219734  -0.086963  -0.058873
     9  H    0.013704   0.000045  -0.002484  -0.134832   0.004069   0.003090
    10  O    0.007420  -0.000361   0.000345  -0.052378   0.002200   0.000544
    11  H   -0.000706  -0.000190   0.000488   0.014128  -0.000901  -0.000547
    12  C   -0.001026   0.000217   0.000963  -0.120007  -0.064389  -0.015256
    13  H    0.000294   0.000045   0.000086  -0.102639   0.007250   0.004053
    14  C    0.169136  -0.048349  -0.039217   0.185381   0.021360   0.009080
    15  H   -0.067861  -0.006737  -0.004167  -0.011127   0.000124   0.000085
    16  O   -0.028937   0.000447   0.004879  -0.077011  -0.000612   0.005912
    17  N   -0.000036  -0.000086  -0.000032   0.036045  -0.016893  -0.005329
    18  C   -0.001610  -0.000043   0.000039  -0.005897  -0.010177   0.005361
    19  H    0.000071  -0.000017   0.000014  -0.004548   0.002512   0.000131
    20  C   -0.000011   0.000001  -0.000001   0.002995   0.008536  -0.002349
    21  H    0.000004   0.000000  -0.000000  -0.000071   0.000205  -0.000037
    22  C   -0.000015  -0.000000   0.000000   0.001701  -0.001146   0.000321
    23  H   -0.000000   0.000000  -0.000000   0.000020  -0.000004   0.000001
    24  H    0.000000  -0.000000  -0.000000  -0.000261  -0.000026  -0.000009
    25  C   -0.000064  -0.000006   0.000001  -0.006684   0.000202  -0.000883
    26  C   -0.000463   0.000045  -0.000004   0.026462  -0.002728  -0.004061
    27  H   -0.000025   0.000001   0.000000   0.001589  -0.000117   0.000172
    28  C    0.000000  -0.000000  -0.000000  -0.000036   0.000010  -0.000013
    29  O   -0.000000   0.000000  -0.000000  -0.000001  -0.000000  -0.000000
    30  N   -0.000000  -0.000000   0.000000  -0.000000  -0.000000  -0.000000
    31  H   -0.000000   0.000000   0.000000   0.000000   0.000000  -0.000000
    32  H    0.000000   0.000000  -0.000000   0.000001   0.000000   0.000000
    33  C    0.000001  -0.000000   0.000000   0.000055  -0.000401  -0.014384
    34  C    0.000000  -0.000000  -0.000000   0.002413   0.000198   0.002680
    35  C    0.000000   0.000000  -0.000000   0.000187   0.000090   0.000163
    36  C   -0.000000   0.000000   0.000000  -0.000000   0.000000   0.000001
    37  C   -0.000000   0.000000   0.000000   0.000259   0.000016   0.000091
    38  O   -0.000000   0.000000  -0.000000  -0.004732   0.000001  -0.049186
    39  S   -0.000000  -0.000000   0.000000   0.000209   0.000036   0.000806
    40  H    0.000000   0.000000  -0.000000   0.000146   0.000029   0.000312
    41  H   -0.000002   0.000000  -0.000000  -0.003035   0.000473   0.012914
    42  H    0.000000   0.000000  -0.000000  -0.000000   0.000000  -0.000000
    43  H   -0.000000   0.000000  -0.000000   0.000000  -0.000000   0.000000
    44  H    0.000000   0.000000  -0.000000  -0.000000  -0.000000  -0.000000
    45  H   -0.000000   0.000000   0.000000   0.000033   0.000002   0.000020
    46  H    0.000000  -0.000000  -0.000000  -0.000047  -0.000001   0.000005
    47  H    0.379995  -0.023185  -0.023751   0.004171  -0.000586   0.000049
    48  H    0.000000   0.000000  -0.000000   0.000098   0.000003   0.000392
               7          8          9         10         11         12
     1  C   -0.000029   0.016461   0.013704   0.007420  -0.000706  -0.001026
     2  H   -0.000005   0.013464   0.000045  -0.000361  -0.000190   0.000217
     3  H    0.000004  -0.009711  -0.002484   0.000345   0.000488   0.000963
     4  C   -0.049553  -0.219734  -0.134832  -0.052378   0.014128  -0.120007
     5  H   -0.005816  -0.086963   0.004069   0.002200  -0.000901  -0.064389
     6  O    0.272373  -0.058873   0.003090   0.000544  -0.000547  -0.015256
     7  H    0.368782   0.002500  -0.000803  -0.000956   0.000212   0.010103
     8  C    0.002500   5.644397   0.538724   0.268136  -0.037839   0.048110
     9  H   -0.000803   0.538724   0.563764  -0.056597  -0.001742   0.016845
    10  O   -0.000956   0.268136  -0.056597   8.026501   0.286776  -0.009149
    11  H    0.000212  -0.037839  -0.001742   0.286776   0.425782  -0.003439
    12  C    0.010103   0.048110   0.016845  -0.009149  -0.003439   5.618592
    13  H   -0.002173   0.015810   0.002790   0.016647  -0.001533   0.461701
    14  C    0.000306   0.001274  -0.116055  -0.049157  -0.004325  -0.122298
    15  H    0.000071  -0.037072   0.010371  -0.006737   0.005123  -0.002436
    16  O    0.000754  -0.040207   0.004662   0.007457   0.000343   0.279003
    17  N    0.010667   0.000145  -0.000874  -0.000505   0.000030   0.172014
    18  C   -0.002206  -0.004343  -0.000303  -0.000476   0.000024  -0.102583
    19  H    0.000415  -0.001089  -0.000070  -0.000000   0.000001   0.010630
    20  C   -0.002000  -0.002241   0.000049   0.000018  -0.000002   0.022073
    21  H   -0.000024  -0.000012   0.000001   0.000000  -0.000000   0.000631
    22  C    0.001143   0.000085  -0.000010  -0.000006   0.000001  -0.017156
    23  H   -0.000002   0.000001  -0.000000  -0.000000   0.000000  -0.000041
    24  H    0.000466   0.000009  -0.000000   0.000000   0.000000   0.000978
    25  C    0.000124  -0.000383   0.000007  -0.000037  -0.000001  -0.005318
    26  C   -0.005599  -0.002812  -0.000169  -0.000857  -0.000055  -0.099880
    27  H   -0.000089  -0.000040  -0.000011  -0.000173   0.000009  -0.003679
    28  C    0.000004   0.000007   0.000000   0.000000  -0.000000   0.000307
    29  O    0.000014   0.000001   0.000000  -0.000000  -0.000000   0.000626
    30  N    0.000000  -0.000000  -0.000000  -0.000000  -0.000000   0.000019
    31  H   -0.000000  -0.000000   0.000000  -0.000000  -0.000000  -0.000004
    32  H   -0.000000   0.000000   0.000000   0.000000  -0.000000  -0.000009
    33  C    0.003582   0.000784   0.000014  -0.000536   0.000038  -0.000401
    34  C   -0.012825  -0.000030  -0.000000   0.000030  -0.000002  -0.005726
    35  C    0.004095  -0.000132  -0.000000   0.000002  -0.000000  -0.000083
    36  C   -0.000014  -0.000000  -0.000000  -0.000000  -0.000000   0.000006
    37  C   -0.001363   0.000006  -0.000000  -0.000000   0.000000  -0.001101
    38  O    0.070256  -0.000153   0.000006   0.000014  -0.000001   0.010366
    39  S   -0.001046  -0.000045  -0.000001  -0.000000   0.000000  -0.000789
    40  H   -0.000546  -0.000032  -0.000000   0.000009  -0.000001   0.000001
    41  H   -0.004139  -0.001674   0.000023   0.001791  -0.000130   0.000905
    42  H    0.000001  -0.000000   0.000000   0.000000  -0.000000   0.000002
    43  H   -0.000000   0.000000   0.000000   0.000000   0.000000   0.000000
    44  H    0.000001  -0.000000  -0.000000   0.000000   0.000000   0.000000
    45  H   -0.000260   0.000000   0.000000  -0.000000  -0.000000  -0.000080
    46  H    0.000055  -0.000001  -0.000000   0.000000   0.000000   0.000187
    47  H    0.000035  -0.018316   0.001014   0.000150   0.000144  -0.001959
    48  H   -0.000278  -0.000003   0.000001   0.000005  -0.000002  -0.000044
              13         14         15         16         17         18
     1  C    0.000294   0.169136  -0.067861  -0.028937  -0.000036  -0.001610
     2  H    0.000045  -0.048349  -0.006737   0.000447  -0.000086  -0.000043
     3  H    0.000086  -0.039217  -0.004167   0.004879  -0.000032   0.000039
     4  C   -0.102639   0.185381  -0.011127  -0.077011   0.036045  -0.005897
     5  H    0.007250   0.021360   0.000124  -0.000612  -0.016893  -0.010177
     6  O    0.004053   0.009080   0.000085   0.005912  -0.005329   0.005361
     7  H   -0.002173   0.000306   0.000071   0.000754   0.010667  -0.002206
     8  C    0.015810   0.001274  -0.037072  -0.040207   0.000145  -0.004343
     9  H    0.002790  -0.116055   0.010371   0.004662  -0.000874  -0.000303
    10  O    0.016647  -0.049157  -0.006737   0.007457  -0.000505  -0.000476
    11  H   -0.001533  -0.004325   0.005123   0.000343   0.000030   0.000024
    12  C    0.461701  -0.122298  -0.002436   0.279003   0.172014  -0.102583
    13  H    0.501118  -0.008673   0.005521  -0.035189  -0.059528   0.010848
    14  C   -0.008673   5.379289   0.416396   0.196907   0.010140  -0.000995
    15  H    0.005521   0.416396   0.614378  -0.036694  -0.001430   0.000402
    16  O   -0.035189   0.196907  -0.036694   8.060264  -0.075006   0.018321
    17  N   -0.059528   0.010140  -0.001430  -0.075006   6.343013   0.342218
    18  C    0.010848  -0.000995   0.000402   0.018321   0.342218   5.056776
    19  H    0.000871  -0.001665   0.000034   0.002871  -0.044040   0.407776
    20  C    0.001681   0.001000   0.000031  -0.000970  -0.042550   0.382358
    21  H    0.000023  -0.000001  -0.000000  -0.000043   0.003470  -0.029553
    22  C   -0.001565  -0.000057  -0.000009   0.001353  -0.043094   0.061325
    23  H   -0.000017   0.000001  -0.000000   0.000003  -0.001253   0.003690
    24  H   -0.000007   0.000000   0.000000   0.000006   0.006266   0.008259
    25  C    0.011214  -0.000365   0.000044  -0.004960  -0.003933  -0.023579
[...]
      4        6          -0.007777892   -0.002369230    0.002787361
      5        1           0.003637899    0.003925794    0.002446542
      6        8           0.007287466    0.000964404   -0.005291604
      7        1          -0.004082695   -0.005692570    0.003795106
      8        6          -0.003886075   -0.011166798   -0.000630940
      9        1          -0.001039535    0.005427770   -0.003679200
     10        8           0.027052387    0.001684701   -0.004676734
     11        1          -0.024851307    0.004985190    0.008050471
     12        6          -0.001034124    0.008027079    0.004397352
     13        1          -0.001545087   -0.002206203   -0.002243915
     14        6           0.007493050    0.000080186    0.000838573
     15        1          -0.003302142    0.002802708    0.001618472
     16        8           0.005718073   -0.005136555   -0.006537708
     17        7           0.004570652    0.000805227    0.001552620
     18        6          -0.011959732   -0.002491153   -0.000653362
     19        1          -0.001080801    0.006093458   -0.003509330
     20        6           0.004183451   -0.005608850    0.003601323
     21        1           0.004645690    0.004349116   -0.002376519
     22        6          -0.002671937    0.000607530   -0.000853172
     23        1           0.003316059   -0.002360312    0.002959099
     24        1          -0.001342443    0.006143916    0.003530871
     25        6           0.003980405   -0.000225199    0.003145606
     26        6          -0.006405525    0.006535158   -0.001944249
     27        1          -0.007386090   -0.005927615    0.001245489
     28        6           0.020133188    0.003121208    0.020064079
     29        8          -0.009254413   -0.009003701   -0.009277174
     30        7          -0.004843451    0.000404383   -0.027082859
     31        1          -0.007059393   -0.007052396    0.007537554
     32        1           0.006268057    0.013059264    0.009195104
     33        6          -0.005779598   -0.013736964   -0.002885286
     34        6           0.005969646   -0.017094548    0.013337035
     35        6          -0.004564043    0.001775711   -0.009089796
     36        6          -0.000523296    0.000886810   -0.004184934
     37        6          -0.001343095   -0.003021085    0.004268252
     38        8           0.002578729    0.012328092   -0.009559801
     39       16           0.005458537    0.001108199   -0.000323249
     40        1           0.006055774    0.003076477   -0.003373551
     41        1          -0.001416573    0.005820409    0.005112260
     42        1          -0.001316198   -0.001074929    0.003175436
     43        1          -0.000367303   -0.001286188    0.002112061
     44        1           0.004423670   -0.001593619   -0.000583866
     45        1           0.004594967    0.000584137   -0.006251093
     46        1          -0.002824926   -0.003170188    0.001523461
     47        1           0.001482644   -0.004481161   -0.001179785
     48        1          -0.001639127    0.003209491   -0.003975558
 -------------------------------------------------------------------
 Cartesian Forces:  Max     0.027082859 RMS     0.006834037
 Leave Link  716 at Sun Feb 19 04:49:01 2023, MaxMem=  2684354560 cpu:               0.4 elap:               0.0
 (Enter /storage/apps/GAUSSIAN/G16_RevA03/g16/l103.exe)

 GradGradGradGradGradGradGradGradGradGradGradGradGradGradGradGradGradGrad
 Berny optimization.
 Search for a local minimum.
 Step number   1 out of a maximum of    2
 All quantities printed in internal units (Hartrees-Bohrs-Radians)
 Second derivative matrix not updated -- first step.
 ITU=  0
     Eigenvalues ---    0.00014   0.00045   0.00074   0.00111   0.00156
     Eigenvalues ---    0.00194   0.00229   0.00253   0.00398   0.00443
     Eigenvalues ---    0.00548   0.00676   0.00772   0.00847   0.00877
     Eigenvalues ---    0.01033   0.01060   0.01138   0.01309   0.01471
     Eigenvalues ---    0.01745   0.01801   0.02141   0.02288   0.02651
     Eigenvalues ---    0.02795   0.03180   0.03237   0.03590   0.03778
     Eigenvalues ---    0.04110   0.04500   0.04908   0.05038   0.05107
     Eigenvalues ---    0.05147   0.05324   0.05528   0.05819   0.05896
     Eigenvalues ---    0.06079   0.06385   0.06665   0.06693   0.06948
     Eigenvalues ---    0.07166   0.07355   0.07518   0.07939   0.08043
     Eigenvalues ---    0.08522   0.08863   0.09057   0.09175   0.10005
     Eigenvalues ---    0.10692   0.10945   0.11272   0.11988   0.12255
     Eigenvalues ---    0.12608   0.12734   0.12854   0.12993   0.13184
     Eigenvalues ---    0.13802   0.14222   0.15144   0.15760   0.15922
     Eigenvalues ---    0.16801   0.17788   0.17855   0.18390   0.19279
     Eigenvalues ---    0.20300   0.20688   0.20881   0.21568   0.22497
     Eigenvalues ---    0.24585   0.26501   0.27159   0.27774   0.28874
     Eigenvalues ---    0.32373   0.33182   0.33937   0.34268   0.36749
     Eigenvalues ---    0.37202   0.37202   0.37202   0.37202   0.39235
     Eigenvalues ---    0.42774   0.47380   0.48360   0.54485   0.58375
     Eigenvalues ---    0.58771   0.60586   0.67471   0.70434   0.71723
     Eigenvalues ---    0.78564   0.79942   0.81763   0.87091   0.87102
     Eigenvalues ---    0.89010   0.89421   0.90348   0.91917   0.92816
     Eigenvalues ---    0.94983   0.96473   0.97892   0.99881   1.01424
     Eigenvalues ---    1.03270   1.05982   1.09229   1.09678   1.11554
     Eigenvalues ---    1.15471   1.22654   1.25557   1.26003   1.27202
     Eigenvalues ---    1.32592   1.41157   1.44378   1.53360   1.70428
     Eigenvalues ---    1.76926   1.85822   2.29495
 Quadratic step=4.892D+00 exceeds max=3.000D-01 adjusted using Lamda=-2.966D-02.
 Angle between NR and scaled steps=  61.54 degrees.
 Angle between quadratic step and forces=  62.33 degrees.
 Linear search not attempted -- first point.
 Variable       Old X    -DE/DX   Delta X   Delta X   Delta X     New X
                                 (Linear)    (Quad)   (Total)
    X1        6.30208  -0.00177   0.00000  -0.02339  -0.02339   6.27869
    Y1       -6.93409   0.00841   0.00000   0.02068   0.02068  -6.91341
    Z1       -1.02445   0.00022   0.00000   0.00393   0.00393  -1.02052
    X2        6.44510  -0.00083   0.00000  -0.01164  -0.01164   6.43346
    Y2       -7.22329  -0.00010   0.00000   0.01332   0.01332  -7.20997
    Z2       -3.07568   0.00670   0.00000   0.02174   0.02174  -3.05394
    X3        8.02777  -0.00695   0.00000  -0.04496  -0.04496   7.98281
    Y3       -7.64127  -0.00141   0.00000  -0.02063  -0.02063  -7.66190
    Z3       -0.10635  -0.00305   0.00000  -0.02080  -0.02080  -0.12715
    X4        2.79651  -0.00778   0.00000   0.00328   0.00328   2.79979
    Y4       -2.54311  -0.00237   0.00000   0.00377   0.00377  -2.53934
    Z4        2.23743   0.00279   0.00000   0.00286   0.00286   2.24030
    X5        1.65548   0.00364   0.00000   0.02924   0.02924   1.68472
    Y5       -4.28022   0.00393   0.00000   0.00082   0.00082  -4.27940
    Z5        1.95063   0.00245   0.00000   0.03684   0.03684   1.98747
    X6        1.94217   0.00729   0.00000   0.04894   0.04894   1.99111
    Y6       -1.13958   0.00096   0.00000   0.00747   0.00747  -1.13211
    Z6        4.25734  -0.00529   0.00000   0.00571   0.00571   4.26304
    X7        0.55946  -0.00408   0.00000  -0.06033  -0.06033   0.49913
    Y7        0.06104  -0.00569   0.00000  -0.09851  -0.09851  -0.03747
    Z7        3.79794   0.00380   0.00000   0.06720   0.06720   3.86514
    X8        5.56046  -0.00389   0.00000   0.00145   0.00145   5.56191
    Y8       -3.44216  -0.01117   0.00000   0.00679   0.00679  -3.43538
    Z8        2.37421  -0.00063   0.00000  -0.01014  -0.01014   2.36407
    X9        5.76518  -0.00104   0.00000   0.00790   0.00790   5.77309
    Y9       -5.10882   0.00543   0.00000   0.02105   0.02105  -5.08777
    Z9        3.61545  -0.00368   0.00000  -0.02242  -0.02242   3.59303
   X10        7.06718   0.02705   0.00000   0.00335   0.00335   7.07053
   Y10       -1.43961   0.00168   0.00000   0.02000   0.02000  -1.41960
   Z10        3.19853  -0.00468   0.00000  -0.00198  -0.00198   3.19655
   X11        8.84863  -0.02485   0.00000  -0.03782  -0.03782   8.81081
   Y11       -1.79915   0.00499   0.00000   0.02003   0.02003  -1.77912
   Z11        2.75309   0.00805   0.00000   0.03701   0.03701   2.79010
   X12        2.92364  -0.00103   0.00000  -0.00943  -0.00943   2.91420
   Y12       -1.20159   0.00803   0.00000   0.00253   0.00253  -1.19906
   Z12       -0.31119   0.00440   0.00000  -0.00239  -0.00239  -0.31358
   X13        3.98541  -0.00155   0.00000  -0.00555  -0.00555   3.97986
   Y13        0.56934  -0.00221   0.00000  -0.00400  -0.00400   0.56533
   Z13       -0.07719  -0.00224   0.00000  -0.03267  -0.03267  -0.10986
   X14        6.09552   0.00749   0.00000   0.01149   0.01149   6.10701
   Y14       -4.12916   0.00008   0.00000   0.01589   0.01589  -4.11327
   Z14       -0.43473   0.00084   0.00000  -0.00114  -0.00114  -0.43587
   X15        7.89655  -0.00330   0.00000  -0.00436  -0.00436   7.89219
   Y15       -3.25334   0.00280   0.00000   0.04026   0.04026  -3.21307
   Z15       -0.99378   0.00162   0.00000   0.00404   0.00404  -0.98975
   X16        4.11541   0.00572   0.00000   0.00718   0.00718   4.12259
   Y16       -2.95146  -0.00514   0.00000  -0.00208  -0.00208  -2.95354
   Z16       -1.87385  -0.00654   0.00000  -0.01152  -0.01152  -1.88537
   X17        0.50535   0.00457   0.00000  -0.02239  -0.02239   0.48296
   Y17       -0.54248   0.00081   0.00000   0.00315   0.00315  -0.53933
   Z17       -1.48588   0.00155   0.00000   0.02244   0.02244  -1.46343
   X18       -1.33307  -0.01196   0.00000  -0.02899  -0.02899  -1.36206
   Y18       -2.33299  -0.00249   0.00000   0.00606   0.00606  -2.32693
   Z18       -1.60234  -0.00065   0.00000   0.01288   0.01288  -1.58947
   X19       -0.93955  -0.00108   0.00000  -0.01172  -0.01172  -0.95127
   Y19       -4.11522   0.00609   0.00000   0.01343   0.01343  -4.10179
   Z19       -0.66217  -0.00351   0.00000  -0.01971  -0.01971  -0.68188
   X20       -3.57116   0.00418   0.00000  -0.00306  -0.00306  -3.57422
   Y20       -1.84855  -0.00561   0.00000  -0.00405  -0.00405  -1.85259
   Z20       -2.80300   0.00360   0.00000   0.00016   0.00016  -2.80284
   X21       -5.06073   0.00465   0.00000   0.02334   0.02334  -5.03740
   Y21       -3.26612   0.00435   0.00000  -0.00720  -0.00720  -3.27332
   Z21       -2.73061  -0.00238   0.00000  -0.04768  -0.04768  -2.77829
   X22       -3.90649  -0.00267   0.00000  -0.00782  -0.00782  -3.91431
   Y22        0.48564   0.00061   0.00000  -0.00090  -0.00090   0.48474
   Z22       -4.02172  -0.00085   0.00000   0.01419   0.01419  -4.00753
   X23       -5.65328   0.00332   0.00000   0.00910   0.00910  -5.64418
   Y23        0.90997  -0.00236   0.00000  -0.02385  -0.02385   0.88612
   Z23       -5.02179   0.00296   0.00000   0.00309   0.00309  -5.01870
   X24       -5.54675  -0.00134   0.00000  -0.00882  -0.00882  -5.55556
   Y24        2.46901   0.00614   0.00000   0.02960   0.02960   2.49861
   Z24       -0.97722   0.00353   0.00000   0.01666   0.01666  -0.96056
   X25       -1.95606   0.00398   0.00000  -0.01480  -0.01480  -1.97086
   Y25        2.24758  -0.00023   0.00000   0.00480   0.00480   2.25238
   Z25       -3.97642   0.00315   0.00000   0.02992   0.02992  -3.94651
   X26        0.22379  -0.00641   0.00000  -0.04238  -0.04238   0.18141
   Y26        1.72329   0.00654   0.00000   0.00688   0.00688   1.73017
   Z26       -2.61309  -0.00194   0.00000   0.03838   0.03838  -2.57471
   X27        1.77662  -0.00739   0.00000  -0.05186  -0.05186   1.72476
   Y27        3.08535  -0.00593   0.00000  -0.01547  -0.01547   3.06988
   Z27       -2.50957   0.00125   0.00000   0.03645   0.03645  -2.47312
   X28       -2.09547   0.02013   0.00000   0.02709   0.02709  -2.06838
   Y28        4.75264   0.00312   0.00000  -0.00920  -0.00920   4.74343
   Z28       -5.32214   0.02006   0.00000   0.00900   0.00900  -5.31314
   X29       -0.70396  -0.00925   0.00000   0.02316   0.02316  -0.68080
   Y29        6.47829  -0.00900   0.00000  -0.00931  -0.00931   6.46898
   Z29       -4.70586  -0.00928   0.00000  -0.04012  -0.04012  -4.74598
   X30       -3.81481  -0.00484   0.00000   0.03565   0.03565  -3.77916
   Y30        4.91044   0.00040   0.00000  -0.00087  -0.00087   4.90957
   Z30       -7.20155  -0.02708   0.00000  -0.02805  -0.02805  -7.22960
   X31       -3.47255  -0.00706   0.00000  -0.04462  -0.04462  -3.51717
   Y31        6.40093  -0.00705   0.00000   0.00648   0.00648   6.40741
   Z31       -8.38630   0.00754   0.00000  -0.00099  -0.00099  -8.38730
   X32       -4.46812   0.00627   0.00000   0.04798   0.04798  -4.42014
   Y32        3.30692   0.01306   0.00000   0.01952   0.01952   3.32644
   Z32       -8.07537   0.00920   0.00000   0.00597   0.00597  -8.06940
   X33        0.94151  -0.00578   0.00000  -0.02737  -0.02737   0.91414
   Y33        4.17616  -0.01374   0.00000  -0.02243  -0.02243   4.15373
   Z33        7.34450  -0.00289   0.00000  -0.00463  -0.00463   7.33987
   X34       -2.12881   0.00597   0.00000   0.01118   0.01118  -2.11763
   Y34        4.12046  -0.01709   0.00000  -0.01411  -0.01411   4.10635
   Z34        3.02225   0.01334   0.00000   0.00156   0.00156   3.02381
   X35       -3.45908  -0.00456   0.00000  -0.01517  -0.01517  -3.47425
   Y35        5.30688   0.00178   0.00000  -0.00317  -0.00317   5.30371
   Z35        1.12943  -0.00909   0.00000   0.00662   0.00662   1.13606
   X36       -7.26660  -0.00052   0.00000   0.00564   0.00564  -7.26096
   Y36        6.15777   0.00089   0.00000   0.00138   0.00138   6.15915
   Z36       -1.62729  -0.00418   0.00000  -0.00076  -0.00076  -1.62805
   X37       -5.86328  -0.00134   0.00000  -0.00928  -0.00928  -5.87256
   Y37        4.26423  -0.00302   0.00000   0.00872   0.00872   4.27295
   Z37        0.07922   0.00427   0.00000   0.01212   0.01212   0.09134
   X38       -2.16576   0.00258   0.00000   0.04839   0.04839  -2.11737
   Y38        1.79300   0.01233   0.00000  -0.01312  -0.01312   1.77988
   Z38        3.62579  -0.00956   0.00000  -0.06845  -0.06845   3.55733
   X39       -0.32143   0.00546   0.00000   0.03033   0.03033  -0.29110
   Y39        6.29112   0.00111   0.00000  -0.01653  -0.01653   6.27459
   Z39        4.97878  -0.00032   0.00000  -0.01553  -0.01553   4.96325
   X40       -0.63052   0.00606   0.00000  -0.00997  -0.00997  -0.64048
   Y40        3.30160   0.00308   0.00000  -0.00172  -0.00172   3.29988
   Z40        8.38630  -0.00337   0.00000  -0.00513  -0.00513   8.38117
   X41        2.03823  -0.00142   0.00000   0.01419   0.01419   2.05242
   Y41        2.66809   0.00582   0.00000   0.00294   0.00294   2.67103
   Z41        6.43751   0.00511   0.00000   0.05190   0.05190   6.48941
   X42       -8.02749  -0.00132   0.00000  -0.02952  -0.02952  -8.05701
   Y42        5.26540  -0.00107   0.00000  -0.01516  -0.01516   5.25024
   Z42       -3.33284   0.00318   0.00000   0.02920   0.02920  -3.30364
   X43       -5.99484  -0.00037   0.00000   0.01725   0.01725  -5.97759
   Y43        7.64127  -0.00129   0.00000  -0.01657  -0.01657   7.62470
   Z43       -2.30659   0.00211   0.00000  -0.00471  -0.00471  -2.31129
   X44       -8.84863   0.00442   0.00000   0.03986   0.03986  -8.80876
   Y44        7.07810  -0.00159   0.00000   0.02081   0.02081   7.09891
   Z44       -0.65762  -0.00058   0.00000   0.01177   0.01177  -0.64585
   X45       -7.10440   0.00459   0.00000   0.00156   0.00156  -7.10283
   Y45        3.66820   0.00058   0.00000  -0.00271  -0.00271   3.66549
   Z45        1.65703  -0.00625   0.00000  -0.01339  -0.01339   1.64364
   X46       -2.96168  -0.00282   0.00000  -0.04111  -0.04111  -3.00280
   Y46        7.25669  -0.00317   0.00000  -0.00168  -0.00168   7.25501
   Z46        0.69807   0.00152   0.00000   0.02872   0.02872   0.72679
   X47        4.63777   0.00148   0.00000  -0.00302  -0.00302   4.63475
   Y47       -7.89830  -0.00448   0.00000  -0.02858  -0.02858  -7.92689
   Z47       -0.28746  -0.00118   0.00000  -0.01910  -0.01910  -0.30656
   X48        2.14147  -0.00164   0.00000  -0.05439  -0.05439   2.08708
   Y48        5.20962   0.00321   0.00000   0.04163   0.04163   5.25125
   Z48        8.66164  -0.00398   0.00000  -0.03357  -0.03357   8.62806
         Item               Value     Threshold  Converged?
 Maximum Force            0.027083     0.000450     NO 
 RMS     Force            0.006834     0.000300     NO 
 Maximum Displacement     0.098507     0.001800     NO 
 RMS     Displacement     0.025035     0.001200     NO 
 Predicted change in Energy=-7.059045D-03
 GradGradGradGradGradGradGradGradGradGradGradGradGradGradGradGradGradGrad

 Leave Link  103 at Sun Feb 19 04:49:01 2023, MaxMem=  2684354560 cpu:               1.3 elap:               0.1
 (Enter /storage/apps/GAUSSIAN/G16_RevA03/g16/l9999.exe)

 Test job not archived.
 1\1\GINC-T057\Force\RM062X\def2TZVP\C16H24N2O5S1\LV87696\19-Feb-2023\0
 \\#P M062X/Def2TZVP scf=(direct,conver=8) EmpiricalDispersion=GD3 NoSy
 mm Force pop=(NBORead) Charge Prop=(Field,Read)\\Gaussian run using SA
 NDER external interface, route from template gau_job.tpl\\0,1\C,3.3349
 187826,-3.669362503,-0.5421135098\H,3.4105996524,-3.8224025133,-1.6275
 817893\H,4.2481119848,-4.0435846838,-0.0562787553\C,1.4798495526,-1.34
 57581084,1.1839994892\H,0.8760404589,-2.2649946844,1.0322290695\O,1.02
 77505508,-0.603040955,2.2528849461\H,0.2960526073,0.0323006454,2.00978
 28795\C,2.9424708054,-1.8215138909,1.2563790672\H,3.0508033957,-2.7034
 726718,1.9132161059\O,3.7397900132,-0.7618076722,1.6925903223\H,4.6824
 912183,-0.9520681486,1.4568705296\C,1.5471211061,-0.6358554158,-0.1646
 742312\H,2.1089904211,0.3012811189,-0.0408478863\C,3.2256119144,-2.185
 0568977,-0.2300475183\H,4.1786745627,-1.7215918278,-0.5258877127\O,2.1
 777816792,-1.5618468394,-0.9915975726\N,0.2674214993,-0.287069624,-0.7
 862913215\C,-0.7054303044,-1.23456624,-0.8479237404\H,-0.4971899162,-2
 .1776812037,-0.3504059648\C,-1.889778479,-0.9782099104,-1.4832847617\H
 ,-2.6780252697,-1.7283585512,-1.444977008\C,-2.067226749,0.2569882891,
 -2.1282046099\H,-2.9915886412,0.4815341764,-2.6574181789\H,-2.93521215
 81,1.3065430012,-0.5171229257\C,-1.0351049216,1.1893656325,-2.10423324
 07\C,0.1184224592,0.9119242467,-1.3827881049\H,0.9401466335,1.63269690
 63,-1.3280050298\C,-1.1088768263,2.5149867234,-2.8163529031\O,-0.37252
 05308,3.4281636403,-2.4902348761\N,-2.0187126992,2.5984935844,-3.81089
 49122\H,-1.8375923863,3.3872259723,-4.4378400575\H,-2.3644264057,1.749
 9484152,-4.273300849\C,0.4982273628,2.2099296953,3.8865430158\C,-1.126
 5201003,2.1804520347,1.5993043814\C,-1.8304659967,2.8082812259,0.59767
 11929\C,-3.8453194577,3.2585505156,-0.8611253557\C,-3.1027133708,2.256
 5351184,0.0419232411\O,-1.1460705384,0.9488144395,1.9186848813\S,-0.17
 00940152,3.3291187884,2.6346558375\H,-0.3336558773,1.747129134,4.43784
 00575\H,1.0785840754,1.4118932936,3.4065825426\H,-4.2479643712,2.78632
 73708,-1.7636621707\H,-3.1723300701,4.0435846838,-1.220593153\H,-4.682
 4912183,3.7455680287,-0.3479971126\H,-3.7594848528,1.941127589,0.87686
 25926\H,-1.5672553851,3.8400765634,0.3694004816\H,2.4542043002,-4.1796
 023012,-0.1521169087\H,1.1332163237,2.756813924,4.583541337\\Version=E
 S64L-G16RevA.03\HF=-1507.85388\RMSD=5.168e-09\RMSF=6.834e-03\Dipole=0.
 6880526,-3.1164147,-3.4609482\Quadrupole=12.2039871,-12.1664345,-0.037
 5527,-4.4777902,12.4837853,-8.5647376\PG=C01 [X(C16H24N2O5S1)]\\@


 IF IT'S NOT TRUE, IT'S WELL INVENTED -- DANTE
 Job cpu time:       0 days  3 hours  3 minutes  6.8 seconds.
 Elapsed time:       0 days  0 hours 11 minutes 27.8 seconds.
 File lengths (MBytes):  RWF=    435 Int=      0 D2E=      0 Chk=     48 Scr=      1
 Normal termination of Gaussian 16 at Sun Feb 19 04:49:01 2023.
