 Entering Gaussian System, Link 0=g16
 Initial command:
 /storage/apps/GAUSSIAN/G16_RevA03/g16/l1.exe "/scratch/tmp/1267146/Gau-177503.inp" -scrdir="/scratch/tmp/1267146/"
 Entering Link 1 = /storage/apps/GAUSSIAN/G16_RevA03/g16/l1.exe PID=    177504.
  
 Copyright (c) 1988,1990,1992,1993,1995,1998,2003,2009,2016,
            Gaussian, Inc.  All Rights Reserved.
  
 This is part of the Gaussian(R) 16 program.  It is based on
 the Gaussian(R) 09 system (copyright 2009, Gaussian, Inc.),
 the Gaussian(R) 03 system (copyright 2003, Gaussian, Inc.),
 the Gaussian(R) 98 system (copyright 1998, Gaussian, Inc.),
 the Gaussian(R) 94 system (copyright 1995, Gaussian, Inc.),
 the Gaussian 92(TM) system (copyright 1992, Gaussian, Inc.),
 the Gaussian 90(TM) system (copyright 1990, Gaussian, Inc.),
 the Gaussian 88(TM) system (copyright 1988, Gaussian, Inc.),
 the Gaussian 86(TM) system (copyright 1986, Carnegie Mellon
 University), and the Gaussian 82(TM) system (copyright 1983,
 Carnegie Mellon University). Gaussian is a federally registered
 trademark of Gaussian, Inc.
  
 This software contains proprietary and confidential information,
 including trade secrets, belonging to Gaussian, Inc.
  
 This software is provided under written license and may be
 used, copied, transmitted, or stored only in accord with that
 written license.
  
 The following legend is applicable only to US Government
 contracts under FAR:
  
                    RESTRICTED RIGHTS LEGEND
  
 Use, reproduction and disclosure by the US Government is
 subject to restrictions as set forth in subparagraphs (a)
 and (c) of the Commercial Computer Software - Restricted
 Rights clause in FAR 52.227-19.
  
 Gaussian, Inc.
 340 Quinnipiac St., Bldg. 40, Wallingford CT 06492
  
  
 ---------------------------------------------------------------
 Warning -- This program may not be used in any manner that
 competes with the business of Gaussian, Inc. or will provide
 assistance to any competitor of Gaussian, Inc.  The licensee
 of this program is prohibited from giving any competitor of
 Gaussian, Inc. access to this program.  By using this program,
 the user acknowledges that Gaussian, Inc. is engaged in the
 business of creating and licensing software in the field of
 computational chemistry and represents and warrants to the
 licensee that it is not a competitor of Gaussian, Inc. and that
 it will not use this program in any manner prohibited above.
 ---------------------------------------------------------------
  

 Cite this work as:
 Gaussian 16, Revision A.03,
 M. J. Frisch, G. W. Trucks, H. B. Schlegel, G. E. Scuseria, 
 M. A. Robb, J. R. Cheeseman, G. Scalmani, V. Barone, 
 G. A. Petersson, H. Nakatsuji, X. Li, M. Caricato, A. V. Marenich, 
 J. Bloino, B. G. Janesko, R. Gomperts, B. Mennucci, H. P. Hratchian, 
 J. V. Ortiz, A. F. Izmaylov, J. L. Sonnenberg, D. Williams-Young, 
 F. Ding, F. Lipparini, F. Egidi, J. Goings, B. Peng, A. Petrone, 
 T. Henderson, D. Ranasinghe, V. G. Zakrzewski, J. Gao, N. Rega, 
 G. Zheng, W. Liang, M. Hada, M. Ehara, K. Toyota, R. Fukuda, 
 J. Hasegawa, M. Ishida, T. Nakajima, Y. Honda, O. Kitao, H. Nakai, 
 T. Vreven, K. Throssell, J. A. Montgomery, Jr., J. E. Peralta, 
 F. Ogliaro, M. J. Bearpark, J. J. Heyd, E. N. Brothers, K. N. Kudin, 
 V. N. Staroverov, T. A. Keith, R. Kobayashi, J. Normand, 
 K. Raghavachari, A. P. Rendell, J. C. Burant, S. S. Iyengar, 
 J. Tomasi, M. Cossi, J. M. Millam, M. Klene, C. Adamo, R. Cammi, 
 J. W. Ochterski, R. L. Martin, K. Morokuma, O. Farkas, 
 J. B. Foresman, and D. J. Fox, Gaussian, Inc., Wallingford CT, 2016.
 
 ******************************************
 Gaussian 16:  ES64L-G16RevA.03 25-Dec-2016
                19-Feb-2023 
 ******************************************
 %chk=gau_job.chk
 %NProcShared=16
 Will use up to   16 processors via shared memory.
 %mem=20GB
 ----------------------------------------------------------------------
 #P M062X/Def2TZVP scf=(direct,conver=8) EmpiricalDispersion=GD3 NoSymm
  Force pop=(NBORead) Charge Prop=(Field,Read)
 ----------------------------------------------------------------------
 1/10=7,18=10,28=-2,30=1,38=1,125=101/1,3;
 2/12=2,15=1,17=6,18=5,29=2,40=1/2;
 3/5=44,7=101,11=2,25=1,30=1,71=1,74=-55,124=31/1,2,3;
 4//1;
 5/5=2,6=8,38=5/2;
 6/7=2,8=2,9=2,10=2,14=2,15=1,28=1,40=2/1,2,7;
 7/7=1,16=-2,29=1,30=1/1,2,3,16;
 1/10=7,18=10,28=-2,30=1/3;
 99/12=1/99;
 Leave Link    1 at Sun Feb 19 03:53:03 2023, MaxMem=  2684354560 cpu:               0.7 elap:               0.0
 (Enter /storage/apps/GAUSSIAN/G16_RevA03/g16/l101.exe)
 ----------------------------------------------------------------------
 Gaussian run using SANDER external interface, route from template gau_
 job.tpl
 ----------------------------------------------------------------------
 Symbolic Z-matrix:
 Charge =  0 Multiplicity = 1
 C                     3.41109  -3.83373  -0.74401 
 H                     3.46948  -3.96183  -1.83345 
 H                     4.31666  -4.24094  -0.27162 
 C                     1.58924  -1.55003   0.98992 
 H                     0.96992  -2.45977   0.87114 
 O                     1.11996  -0.78035   2.05615 
 H                     0.53147  -0.08811   1.70666 
 C                     3.04629  -2.00876   1.07702 
 H                     3.16776  -2.8997    1.72101 
 O                     3.83512  -0.94919   1.53877 
 H                     4.7775   -1.13365   1.30061 
 C                     1.60328  -0.82246  -0.35272 
 H                     2.14641   0.12552  -0.20885 
 C                     3.3319   -2.3485   -0.41548 
 H                     4.30382  -1.90724  -0.68749 
 O                     2.31061  -1.71614  -1.18016 
 N                     0.32425  -0.50726  -0.8925 
 C                    -0.59989  -1.53251  -1.10603 
 H                    -0.28774  -2.52394  -0.77974 
 C                    -1.77289  -1.33263  -1.71318 
 H                    -2.42791  -2.19283  -1.86968 
 C                    -2.19371   0.01498  -2.23464 
 H                    -2.57318  -0.09823  -3.2603 
 H                    -3.04806   0.43304  -1.65685 
 C                    -1.0424    0.98702  -2.17903 
 C                     0.09949   0.70821  -1.52625 
 H                     0.90566   1.44516  -1.49233 
 C                    -1.18099   2.33596  -2.79468 
 O                    -0.4685    3.27904  -2.47034 
 N                    -2.18049   2.47768  -3.70548 
 H                    -2.14594   3.36055  -4.20899 
 H                    -2.53455   1.68055  -4.23852 
 C                     0.52088   2.1116    3.71442 
 C                    -1.08016   2.2274    1.46709 
 C                    -1.81378   2.9816    0.43187 
 C                    -3.87086   3.37414  -0.92915 
 C                    -3.01799   2.57857   0.00447 
 O                    -1.14974   1.02355   1.65107 
 S                    -0.13548   3.28989   2.50991 
 H                    -0.31969   1.6367    4.23852 
 H                     1.09924   1.33314   3.19871 
 H                    -4.19407   2.77986  -1.79453 
 H                    -3.32375   4.24094  -1.3178 
 H                    -4.7775    3.71472  -0.40457 
 H                    -3.41774   1.64108   0.40644 
 H                    -1.36503   3.91124   0.06812 
 H                     2.5172   -4.32676  -0.36194 
 H                     1.15439   2.62584   4.43715 
 
 ITRead=  0  0  0  0  0  0  0  0  0  0  0  0  0  0  0  0  0  0  0  0
 ITRead=  0  0  0  0  0  0  0  0  0  0  0  0  0  0  0  0  0  0  0  0
 ITRead=  0  0  0  0  0  0  0  0
 MicOpt= -1 -1 -1 -1 -1 -1 -1 -1 -1 -1 -1 -1 -1 -1 -1 -1 -1 -1 -1 -1
 MicOpt= -1 -1 -1 -1 -1 -1 -1 -1 -1 -1 -1 -1 -1 -1 -1 -1 -1 -1 -1 -1
 MicOpt= -1 -1 -1 -1 -1 -1 -1 -1
 NAtoms=     48 NQM=       48 NQMF=       0 NMMI=      0 NMMIF=      0
                NMic=       0 NMicF=      0.
                    Isotopes and Nuclear Properties:
 (Nuclear quadrupole moments (NQMom) in fm**2, nuclear magnetic moments (NMagM)
  in nuclear magnetons)

  Atom         1           2           3           4           5           6           7           8           9          10
 IAtWgt=          12           1           1          12           1          16           1          12           1          16
 AtmWgt=  12.0000000   1.0078250   1.0078250  12.0000000   1.0078250  15.9949146   1.0078250  12.0000000   1.0078250  15.9949146
 NucSpn=           0           1           1           0           1           0           1           0           1           0
 AtZEff=  -0.0000000  -0.0000000  -0.0000000  -0.0000000  -0.0000000  -0.0000000  -0.0000000  -0.0000000  -0.0000000  -0.0000000
 NQMom=    0.0000000   0.0000000   0.0000000   0.0000000   0.0000000   0.0000000   0.0000000   0.0000000   0.0000000   0.0000000
 NMagM=    0.0000000   2.7928460   2.7928460   0.0000000   2.7928460   0.0000000   2.7928460   0.0000000   2.7928460   0.0000000
 AtZNuc=   6.0000000   1.0000000   1.0000000   6.0000000   1.0000000   8.0000000   1.0000000   6.0000000   1.0000000   8.0000000

  Atom        11          12          13          14          15          16          17          18          19          20
 IAtWgt=           1          12           1          12           1          16          14          12           1          12
 AtmWgt=   1.0078250  12.0000000   1.0078250  12.0000000   1.0078250  15.9949146  14.0030740  12.0000000   1.0078250  12.0000000
 NucSpn=           1           0           1           0           1           0           2           0           1           0
 AtZEff=  -0.0000000  -0.0000000  -0.0000000  -0.0000000  -0.0000000  -0.0000000  -0.0000000  -0.0000000  -0.0000000  -0.0000000
 NQMom=    0.0000000   0.0000000   0.0000000   0.0000000   0.0000000   0.0000000   2.0440000   0.0000000   0.0000000   0.0000000
 NMagM=    2.7928460   0.0000000   2.7928460   0.0000000   2.7928460   0.0000000   0.4037610   0.0000000   2.7928460   0.0000000
 AtZNuc=   1.0000000   6.0000000   1.0000000   6.0000000   1.0000000   8.0000000   7.0000000   6.0000000   1.0000000   6.0000000

  Atom        21          22          23          24          25          26          27          28          29          30
 IAtWgt=           1          12           1           1          12          12           1          12          16          14
 AtmWgt=   1.0078250  12.0000000   1.0078250   1.0078250  12.0000000  12.0000000   1.0078250  12.0000000  15.9949146  14.0030740
 NucSpn=           1           0           1           1           0           0           1           0           0           2
 AtZEff=  -0.0000000  -0.0000000  -0.0000000  -0.0000000  -0.0000000  -0.0000000  -0.0000000  -0.0000000  -0.0000000  -0.0000000
 NQMom=    0.0000000   0.0000000   0.0000000   0.0000000   0.0000000   0.0000000   0.0000000   0.0000000   0.0000000   2.0440000
 NMagM=    2.7928460   0.0000000   2.7928460   2.7928460   0.0000000   0.0000000   2.7928460   0.0000000   0.0000000   0.4037610
 AtZNuc=   1.0000000   6.0000000   1.0000000   1.0000000   6.0000000   6.0000000   1.0000000   6.0000000   8.0000000   7.0000000

  Atom        31          32          33          34          35          36          37          38          39          40
 IAtWgt=           1           1          12          12          12          12          12          16          32           1
 AtmWgt=   1.0078250   1.0078250  12.0000000  12.0000000  12.0000000  12.0000000  12.0000000  15.9949146  31.9720718   1.0078250
 NucSpn=           1           1           0           0           0           0           0           0           0           1
 AtZEff=  -0.0000000  -0.0000000  -0.0000000  -0.0000000  -0.0000000  -0.0000000  -0.0000000  -0.0000000  -0.0000000  -0.0000000
 NQMom=    0.0000000   0.0000000   0.0000000   0.0000000   0.0000000   0.0000000   0.0000000   0.0000000   0.0000000   0.0000000
 NMagM=    2.7928460   2.7928460   0.0000000   0.0000000   0.0000000   0.0000000   0.0000000   0.0000000   0.0000000   2.7928460
 AtZNuc=   1.0000000   1.0000000   6.0000000   6.0000000   6.0000000   6.0000000   6.0000000   8.0000000  16.0000000   1.0000000

  Atom        41          42          43          44          45          46          47          48
 IAtWgt=           1           1           1           1           1           1           1           1
 AtmWgt=   1.0078250   1.0078250   1.0078250   1.0078250   1.0078250   1.0078250   1.0078250   1.0078250
 NucSpn=           1           1           1           1           1           1           1           1
 AtZEff=  -0.0000000  -0.0000000  -0.0000000  -0.0000000  -0.0000000  -0.0000000  -0.0000000  -0.0000000
 NQMom=    0.0000000   0.0000000   0.0000000   0.0000000   0.0000000   0.0000000   0.0000000   0.0000000
 NMagM=    2.7928460   2.7928460   2.7928460   2.7928460   2.7928460   2.7928460   2.7928460   2.7928460
 AtZNuc=   1.0000000   1.0000000   1.0000000   1.0000000   1.0000000   1.0000000   1.0000000   1.0000000
 Background charge distribution read from input stream:
 Leave Link  101 at Sun Feb 19 03:53:03 2023, MaxMem=  2684354560 cpu:               1.4 elap:               0.1
 (Enter /storage/apps/GAUSSIAN/G16_RevA03/g16/l103.exe)

 GradGradGradGradGradGradGradGradGradGradGradGradGradGradGradGradGradGrad
 Berny optimization.
 Initialization pass.
 Trust Radius=3.00D-01 FncErr=1.00D-07 GrdErr=1.00D-07 EigMax=2.50D+02 EigMin=1.00D-04
 Number of steps in this run=      2 maximum allowed number of steps=      2.
 GradGradGradGradGradGradGradGradGradGradGradGradGradGradGradGradGradGrad

 Leave Link  103 at Sun Feb 19 03:53:03 2023, MaxMem=  2684354560 cpu:               0.3 elap:               0.0
 (Enter /storage/apps/GAUSSIAN/G16_RevA03/g16/l202.exe)
 ---------------------------------------------------------------------------------------------------
                            Z-MATRIX (ANGSTROMS AND DEGREES)
   CD    Cent   Atom    N1       Length/X        N2       Alpha/Y        N3        Beta/Z          J
 ---------------------------------------------------------------------------------------------------
      1      1  C        0   3.411091         -3.833727         -0.744011
      2      2  H        0   3.469483         -3.961828         -1.833450
      3      3  H        0   4.316661         -4.240942         -0.271622
      4      4  C        0   1.589242         -1.550031          0.989921
      5      5  H        0   0.969921         -2.459773          0.871140
      6      6  O        0   1.119958         -0.780353          2.056151
      7      7  H        0   0.531467         -0.088106          1.706664
      8      8  C        0   3.046289         -2.008760          1.077021
      9      9  H        0   3.167762         -2.899696          1.721008
     10     10  O        0   3.835119         -0.949189          1.538769
     11     11  H        0   4.777496         -1.133651          1.300609
     12     12  C        0   1.603280         -0.822455         -0.352718
     13     13  H        0   2.146408          0.125516         -0.208848
     14     14  C        0   3.331898         -2.348495         -0.415476
     15     15  H        0   4.303822         -1.907245         -0.687485
     16     16  O        0   2.310609         -1.716144         -1.180164
     17     17  N        0   0.324254         -0.507255         -0.892500
     18     18  C        0  -0.599887         -1.532507         -1.106028
     19     19  H        0  -0.287743         -2.523936         -0.779745
     20     20  C        0  -1.772890         -1.332628         -1.713176
     21     21  H        0  -2.427910         -2.192827         -1.869683
     22     22  C        0  -2.193706          0.014978         -2.234638
     23     23  H        0  -2.573180         -0.098232         -3.260300
     24     24  H        0  -3.048063          0.433045         -1.656845
     25     25  C        0  -1.042400          0.987020         -2.179028
     26     26  C        0   0.099490          0.708208         -1.526249
     27     27  H        0   0.905661          1.445163         -1.492332
     28     28  C        0  -1.180990          2.335958         -2.794679
     29     29  O        0  -0.468502          3.279040         -2.470336
     30     30  N        0  -2.180492          2.477682         -3.705477
     31     31  H        0  -2.145942          3.360554         -4.208992
     32     32  H        0  -2.534548          1.680550         -4.238518
     33     33  C        0   0.520882          2.111602          3.714424
     34     34  C        0  -1.080161          2.227401          1.467094
     35     35  C        0  -1.813783          2.981602          0.431870
     36     36  C        0  -3.870855          3.374140         -0.929149
     37     37  C        0  -3.017990          2.578572          0.004472
     38     38  O        0  -1.149743          1.023546          1.651069
     39     39  S        0  -0.135477          3.289886          2.509908
     40     40  H        0  -0.319694          1.636698          4.238518
     41     41  H        0   1.099242          1.333138          3.198710
     42     42  H        0  -4.194071          2.779864         -1.794531
     43     43  H        0  -3.323745          4.240942         -1.317801
     44     44  H        0  -4.777496          3.714720         -0.404572
     45     45  H        0  -3.417738          1.641078          0.406440
     46     46  H        0  -1.365028          3.911239          0.068119
     47     47  H        0   2.517202         -4.326761         -0.361939
     48     48  H        0   1.154385          2.625844          4.437147
 ---------------------------------------------------------------------------------------------------
                         Z-Matrix orientation:                         
 ---------------------------------------------------------------------
 Center     Atomic      Atomic             Coordinates (Angstroms)
 Number     Number       Type             X           Y           Z
 ---------------------------------------------------------------------
      1          6           0        3.411091   -3.833727   -0.744011
      2          1           0        3.469483   -3.961828   -1.833450
      3          1           0        4.316661   -4.240942   -0.271622
      4          6           0        1.589242   -1.550031    0.989921
      5          1           0        0.969921   -2.459773    0.871140
      6          8           0        1.119958   -0.780353    2.056151
      7          1           0        0.531467   -0.088106    1.706664
      8          6           0        3.046289   -2.008760    1.077021
      9          1           0        3.167762   -2.899696    1.721008
     10          8           0        3.835119   -0.949189    1.538769
     11          1           0        4.777496   -1.133651    1.300609
     12          6           0        1.603280   -0.822455   -0.352718
     13          1           0        2.146408    0.125516   -0.208848
     14          6           0        3.331898   -2.348495   -0.415476
     15          1           0        4.303822   -1.907245   -0.687485
     16          8           0        2.310609   -1.716144   -1.180164
     17          7           0        0.324254   -0.507255   -0.892500
     18          6           0       -0.599887   -1.532507   -1.106028
     19          1           0       -0.287743   -2.523936   -0.779745
     20          6           0       -1.772890   -1.332628   -1.713176
     21          1           0       -2.427910   -2.192827   -1.869683
     22          6           0       -2.193706    0.014978   -2.234638
     23          1           0       -2.573180   -0.098232   -3.260300
     24          1           0       -3.048063    0.433045   -1.656845
     25          6           0       -1.042400    0.987020   -2.179028
     26          6           0        0.099490    0.708208   -1.526249
     27          1           0        0.905661    1.445163   -1.492332
     28          6           0       -1.180990    2.335958   -2.794679
     29          8           0       -0.468502    3.279040   -2.470336
     30          7           0       -2.180492    2.477682   -3.705477
     31          1           0       -2.145942    3.360554   -4.208992
     32          1           0       -2.534548    1.680550   -4.238518
     33          6           0        0.520882    2.111602    3.714424
     34          6           0       -1.080161    2.227401    1.467094
     35          6           0       -1.813783    2.981602    0.431870
     36          6           0       -3.870855    3.374140   -0.929149
     37          6           0       -3.017990    2.578572    0.004472
     38          8           0       -1.149743    1.023546    1.651069
     39         16           0       -0.135477    3.289886    2.509908
     40          1           0       -0.319694    1.636698    4.238518
     41          1           0        1.099242    1.333138    3.198710
     42          1           0       -4.194071    2.779864   -1.794531
     43          1           0       -3.323745    4.240942   -1.317801
     44          1           0       -4.777496    3.714720   -0.404572
     45          1           0       -3.417738    1.641078    0.406440
     46          1           0       -1.365028    3.911239    0.068119
     47          1           0        2.517202   -4.326761   -0.361939
     48          1           0        1.154385    2.625844    4.437147
 ---------------------------------------------------------------------
                    Distance matrix (angstroms):
                    1          2          3          4          5
     1  C    0.000000
     2  H    1.098497   0.000000
     3  H    1.099560   1.798589   0.000000
     4  C    3.397194   4.162150   4.033772   0.000000
     5  H    3.233539   3.977283   3.959689   1.106931   0.000000
     6  O    4.734268   5.547165   5.254819   1.396237   2.060877
     7  H    5.322380   6.014155   5.957127   1.941606   2.552479
     8  C    2.603794   3.530497   2.900917   1.530035   2.134737
     9  H    2.647252   3.722006   2.662609   2.201775   2.397147
    10  O    3.702897   4.536689   3.787485   2.388767   3.307106
    11  H    3.652115   4.419480   3.512768   3.230303   4.054709
    12  C    3.533985   3.940932   4.365211   1.527168   2.140042
    13  H    4.190636   4.593064   4.876464   2.134230   3.038785
    14  C    1.523194   2.152306   2.138179   2.376875   2.691969
    15  H    2.124029   2.496131   2.370496   3.210956   3.721490
    16  O    2.425995   2.610147   3.350269   2.292866   2.560913
    17  N    4.540488   4.765703   5.501384   2.496214   2.709176
    18  C    4.638385   4.794842   5.674884   3.030775   2.689482
    19  H    3.924055   4.158674   4.940328   2.757405   2.076357
    20  C    5.836818   5.865972   6.900653   4.319482   3.933466
    21  H    6.168762   6.157103   7.227573   4.972728   4.373629
    22  C    6.960478   6.931641   8.021918   5.211308   5.077281
    23  H    7.489802   7.312800   8.576955   6.123549   5.932895
    24  H    7.794824   7.862855   8.831996   5.695837   5.559074
    25  C    6.718070   6.705789   7.725887   4.837810   5.023280
    26  C    5.675189   5.767188   6.622138   3.694606   4.067091
    27  H    5.890997   5.993755   6.742169   3.949689   4.564937
    28  C    7.959740   7.887520   8.935637   6.090837   6.408095
    29  O    8.283894   8.267014   9.180537   6.287099   6.794740
    30  N    8.937000   8.768922   9.957122   7.244317   7.432967
    31  H    9.728535   9.528561  10.726177   8.068094   8.330219
    32  H    8.830032   8.583075   9.886324   7.401275   7.451992
    33  C    7.973575   8.738404   8.405434   4.687415   5.402163
    34  C    7.861145   8.360586   8.601645   4.649989   5.150495
    35  C    8.667798   9.014199   9.499600   5.694532   6.127849
    36  C   10.247652  10.417041  11.200770   7.598878   7.791579
    37  C    9.111031   9.393726  10.018937   6.264427   6.483785
    38  O    7.080305   7.637609   7.828994   3.816078   4.151479
    39  S    8.597209   9.189551   9.179969   5.358154   6.079971
    40  H    8.286731   9.086812   8.739784   4.934842   5.457419
    41  H    6.898275   7.679671   7.312002   3.664903   4.452019
    42  H   10.133196  10.206957  11.137483   7.742601   7.824731
    43  H   10.530316  10.662987  11.463537   7.937153   8.253885
    44  H   11.142138  11.357101  12.083623   8.378398   8.531390
    45  H    8.827793   9.156608   9.740578   5.966026   6.023660
    46  H    9.135391   9.432584   9.942589   6.277172   6.832761
    47  H    1.090000   1.790352   1.803767   3.224727   2.720332
    48  H    8.582726   9.384960   8.906472   5.432347   6.214011
                    6          7          8          9         10
     6  O    0.000000
     7  H    0.973483   0.000000
     8  C    2.485645   3.226406   0.000000
     9  H    2.966048   3.854258   1.106003   0.000000
    10  O    2.769167   3.418153   1.399341   2.069554   0.000000
    11  H    3.751432   4.391674   1.952660   2.426292   0.989354
    12  C    2.457238   2.434975   2.352391   3.326090   2.928291
    13  H    2.646587   2.514529   2.649222   3.730874   2.657236
    14  C    3.668881   4.177948   1.557093   2.212539   2.455681
    15  H    4.351369   4.824093   2.169141   2.841906   2.468555
    16  O    3.573107   3.761599   2.392015   3.248432   3.210132
    17  N    3.066312   2.640885   3.680082   4.543098   4.293314
    18  C    3.677361   3.358198   4.276345   4.904745   5.196585
    19  H    3.614417   3.575836   3.850812   4.281995   4.985311
    20  C    4.783451   4.307459   5.609531   6.217666   6.493992
    21  H    5.476734   5.096864   6.219630   6.686125   7.238074
    22  C    5.479397   4.792813   6.520748   7.272400   7.177391
    23  H    6.509163   5.857445   7.351252   8.100620   8.051179
    24  H    5.712361   4.939416   7.111790   7.820073   7.713670
    25  C    5.073080   4.327997   6.024445   6.931257   6.431261
    26  C    4.011329   3.357447   4.779388   5.742469   5.108447
    27  H    4.194112   3.567143   4.807644   5.858367   4.847909
    28  C    6.207762   5.391724   7.192811   8.167935   7.398129
    29  O    6.284184   5.457558   7.273124   8.304611   7.243756
    30  N    7.396224   6.574896   8.385684   9.325598   8.685225
    31  H    8.189336   7.352330   9.150449  10.128726   9.347927
    32  H    7.683379   6.919088   8.544689   9.434562   8.992510
    33  C    3.387059   2.978242   5.505539   6.007728   5.008601
    34  C    3.772810   2.831309   5.926619   6.663066   5.852849
    35  C    5.039586   4.067973   6.995730   7.814560   6.970397
    36  C    7.147030   6.189919   8.991508   9.794207   9.174085
    37  C    5.710900   4.754710   7.679157   8.439280   7.859024
    38  O    2.927402   2.016266   5.208752   5.834173   5.362195
    39  S    4.283557   3.535653   6.344482   7.060077   5.888845
    40  H    3.560542   3.179577   5.883390   6.251327   5.589090
    41  H    2.402647   2.137406   4.411445   4.937537   3.930578
    42  H    7.466043   6.543266   9.143279   9.940473   9.459631
    43  H    7.506228   6.538402   9.239658  10.117448   9.292297
    44  H    7.812861   6.863227   9.806373  10.554417   9.985277
    45  H    5.401440   4.502985   7.453499   8.106512   7.784316
    46  H    5.669079   4.719775   7.451442   8.346680   7.268294
    47  H    4.514029   5.117466   2.779149   2.607376   4.093604
    48  H    4.156020   3.899883   6.029038   6.477862   5.326142
                   11         12         13         14         15
    11  H    0.000000
    12  C    3.592489   0.000000
    13  H    3.284293   1.101969   0.000000
    14  C    2.551577   2.306698   2.751148   0.000000
    15  H    2.185253   2.929465   3.002606   1.101511   0.000000
    16  O    3.546697   1.408425   2.088570   1.423955   2.062074
    17  N    5.003345   1.423595   2.046466   3.558600   4.223620
    18  C    5.904848   2.434255   3.331083   4.074510   4.935784
    19  H    5.649549   2.579410   3.642885   3.642152   4.633712
    20  C    7.213185   3.675547   4.444106   5.364221   6.189398
    21  H    7.942951   4.519911   5.390498   5.942586   6.840713
    22  C    7.900314   4.319725   4.790891   6.279144   6.950287
    23  H    8.712428   5.140170   5.624583   6.930126   7.562080
    24  H    8.511195   4.991194   5.401277   7.069785   7.776042
    25  C    7.104668   3.689070   3.846075   5.776700   6.259677
    26  C    5.767782   2.445709   2.502988   4.585380   5.022004
    27  H    5.426039   2.632012   2.219966   4.630128   4.840859
    28  C    8.019546   4.867331   4.758587   6.926100   7.247634
    29  O    7.823833   5.059531   4.679401   7.094691   7.269882
    30  N    9.301409   6.037287   6.039964   8.031347   8.389409
    31  H    9.924090   6.813595   6.700066   8.774436   9.041580
    32  H    9.595188   6.203717   6.369279   8.078616   8.499730
    33  C    5.871706   5.130489   4.688170   6.697041   7.059644
    34  C    6.755481   4.451314   4.199697   6.629416   7.122133
    35  C    7.818885   5.173273   4.924516   7.456940   7.910681
    36  C   10.004298   6.921694   6.876034   9.213689   9.735336
    37  C    8.730989   5.748974   5.721363   8.048193   8.614539
    38  O    6.317316   3.873244   3.889777   5.977154   6.618137
    39  S    6.720669   5.303702   4.755194   7.236844   7.545917
    40  H    6.502883   5.552001   5.305130   7.132710   7.629020
    41  H    4.818443   4.184887   3.763823   5.621523   5.989318
    42  H   10.265695   6.976017   7.054192   9.210975   9.767739
    43  H   10.068387   7.130565   6.934630   9.409169   9.817193
    44  H   10.849525   7.829620   7.801355  10.125461  10.684421
    45  H    8.698305   5.644106   5.799588   7.883516   8.567949
    46  H    8.043664   5.603197   5.170937   7.840870   8.158526
    47  H    4.250758   3.621533   4.470313   2.140124   3.025236
    48  H    6.090862   5.919043   5.368521   7.282415   7.531912
                   16         17         18         19         20
    16  O    0.000000
    17  N    2.343025   0.000000
    18  C    2.917226   1.396701   0.000000
    19  H    2.750327   2.110511   1.089416   0.000000
    20  C    4.135958   2.398491   1.335857   2.120418   0.000000
    21  H    4.812091   3.372009   2.088266   2.424441   1.092469
    22  C    4.939388   2.900721   2.491732   3.492205   1.505008
    23  H    5.549414   3.764160   3.254522   4.154566   2.134898
    24  H    5.793237   3.583421   3.187532   4.139131   2.178724
    25  C    4.421255   2.399116   2.774016   3.854130   2.476166
    26  C    3.299439   1.389067   2.384642   3.339756   2.775925
    27  H    3.473498   2.123622   3.358932   4.205442   3.865169
    28  C    5.587258   3.737366   4.260780   5.336330   3.870209
    29  O    5.860022   4.177806   5.002958   6.046925   4.852030
    30  N    6.643445   4.805876   5.033594   6.095785   4.319012
    31  H    7.403209   5.662238   5.996725   7.059735   5.328623
    32  H    6.660826   4.914782   4.886629   5.889733   4.004587
    33  C    6.466201   5.302907   6.145927   6.506892   6.825170
    34  C    5.835824   3.875359   4.581324   5.315206   4.823670
    35  C    6.455856   4.300846   4.920961   5.840185   4.818244
    36  C    8.011523   5.715375   5.899636   6.902776   5.212468
    37  C    6.945639   4.636537   4.897081   5.839934   4.449502
    38  O    5.243645   3.314477   3.799650   4.385947   4.154276
    39  S    6.682836   5.119181   6.045341   6.681731   6.471722
    40  H    6.893632   5.598084   6.219851   6.518808   6.808181
    41  H    5.471752   4.552543   5.443320   5.712167   6.283476
    42  H    7.931102   5.659865   5.655859   6.664794   4.772978
    43  H    8.200717   6.002846   6.387251   7.434406   5.798807
    44  H    8.963094   6.640105   6.743727   7.695419   6.017958
    45  H    6.826581   4.506116   4.505495   5.343336   4.005149
    46  H    6.836369   4.826961   5.621248   6.579581   5.553152
    47  H    2.743629   4.436118   4.251796   3.360425   5.403292
    48  H    7.193323   6.237833   7.148157   7.471006   7.878128
                   21         22         23         24         25
    21  H    0.000000
    22  C    2.249988   0.000000
    23  H    2.518382   1.099454   0.000000
    24  H    2.706491   1.112902   1.754661   0.000000
    25  C    3.482349   1.507801   2.165688   2.145285   0.000000
    26  C    3.862861   2.498225   3.286402   3.162255   1.344533
    27  H    4.948743   3.493211   4.196440   4.084530   2.115748
    28  C    4.787517   2.593489   2.842582   2.898570   1.489250
    29  O    5.843063   3.699457   4.057053   3.926269   2.380667
    30  N    5.024442   2.868529   2.643430   3.021608   2.418134
    31  H    6.032571   3.885001   3.611890   3.987178   3.312434
    32  H    4.541564   2.627897   2.030386   2.912903   2.636093
    33  C    7.642364   6.867034   7.943762   6.663741   6.200106
    34  C    5.699905   4.453943   5.475940   4.105039   3.851516
    35  C    5.696404   4.006927   4.867667   3.518710   3.374934
    36  C    5.827333   3.975060   4.378994   3.139518   3.906494
    37  C    5.160126   3.502152   4.245217   2.713699   3.347188
    38  O    4.937050   4.147986   5.235084   3.859353   3.831776
    39  S    7.382154   6.121441   7.121589   5.831512   5.302058
    40  H    7.511322   6.931352   8.020003   6.606670   6.490708
    41  H    7.110684   6.488630   7.566658   6.448777   5.798836
    42  H    5.277559   3.440893   3.613751   2.615311   3.646252
    43  H    6.519239   4.469492   4.813012   3.832889   4.066234
    44  H    6.524279   4.869620   5.249075   3.915165   4.953785
    45  H    4.567201   3.334329   4.145293   2.419328   3.571368
    46  H    6.491873   4.601113   5.349192   4.231541   3.702001
    47  H    5.592951   6.674605   7.224468   7.436713   6.648974
    48  H    8.707958   7.908163   8.975857   7.720471   7.161381
                   26         27         28         29         30
    26  C    0.000000
    27  H    1.092779   0.000000
    28  C    2.428603   2.616054   0.000000
    29  O    2.796979   2.491570   1.225660   0.000000
    30  N    3.616406   3.935537   1.359648   2.258020   0.000000
    31  H    4.390218   4.512344   1.995297   2.417307   1.016948
    32  H    3.903845   4.408172   2.084790   3.154391   1.022207
    33  C    5.441667   5.263316   6.731651   6.371267   7.904832
    34  C    3.558037   3.648779   4.264347   4.121095   5.294229
    35  C    3.558534   3.668593   3.350806   3.212639   4.184023
    36  C    4.819478   5.182011   3.434152   3.736350   3.371790
    37  C    3.944623   4.349721   3.356885   3.621494   3.804643
    38  O    3.428611   3.779341   4.635524   4.747349   5.645312
    39  S    4.796961   4.528233   5.490148   4.991378   6.593389
    40  H    5.854089   5.863516   7.120159   6.908557   8.202249
    41  H    4.869834   4.696371   6.490441   6.195356   7.728806
    42  H    4.774767   5.280153   3.205621   3.819130   2.792406
    43  H    4.923637   5.072940   3.225141   3.225834   3.180741
    44  H    5.838002   6.215495   4.533040   4.798398   4.378432
    45  H    4.120246   4.726044   3.966492   4.433593   4.374763
    46  H    3.866035   3.697643   3.272765   2.765355   4.118263
    47  H    5.705424   6.098357   7.999167   8.438482   8.918970
    48  H    6.352340   6.050999   7.605085   7.125570   8.800323
                   31         32         33         34         35
    31  H    0.000000
    32  H    1.724615   0.000000
    33  C    8.452949   8.530577   0.000000
    34  C    5.885395   5.913399   2.761746   0.000000
    35  C    4.668140   4.901506   4.121009   1.476045   0.000000
    36  C    3.705791   3.950429   6.514915   3.852916   2.497600
    37  C    4.373242   4.363843   5.148341   2.453113   1.339857
    38  O    6.387045   6.085769   2.869196   1.219818   2.400288
    39  S    7.013600   7.340760   1.808319   1.763169   2.688864
    40  H    8.812905   8.761715   1.098534   2.933945   4.304839
    41  H    8.337607   8.284774   1.098393   2.923696   4.342643
    42  H    3.218953   3.152075   7.281891   4.543110   3.265476
    43  H    3.243654   3.963462   6.681207   4.104102   2.631971
    44  H    4.639410   4.885469   6.899921   4.402900   3.165547
    45  H    5.086873   4.728342   5.164966   2.633063   2.090532
    46  H    4.382552   4.989075   4.482286   2.207621   1.094495
    47  H    9.779547   8.754189   7.877471   7.696975   8.532276
    48  H    9.283732   9.474649   1.090000   3.738070   4.997882
                   36         37         38         39         40
    36  C    0.000000
    37  C    1.493973   0.000000
    38  O    4.425751   2.935938   0.000000
    39  S    5.078116   3.884850   2.627287   0.000000
    40  H    6.506476   5.108333   2.785647   2.398970   0.000000
    41  H    6.775454   5.357785   2.747539   2.414092   1.785141
    42  H    1.098417   2.158726   4.921864   5.938055   7.260531
    43  H    1.096233   2.146012   4.887956   5.071579   6.832210
    44  H    1.101441   2.134013   4.962728   5.497546   6.763760
    45  H    2.234416   1.095569   2.659746   4.232774   4.927749
    46  H    2.749944   2.124226   3.300129   2.803606   4.863999
    47  H   10.021621   8.857552   6.791500   8.561397   8.048294
    48  H    7.389866   6.087656   3.954566   2.412249   1.786274
                   41         42         43         44         45
    41  H    0.000000
    42  H    7.419207   0.000000
    43  H    6.958233   1.766208   0.000000
    44  H    7.293258   1.773789   1.795630   0.000000
    45  H    5.319276   2.596883   3.121079   2.608960   0.000000
    46  H    4.745506   3.571129   2.421993   3.450651   3.079238
    47  H    6.835444   9.879151  10.413255  10.857249   8.451569
    48  H    1.791049   8.213618   7.468709   7.734022   6.174194
                   46         47         48
    46  H    0.000000
    47  H    9.117088   0.000000
    48  H    5.204622   8.557290   0.000000
 Symmetry turned off by external request.
 Stoichiometry    C16H24N2O5S
 Framework group  C1[X(C16H24N2O5S)]
 Deg. of freedom   138
 Full point group                 C1      NOp   1
 Rotational constants (GHZ):           0.2867250           0.1633043           0.1206174
 Leave Link  202 at Sun Feb 19 03:53:03 2023, MaxMem=  2684354560 cpu:               0.2 elap:               0.0
 (Enter /storage/apps/GAUSSIAN/G16_RevA03/g16/l301.exe)
 Standard basis: def2TZVP (5D, 7F)
 Ernie: Thresh=  0.10000D-02 Tol=  0.10000D-05 Strict=F.
   894 basis functions,  1434 primitive gaussians,  1014 cartesian basis functions
    95 alpha electrons       95 beta electrons
       nuclear repulsion energy      2414.6688949850 Hartrees.
 IExCor= 4336 DFT=T Ex+Corr=M062X ExCW=0 ScaHFX=  0.540000
 ScaDFX=  1.000000  1.000000  1.000000  1.000000 ScalE2=  1.000000  1.000000
 IRadAn=      5 IRanWt=     -1 IRanGd=            0 ICorTp=0 IEmpDi=131
 NAtoms=   48 NActive=   48 NUniq=   48 SFac= 1.00D+00 NAtFMM=   60 NAOKFM=F Big=F
 Integral buffers will be    131072 words long.
 Raffenetti 2 integral format.
 Two-electron integral symmetry is turned off.
 R6Disp:  Grimme-D3 Dispersion energy=       -0.0041344622 Hartrees.
 Nuclear repulsion after empirical dispersion term =     2414.6647605228 Hartrees.
 Leave Link  301 at Sun Feb 19 03:53:03 2023, MaxMem=  2684354560 cpu:               0.8 elap:               0.1
 (Enter /storage/apps/GAUSSIAN/G16_RevA03/g16/l302.exe)
 NPDir=0 NMtPBC=     1 NCelOv=     1 NCel=       1 NClECP=     1 NCelD=      1
         NCelK=      1 NCelE2=     1 NClLst=     1 CellRange=     0.0.
 One-electron integrals computed using PRISM.
   1 Symmetry operations used in ECPInt.
 ECPInt:  NShTT=   65703 NPrTT=  200010 LenC2=   55708 LenP2D=  117762.
 LDataN:  DoStor=T MaxTD1= 6 Len=  172
 NBasis=   894 RedAO= T EigKep=  3.15D-05  NBF=   894
 NBsUse=   894 1.00D-06 EigRej= -1.00D+00 NBFU=   894
 Precomputing XC quadrature grid using
 IXCGrd= 4 IRadAn=           5 IRanWt=          -1 IRanGd=           0 AccXCQ= 0.00D+00.
 Generated NRdTot=       0 NPtTot=           0 NUsed=           0 NTot=          32
 NSgBfM=   998   998   998   998   998 MxSgAt=    48 MxSgA2=    48.
 Leave Link  302 at Sun Feb 19 03:53:05 2023, MaxMem=  2684354560 cpu:              18.5 elap:               1.2
 (Enter /storage/apps/GAUSSIAN/G16_RevA03/g16/l303.exe)
 DipDrv:  MaxL=1.
 Leave Link  303 at Sun Feb 19 03:53:05 2023, MaxMem=  2684354560 cpu:               2.1 elap:               0.2
 (Enter /storage/apps/GAUSSIAN/G16_RevA03/g16/l401.exe)
 ExpMin= 9.52D-02 ExpMax= 6.07D+04 ExpMxC= 2.07D+03 IAcc=3 IRadAn=         5 AccDes= 0.00D+00
 Harris functional with IExCor= 1009 and IRadAn=       5 diagonalized for initial guess.
 HarFok:  IExCor= 1009 AccDes= 0.00D+00 IRadAn=         5 IDoV= 1 UseB2=F ITyADJ=14
 ICtDFT=  3500011 ScaDFX=  1.000000  1.000000  1.000000  1.000000
 FoFCou: FMM=F IPFlag=           0 FMFlag=      100000 FMFlg1=           0
         NFxFlg=           0 DoJE=T BraDBF=F KetDBF=T FulRan=T
         wScrn=  0.000000 ICntrl=       500 IOpCl=  0 I1Cent=   200000004 NGrid=           0
         NMat0=    1 NMatS0=      1 NMatT0=    0 NMatD0=    1 NMtDS0=    0 NMtDT0=    0
 Symmetry not used in FoFCou.
 Harris En= -1507.23068571245    
 JPrj=0 DoOrth=F DoCkMO=F.
 Leave Link  401 at Sun Feb 19 03:53:08 2023, MaxMem=  2684354560 cpu:              59.5 elap:               3.8
 (Enter /storage/apps/GAUSSIAN/G16_RevA03/g16/l502.exe)
 Two-electron integral symmetry not used.
 Closed shell SCF:
 Using DIIS extrapolation, IDIIS=  1040.
 NGot=  2684354560 LenX=  2682275214 LenY=  2681246004
 Requested convergence on RMS density matrix=1.00D-08 within 128 cycles.
 Requested convergence on MAX density matrix=1.00D-06.
 Requested convergence on             energy=1.00D-06.
 No special actions if energy rises.
 Fock matrices will be formed incrementally for  20 cycles.
 Integral accuracy reduced to 1.0D-05 until final iterations.

 Cycle   1  Pass 0  IDiag  1:
 FoFJK:  IHMeth= 1 ICntrl=       0 DoSepK=F KAlg= 0 I1Cent=           0 FoldK=F
 IRaf= 770000000 NMat=       1 IRICut=       1 DoRegI=T DoRafI=F ISym2E= 0 IDoP0=0 IntGTp=1.
 FoFCou: FMM=F IPFlag=           0 FMFlag=      100000 FMFlg1=           0
         NFxFlg=           0 DoJE=F BraDBF=F KetDBF=F FulRan=T
         wScrn=  0.000000 ICntrl=         0 IOpCl=  0 I1Cent=           0 NGrid=           0
         NMat0=    1 NMatS0=      1 NMatT0=    0 NMatD0=    1 NMtDS0=    0 NMtDT0=    0
 Symmetry not used in FoFCou.
 E= -1507.16416742314    
 DIIS: error= 1.69D-02 at cycle   1 NSaved=   1.
 NSaved= 1 IEnMin= 1 EnMin= -1507.16416742314     IErMin= 1 ErrMin= 1.69D-02
 ErrMax= 1.69D-02  0.00D+00 EMaxC= 1.00D-01 BMatC= 9.95D-01 BMatP= 9.95D-01
 IDIUse=3 WtCom= 8.31D-01 WtEn= 1.69D-01
 Coeff-Com:  0.100D+01
 Coeff-En:   0.100D+01
 Coeff:      0.100D+01
 Gap=     0.387 Goal=   None    Shift=    0.000
 GapD=    0.387 DampG=1.000 DampE=0.500 DampFc=0.5000 IDamp=-1.
 Damping current iteration by 5.00D-01
 RMSDP=4.54D-03 MaxDP=1.62D+00              OVMax= 2.08D-01

 Cycle   2  Pass 0  IDiag  1:
 RMSU=  2.27D-03    CP:  1.03D+00
 E= -1507.49800961209     Delta-E=       -0.333842188954 Rises=F Damp=T
 DIIS: error= 3.84D-03 at cycle   2 NSaved=   2.
 NSaved= 2 IEnMin= 2 EnMin= -1507.49800961209     IErMin= 2 ErrMin= 3.84D-03
 ErrMax= 3.84D-03  0.00D+00 EMaxC= 1.00D-01 BMatC= 9.06D-02 BMatP= 9.95D-01
 IDIUse=3 WtCom= 9.62D-01 WtEn= 3.84D-02
 Coeff-Com:  0.480D-02 0.995D+00
 Coeff-En:   0.575D-01 0.943D+00
 Coeff:      0.683D-02 0.993D+00
 Gap=     0.348 Goal=   None    Shift=    0.000
 RMSDP=1.40D-03 MaxDP=5.29D-01 DE=-3.34D-01 OVMax= 1.70D-01

 Cycle   3  Pass 0  IDiag  1:
 RMSU=  1.02D-03    CP:  1.01D+00  5.83D-01
 E= -1507.86110655352     Delta-E=       -0.363096941429 Rises=F Damp=F
 DIIS: error= 5.39D-03 at cycle   3 NSaved=   3.
 NSaved= 3 IEnMin= 3 EnMin= -1507.86110655352     IErMin= 2 ErrMin= 3.84D-03
 ErrMax= 5.39D-03  0.00D+00 EMaxC= 1.00D-01 BMatC= 5.91D-02 BMatP= 9.06D-02
 IDIUse=3 WtCom= 9.46D-01 WtEn= 5.39D-02
 Coeff-Com: -0.779D-01 0.466D+00 0.612D+00
 Coeff-En:   0.000D+00 0.000D+00 0.100D+01
 Coeff:     -0.737D-01 0.441D+00 0.633D+00
 Gap=     0.224 Goal=   None    Shift=    0.000
 RMSDP=3.74D-04 MaxDP=6.48D-02 DE=-3.63D-01 OVMax= 7.02D-02

 Cycle   4  Pass 0  IDiag  1:
 RMSU=  3.11D-04    CP:  1.01D+00  6.67D-01  9.21D-01
 E= -1507.89937014102     Delta-E=       -0.038263587500 Rises=F Damp=F
 DIIS: error= 2.90D-03 at cycle   4 NSaved=   4.
 NSaved= 4 IEnMin= 4 EnMin= -1507.89937014102     IErMin= 4 ErrMin= 2.90D-03
 ErrMax= 2.90D-03  0.00D+00 EMaxC= 1.00D-01 BMatC= 1.12D-02 BMatP= 5.91D-02
 IDIUse=3 WtCom= 9.71D-01 WtEn= 2.90D-02
 Coeff-Com: -0.360D-01 0.976D-01 0.341D+00 0.598D+00
 Coeff-En:   0.000D+00 0.000D+00 0.131D+00 0.869D+00
 Coeff:     -0.349D-01 0.948D-01 0.335D+00 0.606D+00
 Gap=     0.225 Goal=   None    Shift=    0.000
 RMSDP=1.17D-04 MaxDP=1.34D-02 DE=-3.83D-02 OVMax= 1.78D-02

 Cycle   5  Pass 0  IDiag  1:
 RMSU=  7.86D-05    CP:  1.01D+00  6.63D-01  9.49D-01  7.37D-01
 E= -1507.90762910061     Delta-E=       -0.008258959583 Rises=F Damp=F
 DIIS: error= 4.98D-04 at cycle   5 NSaved=   5.
 NSaved= 5 IEnMin= 5 EnMin= -1507.90762910061     IErMin= 5 ErrMin= 4.98D-04
 ErrMax= 4.98D-04  0.00D+00 EMaxC= 1.00D-01 BMatC= 4.49D-04 BMatP= 1.12D-02
 IDIUse=3 WtCom= 9.95D-01 WtEn= 4.98D-03
 Coeff-Com: -0.104D-01 0.176D-01 0.117D+00 0.270D+00 0.606D+00
 Coeff-En:   0.000D+00 0.000D+00 0.000D+00 0.000D+00 0.100D+01
 Coeff:     -0.103D-01 0.175D-01 0.116D+00 0.269D+00 0.608D+00
 Gap=     0.224 Goal=   None    Shift=    0.000
 RMSDP=5.48D-05 MaxDP=1.87D-02 DE=-8.26D-03 OVMax= 4.30D-03

 Cycle   6  Pass 0  IDiag  1:
 RMSU=  3.24D-05    CP:  1.01D+00  6.45D-01  9.62D-01  7.62D-01  8.68D-01
 E= -1507.90797830879     Delta-E=       -0.000349208187 Rises=F Damp=F
 DIIS: error= 1.42D-04 at cycle   6 NSaved=   6.
 NSaved= 6 IEnMin= 6 EnMin= -1507.90797830879     IErMin= 6 ErrMin= 1.42D-04
 ErrMax= 1.42D-04  0.00D+00 EMaxC= 1.00D-01 BMatC= 5.83D-05 BMatP= 4.49D-04
 IDIUse=3 WtCom= 9.99D-01 WtEn= 1.42D-03
 Coeff-Com:  0.229D-03-0.451D-02 0.107D-01 0.426D-01 0.277D+00 0.674D+00
 Coeff-En:   0.000D+00 0.000D+00 0.000D+00 0.000D+00 0.000D+00 0.100D+01
 Coeff:      0.228D-03-0.450D-02 0.107D-01 0.425D-01 0.277D+00 0.674D+00
 Gap=     0.225 Goal=   None    Shift=    0.000
 RMSDP=1.95D-05 MaxDP=1.61D-03 DE=-3.49D-04 OVMax= 2.55D-03

 Cycle   7  Pass 0  IDiag  1:
 RMSU=  1.77D-05    CP:  1.01D+00  6.45D-01  9.66D-01  7.70D-01  9.48D-01
                    CP:  9.87D-01
 E= -1507.90805085410     Delta-E=       -0.000072545302 Rises=F Damp=F
 DIIS: error= 5.31D-05 at cycle   7 NSaved=   7.
 NSaved= 7 IEnMin= 7 EnMin= -1507.90805085410     IErMin= 7 ErrMin= 5.31D-05
 ErrMax= 5.31D-05  0.00D+00 EMaxC= 1.00D-01 BMatC= 8.44D-06 BMatP= 5.83D-05
 IDIUse=1 WtCom= 1.00D+00 WtEn= 0.00D+00
 Coeff-Com:  0.175D-02-0.479D-02-0.118D-01-0.244D-01 0.155D-01 0.270D+00
 Coeff-Com:  0.753D+00
 Coeff:      0.175D-02-0.479D-02-0.118D-01-0.244D-01 0.155D-01 0.270D+00
 Coeff:      0.753D+00
 Gap=     0.225 Goal=   None    Shift=    0.000
 RMSDP=1.84D-05 MaxDP=5.40D-03 DE=-7.25D-05 OVMax= 2.08D-03

 Cycle   8  Pass 0  IDiag  1:
 RMSU=  1.06D-05    CP:  1.01D+00  6.41D-01  9.69D-01  7.76D-01  1.03D+00
                    CP:  1.17D+00  1.30D+00
 E= -1507.90806636881     Delta-E=       -0.000015514714 Rises=F Damp=F
 DIIS: error= 3.64D-05 at cycle   8 NSaved=   8.
 NSaved= 8 IEnMin= 8 EnMin= -1507.90806636881     IErMin= 8 ErrMin= 3.64D-05
 ErrMax= 3.64D-05  0.00D+00 EMaxC= 1.00D-01 BMatC= 1.94D-06 BMatP= 8.44D-06
 IDIUse=1 WtCom= 1.00D+00 WtEn= 0.00D+00
 Coeff-Com:  0.858D-03-0.153D-02-0.710D-02-0.210D-01-0.433D-01-0.477D-03
 Coeff-Com:  0.353D+00 0.720D+00
 Coeff:      0.858D-03-0.153D-02-0.710D-02-0.210D-01-0.433D-01-0.477D-03
 Coeff:      0.353D+00 0.720D+00
 Gap=     0.225 Goal=   None    Shift=    0.000
 RMSDP=1.73D-05 MaxDP=2.91D-03 DE=-1.55D-05 OVMax= 6.80D-04

 Cycle   9  Pass 0  IDiag  1:
 RMSU=  1.01D-05    CP:  1.01D+00  6.40D-01  9.71D-01  7.80D-01  1.08D+00
                    CP:  1.28D+00  1.86D+00  1.70D+00
 E= -1507.90806135414     Delta-E=        0.000005014674 Rises=F Damp=F
 DIIS: error= 2.32D-05 at cycle   9 NSaved=   9.
 NSaved= 9 IEnMin= 8 EnMin= -1507.90806636881     IErMin= 9 ErrMin= 2.32D-05
 ErrMax= 2.32D-05  0.00D+00 EMaxC= 1.00D-01 BMatC= 3.71D-07 BMatP= 1.94D-06
 IDIUse=1 WtCom= 1.00D+00 WtEn= 0.00D+00
 Coeff-Com:  0.195D-03-0.211D-03-0.149D-02-0.670D-02-0.189D-01-0.283D-01
 Coeff-Com:  0.761D-01 0.305D+00 0.674D+00
 Coeff:      0.195D-03-0.211D-03-0.149D-02-0.670D-02-0.189D-01-0.283D-01
 Coeff:      0.761D-01 0.305D+00 0.674D+00
 Gap=     0.225 Goal=   None    Shift=    0.000
 RMSDP=2.14D-05 MaxDP=3.81D-03 DE= 5.01D-06 OVMax= 2.27D-04

 Cycle  10  Pass 0  IDiag  1:
 RMSU=  4.42D-06    CP:  1.01D+00  6.40D-01  9.74D-01  7.85D-01  1.14D+00
                    CP:  1.37D+00  2.45D+00  2.70D+00  2.31D+00
 E= -1507.90805662380     Delta-E=        0.000004730332 Rises=F Damp=F
 DIIS: error= 3.23D-05 at cycle  10 NSaved=  10.
 NSaved=10 IEnMin= 8 EnMin= -1507.90806636881     IErMin= 9 ErrMin= 2.32D-05
 ErrMax= 3.23D-05  0.00D+00 EMaxC= 1.00D-01 BMatC= 4.61D-07 BMatP= 3.71D-07
 IDIUse=1 WtCom= 1.00D+00 WtEn= 0.00D+00
 Coeff-Com:  0.217D-03-0.201D-03-0.170D-02-0.783D-02-0.231D-01-0.366D-01
 Coeff-Com:  0.847D-01 0.371D+00 0.875D+00-0.261D+00
 Coeff:      0.217D-03-0.201D-03-0.170D-02-0.783D-02-0.231D-01-0.366D-01
 Coeff:      0.847D-01 0.371D+00 0.875D+00-0.261D+00
 Gap=     0.225 Goal=   None    Shift=    0.000
 RMSDP=1.20D-05 MaxDP=2.27D-03 DE= 4.73D-06 OVMax= 2.14D-05

 Cycle  11  Pass 0  IDiag  1:
 RMSU=  1.96D-06    CP:  1.01D+00  6.39D-01  9.73D-01  7.82D-01  1.11D+00
                    CP:  1.34D+00  2.15D+00  2.24D+00  1.50D+00  3.08D-01
 E= -1507.90805168549     Delta-E=        0.000004938314 Rises=F Damp=F
 DIIS: error= 2.79D-05 at cycle  11 NSaved=  11.
 NSaved=11 IEnMin= 8 EnMin= -1507.90806636881     IErMin= 9 ErrMin= 2.32D-05
 ErrMax= 2.79D-05  0.00D+00 EMaxC= 1.00D-01 BMatC= 3.14D-07 BMatP= 3.71D-07
 IDIUse=1 WtCom= 1.00D+00 WtEn= 0.00D+00
 Coeff-Com: -0.557D-04 0.249D-03 0.707D-03-0.674D-03-0.694D-02-0.310D-01
 Coeff-Com: -0.274D-01 0.103D+00 0.729D+00-0.215D+01 0.238D+01
 Coeff:     -0.557D-04 0.249D-03 0.707D-03-0.674D-03-0.694D-02-0.310D-01
 Coeff:     -0.274D-01 0.103D+00 0.729D+00-0.215D+01 0.238D+01
 Gap=     0.225 Goal=   None    Shift=    0.000
 RMSDP=2.82D-05 MaxDP=5.83D-03 DE= 4.94D-06 OVMax= 9.98D-05

 Cycle  12  Pass 0  IDiag  1:
 RMSU=  8.97D-06    CP:  1.01D+00  6.34D-01  9.72D-01  7.76D-01  1.07D+00
                    CP:  1.35D+00  1.64D+00  1.72D+00 -2.58D-01 -1.84D+00
                    CP:  3.00D+00
 E= -1507.90802815272     Delta-E=        0.000023532768 Rises=F Damp=F
 DIIS: error= 1.95D-05 at cycle  12 NSaved=  12.
 NSaved=12 IEnMin= 8 EnMin= -1507.90806636881     IErMin=12 ErrMin= 1.95D-05
 ErrMax= 1.95D-05  0.00D+00 EMaxC= 1.00D-01 BMatC= 1.53D-07 BMatP= 3.14D-07
 IDIUse=1 WtCom= 1.00D+00 WtEn= 0.00D+00
 Coeff-Com: -0.479D-04 0.220D-03 0.634D-03-0.636D-03-0.627D-02-0.279D-01
 Coeff-Com: -0.240D-01 0.925D-01 0.655D+00-0.194D+01 0.214D+01 0.114D+00
 Coeff:     -0.479D-04 0.220D-03 0.634D-03-0.636D-03-0.627D-02-0.279D-01
 Coeff:     -0.240D-01 0.925D-01 0.655D+00-0.194D+01 0.214D+01 0.114D+00
 Gap=     0.225 Goal=   None    Shift=    0.000
 RMSDP=2.10D-06 MaxDP=5.15D-04 DE= 2.35D-05 OVMax= 6.07D-06

 Initial convergence to 1.0D-05 achieved.  Increase integral accuracy.
 Cycle  13  Pass 1  IDiag  1:
 E= -1507.90792302608     Delta-E=        0.000105126648 Rises=F Damp=F
 DIIS: error= 3.33D-04 at cycle   1 NSaved=   1.
 NSaved= 1 IEnMin= 1 EnMin= -1507.90792302608     IErMin= 1 ErrMin= 3.33D-04
 ErrMax= 3.33D-04  0.00D+00 EMaxC= 1.00D-01 BMatC= 8.49D-05 BMatP= 8.49D-05
 IDIUse=3 WtCom= 9.97D-01 WtEn= 3.33D-03
 Coeff-Com:  0.100D+01
 Coeff-En:   0.100D+01
 Coeff:      0.100D+01
 Gap=     0.225 Goal=   None    Shift=    0.000
 RMSDP=2.10D-06 MaxDP=5.15D-04 DE= 1.05D-04 OVMax= 9.40D-04

 Cycle  14  Pass 1  IDiag  1:
 RMSU=  4.47D-04    CP:  9.95D-01
 E= -1507.90798086440     Delta-E=       -0.000057838322 Rises=F Damp=F
 DIIS: error= 6.57D-06 at cycle   2 NSaved=   2.
 NSaved= 2 IEnMin= 2 EnMin= -1507.90798086440     IErMin= 2 ErrMin= 6.57D-06
 ErrMax= 6.57D-06  0.00D+00 EMaxC= 1.00D-01 BMatC= 7.25D-08 BMatP= 8.49D-05
 IDIUse=1 WtCom= 1.00D+00 WtEn= 0.00D+00
 Coeff-Com: -0.172D-01 0.102D+01
 Coeff:     -0.172D-01 0.102D+01
 Gap=     0.225 Goal=   None    Shift=    0.000
 RMSDP=1.61D-05 MaxDP=1.61D-03 DE=-5.78D-05 OVMax= 7.57D-05

 Cycle  15  Pass 1  IDiag  1:
 RMSU=  5.03D-06    CP:  9.94D-01  1.03D+00
 E= -1507.90798094493     Delta-E=       -0.000000080530 Rises=F Damp=F
 DIIS: error= 4.38D-06 at cycle   3 NSaved=   3.
 NSaved= 3 IEnMin= 3 EnMin= -1507.90798094493     IErMin= 3 ErrMin= 4.38D-06
 ErrMax= 4.38D-06  0.00D+00 EMaxC= 1.00D-01 BMatC= 2.34D-08 BMatP= 7.25D-08
 IDIUse=1 WtCom= 1.00D+00 WtEn= 0.00D+00
 Coeff-Com: -0.708D-02 0.393D+00 0.614D+00
 Coeff:     -0.708D-02 0.393D+00 0.614D+00
 Gap=     0.225 Goal=   None    Shift=    0.000
 RMSDP=4.85D-07 MaxDP=5.41D-05 DE=-8.05D-08 OVMax= 4.00D-05

 Cycle  16  Pass 1  IDiag  1:
 RMSU=  3.43D-07    CP:  9.94D-01  1.03D+00  1.04D+00
 E= -1507.90798096278     Delta-E=       -0.000000017852 Rises=F Damp=F
 DIIS: error= 2.30D-06 at cycle   4 NSaved=   4.
 NSaved= 4 IEnMin= 4 EnMin= -1507.90798096278     IErMin= 4 ErrMin= 2.30D-06
 ErrMax= 2.30D-06  0.00D+00 EMaxC= 1.00D-01 BMatC= 4.70D-09 BMatP= 2.34D-08
 IDIUse=1 WtCom= 1.00D+00 WtEn= 0.00D+00
 Coeff-Com: -0.389D-03 0.113D-01 0.299D+00 0.690D+00
 Coeff:     -0.389D-03 0.113D-01 0.299D+00 0.690D+00
 Gap=     0.225 Goal=   None    Shift=    0.000
 RMSDP=2.65D-07 MaxDP=2.73D-05 DE=-1.79D-08 OVMax= 1.44D-05

 Cycle  17  Pass 1  IDiag  1:
 RMSU=  1.33D-07    CP:  9.94D-01  1.04D+00  1.07D+00  9.43D-01
 E= -1507.90798096674     Delta-E=       -0.000000003957 Rises=F Damp=F
 DIIS: error= 6.96D-07 at cycle   5 NSaved=   5.
 NSaved= 5 IEnMin= 5 EnMin= -1507.90798096674     IErMin= 5 ErrMin= 6.96D-07
 ErrMax= 6.96D-07  0.00D+00 EMaxC= 1.00D-01 BMatC= 6.53D-10 BMatP= 4.70D-09
 IDIUse=1 WtCom= 1.00D+00 WtEn= 0.00D+00
 Coeff-Com:  0.475D-03-0.319D-01 0.105D+00 0.370D+00 0.557D+00
 Coeff:      0.475D-03-0.319D-01 0.105D+00 0.370D+00 0.557D+00
 Gap=     0.225 Goal=   None    Shift=    0.000
 RMSDP=5.40D-08 MaxDP=3.70D-06 DE=-3.96D-09 OVMax= 5.74D-06

 Cycle  18  Pass 1  IDiag  1:
 RMSU=  3.67D-08    CP:  9.94D-01  1.04D+00  1.07D+00  9.80D-01  1.05D+00
 E= -1507.90798096731     Delta-E=       -0.000000000572 Rises=F Damp=F
 DIIS: error= 1.70D-07 at cycle   6 NSaved=   6.
 NSaved= 6 IEnMin= 6 EnMin= -1507.90798096731     IErMin= 6 ErrMin= 1.70D-07
 ErrMax= 1.70D-07  0.00D+00 EMaxC= 1.00D-01 BMatC= 3.13D-11 BMatP= 6.53D-10
 IDIUse=1 WtCom= 1.00D+00 WtEn= 0.00D+00
 Coeff-Com:  0.188D-03-0.112D-01 0.478D-02 0.484D-01 0.184D+00 0.774D+00
 Coeff:      0.188D-03-0.112D-01 0.478D-02 0.484D-01 0.184D+00 0.774D+00
 Gap=     0.225 Goal=   None    Shift=    0.000
 RMSDP=1.67D-08 MaxDP=2.15D-06 DE=-5.72D-10 OVMax= 3.16D-06

 Cycle  19  Pass 1  IDiag  1:
 RMSU=  1.17D-08    CP:  9.94D-01  1.04D+00  1.07D+00  9.95D-01  1.12D+00
                    CP:  1.06D+00
 E= -1507.90798096732     Delta-E=       -0.000000000015 Rises=F Damp=F
 DIIS: error= 9.06D-08 at cycle   7 NSaved=   7.
 NSaved= 7 IEnMin= 7 EnMin= -1507.90798096732     IErMin= 7 ErrMin= 9.06D-08
 ErrMax= 9.06D-08  0.00D+00 EMaxC= 1.00D-01 BMatC= 1.33D-11 BMatP= 3.13D-11
 IDIUse=1 WtCom= 1.00D+00 WtEn= 0.00D+00
 Coeff-Com: -0.232D-05 0.965D-03-0.209D-01-0.599D-01-0.311D-01 0.430D+00
 Coeff-Com:  0.681D+00
 Coeff:     -0.232D-05 0.965D-03-0.209D-01-0.599D-01-0.311D-01 0.430D+00
 Coeff:      0.681D+00
 Gap=     0.225 Goal=   None    Shift=    0.000
 RMSDP=9.43D-09 MaxDP=5.46D-07 DE=-1.55D-11 OVMax= 1.48D-06

 SCF Done:  E(RM062X) =  -1507.90798097     A.U. after   19 cycles
            NFock= 19  Conv=0.94D-08     -V/T= 2.0040
 KE= 1.501836972714D+03 PE=-8.368164274771D+03 EE= 2.943754560567D+03
 Leave Link  502 at Sun Feb 19 04:01:00 2023, MaxMem=  2684354560 cpu:            7530.9 elap:             471.3
 (Enter /storage/apps/GAUSSIAN/G16_RevA03/g16/l601.exe)
 Copying SCF densities to generalized density rwf, IOpCl= 0 IROHF=0.

 **********************************************************************

            Population analysis using the SCF density.

 **********************************************************************

 Alpha  occ. eigenvalues --  -89.90817 -19.63911 -19.63594 -19.62221 -19.61820
 Alpha  occ. eigenvalues --  -19.58399 -14.79008 -14.76882 -10.65053 -10.64025
 Alpha  occ. eigenvalues --  -10.62884 -10.60069 -10.59808 -10.59295 -10.58485
 Alpha  occ. eigenvalues --  -10.57445 -10.55929 -10.55820 -10.55245 -10.54439
 Alpha  occ. eigenvalues --  -10.53969 -10.53768 -10.53729 -10.53632  -8.26743
 Alpha  occ. eigenvalues --   -6.18682  -6.18454  -6.18256  -1.19698  -1.17142
 Alpha  occ. eigenvalues --   -1.15714  -1.15282  -1.13979  -1.08060  -1.01317
 Alpha  occ. eigenvalues --   -0.91831  -0.91131  -0.88478  -0.88224  -0.86993
 Alpha  occ. eigenvalues --   -0.85891  -0.81241  -0.78922  -0.75012  -0.74934
 Alpha  occ. eigenvalues --   -0.72895  -0.70285  -0.68283  -0.66428  -0.66077
 Alpha  occ. eigenvalues --   -0.63368  -0.62617  -0.61073  -0.60400  -0.59700
 Alpha  occ. eigenvalues --   -0.57528  -0.56122  -0.55433  -0.54568  -0.53648
 Alpha  occ. eigenvalues --   -0.53027  -0.52779  -0.51872  -0.50950  -0.50529
 Alpha  occ. eigenvalues --   -0.50288  -0.49583  -0.49042  -0.48916  -0.48629
 Alpha  occ. eigenvalues --   -0.48140  -0.47348  -0.47013  -0.46903  -0.46702
 Alpha  occ. eigenvalues --   -0.46289  -0.44885  -0.44314  -0.43792  -0.43065
 Alpha  occ. eigenvalues --   -0.42390  -0.42200  -0.41284  -0.40031  -0.37843
 Alpha  occ. eigenvalues --   -0.35540  -0.34925  -0.34705  -0.33960  -0.33751
 Alpha  occ. eigenvalues --   -0.32744  -0.32197  -0.32044  -0.29874  -0.24621
 Alpha virt. eigenvalues --   -0.02098   0.00948   0.04734   0.04994   0.05657
 Alpha virt. eigenvalues --    0.06491   0.06748   0.07655   0.08638   0.08785
 Alpha virt. eigenvalues --    0.08929   0.09683   0.10202   0.10948   0.11467
 Alpha virt. eigenvalues --    0.11801   0.12451   0.12714   0.12933   0.13267
 Alpha virt. eigenvalues --    0.13688   0.13925   0.14333   0.14717   0.15177
 Alpha virt. eigenvalues --    0.15625   0.16006   0.16589   0.16737   0.17605
 Alpha virt. eigenvalues --    0.18110   0.18761   0.19287   0.19635   0.20193
 Alpha virt. eigenvalues --    0.20990   0.21268   0.21740   0.21967   0.22581
 Alpha virt. eigenvalues --    0.22636   0.23018   0.23720   0.24169   0.24796
 Alpha virt. eigenvalues --    0.25033   0.25229   0.25621   0.26636   0.26785
 Alpha virt. eigenvalues --    0.27052   0.27231   0.27478   0.28587   0.28694
 Alpha virt. eigenvalues --    0.29135   0.29638   0.29897   0.31013   0.31194
 Alpha virt. eigenvalues --    0.31666   0.32050   0.32186   0.32704   0.33682
 Alpha virt. eigenvalues --    0.33817   0.34292   0.34741   0.35323   0.35811
 Alpha virt. eigenvalues --    0.36845   0.37306   0.37709   0.37952   0.38404
 Alpha virt. eigenvalues --    0.38737   0.38970   0.39476   0.39875   0.40340
 Alpha virt. eigenvalues --    0.40868   0.41048   0.41337   0.41629   0.41884
 Alpha virt. eigenvalues --    0.42463   0.43068   0.43245   0.43414   0.43782
 Alpha virt. eigenvalues --    0.44063   0.44624   0.44723   0.45074   0.45181
 Alpha virt. eigenvalues --    0.45495   0.46182   0.46704   0.46989   0.47723
 Alpha virt. eigenvalues --    0.47932   0.48631   0.48935   0.49043   0.49391
 Alpha virt. eigenvalues --    0.49795   0.50158   0.50345   0.50648   0.50903
 Alpha virt. eigenvalues --    0.51222   0.51350   0.51486   0.51695   0.52223
 Alpha virt. eigenvalues --    0.52973   0.53273   0.53884   0.54280   0.54477
 Alpha virt. eigenvalues --    0.55050   0.55195   0.56162   0.56594   0.57348
 Alpha virt. eigenvalues --    0.57828   0.57946   0.58534   0.58698   0.59086
 Alpha virt. eigenvalues --    0.59551   0.60341   0.60670   0.61141   0.61489
 Alpha virt. eigenvalues --    0.62314   0.62623   0.63110   0.64056   0.64345
 Alpha virt. eigenvalues --    0.64627   0.65762   0.66174   0.66536   0.67201
 Alpha virt. eigenvalues --    0.67926   0.68509   0.68762   0.69482   0.70622
 Alpha virt. eigenvalues --    0.70738   0.71610   0.71861   0.72995   0.73637
 Alpha virt. eigenvalues --    0.74904   0.75200   0.76022   0.76265   0.76622
 Alpha virt. eigenvalues --    0.77669   0.78171   0.78644   0.79642   0.80322
 Alpha virt. eigenvalues --    0.81182   0.81557   0.82076   0.82263   0.82586
 Alpha virt. eigenvalues --    0.84261   0.84412   0.85041   0.85379   0.86351
 Alpha virt. eigenvalues --    0.86561   0.88104   0.89000   0.89383   0.90603
 Alpha virt. eigenvalues --    0.90734   0.91202   0.91607   0.92308   0.93416
 Alpha virt. eigenvalues --    0.93901   0.94558   0.95152   0.95614   0.96559
 Alpha virt. eigenvalues --    0.97126   0.97856   0.98447   0.98950   0.99483
 Alpha virt. eigenvalues --    1.00305   1.01289   1.02123   1.02686   1.03018
 Alpha virt. eigenvalues --    1.04448   1.05281   1.05511   1.05708   1.06002
 Alpha virt. eigenvalues --    1.06980   1.07920   1.08413   1.09085   1.09460
 Alpha virt. eigenvalues --    1.10281   1.11148   1.11326   1.12060   1.12745
 Alpha virt. eigenvalues --    1.13122   1.13663   1.13940   1.14430   1.15643
 Alpha virt. eigenvalues --    1.16325   1.16595   1.17335   1.18605   1.19169
 Alpha virt. eigenvalues --    1.20060   1.20618   1.22075   1.22330   1.23897
 Alpha virt. eigenvalues --    1.25206   1.25682   1.26593   1.26997   1.27433
 Alpha virt. eigenvalues --    1.28823   1.29581   1.30247   1.31492   1.32214
 Alpha virt. eigenvalues --    1.32513   1.33173   1.33995   1.34764   1.35512
 Alpha virt. eigenvalues --    1.35714   1.37176   1.38105   1.38429   1.39448
 Alpha virt. eigenvalues --    1.40391   1.41307   1.42476   1.43545   1.44793
 Alpha virt. eigenvalues --    1.45199   1.46611   1.47029   1.47961   1.48797
 Alpha virt. eigenvalues --    1.49997   1.51233   1.51754   1.52490   1.53207
 Alpha virt. eigenvalues --    1.53593   1.53952   1.54511   1.55288   1.55679
 Alpha virt. eigenvalues --    1.56365   1.56686   1.56735   1.57377   1.57785
 Alpha virt. eigenvalues --    1.57961   1.58703   1.59046   1.59582   1.59864
 Alpha virt. eigenvalues --    1.60621   1.61083   1.61445   1.62001   1.62344
 Alpha virt. eigenvalues --    1.62870   1.64202   1.64361   1.64805   1.64995
 Alpha virt. eigenvalues --    1.65778   1.66021   1.66917   1.67301   1.67890
 Alpha virt. eigenvalues --    1.68532   1.68846   1.69136   1.69397   1.70239
 Alpha virt. eigenvalues --    1.71239   1.72186   1.72738   1.73400   1.74144
 Alpha virt. eigenvalues --    1.74392   1.74578   1.75415   1.76315   1.77211
 Alpha virt. eigenvalues --    1.77459   1.78516   1.79528   1.79626   1.80441
 Alpha virt. eigenvalues --    1.80867   1.81291   1.81766   1.82515   1.83584
 Alpha virt. eigenvalues --    1.83972   1.84455   1.84918   1.85580   1.86176
 Alpha virt. eigenvalues --    1.87198   1.87667   1.88539   1.89872   1.90669
 Alpha virt. eigenvalues --    1.90985   1.91463   1.92135   1.93715   1.94487
 Alpha virt. eigenvalues --    1.94757   1.95715   1.96222   1.96664   1.96861
 Alpha virt. eigenvalues --    1.97846   1.98719   1.99209   1.99713   2.00391
 Alpha virt. eigenvalues --    2.01280   2.01563   2.02665   2.03129   2.03627
 Alpha virt. eigenvalues --    2.04174   2.05020   2.06648   2.07024   2.08244
 Alpha virt. eigenvalues --    2.08932   2.09708   2.10132   2.11154   2.11302
 Alpha virt. eigenvalues --    2.12799   2.13045   2.14287   2.15568   2.15658
 Alpha virt. eigenvalues --    2.16131   2.17634   2.18122   2.18217   2.19256
 Alpha virt. eigenvalues --    2.20104   2.21399   2.22106   2.22229   2.22734
 Alpha virt. eigenvalues --    2.23741   2.24059   2.24304   2.26757   2.27169
 Alpha virt. eigenvalues --    2.27364   2.27698   2.28317   2.28959   2.29482
 Alpha virt. eigenvalues --    2.30597   2.31014   2.31162   2.31848   2.32545
 Alpha virt. eigenvalues --    2.33016   2.33421   2.34497   2.35189   2.35417
 Alpha virt. eigenvalues --    2.35792   2.36294   2.37880   2.38160   2.38672
 Alpha virt. eigenvalues --    2.39629   2.40665   2.41498   2.42558   2.43125
 Alpha virt. eigenvalues --    2.43484   2.43740   2.44198   2.44761   2.45872
 Alpha virt. eigenvalues --    2.46799   2.47478   2.48105   2.49334   2.49742
 Alpha virt. eigenvalues --    2.51073   2.51301   2.51547   2.52485   2.53776
 Alpha virt. eigenvalues --    2.54808   2.55235   2.56142   2.56914   2.57661
 Alpha virt. eigenvalues --    2.58062   2.58574   2.59029   2.59598   2.60343
 Alpha virt. eigenvalues --    2.60494   2.61738   2.61775   2.63051   2.63772
 Alpha virt. eigenvalues --    2.64029   2.64788   2.65085   2.65684   2.66416
 Alpha virt. eigenvalues --    2.67226   2.67320   2.68243   2.68749   2.69678
 Alpha virt. eigenvalues --    2.70338   2.70482   2.70918   2.72155   2.72842
 Alpha virt. eigenvalues --    2.73354   2.74198   2.74896   2.75673   2.76611
 Alpha virt. eigenvalues --    2.77294   2.77981   2.79174   2.80259   2.81244
 Alpha virt. eigenvalues --    2.81449   2.82900   2.83119   2.84408   2.85362
 Alpha virt. eigenvalues --    2.85731   2.86138   2.86436   2.88358   2.88580
 Alpha virt. eigenvalues --    2.89208   2.89690   2.91322   2.91809   2.92691
 Alpha virt. eigenvalues --    2.93398   2.94633   2.95249   2.96352   2.96635
 Alpha virt. eigenvalues --    2.97320   2.97982   2.99501   3.00307   3.00655
 Alpha virt. eigenvalues --    3.01301   3.01713   3.02440   3.03220   3.03624
 Alpha virt. eigenvalues --    3.04350   3.04494   3.05177   3.05730   3.06287
 Alpha virt. eigenvalues --    3.07072   3.07510   3.08545   3.09443   3.09773
 Alpha virt. eigenvalues --    3.10414   3.10677   3.11245   3.11761   3.12287
 Alpha virt. eigenvalues --    3.12678   3.13413   3.14056   3.14538   3.15525
 Alpha virt. eigenvalues --    3.15934   3.16596   3.17215   3.17590   3.18389
 Alpha virt. eigenvalues --    3.18496   3.18913   3.20033   3.20328   3.20609
 Alpha virt. eigenvalues --    3.21242   3.21772   3.22037   3.23489   3.23828
 Alpha virt. eigenvalues --    3.24219   3.25915   3.26359   3.26873   3.27436
 Alpha virt. eigenvalues --    3.27712   3.28490   3.28662   3.28827   3.29337
 Alpha virt. eigenvalues --    3.30792   3.31600   3.32187   3.32456   3.33567
 Alpha virt. eigenvalues --    3.33904   3.34609   3.35754   3.36034   3.36309
 Alpha virt. eigenvalues --    3.36760   3.38035   3.38242   3.38596   3.38928
 Alpha virt. eigenvalues --    3.39441   3.40351   3.40405   3.41807   3.42241
 Alpha virt. eigenvalues --    3.42959   3.43558   3.43682   3.44757   3.45070
 Alpha virt. eigenvalues --    3.45642   3.46460   3.47195   3.47974   3.49133
 Alpha virt. eigenvalues --    3.49171   3.49365   3.51267   3.51936   3.52226
 Alpha virt. eigenvalues --    3.53232   3.53536   3.53688   3.54347   3.56105
 Alpha virt. eigenvalues --    3.56559   3.57734   3.58159   3.58573   3.59671
 Alpha virt. eigenvalues --    3.60813   3.62273   3.62365   3.63423   3.64533
 Alpha virt. eigenvalues --    3.65530   3.66166   3.66850   3.67069   3.68783
 Alpha virt. eigenvalues --    3.68874   3.70861   3.71625   3.72546   3.73095
 Alpha virt. eigenvalues --    3.74072   3.74811   3.75381   3.75967   3.76889
 Alpha virt. eigenvalues --    3.78079   3.78579   3.78691   3.79669   3.80624
 Alpha virt. eigenvalues --    3.82447   3.83801   3.85505   3.86662   3.87980
 Alpha virt. eigenvalues --    3.88500   3.90442   3.90527   3.92078   3.92701
 Alpha virt. eigenvalues --    3.93512   3.94255   3.95439   3.96122   3.97918
 Alpha virt. eigenvalues --    4.00318   4.00630   4.02649   4.03751   4.07195
 Alpha virt. eigenvalues --    4.07903   4.08783   4.10046   4.10612   4.11631
 Alpha virt. eigenvalues --    4.12533   4.13265   4.14366   4.14471   4.16051
 Alpha virt. eigenvalues --    4.18826   4.19134   4.20009   4.20785   4.21435
 Alpha virt. eigenvalues --    4.24417   4.25952   4.27418   4.28464   4.29077
 Alpha virt. eigenvalues --    4.32807   4.33565   4.35495   4.36276   4.37708
 Alpha virt. eigenvalues --    4.39116   4.39907   4.40906   4.41498   4.41717
 Alpha virt. eigenvalues --    4.42925   4.45171   4.46982   4.48053   4.49329
 Alpha virt. eigenvalues --    4.50004   4.52246   4.53688   4.55511   4.57133
 Alpha virt. eigenvalues --    4.59856   4.61486   4.64132   4.65331   4.66818
 Alpha virt. eigenvalues --    4.68659   4.69647   4.70563   4.71705   4.74070
 Alpha virt. eigenvalues --    4.75197   4.76539   4.78035   4.79246   4.80657
 Alpha virt. eigenvalues --    4.83101   4.85964   4.89223   4.90722   4.91915
 Alpha virt. eigenvalues --    4.93311   4.95666   4.96331   4.98032   4.99240
 Alpha virt. eigenvalues --    5.00680   5.01141   5.02622   5.05509   5.07369
 Alpha virt. eigenvalues --    5.11277   5.14862   5.16495   5.17638   5.21142
 Alpha virt. eigenvalues --    5.21872   5.22737   5.23767   5.26288   5.27581
 Alpha virt. eigenvalues --    5.29339   5.30495   5.31215   5.35557   5.36030
 Alpha virt. eigenvalues --    5.37893   5.41646   5.43654   5.44256   5.47032
 Alpha virt. eigenvalues --    5.47883   5.49800   5.53901   5.57445   5.57935
 Alpha virt. eigenvalues --    5.62402   5.66552   5.75166   5.75969   5.77565
 Alpha virt. eigenvalues --    5.80023   5.80458   5.84045   5.84408   5.86550
 Alpha virt. eigenvalues --    5.88097   5.90337   5.91001   5.92765   5.95675
 Alpha virt. eigenvalues --    5.99746   6.02665   6.08221   6.15693   6.20375
 Alpha virt. eigenvalues --    6.22675   6.25113   6.29334   6.30781   6.34809
 Alpha virt. eigenvalues --    6.38602   6.44394   6.44952   6.47610   6.52339
 Alpha virt. eigenvalues --    6.54119   6.60020   6.69498   6.74539   6.74789
 Alpha virt. eigenvalues --    6.78671   6.81470   6.82769   6.85642   6.86499
 Alpha virt. eigenvalues --    6.87378   6.93510   6.98791   6.99240   7.06663
 Alpha virt. eigenvalues --    7.08354   7.09365   7.12420   7.15879   7.24167
 Alpha virt. eigenvalues --    7.25944   7.34515   8.98767   9.37779   9.51111
 Alpha virt. eigenvalues --   19.85246  22.27730  22.42315  22.47682  22.48425
 Alpha virt. eigenvalues --   22.54155  22.64753  22.67053  22.72470  22.81380
 Alpha virt. eigenvalues --   22.86123  22.93775  22.99396  23.02660  23.05472
 Alpha virt. eigenvalues --   23.21280  23.48916  32.18194  33.18576  44.13102
 Alpha virt. eigenvalues --   44.17901  44.23270  44.27280  44.57313
          Condensed to atoms (all electrons):
               1          2          3          4          5          6
     1  C    5.119754   0.421180   0.412142  -0.016931  -0.000360  -0.000082
     2  H    0.421180   0.509084  -0.022236  -0.001445   0.000453  -0.000005
     3  H    0.412142  -0.022236   0.541879   0.001213  -0.000034  -0.000007
     4  C   -0.016931  -0.001445   0.001213   5.620348   0.475349   0.250285
     5  H   -0.000360   0.000453  -0.000034   0.475349   0.553236  -0.030075
     6  O   -0.000082  -0.000005  -0.000007   0.250285  -0.030075   8.011382
     7  H    0.000007  -0.000009   0.000004  -0.065130  -0.002850   0.295535
     8  C    0.005525   0.013225  -0.008712  -0.165536  -0.089466  -0.059018
     9  H    0.010133  -0.000018  -0.001872  -0.129149   0.003473   0.002161
    10  O    0.007865  -0.000366   0.000240  -0.042010   0.002161   0.000769
    11  H   -0.000660  -0.000186   0.000440   0.011503  -0.000919  -0.000585
    12  C   -0.001251  -0.000047   0.001128  -0.047401  -0.054036  -0.001980
    13  H   -0.000420   0.000052   0.000115  -0.112377   0.006038  -0.000424
    14  C    0.189256  -0.048468  -0.040566   0.157154   0.020227   0.009800
    15  H   -0.077620  -0.006523  -0.003001  -0.013621  -0.000226   0.000017
    16  O   -0.037872   0.000919   0.005491  -0.087763  -0.002954   0.005754
    17  N    0.000614  -0.000107  -0.000053   0.037216  -0.015267  -0.006532
    18  C   -0.001358  -0.000003   0.000018  -0.005848  -0.003403   0.002629
    19  H    0.000012  -0.000073   0.000049  -0.015886  -0.002925   0.001085
    20  C   -0.000047   0.000006  -0.000003   0.004816   0.005748  -0.002039
    21  H    0.000006   0.000001  -0.000000   0.000021   0.000143  -0.000024
    22  C   -0.000009  -0.000001   0.000000   0.000127  -0.000361   0.000207
    23  H   -0.000000   0.000000   0.000000   0.000034   0.000009   0.000000
    24  H    0.000000  -0.000000  -0.000000  -0.000096  -0.000022  -0.000004
    25  C   -0.000070  -0.000007   0.000001  -0.002486  -0.000704  -0.000475
    26  C   -0.000265   0.000034  -0.000005   0.024216  -0.000323  -0.003468
    27  H   -0.000020   0.000000   0.000000   0.000876  -0.000095   0.000104
    28  C    0.000001   0.000000  -0.000000   0.000154  -0.000000  -0.000021
    29  O   -0.000000   0.000000   0.000000   0.000001   0.000000  -0.000000
    30  N   -0.000000   0.000000   0.000000   0.000001  -0.000000  -0.000000
    31  H   -0.000000   0.000000   0.000000   0.000000   0.000000  -0.000000
    32  H   -0.000000   0.000000  -0.000000   0.000001   0.000000  -0.000000
    33  C    0.000000  -0.000000   0.000000  -0.000161  -0.000350  -0.012682
    34  C    0.000000  -0.000000  -0.000000   0.000040  -0.000000  -0.000624
    35  C    0.000000   0.000000  -0.000000  -0.000311   0.000033  -0.000109
    36  C   -0.000000   0.000000  -0.000000   0.000001   0.000000   0.000000
    37  C   -0.000000   0.000000   0.000000   0.000155   0.000002   0.000045
    38  O    0.000000   0.000000  -0.000000  -0.000742  -0.000048  -0.016788
    39  S   -0.000000  -0.000000   0.000000   0.000745   0.000018   0.000968
    40  H   -0.000000   0.000000  -0.000000   0.000201   0.000021   0.000205
    41  H   -0.000001   0.000000  -0.000000  -0.004272   0.000536   0.014540
    42  H    0.000000  -0.000000  -0.000000  -0.000000  -0.000000  -0.000000
    43  H    0.000000  -0.000000  -0.000000  -0.000000  -0.000000  -0.000000
    44  H   -0.000000  -0.000000  -0.000000   0.000000  -0.000000   0.000000
    45  H   -0.000000  -0.000000   0.000000   0.000013   0.000002   0.000008
    46  H   -0.000000  -0.000000   0.000000  -0.000007  -0.000000   0.000004
    47  H    0.378900  -0.022517  -0.025065   0.003097  -0.001245   0.000045
    48  H    0.000000   0.000000  -0.000000   0.000058   0.000002   0.000428
               7          8          9         10         11         12
     1  C    0.000007   0.005525   0.010133   0.007865  -0.000660  -0.001251
     2  H   -0.000009   0.013225  -0.000018  -0.000366  -0.000186  -0.000047
     3  H    0.000004  -0.008712  -0.001872   0.000240   0.000440   0.001128
     4  C   -0.065130  -0.165536  -0.129149  -0.042010   0.011503  -0.047401
     5  H   -0.002850  -0.089466   0.003473   0.002161  -0.000919  -0.054036
     6  O    0.295535  -0.059018   0.002161   0.000769  -0.000585  -0.001980
     7  H    0.431819   0.003249  -0.000948  -0.001307   0.000290   0.001881
     8  C    0.003249   5.589846   0.526676   0.256451  -0.039464   0.028316
     9  H   -0.000948   0.526676   0.574492  -0.056824  -0.001972   0.017151
    10  O   -0.001307   0.256451  -0.056824   8.037904   0.289082  -0.011703
    11  H    0.000290  -0.039464  -0.001972   0.289082   0.428700  -0.001212
    12  C    0.001881   0.028316   0.017151  -0.011703  -0.001212   5.560032
    13  H   -0.003522   0.019410   0.002736   0.015167  -0.001468   0.485209
    14  C   -0.000244   0.042681  -0.109294  -0.046397  -0.006289  -0.115730
    15  H    0.000124  -0.033842   0.011620  -0.007669   0.005958   0.000362
    16  O    0.001517  -0.042354   0.004748   0.007364   0.000390   0.283861
    17  N    0.016317   0.003411  -0.001096  -0.000453   0.000043   0.115086
    18  C    0.000336  -0.004843  -0.000420  -0.000423   0.000022  -0.082944
    19  H    0.000431   0.001141   0.000061  -0.000004   0.000004   0.022417
    20  C   -0.001022  -0.002018   0.000020   0.000012  -0.000001   0.012731
    21  H   -0.000011  -0.000007   0.000000   0.000000  -0.000000   0.000344
    22  C    0.000383   0.000056  -0.000003  -0.000003   0.000000  -0.007718
    23  H   -0.000012   0.000000   0.000000  -0.000000  -0.000000   0.000203
    24  H    0.000130   0.000002  -0.000000   0.000000   0.000000   0.000079
    25  C   -0.001363   0.000057  -0.000003  -0.000054   0.000002  -0.021665
    26  C   -0.003539  -0.003617  -0.000143  -0.000709  -0.000042  -0.079084
    27  H    0.000095  -0.000016  -0.000010  -0.000153   0.000008  -0.002856
    28  C    0.000058   0.000006   0.000000   0.000000  -0.000000  -0.001525
    29  O    0.000026   0.000000   0.000000  -0.000000  -0.000000   0.000431
    30  N    0.000000  -0.000000  -0.000000  -0.000000  -0.000000   0.000010
    31  H   -0.000000  -0.000000   0.000000  -0.000000  -0.000000  -0.000003
    32  H   -0.000000  -0.000000   0.000000  -0.000000  -0.000000  -0.000003
    33  C    0.004888   0.000885   0.000002  -0.000545   0.000042  -0.000946
    34  C   -0.001721  -0.000060  -0.000001   0.000019  -0.000001  -0.001476
    35  C    0.002621  -0.000048  -0.000000   0.000001  -0.000000   0.001108
    36  C   -0.000004  -0.000000  -0.000000  -0.000000  -0.000000   0.000021
    37  C   -0.000849   0.000001  -0.000000  -0.000000   0.000000  -0.000401
    38  O    0.027019   0.000048   0.000004   0.000005  -0.000000  -0.000798
    39  S   -0.003355  -0.000008  -0.000000  -0.000003  -0.000000  -0.000674
    40  H   -0.001626  -0.000012   0.000000   0.000008  -0.000001   0.000003
    41  H    0.000538  -0.002095   0.000037   0.001862  -0.000142   0.002044
    42  H    0.000001   0.000000  -0.000000   0.000000   0.000000   0.000002
    43  H    0.000001   0.000000  -0.000000   0.000000   0.000000  -0.000001
    44  H   -0.000000  -0.000000  -0.000000   0.000000   0.000000  -0.000000
    45  H   -0.000066   0.000000   0.000000  -0.000000  -0.000000  -0.000023
    46  H   -0.000023  -0.000000  -0.000000  -0.000000   0.000000   0.000048
    47  H    0.000035  -0.015992   0.001694   0.000086   0.000139  -0.000883
    48  H   -0.000165  -0.000007   0.000001   0.000006  -0.000001  -0.000010
              13         14         15         16         17         18
     1  C   -0.000420   0.189256  -0.077620  -0.037872   0.000614  -0.001358
     2  H    0.000052  -0.048468  -0.006523   0.000919  -0.000107  -0.000003
     3  H    0.000115  -0.040566  -0.003001   0.005491  -0.000053   0.000018
     4  C   -0.112377   0.157154  -0.013621  -0.087763   0.037216  -0.005848
     5  H    0.006038   0.020227  -0.000226  -0.002954  -0.015267  -0.003403
     6  O   -0.000424   0.009800   0.000017   0.005754  -0.006532   0.002629
     7  H   -0.003522  -0.000244   0.000124   0.001517   0.016317   0.000336
     8  C    0.019410   0.042681  -0.033842  -0.042354   0.003411  -0.004843
     9  H    0.002736  -0.109294   0.011620   0.004748  -0.001096  -0.000420
    10  O    0.015167  -0.046397  -0.007669   0.007364  -0.000453  -0.000423
    11  H   -0.001468  -0.006289   0.005958   0.000390   0.000043   0.000022
    12  C    0.485209  -0.115730   0.000362   0.283861   0.115086  -0.082944
    13  H    0.520395  -0.008417   0.005816  -0.037659  -0.076169   0.012509
    14  C   -0.008417   5.314069   0.407926   0.214888   0.011105  -0.000458
    15  H    0.005816   0.407926   0.639348  -0.036504  -0.001849   0.000214
    16  O   -0.037659   0.214888  -0.036504   8.066377  -0.074847   0.010702
    17  N   -0.076169   0.011105  -0.001849  -0.074847   6.624301   0.302585
    18  C    0.012509  -0.000458   0.000214   0.010702   0.302585   5.031573
    19  H    0.000911  -0.003657   0.000137   0.006540  -0.049447   0.409505
    20  C   -0.000565   0.001282  -0.000000  -0.000263  -0.074833   0.492111
    21  H    0.000013   0.000005  -0.000000  -0.000049   0.004349  -0.030210
    22  C   -0.000002  -0.000108   0.000001   0.000345  -0.008404   0.007514
    23  H    0.000004   0.000001   0.000000  -0.000015  -0.000380  -0.000009
[...]
      6        8           0.006453842    0.001934471   -0.005127666
      7        1          -0.004333076   -0.005656244    0.003879808
      8        6          -0.003682613   -0.011355955   -0.001575263
      9        1          -0.001317142    0.005588236   -0.004076020
     10        8           0.026172139    0.001613677   -0.004853096
     11        1          -0.024384376    0.005010744    0.007366767
     12        6           0.005145922    0.005019020    0.007442280
     13        1          -0.001109917   -0.002382621   -0.002841823
     14        6           0.008888112   -0.001833125    0.001409036
     15        1          -0.003224718    0.003028123    0.001216240
     16        8           0.002157364   -0.002705172   -0.006804004
     17        7          -0.001296700    0.006974105   -0.006169314
     18        6          -0.008788434   -0.003366570   -0.003468760
     19        1          -0.001723182    0.006806585   -0.001443256
     20        6           0.004469384   -0.005419303    0.001055691
     21        1           0.004098494    0.006419391    0.001628742
     22        6          -0.006541108    0.001911151    0.003198573
     23        1           0.000789094   -0.000818407    0.001778923
     24        1           0.005354354   -0.005089964   -0.004032791
     25        6           0.001992277    0.001478135   -0.001500044
     26        6          -0.001853754   -0.003805906   -0.000592764
     27        1          -0.005039931   -0.004910206    0.001998764
     28        6           0.019168181   -0.003424502    0.016095493
     29        8          -0.007977105   -0.004853268   -0.005732528
     30        7          -0.009028204    0.002261241   -0.019187516
     31        1          -0.001464222   -0.005890463    0.003202202
     32        1           0.005478470    0.009278714    0.010062748
     33        6          -0.006051433   -0.012780258   -0.002989998
     34        6          -0.000303254   -0.012194038    0.006049913
     35        6          -0.009062909    0.001464295   -0.006172399
     36        6          -0.001997129    0.000773340   -0.003355015
     37        6           0.008346864    0.000837774    0.006730354
     38        8           0.001125317    0.011319562   -0.005078041
     39       16           0.006240447    0.003772186    0.002791239
     40        1           0.005534948    0.002472571   -0.003114309
     41        1          -0.002130229    0.005648107    0.004599188
     42        1           0.000884730    0.000772546    0.004881823
     43        1          -0.002417107   -0.002671175    0.002734697
     44        1           0.004509425   -0.001039847   -0.003273618
     45        1           0.002000424    0.005059682   -0.002056916
     46        1          -0.003038154   -0.005385341    0.003300615
     47        1           0.001276225   -0.004542482   -0.000994170
     48        1          -0.001902534    0.003232093   -0.004487718
 -------------------------------------------------------------------
 Cartesian Forces:  Max     0.026172139 RMS     0.006190286
 Leave Link  716 at Sun Feb 19 04:04:02 2023, MaxMem=  2684354560 cpu:               0.4 elap:               0.0
 (Enter /storage/apps/GAUSSIAN/G16_RevA03/g16/l103.exe)

 GradGradGradGradGradGradGradGradGradGradGradGradGradGradGradGradGradGrad
 Berny optimization.
 Search for a local minimum.
 Step number   1 out of a maximum of    2
 All quantities printed in internal units (Hartrees-Bohrs-Radians)
 Second derivative matrix not updated -- first step.
 ITU=  0
     Eigenvalues ---    0.00015   0.00068   0.00072   0.00120   0.00178
     Eigenvalues ---    0.00210   0.00315   0.00355   0.00376   0.00448
     Eigenvalues ---    0.00513   0.00716   0.00796   0.00881   0.00902
     Eigenvalues ---    0.01005   0.01080   0.01204   0.01368   0.01415
     Eigenvalues ---    0.01726   0.01749   0.01975   0.02120   0.02626
     Eigenvalues ---    0.02896   0.03184   0.03308   0.03367   0.03561
     Eigenvalues ---    0.03975   0.04523   0.04836   0.04974   0.05111
     Eigenvalues ---    0.05299   0.05412   0.05471   0.05769   0.05846
     Eigenvalues ---    0.05984   0.06165   0.06279   0.06439   0.06844
     Eigenvalues ---    0.06956   0.07051   0.07447   0.07567   0.07908
     Eigenvalues ---    0.08525   0.08908   0.09089   0.09796   0.10204
     Eigenvalues ---    0.10462   0.11281   0.11947   0.12250   0.12333
     Eigenvalues ---    0.12526   0.12820   0.12826   0.12979   0.13740
     Eigenvalues ---    0.13804   0.14206   0.14856   0.15461   0.16476
     Eigenvalues ---    0.16927   0.17373   0.18052   0.18831   0.19226
     Eigenvalues ---    0.19718   0.19918   0.21238   0.21512   0.21920
     Eigenvalues ---    0.24491   0.26869   0.27158   0.27416   0.30719
     Eigenvalues ---    0.32691   0.32951   0.33858   0.34749   0.36872
     Eigenvalues ---    0.37361   0.37361   0.37361   0.37361   0.39612
     Eigenvalues ---    0.42830   0.43657   0.47931   0.54290   0.55765
     Eigenvalues ---    0.60494   0.64863   0.67780   0.68783   0.72378
     Eigenvalues ---    0.77886   0.81379   0.86475   0.87272   0.87733
     Eigenvalues ---    0.89271   0.90266   0.91995   0.92293   0.92457
     Eigenvalues ---    0.92935   0.95666   0.97224   0.98133   1.00059
     Eigenvalues ---    1.02031   1.05982   1.08055   1.10358   1.11954
     Eigenvalues ---    1.17458   1.17826   1.20565   1.26406   1.30265
     Eigenvalues ---    1.36631   1.41915   1.48589   1.57583   1.64441
     Eigenvalues ---    1.75688   2.14503   2.21341
 Quadratic step=2.351D+00 exceeds max=3.000D-01 adjusted using Lamda=-2.029D-02.
 Angle between NR and scaled steps=  58.51 degrees.
 Angle between quadratic step and forces=  62.94 degrees.
 Linear search not attempted -- first point.
 Variable       Old X    -DE/DX   Delta X   Delta X   Delta X     New X
                                 (Linear)    (Quad)   (Total)
    X1        6.44603  -0.00092   0.00000  -0.02176  -0.02176   6.42427
    Y1       -7.24469   0.00900   0.00000   0.02167   0.02167  -7.22302
    Z1       -1.40598   0.00027   0.00000   0.00767   0.00767  -1.39830
    X2        6.55637  -0.00023   0.00000  -0.00783  -0.00783   6.54854
    Y2       -7.48677  -0.00090   0.00000   0.00896   0.00896  -7.47782
    Z2       -3.46472   0.00658   0.00000   0.02610   0.02610  -3.43862
    X3        8.15731  -0.00671   0.00000  -0.04990  -0.04990   8.10741
    Y3       -8.01422  -0.00146   0.00000  -0.02350  -0.02350  -8.03772
    Z3       -0.51329  -0.00301   0.00000  -0.01446  -0.01446  -0.52775
    X4        3.00323  -0.00745   0.00000   0.00329   0.00329   3.00652
    Y4       -2.92913  -0.00327   0.00000   0.00387   0.00387  -2.92526
    Z4        1.87068   0.00228   0.00000   0.00013   0.00013   1.87081
    X5        1.83289   0.00389   0.00000   0.02916   0.02916   1.86204
    Y5       -4.64830   0.00408   0.00000   0.00370   0.00370  -4.64459
    Z5        1.64622   0.00140   0.00000   0.02925   0.02925   1.67547
    X6        2.11641   0.00645   0.00000   0.05134   0.05134   2.16775
    Y6       -1.47465   0.00193   0.00000   0.00653   0.00653  -1.46813
    Z6        3.88556  -0.00513   0.00000   0.00838   0.00838   3.89394
    X7        1.00433  -0.00433   0.00000  -0.10795  -0.10795   0.89637
    Y7       -0.16650  -0.00566   0.00000  -0.10357  -0.10357  -0.27006
    Z7        3.22513   0.00388   0.00000   0.07058   0.07058   3.29570
    X8        5.75665  -0.00368   0.00000   0.00084   0.00084   5.75749
    Y8       -3.79601  -0.01136   0.00000   0.01045   0.01045  -3.78556
    Z8        2.03527  -0.00158   0.00000  -0.01537  -0.01537   2.01990
    X9        5.98620  -0.00132   0.00000   0.00564   0.00564   5.99184
    Y9       -5.47963   0.00559   0.00000   0.02775   0.02775  -5.45189
    Z9        3.25223  -0.00408   0.00000  -0.02670  -0.02670   3.22554
   X10        7.24732   0.02617   0.00000  -0.00758  -0.00758   7.23975
   Y10       -1.79371   0.00161   0.00000   0.03053   0.03053  -1.76318
   Z10        2.90785  -0.00485   0.00000  -0.00697  -0.00697   2.90088
   X11        9.02816  -0.02438   0.00000  -0.04658  -0.04658   8.98158
   Y11       -2.14229   0.00501   0.00000   0.04159   0.04159  -2.10070
   Z11        2.45779   0.00737   0.00000   0.03087   0.03087   2.48866
   X12        3.02976   0.00515   0.00000   0.00094   0.00094   3.03070
   Y12       -1.55422   0.00502   0.00000  -0.00218  -0.00218  -1.55639
   Z12       -0.66654   0.00744   0.00000  -0.00609  -0.00609  -0.67263
   X13        4.05612  -0.00111   0.00000   0.00443   0.00443   4.06056
   Y13        0.23719  -0.00238   0.00000  -0.00637  -0.00637   0.23082
   Z13       -0.39467  -0.00284   0.00000  -0.04536  -0.04536  -0.44003
   X14        6.29637   0.00889   0.00000   0.01484   0.01484   6.31122
   Y14       -4.43801  -0.00183   0.00000   0.01556   0.01556  -4.42246
   Z14       -0.78514   0.00141   0.00000  -0.00371  -0.00371  -0.78885
   X15        8.13304  -0.00322   0.00000  -0.00649  -0.00649   8.12655
   Y15       -3.60417   0.00303   0.00000   0.05164   0.05164  -3.55253
   Z15       -1.29916   0.00122   0.00000  -0.00206  -0.00206  -1.30121
   X16        4.36642   0.00216   0.00000   0.00400   0.00400   4.37041
   Y16       -3.24304  -0.00271   0.00000  -0.00808  -0.00808  -3.25112
   Z16       -2.23019  -0.00680   0.00000  -0.01443  -0.01443  -2.24462
   X17        0.61275  -0.00130   0.00000  -0.00850  -0.00850   0.60426
   Y17       -0.95857   0.00697   0.00000  -0.00789  -0.00789  -0.96647
   Z17       -1.68658  -0.00617   0.00000  -0.01334  -0.01334  -1.69992
   X18       -1.13362  -0.00879   0.00000  -0.01911  -0.01911  -1.15274
   Y18       -2.89602  -0.00337   0.00000   0.00169   0.00169  -2.89433
   Z18       -2.09009  -0.00347   0.00000  -0.00808  -0.00808  -2.09817
   X19       -0.54376  -0.00172   0.00000  -0.01785  -0.01785  -0.56160
   Y19       -4.76955   0.00681   0.00000   0.02510   0.02510  -4.74445
   Z19       -1.47350  -0.00144   0.00000  -0.00234  -0.00234  -1.47584
   X20       -3.35028   0.00447   0.00000  -0.00303  -0.00303  -3.35331
   Y20       -2.51830  -0.00542   0.00000  -0.00111  -0.00111  -2.51941
   Z20       -3.23743   0.00106   0.00000  -0.00459  -0.00459  -3.24202
   X21       -4.58808   0.00410   0.00000   0.00467   0.00467  -4.58341
   Y21       -4.14384   0.00642   0.00000   0.01922   0.01922  -4.12462
   Z21       -3.53319   0.00163   0.00000   0.01020   0.01020  -3.52299
   X22       -4.14550  -0.00654   0.00000  -0.00668  -0.00668  -4.15218
   Y22        0.02830   0.00191   0.00000  -0.00974  -0.00974   0.01857
   Z22       -4.22285   0.00320   0.00000  -0.00356  -0.00356  -4.22641
   X23       -4.86261   0.00079   0.00000   0.00394   0.00394  -4.85867
   Y23       -0.18563  -0.00082   0.00000  -0.01634  -0.01634  -0.20197
   Z23       -6.16107   0.00178   0.00000  -0.00039  -0.00039  -6.16146
   X24       -5.76000   0.00535   0.00000   0.00491   0.00491  -5.75510
   Y24        0.81834  -0.00509   0.00000  -0.03607  -0.03607   0.78227
   Z24       -3.13098  -0.00403   0.00000  -0.01425  -0.01425  -3.14524
   X25       -1.96985   0.00199   0.00000  -0.00122  -0.00122  -1.97107
   Y25        1.86520   0.00148   0.00000  -0.01638  -0.01638   1.84882
   Z25       -4.11777  -0.00150   0.00000  -0.00143  -0.00143  -4.11919
   X26        0.18801  -0.00185   0.00000  -0.01584  -0.01584   0.17216
   Y26        1.33832  -0.00381   0.00000  -0.02526  -0.02526   1.31306
   Z26       -2.88419  -0.00059   0.00000  -0.00189  -0.00189  -2.88609
   X27        1.71145  -0.00504   0.00000  -0.02945  -0.02945   1.68200
   Y27        2.73096  -0.00491   0.00000  -0.03540  -0.03540   2.69557
   Z27       -2.82010   0.00200   0.00000   0.02726   0.02726  -2.79283
   X28       -2.23175   0.01917   0.00000   0.03557   0.03557  -2.19618
   Y28        4.41432  -0.00342   0.00000  -0.01965  -0.01965   4.39467
   Z28       -5.28118   0.01610   0.00000   0.01406   0.01406  -5.26712
   X29       -0.88534  -0.00798   0.00000   0.01935   0.01935  -0.86599
   Y29        6.19649  -0.00485   0.00000  -0.01458  -0.01458   6.18191
   Z29       -4.66826  -0.00573   0.00000  -0.00704  -0.00704  -4.67530
   X30       -4.12053  -0.00903   0.00000   0.02871   0.02871  -4.09182
   Y30        4.68214   0.00226   0.00000   0.01256   0.01256   4.69471
   Z30       -7.00234  -0.01919   0.00000  -0.00038  -0.00038  -7.00271
   X31       -4.05524  -0.00146   0.00000   0.01580   0.01580  -4.03944
   Y31        6.35053  -0.00589   0.00000  -0.00384  -0.00384   6.34668
   Z31       -7.95384   0.00320   0.00000  -0.00123  -0.00123  -7.95507
   X32       -4.78960   0.00548   0.00000   0.02411   0.02411  -4.76549
   Y32        3.17578   0.00928   0.00000   0.02185   0.02185   3.19763
   Z32       -8.00964   0.01006   0.00000   0.04850   0.04850  -7.96114
   X33        0.98432  -0.00605   0.00000  -0.02382  -0.02382   0.96050
   Y33        3.99035  -0.01278   0.00000  -0.03032  -0.03032   3.96003
   Z33        7.01924  -0.00299   0.00000  -0.02652  -0.02652   6.99273
   X34       -2.04121  -0.00030   0.00000  -0.02098  -0.02098  -2.06219
   Y34        4.20918  -0.01219   0.00000   0.01109   0.01109   4.22027
   Z34        2.77241   0.00605   0.00000   0.02568   0.02568   2.79809
   X35       -3.42755  -0.00906   0.00000  -0.02534  -0.02534  -3.45289
   Y35        5.63441   0.00146   0.00000   0.01533   0.01533   5.64974
   Z35        0.81612  -0.00617   0.00000   0.03070   0.03070   0.84681
   X36       -7.31486  -0.00200   0.00000   0.01245   0.01245  -7.30240
   Y36        6.37620   0.00077   0.00000  -0.00877  -0.00877   6.36743
   Z36       -1.75584  -0.00336   0.00000  -0.00151  -0.00151  -1.75735
   X37       -5.70317   0.00835   0.00000  -0.00233  -0.00233  -5.70551
   Y37        4.87279   0.00084   0.00000   0.01777   0.01777   4.89056
   Z37        0.00845   0.00673   0.00000   0.02922   0.02922   0.03767
   X38       -2.17270   0.00113   0.00000  -0.00143  -0.00143  -2.17413
   Y38        1.93422   0.01132   0.00000   0.01440   0.01440   1.94862
   Z38        3.12007  -0.00508   0.00000  -0.02458  -0.02458   3.09549
   X39       -0.25601   0.00624   0.00000   0.03053   0.03053  -0.22549
   Y39        6.21698   0.00377   0.00000   0.00308   0.00308   6.22006
   Z39        4.74304   0.00279   0.00000  -0.00547  -0.00547   4.73757
   X40       -0.60413   0.00553   0.00000  -0.00170  -0.00170  -0.60583
   Y40        3.09291   0.00247   0.00000  -0.02382  -0.02382   3.06909
   Z40        8.00964  -0.00311   0.00000  -0.02779  -0.02779   7.98185
   X41        2.07727  -0.00213   0.00000   0.01244   0.01244   2.08971
   Y41        2.51927   0.00565   0.00000   0.00036   0.00036   2.51963
   Z41        6.04469   0.00460   0.00000   0.01227   0.01227   6.05696
   X42       -7.92565   0.00088   0.00000   0.02353   0.02353  -7.90212
   Y42        5.25318   0.00077   0.00000  -0.03372  -0.03372   5.21946
   Z42       -3.39117   0.00488   0.00000   0.02752   0.02752  -3.36365
   X43       -6.28097  -0.00242   0.00000   0.00861   0.00861  -6.27236
   Y43        8.01422  -0.00267   0.00000  -0.02008  -0.02008   7.99414
   Z43       -2.49028   0.00273   0.00000  -0.00073  -0.00073  -2.49101
   X44       -9.02816   0.00451   0.00000   0.01927   0.01927  -9.00889
   Y44        7.01980  -0.00104   0.00000   0.00442   0.00442   7.02422
   Z44       -0.76453  -0.00327   0.00000  -0.03210  -0.03210  -0.79663
   X45       -6.45859   0.00200   0.00000   0.00558   0.00558  -6.45301
   Y45        3.10119   0.00506   0.00000   0.02860   0.02860   3.12978
   Z45        0.76806  -0.00206   0.00000   0.01806   0.01806   0.78612
   X46       -2.57953  -0.00304   0.00000  -0.02579  -0.02579  -2.60532
   Y46        7.39117  -0.00539   0.00000  -0.00261  -0.00261   7.38856
   Z46        0.12873   0.00330   0.00000   0.03951   0.03951   0.16824
   X47        4.75682   0.00128   0.00000  -0.00824  -0.00824   4.74858
   Y47       -8.17639  -0.00454   0.00000  -0.02170  -0.02170  -8.19810
   Z47       -0.68396  -0.00099   0.00000  -0.01801  -0.01801  -0.70198
   X48        2.18147  -0.00190   0.00000  -0.04488  -0.04488   2.13659
   Y48        4.96213   0.00323   0.00000   0.02684   0.02684   4.98897
   Z48        8.38499  -0.00449   0.00000  -0.05532  -0.05532   8.32967
         Item               Value     Threshold  Converged?
 Maximum Force            0.026172     0.000450     NO 
 RMS     Force            0.006190     0.000300     NO 
 Maximum Displacement     0.107953     0.001800     NO 
 RMS     Displacement     0.025024     0.001200     NO 
 Predicted change in Energy=-5.988970D-03
 GradGradGradGradGradGradGradGradGradGradGradGradGradGradGradGradGradGrad

 Leave Link  103 at Sun Feb 19 04:04:02 2023, MaxMem=  2684354560 cpu:               1.4 elap:               0.1
 (Enter /storage/apps/GAUSSIAN/G16_RevA03/g16/l9999.exe)

 Test job not archived.
 1\1\GINC-T005\Force\RM062X\def2TZVP\C16H24N2O5S1\LV87696\19-Feb-2023\0
 \\#P M062X/Def2TZVP scf=(direct,conver=8) EmpiricalDispersion=GD3 NoSy
 mm Force pop=(NBORead) Charge Prop=(Field,Read)\\Gaussian run using SA
 NDER external interface, route from template gau_job.tpl\\0,1\C,3.4110
 912279,-3.8337274788,-0.7440109746\H,3.4694825817,-3.9618282722,-1.833
 4495697\H,4.3166614026,-4.2409423135,-0.271622037\C,1.5892417988,-1.55
 00307102,0.9899211305\H,0.9699213805,-2.4597727104,0.8711401978\O,1.11
 99578405,-0.7803530392,2.0561510535\H,0.5314671226,-0.088105578,1.7066
 639626\C,3.0462894047,-2.008759869,1.0770206514\H,3.1677623425,-2.8996
 964199,1.721008224\O,3.8351188212,-0.9491888448,1.5387694637\H,4.77749
 5523,-1.1336510833,1.3006086328\C,1.6032800492,-0.822455314,-0.3527175
 047\H,2.1464080983,0.1255160736,-0.2088483642\C,3.3318975271,-2.348495
 3371,-0.4154763205\H,4.3038217677,-1.9072449609,-0.6874850387\O,2.3106
 0891,-1.7161435531,-1.1801642434\N,0.324253872,-0.5072552061,-0.892499
 5721\C,-0.5998871107,-1.5325073152,-1.1060283144\H,-0.2877429122,-2.52
 39361569,-0.7797446559\C,-1.7728898745,-1.3326277194,-1.7131756651\H,-
 2.4279096637,-2.1928269393,-1.8696829375\C,-2.1937060277,0.0149778893,
 -2.2346377665\H,-2.573179839,-0.0982318899,-3.2602997653\H,-3.04806290
 52,0.433044587,-1.6568450984\C,-1.0424001653,0.9870200413,-2.179028296
 8\C,0.099490028,0.7082076764,-1.5262493989\H,0.9056611317,1.4451628772
 ,-1.4923317766\C,-1.1809902045,2.3359577701,-2.7946791555\O,-0.4685022
 167,3.2790399517,-2.4703360593\N,-2.180491618,2.4776823488,-3.70547737
 61\H,-2.1459417199,3.3605537318,-4.2089921993\H,-2.534547671,1.6805501
 786,-4.2385181274\C,0.5208816969,2.1116021877,3.7144236921\C,-1.080161
 3644,2.2274006498,1.4670937111\C,-1.8137826434,2.9816022892,0.43186965
 59\C,-3.8708554028,3.3741398072,-0.9291489534\C,-3.0179899093,2.578571
 5978,0.0044719781\O,-1.1497428656,1.0235458931,1.6510692796\S,-0.13547
 71869,3.2898861075,2.5099078381\H,-0.3196944648,1.6366983134,4.2385181
 274\H,1.0992415828,1.3331380135,3.198710144\H,-4.1940708551,2.77986366
 77,-1.7945312151\H,-3.3237453205,4.2409423135,-1.3178007016\H,-4.77749
 5523,3.7147203231,-0.4045720178\H,-3.4177375918,1.6410781488,0.4064400
 095\H,-1.3650275657,3.9112387808,0.0681186926\H,2.5172018052,-4.326761
 2787,-0.3619385048\H,1.1543851912,2.625843963,4.4371468197\\Version=ES
 64L-G16RevA.03\HF=-1507.907981\RMSD=9.433e-09\RMSF=6.190e-03\Dipole=-0
 .1728953,-0.9561318,-0.8338758\Quadrupole=10.4288798,-7.2746627,-3.154
 2171,-10.0140727,9.8798767,0.4083838\PG=C01 [X(C16H24N2O5S1)]\\@


 ... SUBJECTS WHICH DISCLOSE THEIR FULL POWER, MEANING AND BEAUTY AS SOON
 AS THEY ARE PRESENTED TO THE MIND HAVE VERY LITTLE OF THOSE QUALITIES
 TO DISCLOSE.
                           -- CHARLES DUTTON (1882)
 Job cpu time:       0 days  2 hours 55 minutes 31.1 seconds.
 Elapsed time:       0 days  0 hours 10 minutes 59.4 seconds.
 File lengths (MBytes):  RWF=    435 Int=      0 D2E=      0 Chk=     48 Scr=      1
 Normal termination of Gaussian 16 at Sun Feb 19 04:04:03 2023.
