 Entering Gaussian System, Link 0=g16
 Initial command:
 /storage/apps/GAUSSIAN/G16_RevA03/g16/l1.exe "/scratch/tmp/1267173/Gau-216951.inp" -scrdir="/scratch/tmp/1267173/"
 Entering Link 1 = /storage/apps/GAUSSIAN/G16_RevA03/g16/l1.exe PID=    216952.
  
 Copyright (c) 1988,1990,1992,1993,1995,1998,2003,2009,2016,
            Gaussian, Inc.  All Rights Reserved.
  
 This is part of the Gaussian(R) 16 program.  It is based on
 the Gaussian(R) 09 system (copyright 2009, Gaussian, Inc.),
 the Gaussian(R) 03 system (copyright 2003, Gaussian, Inc.),
 the Gaussian(R) 98 system (copyright 1998, Gaussian, Inc.),
 the Gaussian(R) 94 system (copyright 1995, Gaussian, Inc.),
 the Gaussian 92(TM) system (copyright 1992, Gaussian, Inc.),
 the Gaussian 90(TM) system (copyright 1990, Gaussian, Inc.),
 the Gaussian 88(TM) system (copyright 1988, Gaussian, Inc.),
 the Gaussian 86(TM) system (copyright 1986, Carnegie Mellon
 University), and the Gaussian 82(TM) system (copyright 1983,
 Carnegie Mellon University). Gaussian is a federally registered
 trademark of Gaussian, Inc.
  
 This software contains proprietary and confidential information,
 including trade secrets, belonging to Gaussian, Inc.
  
 This software is provided under written license and may be
 used, copied, transmitted, or stored only in accord with that
 written license.
  
 The following legend is applicable only to US Government
 contracts under FAR:
  
                    RESTRICTED RIGHTS LEGEND
  
 Use, reproduction and disclosure by the US Government is
 subject to restrictions as set forth in subparagraphs (a)
 and (c) of the Commercial Computer Software - Restricted
 Rights clause in FAR 52.227-19.
  
 Gaussian, Inc.
 340 Quinnipiac St., Bldg. 40, Wallingford CT 06492
  
  
 ---------------------------------------------------------------
 Warning -- This program may not be used in any manner that
 competes with the business of Gaussian, Inc. or will provide
 assistance to any competitor of Gaussian, Inc.  The licensee
 of this program is prohibited from giving any competitor of
 Gaussian, Inc. access to this program.  By using this program,
 the user acknowledges that Gaussian, Inc. is engaged in the
 business of creating and licensing software in the field of
 computational chemistry and represents and warrants to the
 licensee that it is not a competitor of Gaussian, Inc. and that
 it will not use this program in any manner prohibited above.
 ---------------------------------------------------------------
  

 Cite this work as:
 Gaussian 16, Revision A.03,
 M. J. Frisch, G. W. Trucks, H. B. Schlegel, G. E. Scuseria, 
 M. A. Robb, J. R. Cheeseman, G. Scalmani, V. Barone, 
 G. A. Petersson, H. Nakatsuji, X. Li, M. Caricato, A. V. Marenich, 
 J. Bloino, B. G. Janesko, R. Gomperts, B. Mennucci, H. P. Hratchian, 
 J. V. Ortiz, A. F. Izmaylov, J. L. Sonnenberg, D. Williams-Young, 
 F. Ding, F. Lipparini, F. Egidi, J. Goings, B. Peng, A. Petrone, 
 T. Henderson, D. Ranasinghe, V. G. Zakrzewski, J. Gao, N. Rega, 
 G. Zheng, W. Liang, M. Hada, M. Ehara, K. Toyota, R. Fukuda, 
 J. Hasegawa, M. Ishida, T. Nakajima, Y. Honda, O. Kitao, H. Nakai, 
 T. Vreven, K. Throssell, J. A. Montgomery, Jr., J. E. Peralta, 
 F. Ogliaro, M. J. Bearpark, J. J. Heyd, E. N. Brothers, K. N. Kudin, 
 V. N. Staroverov, T. A. Keith, R. Kobayashi, J. Normand, 
 K. Raghavachari, A. P. Rendell, J. C. Burant, S. S. Iyengar, 
 J. Tomasi, M. Cossi, J. M. Millam, M. Klene, C. Adamo, R. Cammi, 
 J. W. Ochterski, R. L. Martin, K. Morokuma, O. Farkas, 
 J. B. Foresman, and D. J. Fox, Gaussian, Inc., Wallingford CT, 2016.
 
 ******************************************
 Gaussian 16:  ES64L-G16RevA.03 25-Dec-2016
                19-Feb-2023 
 ******************************************
 %chk=gau_job.chk
 %NProcShared=16
 Will use up to   16 processors via shared memory.
 %mem=20GB
 ----------------------------------------------------------------------
 #P M062X/Def2TZVP scf=(direct,conver=8) EmpiricalDispersion=GD3 NoSymm
  Force pop=(NBORead) Charge Prop=(Field,Read)
 ----------------------------------------------------------------------
 1/10=7,18=10,28=-2,30=1,38=1,125=101/1,3;
 2/12=2,15=1,17=6,18=5,29=2,40=1/2;
 3/5=44,7=101,11=2,25=1,30=1,71=1,74=-55,124=31/1,2,3;
 4//1;
 5/5=2,6=8,38=5/2;
 6/7=2,8=2,9=2,10=2,14=2,15=1,28=1,40=2/1,2,7;
 7/7=1,16=-2,29=1,30=1/1,2,3,16;
 1/10=7,18=10,28=-2,30=1/3;
 99/12=1/99;
 Leave Link    1 at Sun Feb 19 04:38:09 2023, MaxMem=  2684354560 cpu:               0.7 elap:               0.0
 (Enter /storage/apps/GAUSSIAN/G16_RevA03/g16/l101.exe)
 ----------------------------------------------------------------------
 Gaussian run using SANDER external interface, route from template gau_
 job.tpl
 ----------------------------------------------------------------------
 Symbolic Z-matrix:
 Charge =  0 Multiplicity = 1
 C                     3.32115  -3.66196  -0.54028 
 H                     3.39393  -3.8109   -1.6265 
 H                     4.23554  -4.03918  -0.05798 
 C                     1.46716  -1.33816   1.18758 
 H                     0.86449  -2.25856   1.03408 
 O                     1.01527  -0.59839   2.25675 
 H                     0.27833   0.04221   2.0166 
 C                     2.92946  -1.81425   1.25991 
 H                     3.03623  -2.69552   1.91843 
 O                     3.72847  -0.75526   1.69736 
 H                     4.67013  -0.94527   1.45681 
 C                     1.5329   -0.62628  -0.15924 
 H                     2.09022   0.31335  -0.03729 
 C                     3.214    -2.17739  -0.22532 
 H                     4.17036  -1.7183   -0.51825 
 O                     2.16754  -1.54746  -0.98844 
 N                     0.24541  -0.27867  -0.77596 
 C                    -0.71296  -1.23752  -0.85574 
 H                    -0.49813  -2.18109  -0.36212 
 C                    -1.88748  -1.00006  -1.5165 
 H                    -2.6542   -1.77181  -1.517 
 C                    -2.06963   0.23339  -2.16036 
 H                    -2.98255   0.4364   -2.72182 
 H                    -2.97691   1.30563  -0.46909 
 C                    -1.05624   1.18567  -2.11042 
 C                     0.09374   0.91747  -1.37768 
 H                     0.91176   1.64165  -1.32769 
 C                    -1.12324   2.51084  -2.83153 
 O                    -0.3865    3.41733  -2.50201 
 N                    -2.03333   2.59952  -3.82679 
 H                    -1.85343   3.39917  -4.43976 
 H                    -2.37594   1.75776  -4.30281 
 C                     0.50355   2.20271   3.88895 
 C                    -1.12124   2.17265   1.59124 
 C                    -1.85345   2.80985   0.61842 
 C                    -3.84231   3.26622  -0.85582 
 C                    -3.13033   2.25651   0.06056 
 O                    -1.11773   0.93262   1.89338 
 S                    -0.16378   3.31827   2.63512 
 H                    -0.32844   1.73949   4.43976 
 H                     1.08771   1.40566   3.41251 
 H                    -4.26802   2.79979  -1.75409 
 H                    -3.15393   4.03918  -1.23489 
 H                    -4.67013   3.78399  -0.34304 
 H                    -3.79904   1.98881   0.89887 
 H                    -1.62202   3.86428   0.43584 
 H                     2.44116  -4.17345  -0.15029 
 H                     1.13472   2.75395   4.58599 
 
 ITRead=  0  0  0  0  0  0  0  0  0  0  0  0  0  0  0  0  0  0  0  0
 ITRead=  0  0  0  0  0  0  0  0  0  0  0  0  0  0  0  0  0  0  0  0
 ITRead=  0  0  0  0  0  0  0  0
 MicOpt= -1 -1 -1 -1 -1 -1 -1 -1 -1 -1 -1 -1 -1 -1 -1 -1 -1 -1 -1 -1
 MicOpt= -1 -1 -1 -1 -1 -1 -1 -1 -1 -1 -1 -1 -1 -1 -1 -1 -1 -1 -1 -1
 MicOpt= -1 -1 -1 -1 -1 -1 -1 -1
 NAtoms=     48 NQM=       48 NQMF=       0 NMMI=      0 NMMIF=      0
                NMic=       0 NMicF=      0.
                    Isotopes and Nuclear Properties:
 (Nuclear quadrupole moments (NQMom) in fm**2, nuclear magnetic moments (NMagM)
  in nuclear magnetons)

  Atom         1           2           3           4           5           6           7           8           9          10
 IAtWgt=          12           1           1          12           1          16           1          12           1          16
 AtmWgt=  12.0000000   1.0078250   1.0078250  12.0000000   1.0078250  15.9949146   1.0078250  12.0000000   1.0078250  15.9949146
 NucSpn=           0           1           1           0           1           0           1           0           1           0
 AtZEff=  -0.0000000  -0.0000000  -0.0000000  -0.0000000  -0.0000000  -0.0000000  -0.0000000  -0.0000000  -0.0000000  -0.0000000
 NQMom=    0.0000000   0.0000000   0.0000000   0.0000000   0.0000000   0.0000000   0.0000000   0.0000000   0.0000000   0.0000000
 NMagM=    0.0000000   2.7928460   2.7928460   0.0000000   2.7928460   0.0000000   2.7928460   0.0000000   2.7928460   0.0000000
 AtZNuc=   6.0000000   1.0000000   1.0000000   6.0000000   1.0000000   8.0000000   1.0000000   6.0000000   1.0000000   8.0000000

  Atom        11          12          13          14          15          16          17          18          19          20
 IAtWgt=           1          12           1          12           1          16          14          12           1          12
 AtmWgt=   1.0078250  12.0000000   1.0078250  12.0000000   1.0078250  15.9949146  14.0030740  12.0000000   1.0078250  12.0000000
 NucSpn=           1           0           1           0           1           0           2           0           1           0
 AtZEff=  -0.0000000  -0.0000000  -0.0000000  -0.0000000  -0.0000000  -0.0000000  -0.0000000  -0.0000000  -0.0000000  -0.0000000
 NQMom=    0.0000000   0.0000000   0.0000000   0.0000000   0.0000000   0.0000000   2.0440000   0.0000000   0.0000000   0.0000000
 NMagM=    2.7928460   0.0000000   2.7928460   0.0000000   2.7928460   0.0000000   0.4037610   0.0000000   2.7928460   0.0000000
 AtZNuc=   1.0000000   6.0000000   1.0000000   6.0000000   1.0000000   8.0000000   7.0000000   6.0000000   1.0000000   6.0000000

  Atom        21          22          23          24          25          26          27          28          29          30
 IAtWgt=           1          12           1           1          12          12           1          12          16          14
 AtmWgt=   1.0078250  12.0000000   1.0078250   1.0078250  12.0000000  12.0000000   1.0078250  12.0000000  15.9949146  14.0030740
 NucSpn=           1           0           1           1           0           0           1           0           0           2
 AtZEff=  -0.0000000  -0.0000000  -0.0000000  -0.0000000  -0.0000000  -0.0000000  -0.0000000  -0.0000000  -0.0000000  -0.0000000
 NQMom=    0.0000000   0.0000000   0.0000000   0.0000000   0.0000000   0.0000000   0.0000000   0.0000000   0.0000000   2.0440000
 NMagM=    2.7928460   0.0000000   2.7928460   2.7928460   0.0000000   0.0000000   2.7928460   0.0000000   0.0000000   0.4037610
 AtZNuc=   1.0000000   6.0000000   1.0000000   1.0000000   6.0000000   6.0000000   1.0000000   6.0000000   8.0000000   7.0000000

  Atom        31          32          33          34          35          36          37          38          39          40
 IAtWgt=           1           1          12          12          12          12          12          16          32           1
 AtmWgt=   1.0078250   1.0078250  12.0000000  12.0000000  12.0000000  12.0000000  12.0000000  15.9949146  31.9720718   1.0078250
 NucSpn=           1           1           0           0           0           0           0           0           0           1
 AtZEff=  -0.0000000  -0.0000000  -0.0000000  -0.0000000  -0.0000000  -0.0000000  -0.0000000  -0.0000000  -0.0000000  -0.0000000
 NQMom=    0.0000000   0.0000000   0.0000000   0.0000000   0.0000000   0.0000000   0.0000000   0.0000000   0.0000000   0.0000000
 NMagM=    2.7928460   2.7928460   0.0000000   0.0000000   0.0000000   0.0000000   0.0000000   0.0000000   0.0000000   2.7928460
 AtZNuc=   1.0000000   1.0000000   6.0000000   6.0000000   6.0000000   6.0000000   6.0000000   8.0000000  16.0000000   1.0000000

  Atom        41          42          43          44          45          46          47          48
 IAtWgt=           1           1           1           1           1           1           1           1
 AtmWgt=   1.0078250   1.0078250   1.0078250   1.0078250   1.0078250   1.0078250   1.0078250   1.0078250
 NucSpn=           1           1           1           1           1           1           1           1
 AtZEff=  -0.0000000  -0.0000000  -0.0000000  -0.0000000  -0.0000000  -0.0000000  -0.0000000  -0.0000000
 NQMom=    0.0000000   0.0000000   0.0000000   0.0000000   0.0000000   0.0000000   0.0000000   0.0000000
 NMagM=    2.7928460   2.7928460   2.7928460   2.7928460   2.7928460   2.7928460   2.7928460   2.7928460
 AtZNuc=   1.0000000   1.0000000   1.0000000   1.0000000   1.0000000   1.0000000   1.0000000   1.0000000
 Background charge distribution read from input stream:
 Leave Link  101 at Sun Feb 19 04:38:09 2023, MaxMem=  2684354560 cpu:               1.5 elap:               0.1
 (Enter /storage/apps/GAUSSIAN/G16_RevA03/g16/l103.exe)

 GradGradGradGradGradGradGradGradGradGradGradGradGradGradGradGradGradGrad
 Berny optimization.
 Initialization pass.
 Trust Radius=3.00D-01 FncErr=1.00D-07 GrdErr=1.00D-07 EigMax=2.50D+02 EigMin=1.00D-04
 Number of steps in this run=      2 maximum allowed number of steps=      2.
 GradGradGradGradGradGradGradGradGradGradGradGradGradGradGradGradGradGrad

 Leave Link  103 at Sun Feb 19 04:38:09 2023, MaxMem=  2684354560 cpu:               0.3 elap:               0.0
 (Enter /storage/apps/GAUSSIAN/G16_RevA03/g16/l202.exe)
 ---------------------------------------------------------------------------------------------------
                            Z-MATRIX (ANGSTROMS AND DEGREES)
   CD    Cent   Atom    N1       Length/X        N2       Alpha/Y        N3        Beta/Z          J
 ---------------------------------------------------------------------------------------------------
      1      1  C        0   3.321150         -3.661958         -0.540282
      2      2  H        0   3.393930         -3.810902         -1.626502
      3      3  H        0   4.235536         -4.039176         -0.057985
      4      4  C        0   1.467165         -1.338162          1.187577
      5      5  H        0   0.864487         -2.258555          1.034076
      6      6  O        0   1.015275         -0.598387          2.256749
      7      7  H        0   0.278330          0.042207          2.016604
      8      8  C        0   2.929464         -1.814247          1.259909
      9      9  H        0   3.036231         -2.695518          1.918430
     10     10  O        0   3.728467         -0.755264          1.697360
     11     11  H        0   4.670130         -0.945275          1.456810
     12     12  C        0   1.532899         -0.626283         -0.159244
     13     13  H        0   2.090215          0.313346         -0.037290
     14     14  C        0   3.213997         -2.177394         -0.225323
     15     15  H        0   4.170355         -1.718301         -0.518250
     16     16  O        0   2.167537         -1.547459         -0.988442
     17     17  N        0   0.245406         -0.278670         -0.775958
     18     18  C        0  -0.712960         -1.237523         -0.855742
     19     19  H        0  -0.498132         -2.181093         -0.362119
     20     20  C        0  -1.887482         -1.000060         -1.516504
     21     21  H        0  -2.654203         -1.771814         -1.516999
     22     22  C        0  -2.069629          0.233389         -2.160361
     23     23  H        0  -2.982549          0.436398         -2.721825
     24     24  H        0  -2.976909          1.305633         -0.469085
     25     25  C        0  -1.056239          1.185670         -2.110423
     26     26  C        0   0.093736          0.917467         -1.377676
     27     27  H        0   0.911760          1.641649         -1.327691
     28     28  C        0  -1.123241          2.510841         -2.831534
     29     29  O        0  -0.386504          3.417333         -2.502009
     30     30  N        0  -2.033333          2.599515         -3.826789
     31     31  H        0  -1.853432          3.399172         -4.439757
     32     32  H        0  -2.375935          1.757763         -4.302808
     33     33  C        0   0.503550          2.202714          3.888950
     34     34  C        0  -1.121243          2.172648          1.591238
     35     35  C        0  -1.853451          2.809855          0.618417
     36     36  C        0  -3.842310          3.266221         -0.855822
     37     37  C        0  -3.130333          2.256512          0.060564
     38     38  O        0  -1.117726          0.932617          1.893383
     39     39  S        0  -0.163785          3.318269          2.635117
     40     40  H        0  -0.328437          1.739494          4.439757
     41     41  H        0   1.087706          1.405661          3.412505
     42     42  H        0  -4.268018          2.799790         -1.754093
     43     43  H        0  -3.153929          4.039176         -1.234893
     44     44  H        0  -4.670130          3.783986         -0.343042
     45     45  H        0  -3.799040          1.988812          0.898866
     46     46  H        0  -1.622016          3.864282          0.435839
     47     47  H        0   2.441155         -4.173445         -0.150294
     48     48  H        0   1.134722          2.753947          4.585990
 ---------------------------------------------------------------------------------------------------
                         Z-Matrix orientation:                         
 ---------------------------------------------------------------------
 Center     Atomic      Atomic             Coordinates (Angstroms)
 Number     Number       Type             X           Y           Z
 ---------------------------------------------------------------------
      1          6           0        3.321150   -3.661958   -0.540282
      2          1           0        3.393930   -3.810902   -1.626502
      3          1           0        4.235536   -4.039176   -0.057985
      4          6           0        1.467165   -1.338162    1.187577
      5          1           0        0.864487   -2.258555    1.034076
      6          8           0        1.015275   -0.598387    2.256749
      7          1           0        0.278330    0.042207    2.016604
      8          6           0        2.929464   -1.814247    1.259909
      9          1           0        3.036231   -2.695518    1.918430
     10          8           0        3.728467   -0.755264    1.697360
     11          1           0        4.670130   -0.945275    1.456810
     12          6           0        1.532899   -0.626283   -0.159244
     13          1           0        2.090215    0.313346   -0.037290
     14          6           0        3.213997   -2.177394   -0.225323
     15          1           0        4.170355   -1.718301   -0.518250
     16          8           0        2.167537   -1.547459   -0.988442
     17          7           0        0.245406   -0.278670   -0.775958
     18          6           0       -0.712960   -1.237523   -0.855742
     19          1           0       -0.498132   -2.181093   -0.362119
     20          6           0       -1.887482   -1.000060   -1.516504
     21          1           0       -2.654203   -1.771814   -1.516999
     22          6           0       -2.069629    0.233389   -2.160361
     23          1           0       -2.982549    0.436398   -2.721825
     24          1           0       -2.976909    1.305633   -0.469085
     25          6           0       -1.056239    1.185670   -2.110423
     26          6           0        0.093736    0.917467   -1.377676
     27          1           0        0.911760    1.641649   -1.327691
     28          6           0       -1.123241    2.510841   -2.831534
     29          8           0       -0.386504    3.417333   -2.502009
     30          7           0       -2.033333    2.599515   -3.826789
     31          1           0       -1.853432    3.399172   -4.439757
     32          1           0       -2.375935    1.757763   -4.302808
     33          6           0        0.503550    2.202714    3.888950
     34          6           0       -1.121243    2.172648    1.591238
     35          6           0       -1.853451    2.809855    0.618417
     36          6           0       -3.842310    3.266221   -0.855822
     37          6           0       -3.130333    2.256512    0.060564
     38          8           0       -1.117726    0.932617    1.893383
     39         16           0       -0.163785    3.318269    2.635117
     40          1           0       -0.328437    1.739494    4.439757
     41          1           0        1.087706    1.405661    3.412505
     42          1           0       -4.268018    2.799790   -1.754093
     43          1           0       -3.153929    4.039176   -1.234893
     44          1           0       -4.670130    3.783986   -0.343042
     45          1           0       -3.799040    1.988812    0.898866
     46          1           0       -1.622016    3.864282    0.435839
     47          1           0        2.441155   -4.173445   -0.150294
     48          1           0        1.134722    2.753947    4.585990
 ---------------------------------------------------------------------
                    Distance matrix (angstroms):
                    1          2          3          4          5
     1  C    0.000000
     2  H    1.098797   0.000000
     3  H    1.100457   1.794618   0.000000
     4  C    3.438427   4.212590   4.063346   0.000000
     5  H    3.237798   3.985792   3.965751   1.110814   0.000000
     6  O    4.746146   5.572961   5.250439   1.376445   2.067323
     7  H    5.432978   6.150255   6.051536   2.001507   2.569523
     8  C    2.609241   3.540301   2.897064   1.539548   2.124274
     9  H    2.657150   3.733440   2.673942   2.199666   2.385266
    10  O    3.690774   4.527350   3.757983   2.390217   3.301850
    11  H    3.631596   4.398559   3.472132   3.238184   4.048003
    12  C    3.543777   3.969645   4.354577   1.524801   2.129577
    13  H    4.191807   4.608112   4.852554   2.148481   3.043832
    14  C    1.521384   2.159636   2.130206   2.398337   2.666996
    15  H    2.121188   2.491995   2.366972   3.218943   3.691931
    16  O    2.450056   2.652232   3.369128   2.295514   2.508819
    17  N    4.578468   4.807628   5.529740   2.543755   2.753076
    18  C    4.717143   4.907432   5.742237   2.989686   2.665005
    19  H    4.100197   4.404894   5.094368   2.640925   1.952458
    20  C    5.930308   5.983832   6.989624   4.322039   3.957600
    21  H    6.342827   6.383555   7.398523   4.948581   4.373336
    22  C    6.845354   6.818488   7.901259   5.117360   5.002324
    23  H    7.828937   7.739430   8.900986   6.183238   6.014087
    24  H    8.021694   8.252644   8.986398   5.429915   5.451537
    25  C    6.717616   6.708496   7.714558   4.859434   5.043783
    26  C    5.664676   5.771539   6.592753   3.681669   4.061738
    27  H    5.878215   5.998397   6.703090   3.938822   4.559799
    28  C    7.943922   7.862657   8.905717   6.138263   6.452994
    29  O    8.228695   8.203997   9.106922   6.297925   6.803277
    30  N    8.870043   8.682736   9.877997   7.273421   7.458298
    31  H    9.583410   9.350635  10.564302   8.070662   8.328253
    32  H    8.717038   8.453638   9.763943   7.382310   7.423845
    33  C    7.870917   8.656679   8.274491   4.556728   5.308814
    34  C    7.636809   8.157420   8.366706   4.380477   4.887649
    35  C    8.366805   8.741229   9.189260   5.343826   5.766172
    36  C    9.970676  10.151000  10.920484   7.318904   7.499920
    37  C    8.775587   9.067840   9.690499   5.943806   6.106729
    38  O    6.836406   7.432738   7.562008   3.512301   3.853719
    39  S    8.423271   9.035697   8.985478   5.141762   5.892507
    40  H    8.203411   9.025653   8.628590   4.824192   5.385734
    41  H    6.803937   7.610703   7.183271   3.552866   4.374155
    42  H   10.041065  10.120424  11.043490   7.659529   7.726794
    43  H   10.085464  10.229934  11.011316   7.492572   7.807516
    44  H   10.924355  11.151621  11.857234   8.139139   8.309075
    45  H    9.203230   9.578778  10.089927   6.235786   6.309270
    46  H    9.057151   9.397948   9.849844   6.097013   6.635489
    47  H    1.090000   1.793992   1.801763   3.282894   2.748713
    48  H    8.498409   9.316454   8.793638   5.329642   6.149333
                    6          7          8          9         10
     6  O    0.000000
     7  H    1.005544   0.000000
     8  C    2.477120   3.323781   0.000000
     9  H    2.932010   3.887261   1.105301   0.000000
    10  O    2.774696   3.555464   1.396859   2.071871   0.000000
    11  H    3.757419   4.536122   1.955455   2.438457   0.990302
    12  C    2.470978   2.599064   2.318544   3.295219   2.878217
    13  H    2.692465   2.752258   2.629394   3.711206   2.614346
    14  C    3.672645   4.309409   1.555232   2.212630   2.446189
    15  H    4.348489   4.967166   2.170453   2.859826   2.455938
    16  O    3.572074   3.889273   2.388889   3.243852   3.205871
    17  N    3.145191   2.811129   3.702285   4.570512   4.298390
    18  C    3.617028   3.297080   4.251569   4.886534   5.145598
    19  H    3.413771   3.347280   3.809720   4.237601   4.913103
    20  C    4.777529   4.273162   5.619104   6.238293   6.475163
    21  H    5.392881   4.937283   6.236212   6.710919   7.218306
    22  C    5.451545   4.795466   6.393902   7.161343   7.034014
    23  H    6.468351   5.765537   7.474724   8.219889   8.123237
    24  H    5.195479   4.286196   6.899878   7.607056   7.341856
    25  C    5.152302   4.485636   6.020337   6.931348   6.415594
    26  C    4.044266   3.510169   4.739247   5.707560   5.046299
    27  H    4.228083   3.760818   4.765502   5.819080   4.778071
    28  C    6.334917   5.618095   7.202132   8.183492   7.397120
    29  O    6.382536   5.679026   7.246868   8.283861   7.209594
    30  N    7.518645   6.784456   8.365712   9.313721   8.658470
    31  H    8.309822   7.582757   9.085263  10.073757   9.277992
    32  H    7.751099   7.065637   8.476457   9.371609   8.920821
    33  C    3.282089   2.867786   5.378930   5.855775   4.894159
    34  C    3.561776   2.584283   5.693271   6.410202   5.666006
    35  C    4.746560   3.762883   6.683570   7.477176   6.710589
    36  C    6.944021   5.968649   8.726075   9.515941   8.944705
    37  C    5.491788   4.510900   7.398016   8.124086   7.667662
    38  O    2.650603   1.660417   4.932169   5.515373   5.135460
    39  S    4.107741   3.363124   6.148341   6.849772   5.711627
    40  H    3.469405   3.020036   5.775329   6.111253   5.495729
    41  H    2.314568   2.112496   4.288770   4.780029   3.819023
    42  H    7.453029   6.518565   9.065168   9.850781   9.407162
    43  H    7.147084   6.190993   8.803082   9.675621   8.885501
    44  H    7.634653   6.637476   9.574105  10.319216   9.762400
    45  H    5.631614   4.654413   7.737336   8.348856   8.051765
    46  H    5.494218   4.551746   7.323985   8.180973   7.180481
    47  H    4.539608   5.210085   2.791583   2.611131   4.093282
    48  H    4.083843   3.832582   5.928938   6.358324   5.233188
                   11         12         13         14         15
    11  H    0.000000
    12  C    3.543389   0.000000
    13  H    3.236112   1.099263   0.000000
    14  C    2.543229   2.288319   2.738983   0.000000
    15  H    2.179038   2.877076   2.947184   1.100543   0.000000
    16  O    3.550332   1.392445   2.091236   1.440225   2.064352
    17  N    5.000779   1.469288   2.073508   3.566634   4.188576
    18  C    5.866086   2.429528   3.306486   4.086780   4.918517
    19  H    5.616644   2.565868   3.609333   3.714650   4.693967
    20  C    7.200408   3.698766   4.442430   5.392434   6.181405
    21  H    7.948117   4.548358   5.389521   6.022349   6.897460
    22  C    7.739349   4.209716   4.670988   6.121515   6.741144
    23  H    8.827995   5.299564   5.740628   7.173674   7.788613
    24  H    8.200785   4.915960   5.181393   7.107617   7.760798
    25  C    7.075124   3.714015   3.867687   5.753148   6.187515
    26  C    5.696270   2.436991   2.479420   4.543358   4.929980
    27  H    5.345181   2.625756   2.195058   4.593539   4.750042
    28  C    7.993608   4.902832   4.791981   6.898081   7.159545
    29  O    7.763642   5.052077   4.673726   7.031918   7.146677
    30  N    9.242206   6.047700   6.049010   7.957631   8.250801
    31  H    9.808189   6.781911   6.667562   8.633561   8.823420
    32  H    9.493506   6.175094   6.342514   7.959817   8.322248
    33  C    5.760688   5.044864   4.637087   6.592352   6.945735
    34  C    6.578717   4.235879   4.052477   6.404456   6.898582
    35  C    7.573705   4.886631   4.713280   7.159859   7.621184
    36  C    9.774794   6.673056   6.677149   8.934313   9.442575
    37  C    8.546822   5.486761   5.571319   7.745436   8.332719
    38  O    6.100520   3.697195   3.794980   5.738022   6.388046
    39  S    6.552324   5.123151   4.609971   7.056475   7.354966
    40  H    6.410275   5.496570   5.284669   7.046547   7.535072
    41  H    4.710138   4.133326   3.754898   5.531111   5.891748
    42  H   10.209108   6.923305   7.039669   9.115374   9.651248
    43  H    9.659499   6.699991   6.543478   8.956308   9.343835
    44  H   10.622892   7.613266   7.605333   9.884906  10.414415
    45  H    8.980368   6.032238   6.194102   8.234304   8.902930
    46  H    7.985319   5.520216   5.158843   7.766982   8.101055
    47  H    4.239363   3.661608   4.501914   2.141760   3.025435
    48  H    5.997926   5.839669   5.314528   7.196543   7.434335
                   16         17         18         19         20
    16  O    0.000000
    17  N    2.312912   0.000000
    18  C    2.900160   1.358024   0.000000
    19  H    2.810616   2.084065   1.086342   0.000000
    20  C    4.125733   2.370237   1.368392   2.158179   0.000000
    21  H    4.855809   3.344601   2.119234   2.479898   1.087872
    22  C    4.743247   2.745572   2.388758   3.396027   1.403255
    23  H    5.784781   3.836328   3.381614   4.311820   2.171493
    24  H    5.905522   3.603818   3.426750   4.279373   2.756839
    25  C    4.372821   2.370521   2.750260   3.834468   2.412700
    26  C    3.244690   1.347520   2.359482   3.314021   2.760690
    27  H    3.444195   2.106196   3.339473   4.187300   3.853574
    28  C    5.540398   3.725582   4.257032   5.338822   3.826199
    29  O    5.784736   4.127832   4.948177   5.994494   4.768387
    30  N    6.549880   4.773277   5.029251   6.100409   4.279677
    31  H    7.249063   5.599559   5.970325   7.042962   5.282027
    32  H    6.523240   4.843260   4.859989   5.879605   3.950654
    33  C    6.373508   5.290111   5.985586   6.188112   6.722629
    34  C    5.595536   3.671554   4.217069   4.812373   4.506801
    35  C    6.143006   3.986034   4.455910   5.263830   4.367436
    36  C    7.701128   5.411290   5.484209   6.410967   4.739094
    37  C    6.605909   4.303782   4.346446   5.176822   3.825845
    38  O    5.024803   3.232758   3.525767   3.894403   3.994383
    39  S    6.499273   4.974017   5.765669   6.272017   6.233383
    40  H    6.819039   5.621918   6.087101   6.201437   6.738904
    41  H    5.408816   4.592349   5.333550   5.443113   6.239742
    42  H    7.803920   5.550195   5.453932   6.399908   4.490241
    43  H    7.719406   5.514517   5.826289   6.819585   5.203566
    44  H    8.694512   6.391799   6.413861   7.279292   5.657494
    45  H    7.187989   4.929915   4.797060   5.465728   4.292019
    46  H    6.758420   4.703167   5.340692   6.200518   5.248233
    47  H    2.770047   4.514648   4.366433   3.557211   5.538412
    48  H    7.116396   6.223997   6.997014   7.176672   7.776035
                   21         22         23         24         25
    21  H    0.000000
    22  C    2.185517   0.000000
    23  H    2.536852   1.090815   0.000000
    24  H    3.266947   2.198471   2.414630   0.000000
    25  C    3.413555   1.391508   2.155433   2.529299   0.000000
    26  C    3.847442   2.400147   3.391415   3.225689   1.389710
    27  H    4.940006   3.400766   4.308350   3.996481   2.166472
    28  C    4.734236   2.555956   2.787898   3.235703   1.510155
    29  O    5.748039   3.617614   3.959008   3.911810   2.362669
    30  N    4.982884   2.894280   2.607879   3.720032   2.428906
    31  H    5.993567   3.906990   3.606137   4.627239   3.310725
    32  H    4.505118   2.647191   2.147905   3.906792   2.622107
    33  C    7.415697   6.862481   7.679525   5.648967   6.281703
    34  C    5.250703   4.328354   5.008146   2.905192   3.831532
    35  C    5.117899   3.795591   4.250338   2.169678   3.274154
    36  C    5.218290   3.747304   3.497007   2.177703   3.696608
    37  C    4.352335   3.186005   3.328115   1.099199   3.187751
    38  O    4.615778   4.222307   5.002393   3.029350   4.012265
    39  S    7.025040   6.012099   6.704285   4.647628   5.278693
    40  H    7.295300   6.990111   7.747943   5.594584   6.613718
    41  H    6.956884   6.511514   7.425392   5.621196   5.928543
    42  H    4.853883   3.403584   2.859119   2.355995   3.612185
    43  H    5.839257   4.064014   3.901327   2.844302   3.648198
    44  H    6.025700   4.761511   4.439920   3.004183   4.789060
    45  H    4.614040   3.928262   4.023189   1.736066   4.150158
    46  H    6.053476   4.485978   4.855130   3.033366   3.738785
    47  H    5.796412   6.618741   7.568355   7.712156   6.692831
    48  H    8.490285   7.882533   8.702133   6.675097   7.218154
                   26         27         28         29         30
    26  C    0.000000
    27  H    1.093664   0.000000
    28  C    2.476607   2.675494   0.000000
    29  O    2.782820   2.493505   1.213711   0.000000
    30  N    3.654021   3.979519   1.351541   2.266256   0.000000
    31  H    4.396210   4.518863   1.977041   2.430447   1.023496
    32  H    3.919410   4.435510   2.073890   3.155137   1.025923
    33  C    5.436649   5.262583   6.921437   6.565962   8.131781
    34  C    3.444721   3.596555   4.435683   4.340939   5.510820
    35  C    3.370023   3.577490   3.539036   3.501146   4.453813
    36  C    4.613181   5.046095   3.444905   3.830844   3.541686
    37  C    3.775738   4.317850   3.529495   3.929744   4.053711
    38  O    3.488222   3.872577   4.981532   5.101761   6.028039
    39  S    4.683233   4.435279   5.608633   5.142906   6.765208
    40  H    5.890372   5.900095   7.355158   7.141893   8.484226
    41  H    4.916517   4.749327   6.715484   6.418847   7.973303
    42  H    4.765473   5.324773   3.336764   4.000861   3.054504
    43  H    4.506971   4.720866   3.001460   3.106592   3.169587
    44  H    5.655247   6.059426   4.515962   4.810928   4.526827
    45  H    4.635098   5.222041   4.620422   5.025140   5.081584
    46  H    3.862171   3.803966   3.571597   3.218262   4.465290
    47  H    5.738835   6.127041   8.035774   8.434817   8.911266
    48  H    6.326264   6.021507   7.757394   7.279694   8.990844
                   31         32         33         34         35
    31  H    0.000000
    32  H    1.728001   0.000000
    33  C    8.738091   8.694500   0.000000
    34  C    6.197851   6.040377   2.814310   0.000000
    35  C    5.092388   5.059480   4.076821   1.374242   0.000000
    36  C    4.100963   4.038244   6.521535   3.819452   2.517382
    37  C    4.815500   4.456107   5.278687   2.527140   1.499271
    38  O    6.836213   6.376264   2.867747   1.276315   2.385551
    39  S    7.274290   7.447388   1.806072   1.821773   2.679652
    40  H    9.161108   8.979144   1.100074   2.988348   4.251351
    41  H    8.618723   8.464446   1.097056   2.963906   4.292912
    42  H    3.660912   3.340920   7.414061   4.635378   3.385119
    43  H    3.517392   3.901567   6.557707   3.950032   2.576282
    44  H    4.986477   5.004864   6.868562   4.351143   3.131615
    45  H    5.854520   5.397780   5.243915   2.771962   2.130277
    46  H    4.903195   5.240286   4.382102   2.108873   1.094858
    47  H    9.705025   8.696377   7.792639   7.483082   8.234139
    48  H    9.529401   9.608737   1.090000   3.794184   4.967288
                   36         37         38         39         40
    36  C    0.000000
    37  C    1.538242   0.000000
    38  O    4.519646   3.026964   0.000000
    39  S    5.071579   4.068913   2.674231   0.000000
    40  H    6.536158   5.224486   2.785327   2.403407   0.000000
    41  H    6.781251   5.454476   2.719455   2.414256   1.781054
    42  H    1.098032   2.209629   5.168632   6.031476   7.416758
    43  H    1.102281   2.203783   4.856228   4.943445   6.743411
    44  H    1.102865   2.206139   5.074591   5.421574   6.775353
    45  H    2.170847   1.105252   3.048616   4.242300   4.964389
    46  H    2.637380   2.236242   3.312613   2.694697   4.713749
    47  H    9.763624   8.510599   6.550887   8.406546   7.981357
    48  H    7.392334   6.238398   3.954858   2.410495   1.786430
                   41         42         43         44         45
    41  H    0.000000
    42  H    7.571070   0.000000
    43  H    6.820937   1.745520   0.000000
    44  H    7.274149   1.766749   1.777467   0.000000
    45  H    5.526187   2.813506   3.028711   2.350273   0.000000
    46  H    4.716773   3.595869   2.273476   3.147078   2.910536
    47  H    6.756611   9.808730   9.996423  10.673718   8.832565
    48  H    1.788058   8.329967   7.343502   7.684572   6.206636
                   46         47         48
    46  H    0.000000
    47  H    9.025408   0.000000
    48  H    5.104528   8.492816   0.000000
 Symmetry turned off by external request.
 Stoichiometry    C16H24N2O5S
 Framework group  C1[X(C16H24N2O5S)]
 Deg. of freedom   138
 Full point group                 C1      NOp   1
 Rotational constants (GHZ):           0.2829564           0.1698553           0.1252539
 Leave Link  202 at Sun Feb 19 04:38:09 2023, MaxMem=  2684354560 cpu:               0.2 elap:               0.0
 (Enter /storage/apps/GAUSSIAN/G16_RevA03/g16/l301.exe)
 Standard basis: def2TZVP (5D, 7F)
 Ernie: Thresh=  0.10000D-02 Tol=  0.10000D-05 Strict=F.
   894 basis functions,  1434 primitive gaussians,  1014 cartesian basis functions
    95 alpha electrons       95 beta electrons
       nuclear repulsion energy      2433.8504651513 Hartrees.
 IExCor= 4336 DFT=T Ex+Corr=M062X ExCW=0 ScaHFX=  0.540000
 ScaDFX=  1.000000  1.000000  1.000000  1.000000 ScalE2=  1.000000  1.000000
 IRadAn=      5 IRanWt=     -1 IRanGd=            0 ICorTp=0 IEmpDi=131
 NAtoms=   48 NActive=   48 NUniq=   48 SFac= 1.00D+00 NAtFMM=   60 NAOKFM=F Big=F
 Integral buffers will be    131072 words long.
 Raffenetti 2 integral format.
 Two-electron integral symmetry is turned off.
 R6Disp:  Grimme-D3 Dispersion energy=       -0.0041720640 Hartrees.
 Nuclear repulsion after empirical dispersion term =     2433.8462930873 Hartrees.
 Leave Link  301 at Sun Feb 19 04:38:09 2023, MaxMem=  2684354560 cpu:               1.0 elap:               0.1
 (Enter /storage/apps/GAUSSIAN/G16_RevA03/g16/l302.exe)
 NPDir=0 NMtPBC=     1 NCelOv=     1 NCel=       1 NClECP=     1 NCelD=      1
         NCelK=      1 NCelE2=     1 NClLst=     1 CellRange=     0.0.
 One-electron integrals computed using PRISM.
   1 Symmetry operations used in ECPInt.
 ECPInt:  NShTT=   65703 NPrTT=  200010 LenC2=   56036 LenP2D=  118757.
 LDataN:  DoStor=T MaxTD1= 6 Len=  172
 NBasis=   894 RedAO= T EigKep=  1.95D-05  NBF=   894
 NBsUse=   894 1.00D-06 EigRej= -1.00D+00 NBFU=   894
 Precomputing XC quadrature grid using
 IXCGrd= 4 IRadAn=           5 IRanWt=          -1 IRanGd=           0 AccXCQ= 0.00D+00.
 Generated NRdTot=       0 NPtTot=           0 NUsed=           0 NTot=          32
 NSgBfM=   995   994   995   995   995 MxSgAt=    48 MxSgA2=    48.
 Leave Link  302 at Sun Feb 19 04:38:10 2023, MaxMem=  2684354560 cpu:              18.6 elap:               1.2
 (Enter /storage/apps/GAUSSIAN/G16_RevA03/g16/l303.exe)
 DipDrv:  MaxL=1.
 Leave Link  303 at Sun Feb 19 04:38:10 2023, MaxMem=  2684354560 cpu:               2.3 elap:               0.2
 (Enter /storage/apps/GAUSSIAN/G16_RevA03/g16/l401.exe)
 ExpMin= 9.52D-02 ExpMax= 6.07D+04 ExpMxC= 2.07D+03 IAcc=3 IRadAn=         5 AccDes= 0.00D+00
 Harris functional with IExCor= 1009 and IRadAn=       5 diagonalized for initial guess.
 HarFok:  IExCor= 1009 AccDes= 0.00D+00 IRadAn=         5 IDoV= 1 UseB2=F ITyADJ=14
 ICtDFT=  3500011 ScaDFX=  1.000000  1.000000  1.000000  1.000000
 FoFCou: FMM=F IPFlag=           0 FMFlag=      100000 FMFlg1=           0
         NFxFlg=           0 DoJE=T BraDBF=F KetDBF=T FulRan=T
         wScrn=  0.000000 ICntrl=       500 IOpCl=  0 I1Cent=   200000004 NGrid=           0
         NMat0=    1 NMatS0=      1 NMatT0=    0 NMatD0=    1 NMtDS0=    0 NMtDT0=    0
 Symmetry not used in FoFCou.
 Harris En= -1507.21878737902    
 JPrj=0 DoOrth=F DoCkMO=F.
 Leave Link  401 at Sun Feb 19 04:38:14 2023, MaxMem=  2684354560 cpu:              59.9 elap:               3.8
 (Enter /storage/apps/GAUSSIAN/G16_RevA03/g16/l502.exe)
 Two-electron integral symmetry not used.
 Closed shell SCF:
 Using DIIS extrapolation, IDIIS=  1040.
 NGot=  2684354560 LenX=  2682275214 LenY=  2681246004
 Requested convergence on RMS density matrix=1.00D-08 within 128 cycles.
 Requested convergence on MAX density matrix=1.00D-06.
 Requested convergence on             energy=1.00D-06.
 No special actions if energy rises.
 Fock matrices will be formed incrementally for  20 cycles.
 Integral accuracy reduced to 1.0D-05 until final iterations.

 Cycle   1  Pass 0  IDiag  1:
 FoFJK:  IHMeth= 1 ICntrl=       0 DoSepK=F KAlg= 0 I1Cent=           0 FoldK=F
 IRaf= 780000000 NMat=       1 IRICut=       1 DoRegI=T DoRafI=F ISym2E= 0 IDoP0=0 IntGTp=1.
 FoFCou: FMM=F IPFlag=           0 FMFlag=      100000 FMFlg1=           0
         NFxFlg=           0 DoJE=F BraDBF=F KetDBF=F FulRan=T
         wScrn=  0.000000 ICntrl=         0 IOpCl=  0 I1Cent=           0 NGrid=           0
         NMat0=    1 NMatS0=      1 NMatT0=    0 NMatD0=    1 NMtDS0=    0 NMtDT0=    0
 Symmetry not used in FoFCou.
 E= -1507.09139014709    
 DIIS: error= 1.59D-02 at cycle   1 NSaved=   1.
 NSaved= 1 IEnMin= 1 EnMin= -1507.09139014709     IErMin= 1 ErrMin= 1.59D-02
 ErrMax= 1.59D-02  0.00D+00 EMaxC= 1.00D-01 BMatC= 1.00D+00 BMatP= 1.00D+00
 IDIUse=3 WtCom= 8.41D-01 WtEn= 1.59D-01
 Coeff-Com:  0.100D+01
 Coeff-En:   0.100D+01
 Coeff:      0.100D+01
 Gap=     0.096 Goal=   None    Shift=    0.000
 GapD=    0.096 DampG=0.500 DampE=0.500 DampFc=0.2500 IDamp=-1.
 Damping current iteration by 2.50D-01
 RMSDP=4.58D-03 MaxDP=1.26D+00              OVMax= 8.67D-01

 Cycle   2  Pass 0  IDiag  1:
 RMSU=  1.14D-03    CP:  1.01D+00
 E= -1507.33748542313     Delta-E=       -0.246095276046 Rises=F Damp=T
 DIIS: error= 8.22D-03 at cycle   2 NSaved=   2.
 NSaved= 2 IEnMin= 2 EnMin= -1507.33748542313     IErMin= 2 ErrMin= 8.22D-03
 ErrMax= 8.22D-03  0.00D+00 EMaxC= 1.00D-01 BMatC= 3.03D-01 BMatP= 1.00D+00
 IDIUse=3 WtCom= 9.18D-01 WtEn= 8.22D-02
 Coeff-Com: -0.787D+00 0.179D+01
 Coeff-En:   0.000D+00 0.100D+01
 Coeff:     -0.723D+00 0.172D+01
 Gap=     0.108 Goal=   None    Shift=    0.000
 RMSDP=1.29D-03 MaxDP=8.90D-02 DE=-2.46D-01 OVMax= 7.86D-01

 Cycle   3  Pass 0  IDiag  1:
 RMSU=  1.28D-03    CP:  1.00D+00  1.12D+00
 E= -1507.66429841479     Delta-E=       -0.326812991654 Rises=F Damp=F
 DIIS: error= 8.33D-03 at cycle   3 NSaved=   3.
 NSaved= 3 IEnMin= 3 EnMin= -1507.66429841479     IErMin= 2 ErrMin= 8.22D-03
 ErrMax= 8.33D-03  0.00D+00 EMaxC= 1.00D-01 BMatC= 1.70D-01 BMatP= 3.03D-01
 IDIUse=3 WtCom= 9.17D-01 WtEn= 8.33D-02
 Coeff-Com: -0.560D+00 0.107D+01 0.493D+00
 Coeff-En:   0.000D+00 0.000D+00 0.100D+01
 Coeff:     -0.514D+00 0.978D+00 0.535D+00
 Gap=     0.085 Goal=   None    Shift=    0.000
 RMSDP=7.60D-04 MaxDP=3.52D-02 DE=-3.27D-01 OVMax= 2.68D-01

 Cycle   4  Pass 0  IDiag  1:
 RMSU=  6.51D-04    CP:  1.00D+00  1.32D+00  7.52D-01
 E= -1507.84729260096     Delta-E=       -0.182994186167 Rises=F Damp=F
 DIIS: error= 1.62D-03 at cycle   4 NSaved=   4.
 NSaved= 4 IEnMin= 4 EnMin= -1507.84729260096     IErMin= 4 ErrMin= 1.62D-03
 ErrMax= 1.62D-03  0.00D+00 EMaxC= 1.00D-01 BMatC= 8.47D-03 BMatP= 1.70D-01
 IDIUse=3 WtCom= 9.84D-01 WtEn= 1.62D-02
 Coeff-Com: -0.186D+00 0.292D+00 0.195D+00 0.699D+00
 Coeff-En:   0.000D+00 0.000D+00 0.000D+00 0.100D+01
 Coeff:     -0.183D+00 0.287D+00 0.192D+00 0.704D+00
 Gap=     0.109 Goal=   None    Shift=    0.000
 RMSDP=2.02D-04 MaxDP=1.78D-02 DE=-1.83D-01 OVMax= 3.81D-02

 Cycle   5  Pass 0  IDiag  1:
 RMSU=  1.91D-04    CP:  1.01D+00  1.36D+00  7.81D-01  9.84D-01
 E= -1507.85279481075     Delta-E=       -0.005502209792 Rises=F Damp=F
 DIIS: error= 1.39D-03 at cycle   5 NSaved=   5.
 NSaved= 5 IEnMin= 5 EnMin= -1507.85279481075     IErMin= 5 ErrMin= 1.39D-03
 ErrMax= 1.39D-03  0.00D+00 EMaxC= 1.00D-01 BMatC= 2.02D-03 BMatP= 8.47D-03
 IDIUse=3 WtCom= 9.86D-01 WtEn= 1.39D-02
 Coeff-Com: -0.645D-01 0.900D-01 0.398D-01 0.353D+00 0.582D+00
 Coeff-En:   0.000D+00 0.000D+00 0.000D+00 0.153D+00 0.847D+00
 Coeff:     -0.636D-01 0.887D-01 0.393D-01 0.350D+00 0.586D+00
 Gap=     0.111 Goal=   None    Shift=    0.000
 RMSDP=9.64D-05 MaxDP=6.85D-03 DE=-5.50D-03 OVMax= 2.25D-02

 Cycle   6  Pass 0  IDiag  1:
 RMSU=  7.66D-05    CP:  1.01D+00  1.38D+00  7.61D-01  1.06D+00  9.82D-01
 E= -1507.85475085025     Delta-E=       -0.001956039502 Rises=F Damp=F
 DIIS: error= 3.22D-04 at cycle   6 NSaved=   6.
 NSaved= 6 IEnMin= 6 EnMin= -1507.85475085025     IErMin= 6 ErrMin= 3.22D-04
 ErrMax= 3.22D-04  0.00D+00 EMaxC= 1.00D-01 BMatC= 2.21D-04 BMatP= 2.02D-03
 IDIUse=3 WtCom= 9.97D-01 WtEn= 3.22D-03
 Coeff-Com: -0.113D-01 0.132D-01-0.104D-01 0.725D-01 0.294D+00 0.642D+00
 Coeff-En:   0.000D+00 0.000D+00 0.000D+00 0.000D+00 0.000D+00 0.100D+01
 Coeff:     -0.113D-01 0.132D-01-0.104D-01 0.722D-01 0.293D+00 0.643D+00
 Gap=     0.114 Goal=   None    Shift=    0.000
 RMSDP=4.06D-05 MaxDP=3.29D-03 DE=-1.96D-03 OVMax= 4.74D-03

 Cycle   7  Pass 0  IDiag  1:
 RMSU=  3.22D-05    CP:  1.01D+00  1.38D+00  7.63D-01  1.08D+00  1.10D+00
                    CP:  1.01D+00
 E= -1507.85493666587     Delta-E=       -0.000185815617 Rises=F Damp=F
 DIIS: error= 1.40D-04 at cycle   7 NSaved=   7.
 NSaved= 7 IEnMin= 7 EnMin= -1507.85493666587     IErMin= 7 ErrMin= 1.40D-04
 ErrMax= 1.40D-04  0.00D+00 EMaxC= 1.00D-01 BMatC= 2.84D-05 BMatP= 2.21D-04
 IDIUse=3 WtCom= 9.99D-01 WtEn= 1.40D-03
 Coeff-Com:  0.215D-02-0.376D-02-0.111D-01-0.149D-01 0.655D-01 0.313D+00
 Coeff-Com:  0.649D+00
 Coeff-En:   0.000D+00 0.000D+00 0.000D+00 0.000D+00 0.000D+00 0.000D+00
 Coeff-En:   0.100D+01
 Coeff:      0.215D-02-0.376D-02-0.111D-01-0.149D-01 0.654D-01 0.313D+00
 Coeff:      0.649D+00
 Gap=     0.115 Goal=   None    Shift=    0.000
 RMSDP=2.45D-05 MaxDP=2.57D-03 DE=-1.86D-04 OVMax= 2.20D-03

 Cycle   8  Pass 0  IDiag  1:
 RMSU=  1.73D-05    CP:  1.01D+00  1.38D+00  7.64D-01  1.09D+00  1.15D+00
                    CP:  1.12D+00  1.28D+00
 E= -1507.85496923173     Delta-E=       -0.000032565862 Rises=F Damp=F
 DIIS: error= 3.44D-05 at cycle   8 NSaved=   8.
 NSaved= 8 IEnMin= 8 EnMin= -1507.85496923173     IErMin= 8 ErrMin= 3.44D-05
 ErrMax= 3.44D-05  0.00D+00 EMaxC= 1.00D-01 BMatC= 3.13D-06 BMatP= 2.84D-05
 IDIUse=1 WtCom= 1.00D+00 WtEn= 0.00D+00
 Coeff-Com:  0.186D-02-0.258D-02-0.310D-02-0.140D-01-0.692D-02 0.386D-01
 Coeff-Com:  0.273D+00 0.713D+00
 Coeff:      0.186D-02-0.258D-02-0.310D-02-0.140D-01-0.692D-02 0.386D-01
 Coeff:      0.273D+00 0.713D+00
 Gap=     0.115 Goal=   None    Shift=    0.000
 RMSDP=2.09D-05 MaxDP=2.70D-03 DE=-3.26D-05 OVMax= 1.13D-03

 Cycle   9  Pass 0  IDiag  1:
 RMSU=  1.33D-05    CP:  1.01D+00  1.38D+00  7.65D-01  1.09D+00  1.17D+00
                    CP:  1.18D+00  1.61D+00  1.57D+00
 E= -1507.85497500196     Delta-E=       -0.000005770228 Rises=F Damp=F
 DIIS: error= 2.06D-05 at cycle   9 NSaved=   9.
 NSaved= 9 IEnMin= 9 EnMin= -1507.85497500196     IErMin= 9 ErrMin= 2.06D-05
 ErrMax= 2.06D-05  0.00D+00 EMaxC= 1.00D-01 BMatC= 6.35D-07 BMatP= 3.13D-06
 IDIUse=1 WtCom= 1.00D+00 WtEn= 0.00D+00
 Coeff-Com:  0.586D-03-0.766D-03-0.723D-03-0.497D-02-0.804D-02-0.128D-01
 Coeff-Com:  0.546D-01 0.297D+00 0.675D+00
 Coeff:      0.586D-03-0.766D-03-0.723D-03-0.497D-02-0.804D-02-0.128D-01
 Coeff:      0.546D-01 0.297D+00 0.675D+00
 Gap=     0.115 Goal=   None    Shift=    0.000
 RMSDP=2.76D-05 MaxDP=4.18D-03 DE=-5.77D-06 OVMax= 4.05D-04

 Cycle  10  Pass 0  IDiag  1:
 RMSU=  9.51D-06    CP:  1.01D+00  1.38D+00  7.68D-01  1.10D+00  1.19D+00
                    CP:  1.24D+00  1.98D+00  2.54D+00  2.04D+00
 E= -1507.85497694392     Delta-E=       -0.000001941960 Rises=F Damp=F
 DIIS: error= 2.83D-05 at cycle  10 NSaved=  10.
 NSaved=10 IEnMin=10 EnMin= -1507.85497694392     IErMin= 9 ErrMin= 2.06D-05
 ErrMax= 2.83D-05  0.00D+00 EMaxC= 1.00D-01 BMatC= 6.88D-07 BMatP= 6.35D-07
 IDIUse=1 WtCom= 1.00D+00 WtEn= 0.00D+00
 Coeff-Com:  0.645D-03-0.836D-03-0.738D-03-0.549D-02-0.911D-02-0.148D-01
 Coeff-Com:  0.600D-01 0.332D+00 0.766D+00-0.128D+00
 Coeff:      0.645D-03-0.836D-03-0.738D-03-0.549D-02-0.911D-02-0.148D-01
 Coeff:      0.600D-01 0.332D+00 0.766D+00-0.128D+00
 Gap=     0.115 Goal=   None    Shift=    0.000
 RMSDP=6.49D-06 MaxDP=9.83D-04 DE=-1.94D-06 OVMax= 2.09D-05

 Initial convergence to 1.0D-05 achieved.  Increase integral accuracy.
 Cycle  11  Pass 1  IDiag  1:
 E= -1507.85475650058     Delta-E=        0.000220443336 Rises=F Damp=F
 DIIS: error= 3.16D-04 at cycle   1 NSaved=   1.
 NSaved= 1 IEnMin= 1 EnMin= -1507.85475650058     IErMin= 1 ErrMin= 3.16D-04
 ErrMax= 3.16D-04  0.00D+00 EMaxC= 1.00D-01 BMatC= 1.00D-04 BMatP= 1.00D-04
 IDIUse=3 WtCom= 9.97D-01 WtEn= 3.16D-03
 Coeff-Com:  0.100D+01
 Coeff-En:   0.100D+01
 Coeff:      0.100D+01
 Gap=     0.114 Goal=   None    Shift=    0.000
 RMSDP=6.49D-06 MaxDP=9.83D-04 DE= 2.20D-04 OVMax= 1.14D-03

 Cycle  12  Pass 1  IDiag  1:
 RMSU=  5.86D-04    CP:  9.90D-01
 E= -1507.85482241209     Delta-E=       -0.000065911504 Rises=F Damp=F
 DIIS: error= 9.99D-06 at cycle   2 NSaved=   2.
 NSaved= 2 IEnMin= 2 EnMin= -1507.85482241209     IErMin= 2 ErrMin= 9.99D-06
 ErrMax= 9.99D-06  0.00D+00 EMaxC= 1.00D-01 BMatC= 1.79D-07 BMatP= 1.00D-04
 IDIUse=1 WtCom= 1.00D+00 WtEn= 0.00D+00
 Coeff-Com: -0.151D-01 0.102D+01
 Coeff:     -0.151D-01 0.102D+01
 Gap=     0.115 Goal=   None    Shift=    0.000
 RMSDP=2.16D-05 MaxDP=2.06D-03 DE=-6.59D-05 OVMax= 5.06D-04

 Cycle  13  Pass 1  IDiag  1:
 RMSU=  7.42D-06    CP:  9.90D-01  1.03D+00
 E= -1507.85482231356     Delta-E=        0.000000098521 Rises=F Damp=F
 DIIS: error= 1.38D-05 at cycle   3 NSaved=   3.
 NSaved= 3 IEnMin= 2 EnMin= -1507.85482241209     IErMin= 2 ErrMin= 9.99D-06
 ErrMax= 1.38D-05  0.00D+00 EMaxC= 1.00D-01 BMatC= 3.24D-07 BMatP= 1.79D-07
 IDIUse=1 WtCom= 1.00D+00 WtEn= 0.00D+00
 Coeff-Com: -0.105D-01 0.606D+00 0.404D+00
 Coeff:     -0.105D-01 0.606D+00 0.404D+00
 Gap=     0.114 Goal=   None    Shift=    0.000
 RMSDP=1.12D-06 MaxDP=1.10D-04 DE= 9.85D-08 OVMax= 3.11D-04

 Cycle  14  Pass 1  IDiag  1:
 RMSU=  1.07D-06    CP:  9.90D-01  1.04D+00  1.01D+00
 E= -1507.85482263810     Delta-E=       -0.000000324537 Rises=F Damp=F
 DIIS: error= 2.05D-06 at cycle   4 NSaved=   4.
 NSaved= 4 IEnMin= 4 EnMin= -1507.85482263810     IErMin= 4 ErrMin= 2.05D-06
 ErrMax= 2.05D-06  0.00D+00 EMaxC= 1.00D-01 BMatC= 4.58D-09 BMatP= 1.79D-07
 IDIUse=1 WtCom= 1.00D+00 WtEn= 0.00D+00
 Coeff-Com: -0.208D-02 0.109D+00 0.120D+00 0.774D+00
 Coeff:     -0.208D-02 0.109D+00 0.120D+00 0.774D+00
 Gap=     0.115 Goal=   None    Shift=    0.000
 RMSDP=4.50D-07 MaxDP=4.34D-05 DE=-3.25D-07 OVMax= 9.11D-05

 Cycle  15  Pass 1  IDiag  1:
 RMSU=  2.38D-07    CP:  9.90D-01  1.04D+00  1.04D+00  9.60D-01
 E= -1507.85482264266     Delta-E=       -0.000000004556 Rises=F Damp=F
 DIIS: error= 1.44D-06 at cycle   5 NSaved=   5.
 NSaved= 5 IEnMin= 5 EnMin= -1507.85482264266     IErMin= 5 ErrMin= 1.44D-06
 ErrMax= 1.44D-06  0.00D+00 EMaxC= 1.00D-01 BMatC= 2.66D-09 BMatP= 4.58D-09
 IDIUse=1 WtCom= 1.00D+00 WtEn= 0.00D+00
 Coeff-Com:  0.499D-03-0.354D-01-0.124D-02 0.466D+00 0.570D+00
 Coeff:      0.499D-03-0.354D-01-0.124D-02 0.466D+00 0.570D+00
 Gap=     0.114 Goal=   None    Shift=    0.000
 RMSDP=1.78D-07 MaxDP=1.53D-05 DE=-4.56D-09 OVMax= 3.04D-05

 Cycle  16  Pass 1  IDiag  1:
 RMSU=  1.04D-07    CP:  9.90D-01  1.04D+00  1.06D+00  1.00D+00  1.10D+00
 E= -1507.85482264575     Delta-E=       -0.000000003098 Rises=F Damp=F
 DIIS: error= 3.52D-07 at cycle   6 NSaved=   6.
 NSaved= 6 IEnMin= 6 EnMin= -1507.85482264575     IErMin= 6 ErrMin= 3.52D-07
 ErrMax= 3.52D-07  0.00D+00 EMaxC= 1.00D-01 BMatC= 1.63D-10 BMatP= 2.66D-09
 IDIUse=1 WtCom= 1.00D+00 WtEn= 0.00D+00
 Coeff-Com:  0.411D-03-0.255D-01-0.162D-01 0.129D+00 0.226D+00 0.686D+00
 Coeff:      0.411D-03-0.255D-01-0.162D-01 0.129D+00 0.226D+00 0.686D+00
 Gap=     0.114 Goal=   None    Shift=    0.000
 RMSDP=5.13D-08 MaxDP=4.15D-06 DE=-3.10D-09 OVMax= 1.84D-05

 Cycle  17  Pass 1  IDiag  1:
 RMSU=  3.40D-08    CP:  9.90D-01  1.04D+00  1.06D+00  1.00D+00  1.24D+00
                    CP:  1.12D+00
 E= -1507.85482264608     Delta-E=       -0.000000000327 Rises=F Damp=F
 DIIS: error= 2.10D-07 at cycle   7 NSaved=   7.
 NSaved= 7 IEnMin= 7 EnMin= -1507.85482264608     IErMin= 7 ErrMin= 2.10D-07
 ErrMax= 2.10D-07  0.00D+00 EMaxC= 1.00D-01 BMatC= 5.01D-11 BMatP= 1.63D-10
 IDIUse=1 WtCom= 1.00D+00 WtEn= 0.00D+00
 Coeff-Com:  0.264D-04-0.139D-03-0.994D-02-0.860D-01-0.935D-01 0.324D+00
 Coeff-Com:  0.865D+00
 Coeff:      0.264D-04-0.139D-03-0.994D-02-0.860D-01-0.935D-01 0.324D+00
 Coeff:      0.865D+00
 Gap=     0.114 Goal=   None    Shift=    0.000
 RMSDP=4.30D-08 MaxDP=2.19D-06 DE=-3.27D-10 OVMax= 1.70D-05

 Cycle  18  Pass 1  IDiag  1:
 RMSU=  2.20D-08    CP:  9.90D-01  1.04D+00  1.06D+00  1.01D+00  1.33D+00
                    CP:  1.36D+00  1.47D+00
 E= -1507.85482264629     Delta-E=       -0.000000000208 Rises=F Damp=F
 DIIS: error= 1.00D-07 at cycle   8 NSaved=   8.
 NSaved= 8 IEnMin= 8 EnMin= -1507.85482264629     IErMin= 8 ErrMin= 1.00D-07
 ErrMax= 1.00D-07  0.00D+00 EMaxC= 1.00D-01 BMatC= 1.08D-11 BMatP= 5.01D-11
 IDIUse=1 WtCom= 1.00D+00 WtEn= 0.00D+00
 Coeff-Com: -0.576D-04 0.436D-02-0.322D-02-0.656D-01-0.918D-01 0.575D-01
 Coeff-Com:  0.460D+00 0.639D+00
 Coeff:     -0.576D-04 0.436D-02-0.322D-02-0.656D-01-0.918D-01 0.575D-01
 Coeff:      0.460D+00 0.639D+00
 Gap=     0.114 Goal=   None    Shift=    0.000
 RMSDP=1.64D-08 MaxDP=7.93D-07 DE=-2.08D-10 OVMax= 6.87D-06

 Cycle  19  Pass 1  IDiag  1:
 RMSU=  6.23D-09    CP:  9.90D-01  1.04D+00  1.06D+00  1.00D+00  1.35D+00
                    CP:  1.42D+00  1.78D+00  1.25D+00
 E= -1507.85482264630     Delta-E=       -0.000000000015 Rises=F Damp=F
 DIIS: error= 3.52D-08 at cycle   9 NSaved=   9.
 NSaved= 9 IEnMin= 9 EnMin= -1507.85482264630     IErMin= 9 ErrMin= 3.52D-08
 ErrMax= 3.52D-08  0.00D+00 EMaxC= 1.00D-01 BMatC= 1.37D-12 BMatP= 1.08D-11
 IDIUse=1 WtCom= 1.00D+00 WtEn= 0.00D+00
 Coeff-Com: -0.276D-04 0.177D-02 0.154D-03-0.104D-01-0.226D-01-0.329D-01
 Coeff-Com:  0.349D-01 0.267D+00 0.763D+00
 Coeff:     -0.276D-04 0.177D-02 0.154D-03-0.104D-01-0.226D-01-0.329D-01
 Coeff:      0.349D-01 0.267D+00 0.763D+00
 Gap=     0.114 Goal=   None    Shift=    0.000
 RMSDP=7.53D-09 MaxDP=3.50D-07 DE=-1.55D-11 OVMax= 3.34D-06

 SCF Done:  E(RM062X) =  -1507.85482265     A.U. after   19 cycles
            NFock= 19  Conv=0.75D-08     -V/T= 2.0041
 KE= 1.501701143549D+03 PE=-8.405616730951D+03 EE= 2.962214471669D+03
 Leave Link  502 at Sun Feb 19 04:47:02 2023, MaxMem=  2684354560 cpu:            8444.6 elap:             528.4
 (Enter /storage/apps/GAUSSIAN/G16_RevA03/g16/l601.exe)
 Copying SCF densities to generalized density rwf, IOpCl= 0 IROHF=0.

 **********************************************************************

            Population analysis using the SCF density.

 **********************************************************************

 Alpha  occ. eigenvalues --  -89.84848 -19.66970 -19.64541 -19.61841 -19.60356
 Alpha  occ. eigenvalues --  -19.55195 -14.87597 -14.79792 -10.67569 -10.66136
 Alpha  occ. eigenvalues --  -10.64708 -10.63786 -10.62073 -10.61189 -10.60949
 Alpha  occ. eigenvalues --  -10.60876 -10.60408 -10.59710 -10.57529 -10.55693
 Alpha  occ. eigenvalues --  -10.51467 -10.51151 -10.50787 -10.48012  -8.20727
 Alpha  occ. eigenvalues --   -6.12688  -6.12470  -6.12209  -1.22834  -1.19064
 Alpha  occ. eigenvalues --   -1.16951  -1.15242  -1.13155  -1.07966  -1.04620
 Alpha  occ. eigenvalues --   -0.97678  -0.92987  -0.90318  -0.88251  -0.85697
 Alpha  occ. eigenvalues --   -0.82947  -0.81650  -0.80483  -0.77047  -0.76418
 Alpha  occ. eigenvalues --   -0.72884  -0.70383  -0.69727  -0.69302  -0.67330
 Alpha  occ. eigenvalues --   -0.64979  -0.64232  -0.63393  -0.62407  -0.61896
 Alpha  occ. eigenvalues --   -0.60363  -0.57520  -0.57408  -0.56130  -0.55563
 Alpha  occ. eigenvalues --   -0.54740  -0.53953  -0.52710  -0.52194  -0.51812
 Alpha  occ. eigenvalues --   -0.50949  -0.49955  -0.49253  -0.48935  -0.48744
 Alpha  occ. eigenvalues --   -0.48666  -0.48179  -0.47339  -0.47120  -0.45498
 Alpha  occ. eigenvalues --   -0.44967  -0.44089  -0.43188  -0.41746  -0.41565
 Alpha  occ. eigenvalues --   -0.41048  -0.39463  -0.38946  -0.37751  -0.37557
 Alpha  occ. eigenvalues --   -0.37037  -0.36767  -0.36663  -0.35667  -0.35374
 Alpha  occ. eigenvalues --   -0.34658  -0.34146  -0.27044  -0.25844  -0.18813
 Alpha virt. eigenvalues --   -0.07363  -0.04595   0.02874   0.03762   0.04828
 Alpha virt. eigenvalues --    0.04939   0.06717   0.07155   0.08020   0.08750
 Alpha virt. eigenvalues --    0.09373   0.09411   0.10272   0.10383   0.10761
 Alpha virt. eigenvalues --    0.11743   0.11918   0.12620   0.13270   0.13570
 Alpha virt. eigenvalues --    0.13864   0.14343   0.14676   0.14856   0.15426
 Alpha virt. eigenvalues --    0.16103   0.16646   0.16849   0.17511   0.17605
 Alpha virt. eigenvalues --    0.17995   0.18829   0.19112   0.19317   0.19480
 Alpha virt. eigenvalues --    0.20090   0.20415   0.20969   0.21457   0.21869
 Alpha virt. eigenvalues --    0.22643   0.22980   0.23509   0.23640   0.24354
 Alpha virt. eigenvalues --    0.24654   0.25507   0.25831   0.26321   0.26477
 Alpha virt. eigenvalues --    0.26762   0.27190   0.27573   0.28215   0.28971
 Alpha virt. eigenvalues --    0.29352   0.29822   0.30308   0.30363   0.31143
 Alpha virt. eigenvalues --    0.31467   0.32082   0.32645   0.32840   0.32940
 Alpha virt. eigenvalues --    0.33453   0.33733   0.33983   0.34870   0.35473
 Alpha virt. eigenvalues --    0.36856   0.37072   0.37515   0.37806   0.38332
 Alpha virt. eigenvalues --    0.38389   0.38769   0.39010   0.39125   0.39897
 Alpha virt. eigenvalues --    0.40187   0.40400   0.40680   0.41258   0.41751
 Alpha virt. eigenvalues --    0.42079   0.42418   0.42661   0.42838   0.43561
 Alpha virt. eigenvalues --    0.43878   0.44257   0.44895   0.45445   0.45539
 Alpha virt. eigenvalues --    0.45790   0.46376   0.46492   0.46801   0.47091
 Alpha virt. eigenvalues --    0.47338   0.47798   0.48130   0.48666   0.48881
 Alpha virt. eigenvalues --    0.49257   0.49677   0.50080   0.50318   0.50395
 Alpha virt. eigenvalues --    0.51350   0.51563   0.51954   0.52069   0.52642
 Alpha virt. eigenvalues --    0.53087   0.53446   0.53754   0.54059   0.54752
 Alpha virt. eigenvalues --    0.55280   0.55642   0.56059   0.56546   0.56925
 Alpha virt. eigenvalues --    0.57192   0.57748   0.58141   0.58856   0.59248
 Alpha virt. eigenvalues --    0.59725   0.60398   0.60971   0.61157   0.61684
 Alpha virt. eigenvalues --    0.61965   0.62286   0.62796   0.63278   0.64668
 Alpha virt. eigenvalues --    0.64813   0.66099   0.66480   0.66977   0.67088
 Alpha virt. eigenvalues --    0.68143   0.68631   0.69227   0.69518   0.70054
 Alpha virt. eigenvalues --    0.70856   0.71124   0.72488   0.72806   0.73261
 Alpha virt. eigenvalues --    0.74762   0.75065   0.75321   0.75890   0.77370
 Alpha virt. eigenvalues --    0.77777   0.78079   0.78764   0.80041   0.80535
 Alpha virt. eigenvalues --    0.81630   0.82179   0.82544   0.83255   0.83573
 Alpha virt. eigenvalues --    0.83774   0.84283   0.85302   0.85852   0.86722
 Alpha virt. eigenvalues --    0.87344   0.87920   0.88256   0.89470   0.89978
 Alpha virt. eigenvalues --    0.90370   0.90506   0.91779   0.92086   0.92662
 Alpha virt. eigenvalues --    0.93003   0.93681   0.94623   0.95202   0.95848
 Alpha virt. eigenvalues --    0.96785   0.97287   0.97753   0.98528   0.99135
 Alpha virt. eigenvalues --    0.99863   1.00356   1.02085   1.02895   1.03166
 Alpha virt. eigenvalues --    1.04161   1.05079   1.05238   1.05562   1.06436
 Alpha virt. eigenvalues --    1.06877   1.08164   1.08793   1.09326   1.09770
 Alpha virt. eigenvalues --    1.10787   1.10922   1.11952   1.12880   1.13083
 Alpha virt. eigenvalues --    1.14042   1.14214   1.14873   1.14966   1.15381
 Alpha virt. eigenvalues --    1.16305   1.17135   1.18507   1.18705   1.18847
 Alpha virt. eigenvalues --    1.20167   1.20309   1.21320   1.21814   1.22274
 Alpha virt. eigenvalues --    1.23944   1.24246   1.25495   1.26202   1.26560
 Alpha virt. eigenvalues --    1.26957   1.28286   1.28847   1.29090   1.30443
 Alpha virt. eigenvalues --    1.31364   1.32486   1.33454   1.34232   1.34592
 Alpha virt. eigenvalues --    1.35760   1.36003   1.37258   1.38031   1.38632
 Alpha virt. eigenvalues --    1.40609   1.40815   1.42232   1.43105   1.43868
 Alpha virt. eigenvalues --    1.44461   1.45462   1.46298   1.46808   1.49217
 Alpha virt. eigenvalues --    1.49455   1.50307   1.51331   1.51855   1.52892
 Alpha virt. eigenvalues --    1.52995   1.53735   1.54547   1.55036   1.55645
 Alpha virt. eigenvalues --    1.56773   1.57007   1.57675   1.58153   1.58424
 Alpha virt. eigenvalues --    1.58541   1.59993   1.60105   1.60298   1.61148
 Alpha virt. eigenvalues --    1.61429   1.61754   1.62622   1.62961   1.63256
 Alpha virt. eigenvalues --    1.64375   1.64695   1.65279   1.66045   1.66680
 Alpha virt. eigenvalues --    1.67062   1.67729   1.67891   1.68345   1.68820
 Alpha virt. eigenvalues --    1.69037   1.69383   1.70696   1.70952   1.71621
 Alpha virt. eigenvalues --    1.72156   1.72886   1.73684   1.73824   1.74442
 Alpha virt. eigenvalues --    1.74807   1.75764   1.76041   1.76544   1.77162
 Alpha virt. eigenvalues --    1.77667   1.78415   1.79027   1.80449   1.80745
 Alpha virt. eigenvalues --    1.81634   1.82895   1.83306   1.83432   1.84032
 Alpha virt. eigenvalues --    1.85389   1.85690   1.86043   1.87204   1.87806
 Alpha virt. eigenvalues --    1.88118   1.89029   1.89700   1.90079   1.90459
 Alpha virt. eigenvalues --    1.91185   1.91295   1.92618   1.93048   1.93944
 Alpha virt. eigenvalues --    1.94037   1.95020   1.95253   1.95653   1.96415
 Alpha virt. eigenvalues --    1.97393   1.97781   1.98807   1.99922   2.00807
 Alpha virt. eigenvalues --    2.01112   2.01621   2.02233   2.02893   2.03767
 Alpha virt. eigenvalues --    2.04130   2.05241   2.06573   2.06975   2.07605
 Alpha virt. eigenvalues --    2.08568   2.08840   2.10784   2.11525   2.11979
 Alpha virt. eigenvalues --    2.12524   2.13033   2.13664   2.14533   2.14868
 Alpha virt. eigenvalues --    2.15858   2.16100   2.16839   2.17435   2.18714
 Alpha virt. eigenvalues --    2.19346   2.19937   2.20303   2.20646   2.21279
 Alpha virt. eigenvalues --    2.21963   2.22320   2.23911   2.24591   2.25963
 Alpha virt. eigenvalues --    2.26894   2.27442   2.27571   2.28308   2.28797
 Alpha virt. eigenvalues --    2.29367   2.30004   2.30904   2.31500   2.31723
 Alpha virt. eigenvalues --    2.32504   2.33051   2.33616   2.34245   2.35683
 Alpha virt. eigenvalues --    2.36327   2.37231   2.37802   2.38151   2.39176
 Alpha virt. eigenvalues --    2.39850   2.40837   2.41310   2.42037   2.42946
 Alpha virt. eigenvalues --    2.43569   2.43838   2.45088   2.45762   2.46697
 Alpha virt. eigenvalues --    2.47059   2.47609   2.48241   2.48692   2.50004
 Alpha virt. eigenvalues --    2.50548   2.51339   2.52519   2.53744   2.54277
 Alpha virt. eigenvalues --    2.54581   2.55537   2.57297   2.57698   2.58191
 Alpha virt. eigenvalues --    2.58520   2.59400   2.59823   2.60114   2.60828
 Alpha virt. eigenvalues --    2.61053   2.61844   2.62654   2.63149   2.64521
 Alpha virt. eigenvalues --    2.64752   2.65411   2.65850   2.66574   2.66818
 Alpha virt. eigenvalues --    2.67099   2.68059   2.68213   2.70079   2.70258
 Alpha virt. eigenvalues --    2.71258   2.71687   2.72181   2.73252   2.73440
 Alpha virt. eigenvalues --    2.74092   2.74277   2.74731   2.76512   2.76930
 Alpha virt. eigenvalues --    2.77780   2.78276   2.78693   2.79624   2.80122
 Alpha virt. eigenvalues --    2.80609   2.81270   2.82028   2.82757   2.83384
 Alpha virt. eigenvalues --    2.83819   2.84345   2.85360   2.85890   2.87078
 Alpha virt. eigenvalues --    2.87813   2.89461   2.90348   2.91006   2.91637
 Alpha virt. eigenvalues --    2.92720   2.93348   2.93678   2.95169   2.95377
 Alpha virt. eigenvalues --    2.96124   2.97221   2.97823   2.98141   2.99818
 Alpha virt. eigenvalues --    3.00313   3.01050   3.01438   3.02191   3.02797
 Alpha virt. eigenvalues --    3.03510   3.03827   3.04272   3.06240   3.06424
 Alpha virt. eigenvalues --    3.07100   3.07190   3.07784   3.08103   3.08382
 Alpha virt. eigenvalues --    3.09936   3.10834   3.10876   3.11300   3.11979
 Alpha virt. eigenvalues --    3.12621   3.13458   3.13947   3.14723   3.15505
 Alpha virt. eigenvalues --    3.15876   3.16654   3.16967   3.17318   3.17838
 Alpha virt. eigenvalues --    3.18395   3.18592   3.19245   3.19503   3.20429
 Alpha virt. eigenvalues --    3.20595   3.21850   3.22469   3.23880   3.24398
 Alpha virt. eigenvalues --    3.24899   3.25966   3.26358   3.27186   3.27368
 Alpha virt. eigenvalues --    3.27816   3.28572   3.28753   3.29418   3.29972
 Alpha virt. eigenvalues --    3.30848   3.31567   3.31868   3.32186   3.32941
 Alpha virt. eigenvalues --    3.33766   3.34102   3.34679   3.35437   3.36605
 Alpha virt. eigenvalues --    3.36872   3.37775   3.38447   3.39032   3.39545
 Alpha virt. eigenvalues --    3.40113   3.40232   3.41143   3.41294   3.41846
 Alpha virt. eigenvalues --    3.42160   3.42926   3.43878   3.44575   3.44951
 Alpha virt. eigenvalues --    3.45354   3.46757   3.47253   3.48149   3.48338
 Alpha virt. eigenvalues --    3.49158   3.49801   3.50230   3.51133   3.52191
 Alpha virt. eigenvalues --    3.53028   3.53496   3.53562   3.54160   3.54706
 Alpha virt. eigenvalues --    3.55591   3.57180   3.57253   3.58367   3.59234
 Alpha virt. eigenvalues --    3.59777   3.62070   3.62655   3.62790   3.63591
 Alpha virt. eigenvalues --    3.64432   3.65792   3.66958   3.68330   3.68846
 Alpha virt. eigenvalues --    3.69808   3.71414   3.71865   3.72742   3.73260
 Alpha virt. eigenvalues --    3.74521   3.74800   3.75529   3.76275   3.76767
 Alpha virt. eigenvalues --    3.78322   3.80196   3.81029   3.82150   3.83069
 Alpha virt. eigenvalues --    3.83821   3.84359   3.86360   3.86668   3.88434
 Alpha virt. eigenvalues --    3.89092   3.89677   3.90987   3.91551   3.92060
 Alpha virt. eigenvalues --    3.93716   3.94202   3.96124   3.96264   3.97799
 Alpha virt. eigenvalues --    3.98445   4.00104   4.02132   4.04517   4.05990
 Alpha virt. eigenvalues --    4.07038   4.08612   4.09010   4.09429   4.10177
 Alpha virt. eigenvalues --    4.11066   4.12140   4.12982   4.15936   4.17173
 Alpha virt. eigenvalues --    4.18342   4.18573   4.19922   4.24485   4.25055
 Alpha virt. eigenvalues --    4.26544   4.26725   4.27549   4.28859   4.30258
 Alpha virt. eigenvalues --    4.31031   4.31497   4.32252   4.33906   4.34591
 Alpha virt. eigenvalues --    4.37044   4.37677   4.38362   4.38810   4.40032
 Alpha virt. eigenvalues --    4.41852   4.42652   4.43719   4.44427   4.47736
 Alpha virt. eigenvalues --    4.48689   4.51250   4.51464   4.54294   4.57315
 Alpha virt. eigenvalues --    4.58020   4.61589   4.61942   4.66262   4.67225
 Alpha virt. eigenvalues --    4.69462   4.72009   4.72415   4.73289   4.74965
 Alpha virt. eigenvalues --    4.75605   4.76031   4.77872   4.79553   4.79987
 Alpha virt. eigenvalues --    4.81134   4.86186   4.87095   4.89514   4.91113
 Alpha virt. eigenvalues --    4.92181   4.93291   4.95242   4.95675   4.97866
 Alpha virt. eigenvalues --    4.98674   5.00759   5.01675   5.02424   5.04732
 Alpha virt. eigenvalues --    5.09310   5.11271   5.13126   5.16247   5.18733
 Alpha virt. eigenvalues --    5.20073   5.21752   5.24997   5.27620   5.28852
 Alpha virt. eigenvalues --    5.29651   5.29826   5.31415   5.33765   5.34544
 Alpha virt. eigenvalues --    5.37374   5.40487   5.41235   5.42531   5.43807
 Alpha virt. eigenvalues --    5.46217   5.48654   5.53044   5.55495   5.60858
 Alpha virt. eigenvalues --    5.62686   5.65694   5.71806   5.73459   5.75989
 Alpha virt. eigenvalues --    5.78192   5.79509   5.82899   5.83691   5.86526
 Alpha virt. eigenvalues --    5.87778   5.87949   5.91045   5.92012   5.94351
 Alpha virt. eigenvalues --    6.00273   6.03995   6.05325   6.14729   6.17834
 Alpha virt. eigenvalues --    6.20841   6.21804   6.26006   6.31257   6.35711
 Alpha virt. eigenvalues --    6.37169   6.41702   6.47611   6.52653   6.56352
 Alpha virt. eigenvalues --    6.57773   6.64640   6.68730   6.72465   6.76173
 Alpha virt. eigenvalues --    6.76405   6.79316   6.83407   6.83936   6.86393
 Alpha virt. eigenvalues --    6.90738   6.95430   6.98355   7.07192   7.07773
 Alpha virt. eigenvalues --    7.09443   7.10832   7.14221   7.15476   7.22307
 Alpha virt. eigenvalues --    7.29782   7.34019   9.04350   9.42508   9.55787
 Alpha virt. eigenvalues --   19.72481  22.32289  22.40675  22.47975  22.55501
 Alpha virt. eigenvalues --   22.62769  22.64970  22.69034  22.70978  22.78290
 Alpha virt. eigenvalues --   22.87819  22.89320  22.98688  23.00195  23.10519
 Alpha virt. eigenvalues --   23.22607  23.50538  32.13513  33.13385  44.15078
 Alpha virt. eigenvalues --   44.21222  44.24298  44.31819  44.54193
          Condensed to atoms (all electrons):
               1          2          3          4          5          6
     1  C    5.109557   0.420942   0.415520  -0.023127   0.000157  -0.000117
     2  H    0.420942   0.509322  -0.022076  -0.001644   0.000420  -0.000005
     3  H    0.415520  -0.022076   0.529238   0.001590  -0.000027  -0.000003
     4  C   -0.023127  -0.001644   0.001590   5.682536   0.465776   0.284670
     5  H    0.000157   0.000420  -0.000027   0.465776   0.587135  -0.033093
     6  O   -0.000117  -0.000005  -0.000003   0.284670  -0.033093   8.073686
     7  H   -0.000030  -0.000005   0.000003  -0.047578  -0.005553   0.270352
     8  C    0.015661   0.013497  -0.009716  -0.226978  -0.088853  -0.059940
     9  H    0.013853   0.000047  -0.002446  -0.135456   0.003960   0.003198
    10  O    0.007401  -0.000361   0.000343  -0.052830   0.002239   0.000594
    11  H   -0.000696  -0.000191   0.000483   0.014100  -0.000905  -0.000553
    12  C   -0.001059   0.000278   0.000927  -0.128275  -0.065017  -0.018685
    13  H    0.000310   0.000048   0.000083  -0.102480   0.007295   0.004139
    14  C    0.170555  -0.048645  -0.038593   0.186715   0.021759   0.009146
    15  H   -0.068053  -0.006736  -0.004226  -0.011020   0.000108   0.000079
    16  O   -0.028673   0.000437   0.004837  -0.075969  -0.000826   0.005938
    17  N   -0.000008  -0.000089  -0.000032   0.038522  -0.017161  -0.005079
    18  C   -0.001643  -0.000042   0.000040  -0.006101  -0.010113   0.005473
    19  H    0.000062  -0.000018   0.000015  -0.004575   0.002936   0.000092
    20  C   -0.000012   0.000001  -0.000001   0.002674   0.008677  -0.002307
    21  H    0.000004   0.000000  -0.000000  -0.000075   0.000206  -0.000034
    22  C   -0.000013  -0.000001   0.000000   0.001835  -0.001191   0.000334
    23  H   -0.000000   0.000000  -0.000000   0.000018  -0.000004   0.000001
    24  H    0.000000  -0.000000  -0.000000  -0.000210  -0.000021  -0.000004
    25  C   -0.000067  -0.000006   0.000001  -0.006460   0.000225  -0.000884
    26  C   -0.000449   0.000045  -0.000004   0.025805  -0.002835  -0.004012
    27  H   -0.000024   0.000001   0.000000   0.001646  -0.000120   0.000175
    28  C    0.000000  -0.000000  -0.000000  -0.000039   0.000011  -0.000013
    29  O   -0.000000   0.000000  -0.000000  -0.000000  -0.000000  -0.000000
    30  N   -0.000000  -0.000000   0.000000  -0.000000  -0.000000  -0.000000
    31  H   -0.000000   0.000000   0.000000   0.000000   0.000000  -0.000000
    32  H    0.000000   0.000000  -0.000000   0.000001   0.000000   0.000000
    33  C    0.000001  -0.000000   0.000000   0.000097  -0.000415  -0.014815
    34  C    0.000000  -0.000000   0.000000   0.002594   0.000205   0.003227
    35  C    0.000000   0.000000  -0.000000  -0.000082   0.000093   0.000061
    36  C   -0.000000   0.000000   0.000000  -0.000002   0.000000   0.000001
    37  C   -0.000000   0.000000   0.000000   0.000251   0.000016   0.000091
    38  O   -0.000000   0.000000  -0.000000  -0.004674   0.000015  -0.055744
    39  S   -0.000000  -0.000000   0.000000   0.000313   0.000039   0.000912
    40  H    0.000000   0.000000  -0.000000   0.000145   0.000029   0.000293
    41  H   -0.000002   0.000000  -0.000000  -0.003169   0.000482   0.012914
    42  H    0.000000   0.000000  -0.000000  -0.000000   0.000000  -0.000000
    43  H   -0.000000   0.000000  -0.000000   0.000000   0.000000   0.000000
    44  H    0.000000   0.000000  -0.000000  -0.000000  -0.000000  -0.000000
    45  H   -0.000000   0.000000   0.000000   0.000028   0.000002   0.000018
    46  H    0.000000  -0.000000  -0.000000  -0.000042  -0.000001   0.000005
    47  H    0.380124  -0.023352  -0.023659   0.004209  -0.000562   0.000045
    48  H    0.000000   0.000000  -0.000000   0.000094   0.000003   0.000397
               7          8          9         10         11         12
     1  C   -0.000030   0.015661   0.013853   0.007401  -0.000696  -0.001059
     2  H   -0.000005   0.013497   0.000047  -0.000361  -0.000191   0.000278
     3  H    0.000003  -0.009716  -0.002446   0.000343   0.000483   0.000927
     4  C   -0.047578  -0.226978  -0.135456  -0.052830   0.014100  -0.128275
     5  H   -0.005553  -0.088853   0.003960   0.002239  -0.000905  -0.065017
     6  O    0.270352  -0.059940   0.003198   0.000594  -0.000553  -0.018685
     7  H    0.358628   0.002161  -0.000762  -0.000949   0.000202   0.010784
     8  C    0.002161   5.650460   0.539057   0.267049  -0.037464   0.052731
     9  H   -0.000762   0.539057   0.563557  -0.056612  -0.001659   0.017287
    10  O   -0.000949   0.267049  -0.056612   8.026780   0.286477  -0.008417
    11  H    0.000202  -0.037464  -0.001659   0.286477   0.426510  -0.003521
    12  C    0.010784   0.052731   0.017287  -0.008417  -0.003521   5.622999
    13  H   -0.001910   0.016000   0.002749   0.016444  -0.001523   0.462003
    14  C    0.000339   0.000351  -0.115964  -0.048232  -0.004692  -0.123509
    15  H    0.000069  -0.035742   0.010309  -0.006913   0.005204  -0.002396
    16  O    0.000669  -0.040404   0.004591   0.007345   0.000356   0.278962
    17  N    0.009402   0.000385  -0.000873  -0.000508   0.000031   0.168291
    18  C   -0.002246  -0.004419  -0.000301  -0.000469   0.000024  -0.098957
    19  H    0.000406  -0.001219  -0.000062   0.000001   0.000001   0.010947
    20  C   -0.001618  -0.002284   0.000048   0.000018  -0.000002   0.021749
    21  H   -0.000019  -0.000011   0.000001   0.000000  -0.000000   0.000629
    22  C    0.000924   0.000102  -0.000009  -0.000006   0.000001  -0.016004
    23  H   -0.000002   0.000001  -0.000000  -0.000000   0.000000  -0.000033
    24  H    0.000311   0.000009  -0.000000   0.000000   0.000000   0.000803
    25  C    0.000168  -0.000350   0.000007  -0.000038  -0.000001  -0.005465
    26  C   -0.005161  -0.002696  -0.000164  -0.000840  -0.000054  -0.097950
    27  H   -0.000097  -0.000036  -0.000011  -0.000170   0.000009  -0.003829
    28  C    0.000007   0.000007   0.000000   0.000000  -0.000000   0.000217
    29  O    0.000013   0.000001   0.000000  -0.000000  -0.000000   0.000607
    30  N    0.000000  -0.000000  -0.000000  -0.000000  -0.000000   0.000020
    31  H   -0.000000  -0.000000   0.000000  -0.000000  -0.000000  -0.000004
    32  H   -0.000000   0.000000   0.000000   0.000000  -0.000000  -0.000008
    33  C    0.003389   0.000833   0.000016  -0.000557   0.000040  -0.000472
    34  C   -0.013430  -0.000020  -0.000001   0.000032  -0.000002  -0.006747
    35  C    0.005110  -0.000147  -0.000000   0.000002  -0.000000   0.000435
    36  C   -0.000007  -0.000000  -0.000000  -0.000000  -0.000000   0.000015
    37  C   -0.001239   0.000005  -0.000000  -0.000000   0.000000  -0.001016
    38  O    0.074243  -0.000151   0.000007   0.000017  -0.000001   0.012890
    39  S   -0.001349  -0.000044  -0.000001  -0.000001   0.000000  -0.000997
    40  H   -0.000476  -0.000034  -0.000000   0.000009  -0.000001   0.000005
    41  H   -0.003733  -0.001759   0.000020   0.001853  -0.000134   0.000977
    42  H    0.000000  -0.000000   0.000000   0.000000  -0.000000   0.000002
    43  H   -0.000001   0.000000   0.000000   0.000000   0.000000  -0.000001
    44  H    0.000001  -0.000000  -0.000000   0.000000   0.000000   0.000000
    45  H   -0.000223   0.000000   0.000000  -0.000000  -0.000000  -0.000080
    46  H    0.000034  -0.000001  -0.000000  -0.000000   0.000000   0.000166
    47  H    0.000034  -0.018108   0.000970   0.000148   0.000143  -0.001912
    48  H   -0.000247  -0.000004   0.000001   0.000005  -0.000002  -0.000047
              13         14         15         16         17         18
     1  C    0.000310   0.170555  -0.068053  -0.028673  -0.000008  -0.001643
     2  H    0.000048  -0.048645  -0.006736   0.000437  -0.000089  -0.000042
     3  H    0.000083  -0.038593  -0.004226   0.004837  -0.000032   0.000040
     4  C   -0.102480   0.186715  -0.011020  -0.075969   0.038522  -0.006101
     5  H    0.007295   0.021759   0.000108  -0.000826  -0.017161  -0.010113
     6  O    0.004139   0.009146   0.000079   0.005938  -0.005079   0.005473
     7  H   -0.001910   0.000339   0.000069   0.000669   0.009402  -0.002246
     8  C    0.016000   0.000351  -0.035742  -0.040404   0.000385  -0.004419
     9  H    0.002749  -0.115964   0.010309   0.004591  -0.000873  -0.000301
    10  O    0.016444  -0.048232  -0.006913   0.007345  -0.000508  -0.000469
    11  H   -0.001523  -0.004692   0.005204   0.000356   0.000031   0.000024
    12  C    0.462003  -0.123509  -0.002396   0.278962   0.168291  -0.098957
    13  H    0.501241  -0.008761   0.005412  -0.035497  -0.059762   0.010909
    14  C   -0.008761   5.377407   0.414852   0.197660   0.010092  -0.000978
    15  H    0.005412   0.414852   0.614756  -0.036249  -0.001412   0.000396
    16  O   -0.035497   0.197660  -0.036249   8.058590  -0.072286   0.017554
    17  N   -0.059762   0.010092  -0.001412  -0.072286   6.325237   0.346981
    18  C    0.010909  -0.000978   0.000396   0.017554   0.346981   5.059133
    19  H    0.000915  -0.001642   0.000038   0.002879  -0.043879   0.407140
    20  C    0.001695   0.001008   0.000030  -0.000900  -0.042051   0.367688
    21  H    0.000023  -0.000001  -0.000000  -0.000040   0.003473  -0.030714
    22  C   -0.001658  -0.000056  -0.000009   0.001243  -0.043381   0.071916
    23  H   -0.000016   0.000001  -0.000000   0.000003  -0.001173   0.003794
    24  H    0.000005   0.000000   0.000000   0.000005   0.005207   0.008558
    25  C    0.011166  -0.000399   0.000045  -0.004819  -0.005322  -0.025618
[...]
      5        1           0.003596013    0.003942478    0.002281967
      6        8           0.007148029    0.000933937   -0.005379796
      7        1          -0.003629153   -0.005969343    0.003714207
      8        6          -0.003486703   -0.011055581   -0.000259360
      9        1          -0.001030175    0.005456799   -0.003952573
     10        8           0.026782391    0.001378842   -0.005140260
     11        1          -0.024897318    0.005044081    0.008272993
     12        6          -0.001507519    0.008611225    0.004866744
     13        1          -0.001641671   -0.002029526   -0.001924417
     14        6           0.007101509    0.000295482    0.000748917
     15        1          -0.003765860    0.003046194    0.001343653
     16        8           0.005714688   -0.005496100   -0.006685196
     17        7           0.005678660    0.000102156   -0.000385899
     18        6          -0.010435855   -0.002817594   -0.000205684
     19        1          -0.000981583    0.006046681   -0.003250277
     20        6           0.004148873   -0.004176852    0.002708013
     21        1           0.003776893    0.004510558   -0.001380657
     22        6          -0.002237724    0.001558107   -0.002994855
     23        1           0.004001116   -0.001807385    0.004763615
     24        1          -0.000010604    0.000292902    0.000073473
     25        6           0.002741017   -0.001625380    0.001658934
     26        6          -0.006561727    0.005625172   -0.001258221
     27        1          -0.007034848   -0.005612291    0.002099491
     28        6           0.015839765   -0.001568547    0.020087787
     29        8          -0.006295793   -0.005059940   -0.008340278
     30        7          -0.003982393    0.001044799   -0.026069884
     31        1          -0.007055448   -0.007325801    0.006775282
     32        1           0.006176702    0.012666389    0.009531593
     33        6          -0.005849266   -0.014105507   -0.002911320
     34        6           0.004947498   -0.016695059    0.013152907
     35        6          -0.001933081    0.003919847   -0.007126275
     36        6          -0.004063617    0.005817027   -0.006800508
     37        6           0.000258230    0.005309687    0.006373082
     38        8           0.002149149    0.012643501   -0.010149284
     39       16           0.005321656    0.001673052   -0.001283347
     40        1           0.006089942    0.002966868   -0.003256203
     41        1          -0.001377743    0.005672681    0.005106858
     42        1          -0.000414310   -0.001036284    0.004582580
     43        1          -0.002433046   -0.005026639    0.004407076
     44        1           0.007490926   -0.003346614   -0.002507992
     45        1           0.003525421   -0.000942847   -0.005187335
     46        1          -0.003659339   -0.006931226    0.001445683
     47        1           0.001453545   -0.004387735   -0.001158052
     48        1          -0.001608275    0.003149465   -0.003949416
 -------------------------------------------------------------------
 Cartesian Forces:  Max     0.026782391 RMS     0.006713272
 Leave Link  716 at Sun Feb 19 04:50:14 2023, MaxMem=  2684354560 cpu:               0.4 elap:               0.0
 (Enter /storage/apps/GAUSSIAN/G16_RevA03/g16/l103.exe)

 GradGradGradGradGradGradGradGradGradGradGradGradGradGradGradGradGradGrad
 Berny optimization.
 Search for a local minimum.
 Step number   1 out of a maximum of    2
 All quantities printed in internal units (Hartrees-Bohrs-Radians)
 Second derivative matrix not updated -- first step.
 ITU=  0
     Eigenvalues ---    0.00015   0.00042   0.00077   0.00111   0.00155
     Eigenvalues ---    0.00190   0.00240   0.00245   0.00391   0.00441
     Eigenvalues ---    0.00543   0.00673   0.00763   0.00842   0.00882
     Eigenvalues ---    0.01031   0.01053   0.01140   0.01300   0.01473
     Eigenvalues ---    0.01740   0.01795   0.02144   0.02289   0.02650
     Eigenvalues ---    0.02754   0.03175   0.03226   0.03584   0.03782
     Eigenvalues ---    0.04104   0.04494   0.04911   0.05040   0.05081
     Eigenvalues ---    0.05189   0.05326   0.05532   0.05808   0.05890
     Eigenvalues ---    0.06073   0.06383   0.06659   0.06677   0.06949
     Eigenvalues ---    0.07160   0.07348   0.07505   0.07912   0.08061
     Eigenvalues ---    0.08537   0.08847   0.09062   0.09167   0.09928
     Eigenvalues ---    0.10720   0.10917   0.11252   0.11955   0.12229
     Eigenvalues ---    0.12593   0.12726   0.12745   0.12973   0.13056
     Eigenvalues ---    0.13786   0.14201   0.15158   0.15752   0.15984
     Eigenvalues ---    0.16839   0.17780   0.17865   0.18355   0.19252
     Eigenvalues ---    0.20073   0.20686   0.20871   0.21522   0.22447
     Eigenvalues ---    0.24326   0.26469   0.27139   0.27755   0.28851
     Eigenvalues ---    0.32264   0.33107   0.33889   0.34187   0.36705
     Eigenvalues ---    0.37151   0.37151   0.37151   0.37151   0.39044
     Eigenvalues ---    0.42790   0.47259   0.48324   0.54420   0.58269
     Eigenvalues ---    0.58502   0.60541   0.67368   0.70566   0.71696
     Eigenvalues ---    0.78448   0.80996   0.81870   0.86833   0.87112
     Eigenvalues ---    0.87900   0.88858   0.89644   0.91933   0.92696
     Eigenvalues ---    0.94726   0.96068   0.97530   0.99730   1.01263
     Eigenvalues ---    1.02850   1.05788   1.08750   1.09360   1.11445
     Eigenvalues ---    1.15747   1.22490   1.24939   1.25956   1.26945
     Eigenvalues ---    1.32187   1.41279   1.43961   1.53408   1.70162
     Eigenvalues ---    1.77108   1.84036   2.32440
 Quadratic step=5.061D+00 exceeds max=3.000D-01 adjusted using Lamda=-2.850D-02.
 Angle between NR and scaled steps=  61.56 degrees.
 Angle between quadratic step and forces=  61.57 degrees.
 Linear search not attempted -- first point.
 Variable       Old X    -DE/DX   Delta X   Delta X   Delta X     New X
                                 (Linear)    (Quad)   (Total)
    X1        6.27606  -0.00202   0.00000  -0.02667  -0.02667   6.24940
    Y1       -6.92010   0.00862   0.00000   0.02312   0.02312  -6.89697
    Z1       -1.02098   0.00010   0.00000   0.00263   0.00263  -1.01836
    X2        6.41360  -0.00075   0.00000  -0.01266  -0.01266   6.40094
    Y2       -7.20156  -0.00026   0.00000   0.01305   0.01305  -7.18851
    Z2       -3.07364   0.00667   0.00000   0.02086   0.02086  -3.05279
    X3        8.00400  -0.00720   0.00000  -0.04912  -0.04912   7.95489
    Y3       -7.63294  -0.00110   0.00000  -0.01632  -0.01632  -7.64925
    Z3       -0.10958  -0.00312   0.00000  -0.02106  -0.02106  -0.13064
    X4        2.77254  -0.00807   0.00000   0.00275   0.00275   2.77529
    Y4       -2.52876  -0.00194   0.00000   0.00482   0.00482  -2.52394
    Z4        2.24420   0.00392   0.00000   0.00613   0.00613   2.25033
    X5        1.63364   0.00360   0.00000   0.02871   0.02871   1.66235
    Y5       -4.26805   0.00394   0.00000   0.00229   0.00229  -4.26576
    Z5        1.95412   0.00228   0.00000   0.03693   0.03693   1.99105
    X6        1.91859   0.00715   0.00000   0.04921   0.04921   1.96780
    Y6       -1.13079   0.00093   0.00000   0.00685   0.00685  -1.12394
    Z6        4.26464  -0.00538   0.00000   0.00935   0.00935   4.27398
    X7        0.52597  -0.00363   0.00000  -0.05843  -0.05843   0.46753
    Y7        0.07976  -0.00597   0.00000  -0.10017  -0.10017  -0.02041
    Z7        3.81083   0.00371   0.00000   0.06777   0.06777   3.87860
    X8        5.53588  -0.00349   0.00000   0.00141   0.00141   5.53730
    Y8       -3.42843  -0.01106   0.00000   0.00763   0.00763  -3.42080
    Z8        2.38088  -0.00026   0.00000  -0.00975  -0.00975   2.37113
    X9        5.73764  -0.00103   0.00000   0.00886   0.00886   5.74651
    Y9       -5.09379   0.00546   0.00000   0.02080   0.02080  -5.07299
    Z9        3.62531  -0.00395   0.00000  -0.02474  -0.02474   3.60056
   X10        7.04578   0.02678   0.00000   0.00239   0.00239   7.04817
   Y10       -1.42724   0.00138   0.00000   0.02095   0.02095  -1.40629
   Z10        3.20754  -0.00514   0.00000  -0.00295  -0.00295   3.20460
   X11        8.82527  -0.02490   0.00000  -0.03833  -0.03833   8.78693
   Y11       -1.78631   0.00504   0.00000   0.02142   0.02142  -1.76489
   Z11        2.75297   0.00827   0.00000   0.03818   0.03818   2.79116
   X12        2.89676  -0.00151   0.00000  -0.00920  -0.00920   2.88755
   Y12       -1.18350   0.00861   0.00000   0.00329   0.00329  -1.18021
   Z12       -0.30093   0.00487   0.00000  -0.00081  -0.00081  -0.30174
   X13        3.94993  -0.00164   0.00000  -0.00771  -0.00771   3.94222
   Y13        0.59214  -0.00203   0.00000  -0.00160  -0.00160   0.59054
   Z13       -0.07047  -0.00192   0.00000  -0.03031  -0.03031  -0.10078
   X14        6.07357   0.00710   0.00000   0.00879   0.00879   6.08237
   Y14       -4.11468   0.00030   0.00000   0.01774   0.01774  -4.09694
   Z14       -0.42580   0.00075   0.00000  -0.00172  -0.00172  -0.42752
   X15        7.88083  -0.00377   0.00000  -0.01035  -0.01035   7.87048
   Y15       -3.24712   0.00305   0.00000   0.04530   0.04530  -3.20181
   Z15       -0.97935   0.00134   0.00000  -0.00093  -0.00093  -0.98028
   X16        4.09605   0.00571   0.00000   0.00486   0.00486   4.10091
   Y16       -2.92427  -0.00550   0.00000  -0.00233  -0.00233  -2.92660
   Z16       -1.86788  -0.00669   0.00000  -0.01052  -0.01052  -1.87841
   X17        0.46375   0.00568   0.00000  -0.01632  -0.01632   0.44743
   Y17       -0.52661   0.00010   0.00000  -0.00353  -0.00353  -0.53014
   Z17       -1.46635  -0.00039   0.00000   0.01271   0.01271  -1.45364
   X18       -1.34730  -0.01044   0.00000  -0.02335  -0.02335  -1.37065
   Y18       -2.33858  -0.00282   0.00000   0.00131   0.00131  -2.33727
   Z18       -1.61712  -0.00021   0.00000   0.00629   0.00629  -1.61083
   X19       -0.94133  -0.00098   0.00000  -0.00860  -0.00860  -0.94993
   Y19       -4.12167   0.00605   0.00000   0.01135   0.01135  -4.11032
   Z19       -0.68431  -0.00325   0.00000  -0.02028  -0.02028  -0.70458
   X20       -3.56682   0.00415   0.00000  -0.00013  -0.00013  -3.56696
   Y20       -1.88984  -0.00418   0.00000  -0.00272  -0.00272  -1.89256
   Z20       -2.86578   0.00271   0.00000  -0.00346  -0.00346  -2.86924
   X21       -5.01572   0.00378   0.00000   0.01837   0.01837  -4.99735
   Y21       -3.34824   0.00451   0.00000   0.00269   0.00269  -3.34556
   Z21       -2.86671  -0.00138   0.00000  -0.03568  -0.03568  -2.90239
   X22       -3.91103  -0.00224   0.00000  -0.00327  -0.00327  -3.91430
   Y22        0.44104   0.00156   0.00000  -0.00273  -0.00273   0.43832
   Z22       -4.08249  -0.00299   0.00000   0.00547   0.00547  -4.07702
   X23       -5.63620   0.00400   0.00000   0.00916   0.00916  -5.62704
   Y23        0.82467  -0.00181   0.00000  -0.01451  -0.01451   0.81016
   Z23       -5.14350   0.00476   0.00000   0.01483   0.01483  -5.12867
   X24       -5.62554  -0.00001   0.00000   0.00393   0.00393  -5.62162
   Y24        2.46729   0.00029   0.00000   0.02529   0.02529   2.49258
   Z24       -0.88644   0.00007   0.00000   0.00619   0.00619  -0.88025
   X25       -1.99600   0.00274   0.00000  -0.01200  -0.01200  -2.00800
   Y25        2.24059  -0.00163   0.00000  -0.00242  -0.00242   2.23818
   Z25       -3.98812   0.00166   0.00000   0.02203   0.02203  -3.96609
   X26        0.17714  -0.00656   0.00000  -0.04114  -0.04114   0.13599
   Y26        1.73376   0.00563   0.00000   0.00177   0.00177   1.73553
   Z26       -2.60343  -0.00126   0.00000   0.03602   0.03602  -2.56741
   X27        1.72298  -0.00703   0.00000  -0.05457  -0.05457   1.66841
   Y27        3.10227  -0.00561   0.00000  -0.01476  -0.01476   3.08750
   Z27       -2.50897   0.00210   0.00000   0.04931   0.04931  -2.45967
   X28       -2.12262   0.01584   0.00000   0.02153   0.02153  -2.10109
   Y28        4.74480  -0.00157   0.00000  -0.01250  -0.01250   4.73231
   Z28       -5.35082   0.02009   0.00000   0.01540   0.01540  -5.33542
   X29       -0.73039  -0.00630   0.00000   0.02293   0.02293  -0.70746
   Y29        6.45782  -0.00506   0.00000  -0.00894  -0.00894   6.44889
   Z29       -4.72811  -0.00834   0.00000  -0.03585  -0.03585  -4.76397
   X30       -3.84244  -0.00398   0.00000   0.03639   0.03639  -3.80605
   Y30        4.91237   0.00104   0.00000  -0.00363  -0.00363   4.90875
   Z30       -7.23158  -0.02607   0.00000  -0.02581  -0.02581  -7.25740
   X31       -3.50248  -0.00706   0.00000  -0.04079  -0.04079  -3.54327
   Y31        6.42350  -0.00733   0.00000  -0.00125  -0.00125   6.42225
   Z31       -8.38992   0.00678   0.00000  -0.00516  -0.00516  -8.39508
   X32       -4.48987   0.00618   0.00000   0.05167   0.05167  -4.43819
   Y32        3.32169   0.01267   0.00000   0.01403   0.01403   3.33572
   Z32       -8.13113   0.00953   0.00000   0.00957   0.00957  -8.12156
   X33        0.95157  -0.00585   0.00000  -0.02683  -0.02683   0.92474
   Y33        4.16253  -0.01411   0.00000  -0.02390  -0.02390   4.13862
   Z33        7.34905  -0.00291   0.00000  -0.00563  -0.00563   7.34342
   X34       -2.11884   0.00495   0.00000   0.00449   0.00449  -2.11435
   Y34        4.10571  -0.01670   0.00000  -0.01027  -0.01027   4.09544
   Z34        3.00700   0.01315   0.00000   0.00988   0.00988   3.01688
   X35       -3.50252  -0.00193   0.00000  -0.01290  -0.01290  -3.51541
   Y35        5.30986   0.00392   0.00000   0.00239   0.00239   5.31224
   Z35        1.16864  -0.00713   0.00000   0.01589   0.01589   1.18452
   X36       -7.26091  -0.00406   0.00000  -0.00272  -0.00272  -7.26364
   Y36        6.17226   0.00582   0.00000   0.00528   0.00528   6.17755
   Z36       -1.61727  -0.00680   0.00000  -0.00294  -0.00294  -1.62021
   X37       -5.91547   0.00026   0.00000  -0.00566  -0.00566  -5.92113
   Y37        4.26419   0.00531   0.00000   0.01993   0.01993   4.28412
   Z37        0.11445   0.00637   0.00000   0.01349   0.01349   0.12794
   X38       -2.11220   0.00215   0.00000   0.04380   0.04380  -2.06840
   Y38        1.76239   0.01264   0.00000  -0.00999  -0.00999   1.75240
   Z38        3.57797  -0.01015   0.00000  -0.07279  -0.07279   3.50519
   X39       -0.30951   0.00532   0.00000   0.03367   0.03367  -0.27583
   Y39        6.27062   0.00167   0.00000  -0.01489  -0.01489   6.25573
   Z39        4.97965  -0.00128   0.00000  -0.01691  -0.01691   4.96274
   X40       -0.62066   0.00609   0.00000  -0.00942  -0.00942  -0.63008
   Y40        3.28717   0.00297   0.00000  -0.00272  -0.00272   3.28444
   Z40        8.38992  -0.00326   0.00000  -0.00549  -0.00549   8.38444
   X41        2.05547  -0.00138   0.00000   0.01517   0.01517   2.07064
   Y41        2.65631   0.00567   0.00000   0.00134   0.00134   2.65765
   Z41        6.44870   0.00511   0.00000   0.05201   0.05201   6.50071
   X42       -8.06538  -0.00041   0.00000  -0.03019  -0.03019  -8.09558
   Y42        5.29084  -0.00104   0.00000  -0.01740  -0.01740   5.27344
   Z42       -3.31475   0.00458   0.00000   0.03296   0.03296  -3.28180
   X43       -5.96006  -0.00243   0.00000   0.01022   0.01022  -5.94984
   Y43        7.63294  -0.00503   0.00000  -0.02840  -0.02840   7.60454
   Z43       -2.33361   0.00441   0.00000   0.00247   0.00247  -2.33114
   X44       -8.82527   0.00749   0.00000   0.04304   0.04304  -8.78223
   Y44        7.15070  -0.00335   0.00000   0.02338   0.02338   7.17407
   Z44       -0.64825  -0.00251   0.00000   0.00264   0.00264  -0.64561
   X45       -7.17915   0.00353   0.00000   0.00006   0.00006  -7.17908
   Y45        3.75831  -0.00094   0.00000  -0.00872  -0.00872   3.74959
   Z45        1.69861  -0.00519   0.00000  -0.01351  -0.01351   1.68510
   X46       -3.06517  -0.00366   0.00000  -0.03910  -0.03910  -3.10427
   Y46        7.30244  -0.00693   0.00000  -0.00950  -0.00950   7.29294
   Z46        0.82362   0.00145   0.00000   0.03297   0.03297   0.85659
   X47        4.61312   0.00145   0.00000  -0.00592  -0.00592   4.60720
   Y47       -7.88667  -0.00439   0.00000  -0.02635  -0.02635  -7.91302
   Z47       -0.28401  -0.00116   0.00000  -0.02020  -0.02020  -0.30421
   X48        2.14431  -0.00161   0.00000  -0.05429  -0.05429   2.09003
   Y48        5.20420   0.00315   0.00000   0.04052   0.04052   5.24473
   Z48        8.66627  -0.00395   0.00000  -0.03488  -0.03488   8.63138
         Item               Value     Threshold  Converged?
 Maximum Force            0.026782     0.000450     NO 
 RMS     Force            0.006713     0.000300     NO 
 Maximum Displacement     0.100175     0.001800     NO 
 RMS     Displacement     0.025036     0.001200     NO 
 Predicted change in Energy=-7.048110D-03
 GradGradGradGradGradGradGradGradGradGradGradGradGradGradGradGradGradGrad

 Leave Link  103 at Sun Feb 19 04:50:14 2023, MaxMem=  2684354560 cpu:               1.4 elap:               0.1
 (Enter /storage/apps/GAUSSIAN/G16_RevA03/g16/l9999.exe)

 Test job not archived.
 1\1\GINC-T027\Force\RM062X\def2TZVP\C16H24N2O5S1\LV87696\19-Feb-2023\0
 \\#P M062X/Def2TZVP scf=(direct,conver=8) EmpiricalDispersion=GD3 NoSy
 mm Force pop=(NBORead) Charge Prop=(Field,Read)\\Gaussian run using SA
 NDER external interface, route from template gau_job.tpl\\0,1\C,3.3211
 496126,-3.6619575259,-0.5402817568\H,3.3939300163,-3.8109020345,-1.626
 5019427\H,4.235535612,-4.0391763396,-0.0579847417\C,1.467164758,-1.338
 1617461,1.1875772634\H,0.8644865559,-2.2585550242,1.0340755758\O,1.015
 2747804,-0.5983868153,2.2567490072\H,0.2783298925,0.0422073349,2.01660
 37504\C,2.9294635967,-1.8142466914,1.2599086748\H,3.0362305827,-2.6955
 183557,1.9184302497\O,3.7284672,-0.7552638974,1.6973595513\H,4.6701300
 724,-0.945274654,1.4568099698\C,1.532898508,-0.6262828996,-0.159243587
 4\H,2.0902152676,0.3133464598,-0.0372896127\C,3.2139966918,-2.17739404
 54,-0.2253227459\H,4.1703550721,-1.7183006942,-0.5182502733\O,2.167536
 7454,-1.5474594691,-0.9884420111\N,0.2454064094,-0.2786700523,-0.77595
 82012\C,-0.7129596791,-1.2375232341,-0.8557421617\H,-0.4981320421,-2.1
 810930298,-0.3621194813\C,-1.8874819595,-1.0000602042,-1.5165043593\H,
 -2.6542027537,-1.7718143891,-1.5169985537\C,-2.0696288881,0.2333892207
 ,-2.1603605194\H,-2.9825487405,0.4363977715,-2.7218247822\H,-2.9769091
 915,1.305633166,-0.4690854948\C,-1.0562385334,1.1856704228,-2.11042262
 29\C,0.0937362541,0.917466557,-1.3776755709\H,0.9117598645,1.641648794
 ,-1.3276908931\C,-1.1232409884,2.5108413748,-2.8315335505\O,-0.3865037
 619,3.4173330558,-2.5020090161\N,-2.0333332133,2.5995152942,-3.8267890
 182\H,-1.8534315344,3.3991717349,-4.4397569108\H,-2.3759353378,1.75776
 30615,-4.3028081706\C,0.5035501755,2.2027140677,3.8889502997\C,-1.1212
 433928,2.1726478012,1.5912378456\C,-1.8534513169,2.809854764,0.6184166
 534\C,-3.8423102799,3.2662211687,-0.8558224895\C,-3.1303329594,2.25651
 22368,0.0605644934\O,-1.1177256292,0.9326168293,1.8933827505\S,-0.1637
 848665,3.3182691814,2.6351168108\H,-0.3284372438,1.7394940815,4.439756
 9108\H,1.0877062355,1.4056612525,3.4125051089\H,-4.2680177148,2.799790
 2934,-1.7540927573\H,-3.1539286846,4.0391763396,-1.2348932577\H,-4.670
 1300724,3.7839859635,-0.3430416534\H,-3.7990404801,1.988811871,0.89886
 57786\H,-1.6220160035,3.8642824514,0.4358393754\H,2.4411554991,-4.1734
 454894,-0.1502940348\H,1.1347222499,2.7539466522,4.5859900763\\Version
 =ES64L-G16RevA.03\HF=-1507.8548226\RMSD=7.535e-09\RMSF=6.713e-03\Dipol
 e=0.654303,-3.1554119,-3.5864432\Quadrupole=11.9107531,-12.1349774,0.2
 242243,-4.278949,12.6389667,-8.6372152\PG=C01 [X(C16H24N2O5S1)]\\@


 ... FOR AFTERWARDS A MAN FINDS PLEASURE IN HIS PAINS,
 WHEN HE HAS SUFFERED LONG AND WANDERED FAR.

                                    -- HOMER
 Job cpu time:       0 days  3 hours 13 minutes  6.4 seconds.
 Elapsed time:       0 days  0 hours 12 minutes  5.4 seconds.
 File lengths (MBytes):  RWF=    435 Int=      0 D2E=      0 Chk=     48 Scr=      1
 Normal termination of Gaussian 16 at Sun Feb 19 04:50:14 2023.
