 Entering Gaussian System, Link 0=g16
 Initial command:
 /opt/gaussian/g16/l1.exe "/opt/gaussian/scratch16/Gau-2681375.inp" -scrdir="/opt/gaussian/scratch16/"
 Entering Link 1 = /opt/gaussian/g16/l1.exe PID=   2681377.
  
 Copyright (c) 1988,1990,1992,1993,1995,1998,2003,2009,2016,
            Gaussian, Inc.  All Rights Reserved.
  
 This is part of the Gaussian(R) 16 program.  It is based on
 the Gaussian(R) 09 system (copyright 2009, Gaussian, Inc.),
 the Gaussian(R) 03 system (copyright 2003, Gaussian, Inc.),
 the Gaussian(R) 98 system (copyright 1998, Gaussian, Inc.),
 the Gaussian(R) 94 system (copyright 1995, Gaussian, Inc.),
 the Gaussian 92(TM) system (copyright 1992, Gaussian, Inc.),
 the Gaussian 90(TM) system (copyright 1990, Gaussian, Inc.),
 the Gaussian 88(TM) system (copyright 1988, Gaussian, Inc.),
 the Gaussian 86(TM) system (copyright 1986, Carnegie Mellon
 University), and the Gaussian 82(TM) system (copyright 1983,
 Carnegie Mellon University). Gaussian is a federally registered
 trademark of Gaussian, Inc.
  
 This software contains proprietary and confidential information,
 including trade secrets, belonging to Gaussian, Inc.
  
 This software is provided under written license and may be
 used, copied, transmitted, or stored only in accord with that
 written license.
  
 The following legend is applicable only to US Government
 contracts under FAR:
  
                    RESTRICTED RIGHTS LEGEND
  
 Use, reproduction and disclosure by the US Government is
 subject to restrictions as set forth in subparagraphs (a)
 and (c) of the Commercial Computer Software - Restricted
 Rights clause in FAR 52.227-19.
  
 Gaussian, Inc.
 340 Quinnipiac St., Bldg. 40, Wallingford CT 06492
  
  
 ---------------------------------------------------------------
 Warning -- This program may not be used in any manner that
 competes with the business of Gaussian, Inc. or will provide
 assistance to any competitor of Gaussian, Inc.  The licensee
 of this program is prohibited from giving any competitor of
 Gaussian, Inc. access to this program.  By using this program,
 the user acknowledges that Gaussian, Inc. is engaged in the
 business of creating and licensing software in the field of
 computational chemistry and represents and warrants to the
 licensee that it is not a competitor of Gaussian, Inc. and that
 it will not use this program in any manner prohibited above.
 ---------------------------------------------------------------
  

 Cite this work as:
 Gaussian 16, Revision A.03,
 M. J. Frisch, G. W. Trucks, H. B. Schlegel, G. E. Scuseria, 
 M. A. Robb, J. R. Cheeseman, G. Scalmani, V. Barone, 
 G. A. Petersson, H. Nakatsuji, X. Li, M. Caricato, A. V. Marenich, 
 J. Bloino, B. G. Janesko, R. Gomperts, B. Mennucci, H. P. Hratchian, 
 J. V. Ortiz, A. F. Izmaylov, J. L. Sonnenberg, D. Williams-Young, 
 F. Ding, F. Lipparini, F. Egidi, J. Goings, B. Peng, A. Petrone, 
 T. Henderson, D. Ranasinghe, V. G. Zakrzewski, J. Gao, N. Rega, 
 G. Zheng, W. Liang, M. Hada, M. Ehara, K. Toyota, R. Fukuda, 
 J. Hasegawa, M. Ishida, T. Nakajima, Y. Honda, O. Kitao, H. Nakai, 
 T. Vreven, K. Throssell, J. A. Montgomery, Jr., J. E. Peralta, 
 F. Ogliaro, M. J. Bearpark, J. J. Heyd, E. N. Brothers, K. N. Kudin, 
 V. N. Staroverov, T. A. Keith, R. Kobayashi, J. Normand, 
 K. Raghavachari, A. P. Rendell, J. C. Burant, S. S. Iyengar, 
 J. Tomasi, M. Cossi, J. M. Millam, M. Klene, C. Adamo, R. Cammi, 
 J. W. Ochterski, R. L. Martin, K. Morokuma, O. Farkas, 
 J. B. Foresman, and D. J. Fox, Gaussian, Inc., Wallingford CT, 2016.
 
 ******************************************
 Gaussian 16:  ES64L-G16RevA.03 25-Dec-2016
                 8-Mar-2023 
 ******************************************
 %chk=4.chk
 %NProcShared=16
 Will use up to   16 processors via shared memory.
 %mem=20GB
 ----------------------------------------------------------------------
 #P M062X/Def2TZVP scf=(direct,conver=8) EmpiricalDispersion=GD3 NoSymm
  Force pop=(NBORead) Charge Prop=(Field,Read)
 ----------------------------------------------------------------------
 1/10=7,18=10,28=-2,30=1,38=1,125=101/1,3;
 2/12=2,15=1,17=6,18=5,29=2,40=1/2;
 3/5=44,7=101,11=2,25=1,30=1,71=1,74=-55,124=31/1,2,3;
 4//1;
 5/5=2,6=8,38=5/2;
 6/7=2,8=2,9=2,10=2,14=2,15=1,28=1,40=2/1,2,7;
 7/7=1,16=-2,29=1,30=1/1,2,3,16;
 1/10=7,18=10,28=-2,30=1/3;
 99/12=1/99;
 Leave Link    1 at Wed Mar  8 13:58:35 2023, MaxMem=  2684354560 cpu:               1.0 elap:               0.1
 (Enter /opt/gaussian/g16/l101.exe)
 ----------------------------------------------------------------------
 Gaussian run using SANDER external interface, route from template gau_
 job.tpl
 ----------------------------------------------------------------------
 Symbolic Z-matrix:
 Charge =  0 Multiplicity = 1
 C                     3.44028  -3.55098  -0.8344 
 H                     3.40243  -3.62618  -1.92933 
 H                     4.40039  -3.92845  -0.45391 
 C                     1.59344  -1.21022   0.98887 
 H                     0.86876  -2.05268   1.01288 
 O                     1.29098  -0.36221   2.07849 
 H                     0.39671   0.02518   2.04007 
 C                     3.06974  -1.70482   1.03379 
 H                     3.25471  -2.54083   1.7398 
 O                     3.86768  -0.60416   1.44674 
 H                     4.81921  -0.77386   1.37143 
 C                     1.60031  -0.45952  -0.36644 
 H                     2.19724   0.47066  -0.28434 
 C                     3.38383  -2.0408   -0.47213 
 H                     4.3048   -1.52999  -0.82167 
 O                     2.30445  -1.39385  -1.20521 
 N                     0.32812  -0.14929  -0.93575 
 C                    -0.53277  -1.20731  -1.32291 
 H                    -0.09989  -2.18723  -1.14394 
 C                    -1.69748  -0.96962  -1.8856 
 H                    -2.32247  -1.80525  -2.19491 
 C                    -2.23248   0.44148  -2.1185 
 H                    -2.74024   0.50207  -3.09467 
 H                    -2.97045   0.69533  -1.33031 
 C                    -1.06031   1.44323  -2.04125 
 C                     0.09896   1.12125  -1.46559 
 H                     0.95045   1.79913  -1.41144 
 C                    -1.25568   2.82109  -2.5437 
 O                    -0.84847   3.79998  -1.97133 
 N                    -2.07365   2.99433  -3.63853 
 H                    -2.01263   3.92845  -4.01174 
 H                    -2.06753   2.24732  -4.31154 
 C                     0.94884   2.17263   3.79473 
 C                    -0.94156   2.19636   1.79096 
 C                    -1.86078   2.84592   0.85616 
 C                    -4.08139   3.12959  -0.28965 
 C                    -3.10324   2.4185    0.62374 
 O                    -0.99988   1.00538   2.11967 
 S                     0.22352   3.23593   2.49395 
 H                     0.11199   1.68312   4.31154 
 H                     1.58707   1.41766   3.31317 
 H                    -4.81921   2.41479  -0.67357 
 H                    -3.53765   3.61821  -1.10874 
 H                    -4.61888   3.90474   0.27763 
 H                    -3.47554   1.53      1.15368 
 H                    -1.46688   3.74554   0.37123 
 H                     2.60106  -4.08114  -0.38414 
 H                     1.53504   2.77059   4.49252 
 
 ITRead=  0  0  0  0  0  0  0  0  0  0  0  0  0  0  0  0  0  0  0  0
 ITRead=  0  0  0  0  0  0  0  0  0  0  0  0  0  0  0  0  0  0  0  0
 ITRead=  0  0  0  0  0  0  0  0
 MicOpt= -1 -1 -1 -1 -1 -1 -1 -1 -1 -1 -1 -1 -1 -1 -1 -1 -1 -1 -1 -1
 MicOpt= -1 -1 -1 -1 -1 -1 -1 -1 -1 -1 -1 -1 -1 -1 -1 -1 -1 -1 -1 -1
 MicOpt= -1 -1 -1 -1 -1 -1 -1 -1
 NAtoms=     48 NQM=       48 NQMF=       0 NMMI=      0 NMMIF=      0
                NMic=       0 NMicF=      0.
                    Isotopes and Nuclear Properties:
 (Nuclear quadrupole moments (NQMom) in fm**2, nuclear magnetic moments (NMagM)
  in nuclear magnetons)

  Atom         1           2           3           4           5           6           7           8           9          10
 IAtWgt=          12           1           1          12           1          16           1          12           1          16
 AtmWgt=  12.0000000   1.0078250   1.0078250  12.0000000   1.0078250  15.9949146   1.0078250  12.0000000   1.0078250  15.9949146
 NucSpn=           0           1           1           0           1           0           1           0           1           0
 AtZEff=  -0.0000000  -0.0000000  -0.0000000  -0.0000000  -0.0000000  -0.0000000  -0.0000000  -0.0000000  -0.0000000  -0.0000000
 NQMom=    0.0000000   0.0000000   0.0000000   0.0000000   0.0000000   0.0000000   0.0000000   0.0000000   0.0000000   0.0000000
 NMagM=    0.0000000   2.7928460   2.7928460   0.0000000   2.7928460   0.0000000   2.7928460   0.0000000   2.7928460   0.0000000
 AtZNuc=   6.0000000   1.0000000   1.0000000   6.0000000   1.0000000   8.0000000   1.0000000   6.0000000   1.0000000   8.0000000

  Atom        11          12          13          14          15          16          17          18          19          20
 IAtWgt=           1          12           1          12           1          16          14          12           1          12
 AtmWgt=   1.0078250  12.0000000   1.0078250  12.0000000   1.0078250  15.9949146  14.0030740  12.0000000   1.0078250  12.0000000
 NucSpn=           1           0           1           0           1           0           2           0           1           0
 AtZEff=  -0.0000000  -0.0000000  -0.0000000  -0.0000000  -0.0000000  -0.0000000  -0.0000000  -0.0000000  -0.0000000  -0.0000000
 NQMom=    0.0000000   0.0000000   0.0000000   0.0000000   0.0000000   0.0000000   2.0440000   0.0000000   0.0000000   0.0000000
 NMagM=    2.7928460   0.0000000   2.7928460   0.0000000   2.7928460   0.0000000   0.4037610   0.0000000   2.7928460   0.0000000
 AtZNuc=   1.0000000   6.0000000   1.0000000   6.0000000   1.0000000   8.0000000   7.0000000   6.0000000   1.0000000   6.0000000

  Atom        21          22          23          24          25          26          27          28          29          30
 IAtWgt=           1          12           1           1          12          12           1          12          16          14
 AtmWgt=   1.0078250  12.0000000   1.0078250   1.0078250  12.0000000  12.0000000   1.0078250  12.0000000  15.9949146  14.0030740
 NucSpn=           1           0           1           1           0           0           1           0           0           2
 AtZEff=  -0.0000000  -0.0000000  -0.0000000  -0.0000000  -0.0000000  -0.0000000  -0.0000000  -0.0000000  -0.0000000  -0.0000000
 NQMom=    0.0000000   0.0000000   0.0000000   0.0000000   0.0000000   0.0000000   0.0000000   0.0000000   0.0000000   2.0440000
 NMagM=    2.7928460   0.0000000   2.7928460   2.7928460   0.0000000   0.0000000   2.7928460   0.0000000   0.0000000   0.4037610
 AtZNuc=   1.0000000   6.0000000   1.0000000   1.0000000   6.0000000   6.0000000   1.0000000   6.0000000   8.0000000   7.0000000

  Atom        31          32          33          34          35          36          37          38          39          40
 IAtWgt=           1           1          12          12          12          12          12          16          32           1
 AtmWgt=   1.0078250   1.0078250  12.0000000  12.0000000  12.0000000  12.0000000  12.0000000  15.9949146  31.9720718   1.0078250
 NucSpn=           1           1           0           0           0           0           0           0           0           1
 AtZEff=  -0.0000000  -0.0000000  -0.0000000  -0.0000000  -0.0000000  -0.0000000  -0.0000000  -0.0000000  -0.0000000  -0.0000000
 NQMom=    0.0000000   0.0000000   0.0000000   0.0000000   0.0000000   0.0000000   0.0000000   0.0000000   0.0000000   0.0000000
 NMagM=    2.7928460   2.7928460   0.0000000   0.0000000   0.0000000   0.0000000   0.0000000   0.0000000   0.0000000   2.7928460
 AtZNuc=   1.0000000   1.0000000   6.0000000   6.0000000   6.0000000   6.0000000   6.0000000   8.0000000  16.0000000   1.0000000

  Atom        41          42          43          44          45          46          47          48
 IAtWgt=           1           1           1           1           1           1           1           1
 AtmWgt=   1.0078250   1.0078250   1.0078250   1.0078250   1.0078250   1.0078250   1.0078250   1.0078250
 NucSpn=           1           1           1           1           1           1           1           1
 AtZEff=  -0.0000000  -0.0000000  -0.0000000  -0.0000000  -0.0000000  -0.0000000  -0.0000000  -0.0000000
 NQMom=    0.0000000   0.0000000   0.0000000   0.0000000   0.0000000   0.0000000   0.0000000   0.0000000
 NMagM=    2.7928460   2.7928460   2.7928460   2.7928460   2.7928460   2.7928460   2.7928460   2.7928460
 AtZNuc=   1.0000000   1.0000000   1.0000000   1.0000000   1.0000000   1.0000000   1.0000000   1.0000000
 Background charge distribution read from input stream:
 Leave Link  101 at Wed Mar  8 13:58:35 2023, MaxMem=  2684354560 cpu:               3.3 elap:               0.2
 (Enter /opt/gaussian/g16/l103.exe)

 GradGradGradGradGradGradGradGradGradGradGradGradGradGradGradGradGradGrad
 Berny optimization.
 Initialization pass.
 Trust Radius=3.00D-01 FncErr=1.00D-07 GrdErr=1.00D-07 EigMax=2.50D+02 EigMin=1.00D-04
 Number of steps in this run=      2 maximum allowed number of steps=      2.
 GradGradGradGradGradGradGradGradGradGradGradGradGradGradGradGradGradGrad

 Leave Link  103 at Wed Mar  8 13:58:35 2023, MaxMem=  2684354560 cpu:               0.2 elap:               0.0
 (Enter /opt/gaussian/g16/l202.exe)
 ---------------------------------------------------------------------------------------------------
                            Z-MATRIX (ANGSTROMS AND DEGREES)
   CD    Cent   Atom    N1       Length/X        N2       Alpha/Y        N3        Beta/Z          J
 ---------------------------------------------------------------------------------------------------
      1      1  C        0   3.440276         -3.550982         -0.834404
      2      2  H        0   3.402425         -3.626184         -1.929326
      3      3  H        0   4.400392         -3.928453         -0.453907
      4      4  C        0   1.593439         -1.210219          0.988873
      5      5  H        0   0.868757         -2.052679          1.012876
      6      6  O        0   1.290982         -0.362206          2.078494
      7      7  H        0   0.396710          0.025183          2.040071
      8      8  C        0   3.069739         -1.704819          1.033788
      9      9  H        0   3.254709         -2.540829          1.739796
     10     10  O        0   3.867677         -0.604160          1.446740
     11     11  H        0   4.819213         -0.773862          1.371425
     12     12  C        0   1.600313         -0.459519         -0.366444
     13     13  H        0   2.197244          0.470657         -0.284342
     14     14  C        0   3.383826         -2.040801         -0.472132
     15     15  H        0   4.304800         -1.529993         -0.821668
     16     16  O        0   2.304449         -1.393851         -1.205207
     17     17  N        0   0.328124         -0.149286         -0.935750
     18     18  C        0  -0.532767         -1.207307         -1.322906
     19     19  H        0  -0.099888         -2.187228         -1.143938
     20     20  C        0  -1.697478         -0.969624         -1.885600
     21     21  H        0  -2.322474         -1.805251         -2.194906
     22     22  C        0  -2.232483          0.441484         -2.118496
     23     23  H        0  -2.740237          0.502075         -3.094669
     24     24  H        0  -2.970446          0.695327         -1.330307
     25     25  C        0  -1.060306          1.443232         -2.041246
     26     26  C        0   0.098960          1.121246         -1.465594
     27     27  H        0   0.950447          1.799131         -1.411441
     28     28  C        0  -1.255679          2.821092         -2.543699
     29     29  O        0  -0.848470          3.799982         -1.971332
     30     30  N        0  -2.073649          2.994328         -3.638528
     31     31  H        0  -2.012626          3.928453         -4.011739
     32     32  H        0  -2.067528          2.247325         -4.311540
     33     33  C        0   0.948843          2.172627          3.794727
     34     34  C        0  -0.941563          2.196358          1.790961
     35     35  C        0  -1.860777          2.845920          0.856157
     36     36  C        0  -4.081388          3.129594         -0.289650
     37     37  C        0  -3.103238          2.418499          0.623741
     38     38  O        0  -0.999880          1.005377          2.119671
     39     39  S        0   0.223524          3.235926          2.493948
     40     40  H        0   0.111995          1.683116          4.311540
     41     41  H        0   1.587073          1.417662          3.313175
     42     42  H        0  -4.819213          2.414786         -0.673572
     43     43  H        0  -3.537653          3.618213         -1.108744
     44     44  H        0  -4.618883          3.904736          0.277634
     45     45  H        0  -3.475539          1.530000          1.153677
     46     46  H        0  -1.466876          3.745542          0.371227
     47     47  H        0   2.601056         -4.081142         -0.384137
     48     48  H        0   1.535040          2.770594          4.492515
 ---------------------------------------------------------------------------------------------------
                         Z-Matrix orientation:                         
 ---------------------------------------------------------------------
 Center     Atomic      Atomic             Coordinates (Angstroms)
 Number     Number       Type             X           Y           Z
 ---------------------------------------------------------------------
      1          6           0        3.440276   -3.550982   -0.834404
      2          1           0        3.402425   -3.626184   -1.929326
      3          1           0        4.400392   -3.928453   -0.453907
      4          6           0        1.593439   -1.210219    0.988873
      5          1           0        0.868757   -2.052679    1.012876
      6          8           0        1.290982   -0.362206    2.078494
      7          1           0        0.396710    0.025183    2.040071
      8          6           0        3.069739   -1.704819    1.033788
      9          1           0        3.254709   -2.540829    1.739796
     10          8           0        3.867677   -0.604160    1.446740
     11          1           0        4.819213   -0.773862    1.371425
     12          6           0        1.600313   -0.459519   -0.366444
     13          1           0        2.197244    0.470657   -0.284342
     14          6           0        3.383826   -2.040801   -0.472132
     15          1           0        4.304800   -1.529993   -0.821668
     16          8           0        2.304449   -1.393851   -1.205207
     17          7           0        0.328124   -0.149286   -0.935750
     18          6           0       -0.532767   -1.207307   -1.322906
     19          1           0       -0.099888   -2.187228   -1.143938
     20          6           0       -1.697478   -0.969624   -1.885600
     21          1           0       -2.322474   -1.805251   -2.194906
     22          6           0       -2.232483    0.441484   -2.118496
     23          1           0       -2.740237    0.502075   -3.094669
     24          1           0       -2.970446    0.695327   -1.330307
     25          6           0       -1.060306    1.443232   -2.041246
     26          6           0        0.098960    1.121246   -1.465594
     27          1           0        0.950447    1.799131   -1.411441
     28          6           0       -1.255679    2.821092   -2.543699
     29          8           0       -0.848470    3.799982   -1.971332
     30          7           0       -2.073649    2.994328   -3.638528
     31          1           0       -2.012626    3.928453   -4.011739
     32          1           0       -2.067528    2.247325   -4.311540
     33          6           0        0.948843    2.172627    3.794727
     34          6           0       -0.941563    2.196358    1.790961
     35          6           0       -1.860777    2.845920    0.856157
     36          6           0       -4.081388    3.129594   -0.289650
     37          6           0       -3.103238    2.418499    0.623741
     38          8           0       -0.999880    1.005377    2.119671
     39         16           0        0.223524    3.235926    2.493948
     40          1           0        0.111995    1.683116    4.311540
     41          1           0        1.587073    1.417662    3.313175
     42          1           0       -4.819213    2.414786   -0.673572
     43          1           0       -3.537653    3.618213   -1.108744
     44          1           0       -4.618883    3.904736    0.277634
     45          1           0       -3.475539    1.530000    1.153677
     46          1           0       -1.466876    3.745542    0.371227
     47          1           0        2.601056   -4.081142   -0.384137
     48          1           0        1.535040    2.770594    4.492515
 ---------------------------------------------------------------------
                    Distance matrix (angstroms):
                    1          2          3          4          5
     1  C    0.000000
     2  H    1.098154   0.000000
     3  H    1.099585   1.806700   0.000000
     4  C    3.494898   4.198238   4.165261   0.000000
     5  H    3.502865   4.189504   4.259393   1.111520   0.000000
     6  O    4.824181   5.583401   5.366527   1.413463   2.042428
     7  H    5.505893   6.174376   6.154725   2.015787   2.365474
     8  C    2.652499   3.547163   2.988047   1.557597   2.228400
     9  H    2.771524   3.829134   2.837327   2.257039   2.541549
    10  O    3.751006   4.554878   3.866157   2.397730   3.358566
    11  H    3.805199   4.586718   3.668609   3.277556   4.167737
    12  C    3.627891   3.964590   4.458879   1.549349   2.230662
    13  H    4.245147   4.576302   4.922884   2.193400   3.132870
    14  C    1.554050   2.153416   2.144055   2.455583   2.920781
    15  H    2.198172   2.536770   2.428373   3.275942   3.930031
    16  O    2.465930   2.590987   3.373669   2.313708   2.723078
    17  N    4.611648   4.746298   5.576527   2.535898   2.777109
    18  C    4.638590   4.658804   5.700514   3.140873   2.852157
    19  H    3.806362   3.866992   4.874477   2.893231   2.368168
    20  C    5.845078   5.750499   6.927369   4.376142   4.019917
    21  H    6.173154   6.013385   7.261956   5.081819   4.531561
    22  C    7.054706   6.952259   8.115556   5.198225   5.063993
    23  H    7.728830   7.492186   8.808620   6.195807   6.035191
    24  H    7.705480   7.723197   8.745095   5.462486   5.270818
    25  C    6.830365   6.754812   7.822652   4.823359   5.026961
    26  C    5.778625   5.802243   6.710089   3.700488   4.099903
    27  H    5.929243   5.976157   6.754570   3.902709   4.551969
    28  C    8.097963   7.977642   9.050676   6.070256   6.396569
    29  O    8.586188   8.556858   9.464769   6.310931   6.790287
    30  N    9.005973   8.760133   9.998996   7.248351   7.467635
    31  H    9.786294   9.525323  10.747835   8.025944   8.326047
    32  H    8.720478   8.372182   9.739382   7.311065   7.447228
    33  C    7.771473   8.509469   8.196785   4.442068   5.059478
    34  C    7.689276   8.161664   8.431443   4.321383   4.683694
    35  C    8.478179   8.794791   9.317223   5.329305   5.609919
    36  C   10.074833  10.214525  11.035561   7.257566   7.283986
    37  C    8.976551   9.240130   9.886840   5.946402   5.993296
    38  O    7.014410   7.564789   7.754285   3.593449   3.750800
    39  S    8.215080   8.761240   8.801387   4.889798   5.529850
    40  H    8.059402   8.829723   8.519950   4.648245   5.040836
    41  H    6.732324   7.497980   7.119454   3.508301   4.224999
    42  H   10.189966  10.279376  11.193126   7.551589   7.426665
    43  H   10.008202  10.065750  10.972399   7.351317   7.488440
    44  H   11.035143  11.221711  11.968347   8.078463   8.132992
    45  H    8.808935   9.132225   9.716447   5.764590   5.632790
    46  H    8.875413   9.129348   9.695148   5.857183   6.283809
    47  H    1.090000   1.799107   1.807150   3.338061   3.011174
    48  H    8.483414   9.254510   8.806508   5.303376   5.984629
                    6          7          8          9         10
     6  O    0.000000
     7  H    0.975330   0.000000
     8  C    2.461300   3.339252   0.000000
     9  H    2.952514   3.852628   1.109763   0.000000
    10  O    2.664022   3.577112   1.420804   2.052388   0.000000
    11  H    3.621853   4.543577   2.010308   2.388627   0.969480
    12  C    2.466349   2.734029   2.381310   3.391920   2.906803
    13  H    2.664201   2.973764   2.689129   3.779473   2.634811
    14  C    3.701806   4.416143   1.574588   2.271414   2.445428
    15  H    4.342553   5.087366   2.235767   2.947130   2.488759
    16  O    3.588049   4.023053   2.386518   3.300242   3.178069
    17  N    3.171451   2.981721   3.716883   4.630651   4.290875
    18  C    3.950921   3.700348   4.333541   5.050089   5.234370
    19  H    3.955918   3.908873   3.875789   4.437823   4.995927
    20  C    5.001389   4.559184   5.638236   6.335325   6.496846
    21  H    5.779393   5.355323   6.285739   6.864978   7.281633
    22  C    5.538542   4.937575   6.531239   7.340973   7.142565
    23  H    6.615083   6.036010   7.461258   8.280742   8.093991
    24  H    5.558603   4.811058   6.916176   7.658381   7.494037
    25  C    5.075472   4.559705   6.035175   6.984868   6.375177
    26  C    4.022699   3.685065   4.801988   5.800351   5.065762
    27  H    4.119101   3.920007   4.769509   5.837394   4.738696
    28  C    6.163078   5.617690   7.210515   8.212316   7.341985
    29  O    6.188873   5.647207   7.394995   8.415131   7.302173
    30  N    7.434473   6.867676   8.388501   9.378471   8.608625
    31  H    8.149510   7.593736   9.111616  10.132945   9.215072
    32  H    7.676052   7.166125   8.401398   9.373968   8.747309
    33  C    3.080243   2.827576   5.211102   5.635285   4.662959
    34  C    3.407812   2.562622   5.646507   6.328685   5.575857
    35  C    4.660447   3.801902   6.711988   7.481048   6.713198
    36  C    6.831041   5.926072   8.732792   9.491610   8.952296
    37  C    5.399796   4.470301   7.434753   8.140271   7.642477
    38  O    2.668338   1.708092   5.008603   5.551703   5.170740
    39  S    3.776060   3.247287   5.885914   6.567171   5.396551
    40  H    3.249592   2.826548   5.565071   5.859371   5.248224
    41  H    2.186330   2.230864   4.140507   4.574515   3.573863
    42  H    7.253967   6.346646   9.062108   9.776026   9.437787
    43  H    7.022673   6.189032   8.751157   9.601258   8.899317
    44  H    7.508421   6.581283   9.547449  10.279916   9.680839
    45  H    5.211089   4.247879   7.301993   7.887422   7.652669
    46  H    5.233941   4.483198   7.122240   7.980276   6.966642
    47  H    4.648799   5.253364   2.806615   2.703871   4.128661
    48  H    3.962512   3.853253   5.860668   6.224624   5.109492
                   11         12         13         14         15
    11  H    0.000000
    12  C    3.671556   0.000000
    13  H    3.341425   1.108285   0.000000
    14  C    2.657851   2.385905   2.784002   0.000000
    15  H    2.376134   2.944044   2.955184   1.109637   0.000000
    16  O    3.653417   1.439551   2.082277   1.456365   2.041333
    17  N    5.087537   1.427872   2.074191   3.623546   4.211095
    18  C    6.007577   2.454390   3.368551   4.093682   4.874158
    19  H    5.702824   2.545615   3.616638   3.550919   4.465097
    20  C    7.287921   3.666533   4.450539   5.381911   6.121544
    21  H    8.048986   4.532386   5.409053   5.965341   6.773648
    22  C    7.961346   4.309503   4.794523   6.357294   6.950148
    23  H    8.872390   5.216152   5.681341   7.130783   7.676482
    24  H    8.374764   4.811916   5.277266   6.971344   7.624957
    25  C    7.150565   3.674822   3.826780   5.860966   6.253943
    26  C    5.824165   2.441518   2.494277   4.666461   5.013262
    27  H    5.415902   2.572129   2.142358   4.642059   4.762624
    28  C    8.071939   4.864107   4.748885   7.032383   7.267480
    29  O    8.013533   5.168709   4.817334   7.367135   7.502437
    30  N    9.317211   6.011121   5.988321   8.072336   8.311966
    31  H    9.887580   6.752466   6.600973   8.791047   8.937620
    32  H    9.426073   6.028585   6.128878   7.927568   8.188644
    33  C    5.434516   4.966685   4.592822   6.472110   6.803158
    34  C    6.494979   4.262536   4.139690   6.464062   6.945203
    35  C    7.615156   4.939618   4.838403   7.290422   7.744550
    36  C    9.859860   6.720815   6.818444   9.082714   9.608483
    37  C    8.574114   5.602396   5.719599   7.947848   8.518147
    38  O    6.130857   3.884288   4.035692   5.934098   6.574132
    39  S    6.201518   4.871726   4.388756   6.828542   7.096768
    40  H    6.069507   5.356259   5.190420   6.888828   7.365698
    41  H    4.361181   4.130809   3.769782   5.433032   5.759483
    42  H   10.356097   7.040332   7.291214   9.337167   9.941370
    43  H    9.761084   6.601333   6.593617   8.963068   9.385654
    44  H   10.590718   7.624956   7.652992   9.997745  10.506039
    45  H    8.611510   5.659790   5.947316   7.902200   8.590647
    46  H    7.806429   5.256838   4.957864   7.597522   7.909900
    47  H    4.352047   3.757387   4.570766   2.187113   3.098796
    48  H    5.752406   5.835014   5.342902   7.156484   7.376122
                   16         17         18         19         20
    16  O    0.000000
    17  N    2.351044   0.000000
    18  C    2.845777   1.417897   0.000000
    19  H    2.532595   2.092784   1.086122   0.000000
    20  C    4.081461   2.382904   1.315169   2.141242   0.000000
    21  H    4.749439   3.369475   2.078695   2.488038   1.088376
    22  C    4.978585   2.881771   2.498101   3.522479   1.526990
    23  H    5.710819   3.807892   3.306668   4.243719   2.171426
    24  H    5.674930   3.427771   3.092305   4.072341   2.168147
    25  C    4.479908   2.384527   2.796367   3.861063   2.500418
    26  C    3.355249   1.395529   2.416940   3.330016   2.788429
    27  H    3.474333   2.099975   3.353569   4.131080   3.860355
    28  C    5.677307   3.730560   4.270941   5.327144   3.872701
    29  O    6.124030   4.248943   5.058959   6.090291   4.845339
    30  N    6.659197   4.791223   5.038864   6.080069   4.350537
    31  H    7.405449   5.618609   5.982962   7.020286   5.348920
    32  H    6.482410   4.783183   4.818911   5.794012   4.046094
    33  C    6.289418   5.306033   6.309460   6.670726   7.010198
    34  C    5.692382   3.814329   4.631222   5.342085   4.910392
    35  C    6.290786   4.119888   4.789632   5.695059   4.701306
    36  C    7.879004   5.532837   5.698160   6.697070   5.003366
    37  C    6.864557   4.560677   4.852136   5.775597   4.444360
    38  O    5.265900   3.525967   4.118920   4.653370   4.519897
    39  S    6.280831   4.820107   5.906155   6.538304   6.368465
    40  H    6.686485   5.562236   6.365316   6.692286   6.979668
    41  H    5.369824   4.700388   5.733884   5.975527   6.596565
    42  H    8.095364   5.756586   5.649320   6.608465   4.761142
    43  H    7.698067   5.400759   5.688659   6.747045   5.003798
    44  H    8.843436   6.510013   6.737288   7.717137   6.080590
    45  H    6.893584   4.653339   4.720828   5.521942   4.318198
    46  H    6.566689   4.483291   5.317270   6.273926   5.232518
    47  H    2.825538   4.574931   4.354431   3.385160   5.514829
    48  H    7.099200   6.280797   7.342932   7.682617   8.069620
                   21         22         23         24         25
    21  H    0.000000
    22  C    2.249834   0.000000
    23  H    2.511543   1.101998   0.000000
    24  H    2.724020   1.109174   1.789781   0.000000
    25  C    3.488455   1.543848   2.194914   2.171044   0.000000
    26  C    3.867767   2.514754   3.331411   3.101768   1.333772
    27  H    4.931267   3.531880   4.258727   4.074110   2.136924
    28  C    4.760542   2.607197   2.808082   2.988582   1.479570
    29  O    5.800113   3.635473   3.964450   3.814785   2.367284
    30  N    5.018158   2.975355   2.636560   3.378984   2.446236
    31  H    6.022645   3.973872   3.620843   4.308202   3.311507
    32  H    4.579138   2.845648   2.231415   3.480188   2.610612
    33  C    7.899413   6.934255   7.991485   6.618853   6.215084
    34  C    5.814372   4.475478   5.474962   4.013948   3.907314
    35  C    5.581714   3.842920   4.677188   3.261447   3.317111
    36  C    5.574627   3.740194   4.070709   2.871030   3.877994
    37  C    5.137550   3.490940   4.198931   2.608689   3.496694
    38  O    5.316433   4.449646   5.520100   3.985174   4.184328
    39  S    7.340363   5.925835   6.891333   5.592944   5.042812
    40  H    7.773621   6.955831   8.023841   6.504430   6.464497
    41  H    7.484028   6.711555   7.786166   6.546348   5.973197
    42  H    5.133894   3.559901   3.720526   2.608789   4.116288
    43  H    5.663070   3.579758   3.780223   2.985645   3.425981
    44  H    6.632563   4.840501   5.145856   3.950079   4.909141
    45  H    4.864819   3.665674   4.432352   2.668703   4.006047
    46  H    6.174819   4.207336   4.914669   3.802599   3.359458
    47  H    5.718367   6.842898   7.542034   7.399428   6.831566
    48  H    8.974429   7.957666   8.999419   7.649274   7.154561
                   26         27         28         29         30
    26  C    0.000000
    27  H    1.089720   0.000000
    28  C    2.426280   2.682052   0.000000
    29  O    2.886004   2.748269   1.204844   0.000000
    30  N    3.598653   3.941264   1.377583   2.220289   0.000000
    31  H    4.338440   4.480554   1.988557   2.352663   1.007770
    32  H    3.749817   4.209468   2.028194   3.061605   1.005483
    33  C    5.431269   5.219549   6.742111   6.255082   8.066221
    34  C    3.583812   3.740705   4.390699   4.090859   5.603367
    35  C    3.493651   3.760419   3.453372   3.151142   4.502169
    36  C    4.784518   5.324275   3.627745   3.705298   3.906954
    37  C    4.037606   4.577985   3.688933   3.704980   4.422507
    38  O    3.751667   4.111275   5.010916   4.956718   6.185933
    39  S    4.490586   4.224318   5.266689   4.626668   6.553063
    40  H    5.804408   5.785238   7.082360   6.699112   8.348646
    41  H    5.013878   4.782553   6.659866   6.287554   8.013297
    42  H    5.146744   5.849142   4.044902   4.401108   4.082273
    43  H    4.425736   4.852188   2.811032   2.829983   2.988703
    44  H    5.748452   6.189021   4.521652   4.391451   4.758506
    45  H    4.450248   5.122657   4.501698   4.671188   5.203343
    46  H    3.565485   3.579089   3.065290   2.423422   4.124395
    47  H    5.873234   6.193341   8.196277   8.748174   9.083292
    48  H    6.346790   6.011838   7.569608   6.965779   8.898682
                   31         32         33         34         35
    31  H    0.000000
    32  H    1.708534   0.000000
    33  C    8.531948   8.649603   0.000000
    34  C    6.149687   6.205716   2.754864   0.000000
    35  C    4.989123   5.206357   4.120981   1.463128   0.000000
    36  C    4.332654   4.583626   6.549896   3.880512   2.514847
    37  C    4.995705   5.045691   5.151210   2.466696   1.334322
    38  O    6.867621   6.636474   2.822376   1.236886   2.392742
    39  S    6.914038   7.248512   1.829950   1.712402   2.679324
    40  H    8.878768   8.912136   1.098650   2.779698   4.145313
    41  H    8.539102   8.495924   1.099638   3.052458   4.468168
    42  H    4.616435   4.564496   7.300329   4.599761   3.358316
    43  H    3.293833   3.781336   6.801646   4.143627   2.696142
    44  H    5.019149   5.506082   6.809531   4.327978   3.010469
    45  H    5.879984   5.689082   5.192617   2.696516   2.104191
    46  H    4.420598   4.953155   4.475501   2.166003   1.095279
    47  H    9.929712   8.790317   7.700802   7.529157   8.332495
    48  H    9.287029   9.526998   1.090000   3.709677   4.975977
                   36         37         38         39         40
    36  C    0.000000
    37  C    1.515492   0.000000
    38  O    4.451159   2.942590   0.000000
    39  S    5.127572   3.902974   2.571411   0.000000
    40  H    6.391221   4.947562   2.549487   2.393178   0.000000
    41  H    6.931270   5.498522   2.878672   2.415881   1.800848
    42  H    1.096691   2.151187   4.937201   6.011377   7.050071
    43  H    1.097867   2.151635   4.867224   5.222259   6.814984
    44  H    1.100708   2.150783   4.989646   5.367333   6.602212
    45  H    2.238068   1.099487   2.708738   4.288307   4.781835
    46  H    2.766193   2.121907   3.283847   2.760997   4.719375
    47  H    9.831516   8.706327   6.716284   8.214349   7.840375
    48  H    7.385272   6.050207   3.895151   2.435340   1.800116
                   41         42         43         44         45
    41  H    0.000000
    42  H    7.611104   0.000000
    43  H    7.117486   1.811079   0.000000
    44  H    7.342610   1.779009   1.781347   0.000000
    45  H    5.505097   2.434573   3.079455   2.777419   0.000000
    46  H    4.837425   3.755088   2.548459   3.157412   3.091211
    47  H    6.703367   9.866167   9.873645  10.786089   8.412776
    48  H    1.795544   8.197048   7.604260   7.544684   6.147586
                   46         47         48
    46  H    0.000000
    47  H    8.853002   0.000000
    48  H    5.191053   8.477289   0.000000
 Symmetry turned off by external request.
 Stoichiometry    C16H24N2O5S
 Framework group  C1[X(C16H24N2O5S)]
 Deg. of freedom   138
 Full point group                 C1      NOp   1
 Rotational constants (GHZ):           0.2844902           0.1680443           0.1244734
 Leave Link  202 at Wed Mar  8 13:58:35 2023, MaxMem=  2684354560 cpu:               0.0 elap:               0.0
 (Enter /opt/gaussian/g16/l301.exe)
 Standard basis: def2TZVP (5D, 7F)
 Ernie: Thresh=  0.10000D-02 Tol=  0.10000D-05 Strict=F.
   894 basis functions,  1434 primitive gaussians,  1014 cartesian basis functions
    95 alpha electrons       95 beta electrons
       nuclear repulsion energy      2422.0805565857 Hartrees.
 IExCor= 4336 DFT=T Ex+Corr=M062X ExCW=0 ScaHFX=  0.540000
 ScaDFX=  1.000000  1.000000  1.000000  1.000000 ScalE2=  1.000000  1.000000
 IRadAn=      5 IRanWt=     -1 IRanGd=            0 ICorTp=0 IEmpDi=131
 NAtoms=   48 NActive=   48 NUniq=   48 SFac= 1.00D+00 NAtFMM=   60 NAOKFM=F Big=F
 Integral buffers will be    131072 words long.
 Raffenetti 2 integral format.
 Two-electron integral symmetry is turned off.
 R6Disp:  Grimme-D3 Dispersion energy=       -0.0042248462 Hartrees.
 Nuclear repulsion after empirical dispersion term =     2422.0763317395 Hartrees.
 Leave Link  301 at Wed Mar  8 13:58:35 2023, MaxMem=  2684354560 cpu:               0.6 elap:               0.0
 (Enter /opt/gaussian/g16/l302.exe)
 NPDir=0 NMtPBC=     1 NCelOv=     1 NCel=       1 NClECP=     1 NCelD=      1
         NCelK=      1 NCelE2=     1 NClLst=     1 CellRange=     0.0.
 One-electron integrals computed using PRISM.
   1 Symmetry operations used in ECPInt.
 ECPInt:  NShTT=   65703 NPrTT=  200010 LenC2=   55965 LenP2D=  118164.
 LDataN:  DoStor=T MaxTD1= 6 Len=  172
 NBasis=   894 RedAO= T EigKep=  3.39D-05  NBF=   894
 NBsUse=   894 1.00D-06 EigRej= -1.00D+00 NBFU=   894
 Precomputing XC quadrature grid using
 IXCGrd= 4 IRadAn=           5 IRanWt=          -1 IRanGd=           0 AccXCQ= 0.00D+00.
 Generated NRdTot=       0 NPtTot=           0 NUsed=           0 NTot=          32
 NSgBfM=   999   999   999   999   999 MxSgAt=    48 MxSgA2=    48.
 Leave Link  302 at Wed Mar  8 13:58:36 2023, MaxMem=  2684354560 cpu:              21.3 elap:               1.3
 (Enter /opt/gaussian/g16/l303.exe)
 DipDrv:  MaxL=1.
 Leave Link  303 at Wed Mar  8 13:58:37 2023, MaxMem=  2684354560 cpu:               2.6 elap:               0.2
 (Enter /opt/gaussian/g16/l401.exe)
 ExpMin= 9.52D-02 ExpMax= 6.07D+04 ExpMxC= 2.07D+03 IAcc=3 IRadAn=         5 AccDes= 0.00D+00
 Harris functional with IExCor= 1009 and IRadAn=       5 diagonalized for initial guess.
 HarFok:  IExCor= 1009 AccDes= 0.00D+00 IRadAn=         5 IDoV= 1 UseB2=F ITyADJ=14
 ICtDFT=  3500011 ScaDFX=  1.000000  1.000000  1.000000  1.000000
 FoFCou: FMM=F IPFlag=           0 FMFlag=      100000 FMFlg1=           0
         NFxFlg=           0 DoJE=T BraDBF=F KetDBF=T FulRan=T
         wScrn=  0.000000 ICntrl=       500 IOpCl=  0 I1Cent=   200000004 NGrid=           0
         NMat0=    1 NMatS0=      1 NMatT0=    0 NMatD0=    1 NMtDS0=    0 NMtDT0=    0
 Symmetry not used in FoFCou.
 Harris En= -1507.21730697762    
 JPrj=0 DoOrth=F DoCkMO=F.
 Leave Link  401 at Wed Mar  8 13:58:41 2023, MaxMem=  2684354560 cpu:              75.3 elap:               4.7
 (Enter /opt/gaussian/g16/l502.exe)
 Two-electron integral symmetry not used.
 Closed shell SCF:
 Using DIIS extrapolation, IDIIS=  1040.
 NGot=  2684354560 LenX=  2682275214 LenY=  2681246004
 Requested convergence on RMS density matrix=1.00D-08 within 128 cycles.
 Requested convergence on MAX density matrix=1.00D-06.
 Requested convergence on             energy=1.00D-06.
 No special actions if energy rises.
 Fock matrices will be formed incrementally for  20 cycles.
 Integral accuracy reduced to 1.0D-05 until final iterations.

 Cycle   1  Pass 0  IDiag  1:
 FoFJK:  IHMeth= 1 ICntrl=       0 DoSepK=F KAlg= 0 I1Cent=           0 FoldK=F
 IRaf= 770000000 NMat=       1 IRICut=       1 DoRegI=T DoRafI=F ISym2E= 0 IDoP0=0 IntGTp=1.
 FoFCou: FMM=F IPFlag=           0 FMFlag=      100000 FMFlg1=           0
         NFxFlg=           0 DoJE=F BraDBF=F KetDBF=F FulRan=T
         wScrn=  0.000000 ICntrl=         0 IOpCl=  0 I1Cent=           0 NGrid=           0
         NMat0=    1 NMatS0=      1 NMatT0=    0 NMatD0=    1 NMtDS0=    0 NMtDT0=    0
 Symmetry not used in FoFCou.
 E= -1507.15203272016    
 DIIS: error= 1.46D-02 at cycle   1 NSaved=   1.
 NSaved= 1 IEnMin= 1 EnMin= -1507.15203272016     IErMin= 1 ErrMin= 1.46D-02
 ErrMax= 1.46D-02  0.00D+00 EMaxC= 1.00D-01 BMatC= 9.99D-01 BMatP= 9.99D-01
 IDIUse=3 WtCom= 8.54D-01 WtEn= 1.46D-01
 Coeff-Com:  0.100D+01
 Coeff-En:   0.100D+01
 Coeff:      0.100D+01
 Gap=     0.319 Goal=   None    Shift=    0.000
 GapD=    0.319 DampG=1.000 DampE=0.500 DampFc=0.5000 IDamp=-1.
 Damping current iteration by 5.00D-01
 RMSDP=3.63D-03 MaxDP=1.04D+00              OVMax= 2.15D-01

 Cycle   2  Pass 0  IDiag  1:
 RMSU=  1.81D-03    CP:  1.01D+00
 E= -1507.48770645008     Delta-E=       -0.335673729913 Rises=F Damp=T
 DIIS: error= 4.26D-03 at cycle   2 NSaved=   2.
 NSaved= 2 IEnMin= 2 EnMin= -1507.48770645008     IErMin= 2 ErrMin= 4.26D-03
 ErrMax= 4.26D-03  0.00D+00 EMaxC= 1.00D-01 BMatC= 8.91D-02 BMatP= 9.99D-01
 IDIUse=3 WtCom= 9.57D-01 WtEn= 4.26D-02
 Coeff-Com:  0.199D-02 0.998D+00
 Coeff-En:   0.510D-01 0.949D+00
 Coeff:      0.408D-02 0.996D+00
 Gap=     0.349 Goal=   None    Shift=    0.000
 RMSDP=1.12D-03 MaxDP=3.03D-01 DE=-3.36D-01 OVMax= 1.81D-01

 Cycle   3  Pass 0  IDiag  1:
 RMSU=  9.11D-04    CP:  9.96D-01  6.46D-01
 E= -1507.85080467049     Delta-E=       -0.363098220411 Rises=F Damp=F
 DIIS: error= 4.98D-03 at cycle   3 NSaved=   3.
 NSaved= 3 IEnMin= 3 EnMin= -1507.85080467049     IErMin= 2 ErrMin= 4.26D-03
 ErrMax= 4.98D-03  0.00D+00 EMaxC= 1.00D-01 BMatC= 5.56D-02 BMatP= 8.91D-02
 IDIUse=3 WtCom= 9.50D-01 WtEn= 4.98D-02
 Coeff-Com: -0.771D-01 0.458D+00 0.619D+00
 Coeff-En:   0.000D+00 0.000D+00 0.100D+01
 Coeff:     -0.733D-01 0.435D+00 0.638D+00
 Gap=     0.225 Goal=   None    Shift=    0.000
 RMSDP=3.33D-04 MaxDP=3.04D-02 DE=-3.63D-01 OVMax= 7.21D-02

 Cycle   4  Pass 0  IDiag  1:
 RMSU=  2.96D-04    CP:  9.99D-01  7.21D-01  9.24D-01
 E= -1507.88664139300     Delta-E=       -0.035836722509 Rises=F Damp=F
 DIIS: error= 2.20D-03 at cycle   4 NSaved=   4.
 NSaved= 4 IEnMin= 4 EnMin= -1507.88664139300     IErMin= 4 ErrMin= 2.20D-03
 ErrMax= 2.20D-03  0.00D+00 EMaxC= 1.00D-01 BMatC= 1.11D-02 BMatP= 5.56D-02
 IDIUse=3 WtCom= 9.78D-01 WtEn= 2.20D-02
 Coeff-Com: -0.357D-01 0.976D-01 0.346D+00 0.593D+00
 Coeff-En:   0.000D+00 0.000D+00 0.138D+00 0.862D+00
 Coeff:     -0.349D-01 0.955D-01 0.341D+00 0.598D+00
 Gap=     0.226 Goal=   None    Shift=    0.000
 RMSDP=1.11D-04 MaxDP=1.04D-02 DE=-3.58D-02 OVMax= 1.84D-02

 Cycle   5  Pass 0  IDiag  1:
 RMSU=  7.29D-05    CP:  9.98D-01  7.19D-01  9.52D-01  7.30D-01
 E= -1507.89480813777     Delta-E=       -0.008166744772 Rises=F Damp=F
 DIIS: error= 3.80D-04 at cycle   5 NSaved=   5.
 NSaved= 5 IEnMin= 5 EnMin= -1507.89480813777     IErMin= 5 ErrMin= 3.80D-04
 ErrMax= 3.80D-04  0.00D+00 EMaxC= 1.00D-01 BMatC= 4.72D-04 BMatP= 1.11D-02
 IDIUse=3 WtCom= 9.96D-01 WtEn= 3.80D-03
 Coeff-Com: -0.102D-01 0.169D-01 0.120D+00 0.271D+00 0.602D+00
 Coeff-En:   0.000D+00 0.000D+00 0.000D+00 0.000D+00 0.100D+01
 Coeff:     -0.101D-01 0.168D-01 0.120D+00 0.270D+00 0.604D+00
 Gap=     0.225 Goal=   None    Shift=    0.000
 RMSDP=4.34D-05 MaxDP=1.02D-02 DE=-8.17D-03 OVMax= 4.35D-03

 Cycle   6  Pass 0  IDiag  1:
 RMSU=  2.93D-05    CP:  9.97D-01  7.03D-01  9.64D-01  7.53D-01  8.76D-01
 E= -1507.89517588438     Delta-E=       -0.000367746616 Rises=F Damp=F
 DIIS: error= 1.24D-04 at cycle   6 NSaved=   6.
 NSaved= 6 IEnMin= 6 EnMin= -1507.89517588438     IErMin= 6 ErrMin= 1.24D-04
 ErrMax= 1.24D-04  0.00D+00 EMaxC= 1.00D-01 BMatC= 5.29D-05 BMatP= 4.72D-04
 IDIUse=3 WtCom= 9.99D-01 WtEn= 1.24D-03
 Coeff-Com:  0.460D-03-0.505D-02 0.101D-01 0.397D-01 0.260D+00 0.695D+00
 Coeff-En:   0.000D+00 0.000D+00 0.000D+00 0.000D+00 0.000D+00 0.100D+01
 Coeff:      0.459D-03-0.505D-02 0.101D-01 0.397D-01 0.260D+00 0.695D+00
 Gap=     0.226 Goal=   None    Shift=    0.000
 RMSDP=1.75D-05 MaxDP=1.23D-03 DE=-3.68D-04 OVMax= 2.17D-03

 Cycle   7  Pass 0  IDiag  1:
 RMSU=  1.58D-05    CP:  9.97D-01  7.02D-01  9.69D-01  7.59D-01  9.40D-01
                    CP:  1.01D+00
 E= -1507.89524374069     Delta-E=       -0.000067856311 Rises=F Damp=F
 DIIS: error= 6.02D-05 at cycle   7 NSaved=   7.
 NSaved= 7 IEnMin= 7 EnMin= -1507.89524374069     IErMin= 7 ErrMin= 6.02D-05
 ErrMax= 6.02D-05  0.00D+00 EMaxC= 1.00D-01 BMatC= 7.97D-06 BMatP= 5.29D-05
 IDIUse=1 WtCom= 1.00D+00 WtEn= 0.00D+00
 Coeff-Com:  0.181D-02-0.484D-02-0.122D-01-0.254D-01 0.863D-02 0.270D+00
 Coeff-Com:  0.762D+00
 Coeff:      0.181D-02-0.484D-02-0.122D-01-0.254D-01 0.863D-02 0.270D+00
 Coeff:      0.762D+00
 Gap=     0.226 Goal=   None    Shift=    0.000
 RMSDP=1.47D-05 MaxDP=3.69D-03 DE=-6.79D-05 OVMax= 2.04D-03

 Cycle   8  Pass 0  IDiag  1:
 RMSU=  9.49D-06    CP:  9.97D-01  6.98D-01  9.71D-01  7.65D-01  1.00D+00
                    CP:  1.18D+00  1.24D+00
 E= -1507.89525949213     Delta-E=       -0.000015751432 Rises=F Damp=F
 DIIS: error= 3.12D-05 at cycle   8 NSaved=   8.
 NSaved= 8 IEnMin= 8 EnMin= -1507.89525949213     IErMin= 8 ErrMin= 3.12D-05
 ErrMax= 3.12D-05  0.00D+00 EMaxC= 1.00D-01 BMatC= 1.93D-06 BMatP= 7.97D-06
 IDIUse=1 WtCom= 1.00D+00 WtEn= 0.00D+00
 Coeff-Com:  0.853D-03-0.152D-02-0.708D-02-0.206D-01-0.411D-01 0.136D-02
 Coeff-Com:  0.362D+00 0.706D+00
 Coeff:      0.853D-03-0.152D-02-0.708D-02-0.206D-01-0.411D-01 0.136D-02
 Coeff:      0.362D+00 0.706D+00
 Gap=     0.226 Goal=   None    Shift=    0.000
 RMSDP=1.25D-05 MaxDP=1.52D-03 DE=-1.58D-05 OVMax= 6.15D-04

 Cycle   9  Pass 0  IDiag  1:
 RMSU=  7.69D-06    CP:  9.97D-01  6.97D-01  9.73D-01  7.63D-01  1.04D+00
                    CP:  1.26D+00  1.69D+00  1.55D+00
 E= -1507.89525661959     Delta-E=        0.000002872537 Rises=F Damp=F
 DIIS: error= 1.69D-05 at cycle   9 NSaved=   9.
 NSaved= 9 IEnMin= 8 EnMin= -1507.89525949213     IErMin= 9 ErrMin= 1.69D-05
 ErrMax= 1.69D-05  0.00D+00 EMaxC= 1.00D-01 BMatC= 2.92D-07 BMatP= 1.93D-06
 IDIUse=1 WtCom= 1.00D+00 WtEn= 0.00D+00
 Coeff-Com:  0.145D-03-0.105D-03-0.104D-02-0.559D-02-0.166D-01-0.327D-01
 Coeff-Com:  0.580D-01 0.280D+00 0.718D+00
 Coeff:      0.145D-03-0.105D-03-0.104D-02-0.559D-02-0.166D-01-0.327D-01
 Coeff:      0.580D-01 0.280D+00 0.718D+00
 Gap=     0.226 Goal=   None    Shift=    0.000
 RMSDP=1.55D-05 MaxDP=1.94D-03 DE= 2.87D-06 OVMax= 2.26D-04

 Cycle  10  Pass 0  IDiag  1:
 RMSU=  4.33D-06    CP:  9.97D-01  6.96D-01  9.75D-01  7.65D-01  1.08D+00
                    CP:  1.35D+00  2.14D+00  2.37D+00  2.25D+00
 E= -1507.89524949996     Delta-E=        0.000007119628 Rises=F Damp=F
 DIIS: error= 2.57D-05 at cycle  10 NSaved=  10.
 NSaved=10 IEnMin= 8 EnMin= -1507.89525949213     IErMin= 9 ErrMin= 1.69D-05
 ErrMax= 2.57D-05  0.00D+00 EMaxC= 1.00D-01 BMatC= 2.69D-07 BMatP= 2.92D-07
 IDIUse=1 WtCom= 1.00D+00 WtEn= 0.00D+00
 Coeff-Com:  0.136D-03-0.100D-03-0.966D-03-0.525D-02-0.155D-01-0.308D-01
 Coeff-Com:  0.544D-01 0.263D+00 0.675D+00 0.608D-01
 Coeff:      0.136D-03-0.100D-03-0.966D-03-0.525D-02-0.155D-01-0.308D-01
 Coeff:      0.544D-01 0.263D+00 0.675D+00 0.608D-01
 Gap=     0.226 Goal=   None    Shift=    0.000
 RMSDP=1.87D-06 MaxDP=2.33D-04 DE= 7.12D-06 OVMax= 5.49D-06

 Initial convergence to 1.0D-05 achieved.  Increase integral accuracy.
 Cycle  11  Pass 1  IDiag  1:
 E= -1507.89516223314     Delta-E=        0.000087266819 Rises=F Damp=F
 DIIS: error= 2.98D-04 at cycle   1 NSaved=   1.
 NSaved= 1 IEnMin= 1 EnMin= -1507.89516223314     IErMin= 1 ErrMin= 2.98D-04
 ErrMax= 2.98D-04  0.00D+00 EMaxC= 1.00D-01 BMatC= 7.79D-05 BMatP= 7.79D-05
 IDIUse=3 WtCom= 9.97D-01 WtEn= 2.98D-03
 Coeff-Com:  0.100D+01
 Coeff-En:   0.100D+01
 Coeff:      0.100D+01
 Gap=     0.226 Goal=   None    Shift=    0.000
 RMSDP=1.87D-06 MaxDP=2.33D-04 DE= 8.73D-05 OVMax= 7.80D-04

 Cycle  12  Pass 1  IDiag  1:
 RMSU=  4.01D-04    CP:  9.97D-01
 E= -1507.89521256247     Delta-E=       -0.000050329326 Rises=F Damp=F
 DIIS: error= 8.03D-06 at cycle   2 NSaved=   2.
 NSaved= 2 IEnMin= 2 EnMin= -1507.89521256247     IErMin= 2 ErrMin= 8.03D-06
 ErrMax= 8.03D-06  0.00D+00 EMaxC= 1.00D-01 BMatC= 7.50D-08 BMatP= 7.79D-05
 IDIUse=1 WtCom= 1.00D+00 WtEn= 0.00D+00
 Coeff-Com: -0.163D-01 0.102D+01
 Coeff:     -0.163D-01 0.102D+01
 Gap=     0.226 Goal=   None    Shift=    0.000
 RMSDP=1.44D-05 MaxDP=1.15D-03 DE=-5.03D-05 OVMax= 5.20D-05

 Cycle  13  Pass 1  IDiag  1:
 RMSU=  4.63D-06    CP:  9.97D-01  1.03D+00
 E= -1507.89521261960     Delta-E=       -0.000000057132 Rises=F Damp=F
 DIIS: error= 3.67D-06 at cycle   3 NSaved=   3.
 NSaved= 3 IEnMin= 3 EnMin= -1507.89521261960     IErMin= 3 ErrMin= 3.67D-06
 ErrMax= 3.67D-06  0.00D+00 EMaxC= 1.00D-01 BMatC= 4.42D-08 BMatP= 7.50D-08
 IDIUse=1 WtCom= 1.00D+00 WtEn= 0.00D+00
 Coeff-Com: -0.823D-02 0.476D+00 0.532D+00
 Coeff:     -0.823D-02 0.476D+00 0.532D+00
 Gap=     0.226 Goal=   None    Shift=    0.000
 RMSDP=3.90D-07 MaxDP=4.13D-05 DE=-5.71D-08 OVMax= 2.53D-05

 Cycle  14  Pass 1  IDiag  1:
 RMSU=  3.24D-07    CP:  9.97D-01  1.03D+00  1.02D+00
 E= -1507.89521265009     Delta-E=       -0.000000030495 Rises=F Damp=F
 DIIS: error= 1.00D-06 at cycle   4 NSaved=   4.
 NSaved= 4 IEnMin= 4 EnMin= -1507.89521265009     IErMin= 4 ErrMin= 1.00D-06
 ErrMax= 1.00D-06  0.00D+00 EMaxC= 1.00D-01 BMatC= 3.09D-09 BMatP= 4.42D-08
 IDIUse=1 WtCom= 1.00D+00 WtEn= 0.00D+00
 Coeff-Com: -0.876D-03 0.414D-01 0.208D+00 0.752D+00
 Coeff:     -0.876D-03 0.414D-01 0.208D+00 0.752D+00
 Gap=     0.226 Goal=   None    Shift=    0.000
 RMSDP=2.70D-07 MaxDP=2.88D-05 DE=-3.05D-08 OVMax= 1.20D-05

 Cycle  15  Pass 1  IDiag  1:
 RMSU=  1.46D-07    CP:  9.97D-01  1.04D+00  1.05D+00  8.93D-01
 E= -1507.89521265206     Delta-E=       -0.000000001960 Rises=F Damp=F
 DIIS: error= 7.99D-07 at cycle   5 NSaved=   5.
 NSaved= 5 IEnMin= 5 EnMin= -1507.89521265206     IErMin= 5 ErrMin= 7.99D-07
 ErrMax= 7.99D-07  0.00D+00 EMaxC= 1.00D-01 BMatC= 7.59D-10 BMatP= 3.09D-09
 IDIUse=1 WtCom= 1.00D+00 WtEn= 0.00D+00
 Coeff-Com:  0.305D-03-0.231D-01 0.636D-01 0.427D+00 0.532D+00
 Coeff:      0.305D-03-0.231D-01 0.636D-01 0.427D+00 0.532D+00
 Gap=     0.226 Goal=   None    Shift=    0.000
 RMSDP=5.99D-08 MaxDP=4.71D-06 DE=-1.96D-09 OVMax= 5.13D-06

 Cycle  16  Pass 1  IDiag  1:
 RMSU=  3.95D-08    CP:  9.97D-01  1.04D+00  1.06D+00  9.31D-01  1.06D+00
 E= -1507.89521265264     Delta-E=       -0.000000000589 Rises=F Damp=F
 DIIS: error= 1.37D-07 at cycle   6 NSaved=   6.
 NSaved= 6 IEnMin= 6 EnMin= -1507.89521265264     IErMin= 6 ErrMin= 1.37D-07
 ErrMax= 1.37D-07  0.00D+00 EMaxC= 1.00D-01 BMatC= 2.64D-11 BMatP= 7.59D-10
 IDIUse=1 WtCom= 1.00D+00 WtEn= 0.00D+00
 Coeff-Com:  0.194D-03-0.125D-01 0.495D-02 0.101D+00 0.189D+00 0.718D+00
 Coeff:      0.194D-03-0.125D-01 0.495D-02 0.101D+00 0.189D+00 0.718D+00
 Gap=     0.226 Goal=   None    Shift=    0.000
 RMSDP=1.65D-08 MaxDP=2.02D-06 DE=-5.89D-10 OVMax= 1.90D-06

 Cycle  17  Pass 1  IDiag  1:
 RMSU=  1.06D-08    CP:  9.97D-01  1.04D+00  1.06D+00  9.48D-01  1.13D+00
                    CP:  1.02D+00
 E= -1507.89521265271     Delta-E=       -0.000000000066 Rises=F Damp=F
 DIIS: error= 4.69D-08 at cycle   7 NSaved=   7.
 NSaved= 7 IEnMin= 7 EnMin= -1507.89521265271     IErMin= 7 ErrMin= 4.69D-08
 ErrMax= 4.69D-08  0.00D+00 EMaxC= 1.00D-01 BMatC= 7.07D-12 BMatP= 2.64D-11
 IDIUse=1 WtCom= 1.00D+00 WtEn= 0.00D+00
 Coeff-Com:  0.174D-04-0.470D-03-0.106D-01-0.396D-01-0.381D-01 0.322D+00
 Coeff-Com:  0.767D+00
 Coeff:      0.174D-04-0.470D-03-0.106D-01-0.396D-01-0.381D-01 0.322D+00
 Coeff:      0.767D+00
 Gap=     0.226 Goal=   None    Shift=    0.000
 RMSDP=8.42D-09 MaxDP=1.08D-06 DE=-6.59D-11 OVMax= 8.69D-07

 Cycle  18  Pass 1  IDiag  1:
 RMSU=  5.22D-09    CP:  9.97D-01  1.04D+00  1.06D+00  9.47D-01  1.17D+00
                    CP:  1.10D+00  9.96D-01
 E= -1507.89521265270     Delta-E=        0.000000000013 Rises=F Damp=F
 DIIS: error= 1.95D-08 at cycle   8 NSaved=   8.
 NSaved= 8 IEnMin= 7 EnMin= -1507.89521265271     IErMin= 8 ErrMin= 1.95D-08
 ErrMax= 1.95D-08  0.00D+00 EMaxC= 1.00D-01 BMatC= 6.69D-13 BMatP= 7.07D-12
 IDIUse=1 WtCom= 1.00D+00 WtEn= 0.00D+00
 Coeff-Com: -0.187D-04 0.146D-02-0.467D-02-0.272D-01-0.447D-01 0.471D-01
 Coeff-Com:  0.293D+00 0.735D+00
 Coeff:     -0.187D-04 0.146D-02-0.467D-02-0.272D-01-0.447D-01 0.471D-01
 Coeff:      0.293D+00 0.735D+00
 Gap=     0.226 Goal=   None    Shift=    0.000
 RMSDP=2.31D-09 MaxDP=1.69D-07 DE= 1.32D-11 OVMax= 3.74D-07

 SCF Done:  E(RM062X) =  -1507.89521265     A.U. after   18 cycles
            NFock= 18  Conv=0.23D-08     -V/T= 2.0042
 KE= 1.501622627091D+03 PE=-8.383414037858D+03 EE= 2.951819866374D+03
 Leave Link  502 at Wed Mar  8 14:18:55 2023, MaxMem=  2684354560 cpu:           19330.3 elap:            1213.6
 (Enter /opt/gaussian/g16/l601.exe)
 Copying SCF densities to generalized density rwf, IOpCl= 0 IROHF=0.

 **********************************************************************

            Population analysis using the SCF density.

 **********************************************************************

 Alpha  occ. eigenvalues --  -89.91030 -19.62814 -19.62662 -19.61562 -19.60175
 Alpha  occ. eigenvalues --  -19.58978 -14.78524 -14.76067 -10.64746 -10.63980
 Alpha  occ. eigenvalues --  -10.62540 -10.60301 -10.60195 -10.59616 -10.58470
 Alpha  occ. eigenvalues --  -10.57126 -10.55899 -10.55600 -10.55513 -10.54039
 Alpha  occ. eigenvalues --  -10.54025 -10.53992 -10.53760 -10.53391  -8.26999
 Alpha  occ. eigenvalues --   -6.18930  -6.18703  -6.18530  -1.17399  -1.16931
 Alpha  occ. eigenvalues --   -1.16347  -1.14359  -1.12063  -1.07021  -1.00972
 Alpha  occ. eigenvalues --   -0.91305  -0.90969  -0.88511  -0.87276  -0.86796
 Alpha  occ. eigenvalues --   -0.84699  -0.81166  -0.78252  -0.75295  -0.74816
 Alpha  occ. eigenvalues --   -0.72577  -0.69560  -0.67543  -0.66169  -0.65542
 Alpha  occ. eigenvalues --   -0.62485  -0.62265  -0.60873  -0.59820  -0.58185
 Alpha  occ. eigenvalues --   -0.57384  -0.55433  -0.55365  -0.54627  -0.53717
 Alpha  occ. eigenvalues --   -0.52796  -0.52480  -0.51562  -0.50790  -0.50463
 Alpha  occ. eigenvalues --   -0.49863  -0.49684  -0.48893  -0.48341  -0.48099
 Alpha  occ. eigenvalues --   -0.47813  -0.47632  -0.46802  -0.46268  -0.46128
 Alpha  occ. eigenvalues --   -0.44976  -0.44372  -0.43649  -0.43338  -0.42727
 Alpha  occ. eigenvalues --   -0.41873  -0.41237  -0.40718  -0.39564  -0.37230
 Alpha  occ. eigenvalues --   -0.35296  -0.35057  -0.34602  -0.34184  -0.33026
 Alpha  occ. eigenvalues --   -0.32584  -0.32353  -0.31898  -0.29985  -0.24799
 Alpha virt. eigenvalues --   -0.02176   0.01429   0.05226   0.05481   0.05736
 Alpha virt. eigenvalues --    0.06553   0.06952   0.07573   0.08249   0.09048
 Alpha virt. eigenvalues --    0.09403   0.09479   0.10187   0.10898   0.11511
 Alpha virt. eigenvalues --    0.11729   0.12134   0.12631   0.13072   0.13232
 Alpha virt. eigenvalues --    0.13722   0.14650   0.14709   0.14927   0.15266
 Alpha virt. eigenvalues --    0.15699   0.16032   0.16318   0.17167   0.17225
 Alpha virt. eigenvalues --    0.18099   0.18674   0.18922   0.19108   0.19803
 Alpha virt. eigenvalues --    0.20153   0.20966   0.21152   0.21562   0.21646
 Alpha virt. eigenvalues --    0.22920   0.23429   0.23693   0.23987   0.24407
 Alpha virt. eigenvalues --    0.24981   0.25128   0.25349   0.25869   0.26222
 Alpha virt. eigenvalues --    0.27045   0.27404   0.27688   0.28227   0.29016
 Alpha virt. eigenvalues --    0.29299   0.30282   0.30439   0.30970   0.31179
 Alpha virt. eigenvalues --    0.31623   0.31759   0.32691   0.32856   0.33473
 Alpha virt. eigenvalues --    0.33966   0.34221   0.34946   0.35356   0.36313
 Alpha virt. eigenvalues --    0.36389   0.37128   0.37589   0.38021   0.38455
 Alpha virt. eigenvalues --    0.38820   0.39042   0.39847   0.40448   0.40763
 Alpha virt. eigenvalues --    0.40969   0.41229   0.41572   0.42303   0.42431
 Alpha virt. eigenvalues --    0.42899   0.43193   0.43480   0.43879   0.43889
 Alpha virt. eigenvalues --    0.44375   0.44612   0.44765   0.45289   0.45570
 Alpha virt. eigenvalues --    0.45821   0.46177   0.47052   0.47267   0.47518
 Alpha virt. eigenvalues --    0.47722   0.48095   0.48818   0.49139   0.49308
 Alpha virt. eigenvalues --    0.49465   0.50037   0.50315   0.50384   0.50810
 Alpha virt. eigenvalues --    0.51014   0.51284   0.51594   0.52064   0.52392
 Alpha virt. eigenvalues --    0.52837   0.53098   0.53402   0.54318   0.54565
 Alpha virt. eigenvalues --    0.55128   0.55316   0.55625   0.56069   0.56191
 Alpha virt. eigenvalues --    0.57072   0.57979   0.58327   0.58842   0.59433
 Alpha virt. eigenvalues --    0.59686   0.60196   0.60438   0.61055   0.61208
 Alpha virt. eigenvalues --    0.61709   0.62490   0.63209   0.63512   0.64366
 Alpha virt. eigenvalues --    0.65205   0.65443   0.66008   0.66502   0.67119
 Alpha virt. eigenvalues --    0.68478   0.68527   0.69113   0.69293   0.70332
 Alpha virt. eigenvalues --    0.70704   0.71185   0.71671   0.72595   0.73101
 Alpha virt. eigenvalues --    0.73862   0.75005   0.75155   0.75711   0.77030
 Alpha virt. eigenvalues --    0.77676   0.78136   0.78782   0.79063   0.80066
 Alpha virt. eigenvalues --    0.80805   0.81479   0.82007   0.82797   0.83227
 Alpha virt. eigenvalues --    0.84221   0.84845   0.85557   0.86675   0.86947
 Alpha virt. eigenvalues --    0.88177   0.88637   0.89109   0.89950   0.90196
 Alpha virt. eigenvalues --    0.91469   0.92197   0.92530   0.92776   0.93622
 Alpha virt. eigenvalues --    0.93972   0.94788   0.96070   0.96396   0.96869
 Alpha virt. eigenvalues --    0.96996   0.97487   0.98305   0.99159   0.99374
 Alpha virt. eigenvalues --    1.00474   1.01026   1.01876   1.02352   1.02912
 Alpha virt. eigenvalues --    1.03967   1.04361   1.04902   1.05479   1.06335
 Alpha virt. eigenvalues --    1.07206   1.07535   1.08115   1.08802   1.09092
 Alpha virt. eigenvalues --    1.09723   1.10975   1.11436   1.11874   1.12828
 Alpha virt. eigenvalues --    1.13534   1.13556   1.14599   1.14953   1.15533
 Alpha virt. eigenvalues --    1.16105   1.16344   1.18003   1.18253   1.18935
 Alpha virt. eigenvalues --    1.20728   1.21085   1.21214   1.22767   1.23168
 Alpha virt. eigenvalues --    1.24061   1.24792   1.25801   1.26505   1.27304
 Alpha virt. eigenvalues --    1.27797   1.28994   1.29933   1.31679   1.31764
 Alpha virt. eigenvalues --    1.32429   1.33620   1.33848   1.34324   1.34781
 Alpha virt. eigenvalues --    1.35690   1.36655   1.38148   1.39679   1.39918
 Alpha virt. eigenvalues --    1.40472   1.40791   1.42207   1.42783   1.43651
 Alpha virt. eigenvalues --    1.45566   1.46604   1.47094   1.49303   1.49534
 Alpha virt. eigenvalues --    1.50504   1.50720   1.51550   1.53185   1.53274
 Alpha virt. eigenvalues --    1.53442   1.54013   1.54810   1.55105   1.56026
 Alpha virt. eigenvalues --    1.56193   1.56341   1.56860   1.57387   1.57583
 Alpha virt. eigenvalues --    1.57850   1.58491   1.58795   1.59548   1.60280
 Alpha virt. eigenvalues --    1.61376   1.61851   1.62107   1.62452   1.62663
 Alpha virt. eigenvalues --    1.63126   1.63798   1.64234   1.64945   1.65407
 Alpha virt. eigenvalues --    1.65847   1.66252   1.66601   1.67286   1.67450
 Alpha virt. eigenvalues --    1.67748   1.68186   1.69523   1.70042   1.70835
 Alpha virt. eigenvalues --    1.71318   1.72340   1.72638   1.73205   1.73639
 Alpha virt. eigenvalues --    1.74667   1.75072   1.76136   1.76605   1.77302
 Alpha virt. eigenvalues --    1.77776   1.78525   1.79105   1.79239   1.79524
 Alpha virt. eigenvalues --    1.80694   1.80964   1.81933   1.82272   1.82842
 Alpha virt. eigenvalues --    1.83771   1.85385   1.86045   1.86904   1.87296
 Alpha virt. eigenvalues --    1.87926   1.88222   1.88939   1.89803   1.90667
 Alpha virt. eigenvalues --    1.91752   1.91893   1.92854   1.93705   1.94341
 Alpha virt. eigenvalues --    1.94569   1.95624   1.96360   1.96992   1.97626
 Alpha virt. eigenvalues --    1.98520   1.99280   1.99560   2.00305   2.00828
 Alpha virt. eigenvalues --    2.01227   2.01682   2.02362   2.02814   2.03721
 Alpha virt. eigenvalues --    2.04646   2.05065   2.05846   2.07040   2.08516
 Alpha virt. eigenvalues --    2.09673   2.09960   2.10087   2.10858   2.11371
 Alpha virt. eigenvalues --    2.12429   2.12651   2.13515   2.14071   2.14526
 Alpha virt. eigenvalues --    2.15837   2.17022   2.17506   2.18043   2.18746
 Alpha virt. eigenvalues --    2.19032   2.19881   2.20183   2.20669   2.20839
 Alpha virt. eigenvalues --    2.22383   2.22881   2.23718   2.24600   2.25311
 Alpha virt. eigenvalues --    2.26512   2.26830   2.27943   2.28382   2.28820
 Alpha virt. eigenvalues --    2.29250   2.30102   2.30755   2.31212   2.31888
 Alpha virt. eigenvalues --    2.32398   2.32839   2.33189   2.33835   2.34901
 Alpha virt. eigenvalues --    2.35237   2.36189   2.36258   2.37120   2.37774
 Alpha virt. eigenvalues --    2.38703   2.39350   2.40321   2.40522   2.41649
 Alpha virt. eigenvalues --    2.42868   2.43233   2.45077   2.45874   2.46040
 Alpha virt. eigenvalues --    2.46714   2.46829   2.48100   2.48708   2.49951
 Alpha virt. eigenvalues --    2.50278   2.51083   2.51701   2.52243   2.53250
 Alpha virt. eigenvalues --    2.54788   2.55690   2.55903   2.56898   2.57495
 Alpha virt. eigenvalues --    2.57905   2.58185   2.59331   2.59534   2.60180
 Alpha virt. eigenvalues --    2.60626   2.60943   2.61580   2.62539   2.62959
 Alpha virt. eigenvalues --    2.63120   2.64125   2.64735   2.65330   2.66049
 Alpha virt. eigenvalues --    2.66583   2.66656   2.67906   2.68546   2.69158
 Alpha virt. eigenvalues --    2.69879   2.70789   2.71390   2.72484   2.72873
 Alpha virt. eigenvalues --    2.73979   2.74347   2.75032   2.76199   2.76862
 Alpha virt. eigenvalues --    2.77990   2.78692   2.79265   2.80249   2.81060
 Alpha virt. eigenvalues --    2.81329   2.81910   2.83968   2.84430   2.84790
 Alpha virt. eigenvalues --    2.85357   2.86372   2.87130   2.88038   2.88633
 Alpha virt. eigenvalues --    2.88994   2.89772   2.91421   2.92209   2.92728
 Alpha virt. eigenvalues --    2.93523   2.94219   2.94819   2.96071   2.96889
 Alpha virt. eigenvalues --    2.97908   2.98262   2.99405   2.99810   3.00432
 Alpha virt. eigenvalues --    3.00980   3.01647   3.02023   3.02550   3.03063
 Alpha virt. eigenvalues --    3.03608   3.04675   3.05208   3.05686   3.06369
 Alpha virt. eigenvalues --    3.06934   3.07218   3.07592   3.08571   3.09222
 Alpha virt. eigenvalues --    3.09560   3.10147   3.10319   3.11483   3.11925
 Alpha virt. eigenvalues --    3.12728   3.12851   3.13645   3.14152   3.15448
 Alpha virt. eigenvalues --    3.15788   3.16513   3.17013   3.17723   3.18089
 Alpha virt. eigenvalues --    3.18441   3.19808   3.20130   3.20917   3.20980
 Alpha virt. eigenvalues --    3.21271   3.22389   3.23178   3.23418   3.23740
 Alpha virt. eigenvalues --    3.24800   3.25540   3.25557   3.26726   3.27220
 Alpha virt. eigenvalues --    3.27411   3.27814   3.28096   3.28975   3.30231
 Alpha virt. eigenvalues --    3.30976   3.31307   3.32184   3.32601   3.32723
 Alpha virt. eigenvalues --    3.33704   3.34023   3.34171   3.34821   3.35726
 Alpha virt. eigenvalues --    3.36387   3.36603   3.36893   3.37381   3.38571
 Alpha virt. eigenvalues --    3.38727   3.39524   3.40154   3.40983   3.41796
 Alpha virt. eigenvalues --    3.42045   3.42509   3.42772   3.43946   3.44956
 Alpha virt. eigenvalues --    3.45543   3.45845   3.46223   3.47314   3.48312
 Alpha virt. eigenvalues --    3.48814   3.49628   3.49838   3.50452   3.52251
 Alpha virt. eigenvalues --    3.52800   3.53067   3.53704   3.54563   3.54835
 Alpha virt. eigenvalues --    3.56296   3.56671   3.57664   3.58004   3.58451
 Alpha virt. eigenvalues --    3.59544   3.60456   3.60941   3.62310   3.62944
 Alpha virt. eigenvalues --    3.63952   3.64851   3.65415   3.66468   3.67326
 Alpha virt. eigenvalues --    3.68264   3.69361   3.69501   3.70886   3.72135
 Alpha virt. eigenvalues --    3.73666   3.74492   3.74798   3.75254   3.75627
 Alpha virt. eigenvalues --    3.76967   3.77225   3.78627   3.79356   3.80177
 Alpha virt. eigenvalues --    3.81462   3.81549   3.84068   3.86243   3.87330
 Alpha virt. eigenvalues --    3.88117   3.89439   3.90072   3.91359   3.92096
 Alpha virt. eigenvalues --    3.92500   3.93547   3.95005   3.95779   3.98406
 Alpha virt. eigenvalues --    3.98834   3.99566   4.00007   4.01425   4.04140
 Alpha virt. eigenvalues --    4.05424   4.05849   4.06731   4.07363   4.08737
 Alpha virt. eigenvalues --    4.10425   4.11752   4.13331   4.13757   4.14786
 Alpha virt. eigenvalues --    4.17216   4.17800   4.19611   4.21322   4.22161
 Alpha virt. eigenvalues --    4.23357   4.25710   4.26038   4.27529   4.28019
 Alpha virt. eigenvalues --    4.30950   4.32032   4.32823   4.34806   4.37287
 Alpha virt. eigenvalues --    4.38117   4.39289   4.40255   4.40560   4.42926
 Alpha virt. eigenvalues --    4.43117   4.44381   4.45256   4.47129   4.48608
 Alpha virt. eigenvalues --    4.49529   4.50926   4.52035   4.53945   4.54523
 Alpha virt. eigenvalues --    4.58589   4.63407   4.64625   4.66137   4.67361
 Alpha virt. eigenvalues --    4.68186   4.70812   4.71159   4.72686   4.72823
 Alpha virt. eigenvalues --    4.74546   4.75819   4.76728   4.78845   4.79405
 Alpha virt. eigenvalues --    4.81786   4.85923   4.86796   4.88398   4.91647
 Alpha virt. eigenvalues --    4.92886   4.93654   4.96035   4.96813   4.97068
 Alpha virt. eigenvalues --    4.98406   4.99150   5.00974   5.03137   5.06509
 Alpha virt. eigenvalues --    5.07978   5.10797   5.12531   5.15926   5.18796
 Alpha virt. eigenvalues --    5.22055   5.23359   5.23961   5.26238   5.28532
 Alpha virt. eigenvalues --    5.28634   5.29897   5.32300   5.33328   5.35024
 Alpha virt. eigenvalues --    5.38416   5.40626   5.41792   5.42674   5.45713
 Alpha virt. eigenvalues --    5.47998   5.51801   5.53359   5.54867   5.58416
 Alpha virt. eigenvalues --    5.61667   5.67351   5.71781   5.73680   5.76088
 Alpha virt. eigenvalues --    5.79295   5.80169   5.82862   5.83870   5.84612
 Alpha virt. eigenvalues --    5.85947   5.87482   5.88521   5.89826   5.94144
 Alpha virt. eigenvalues --    5.95190   5.97342   6.04503   6.17064   6.20984
 Alpha virt. eigenvalues --    6.21623   6.23510   6.29318   6.32236   6.37036
 Alpha virt. eigenvalues --    6.37999   6.47589   6.50144   6.52028   6.52316
 Alpha virt. eigenvalues --    6.59427   6.60366   6.68323   6.71496   6.74175
 Alpha virt. eigenvalues --    6.75354   6.80897   6.84882   6.87061   6.87930
 Alpha virt. eigenvalues --    6.89657   6.92583   6.99602   7.06142   7.07962
 Alpha virt. eigenvalues --    7.08970   7.11470   7.12306   7.18355   7.25184
 Alpha virt. eigenvalues --    7.29435   7.35202   8.99985   9.40383   9.53220
 Alpha virt. eigenvalues --   20.06762  22.28475  22.39635  22.43097  22.44458
 Alpha virt. eigenvalues --   22.51721  22.56538  22.61433  22.64163  22.73289
 Alpha virt. eigenvalues --   22.76893  22.93006  22.95950  23.00668  23.05908
 Alpha virt. eigenvalues --   23.21026  23.45709  32.13551  33.13256  44.14540
 Alpha virt. eigenvalues --   44.18344  44.22704  44.28416  44.51075
          Condensed to atoms (all electrons):
               1          2          3          4          5          6
     1  C    5.112317   0.416712   0.407046  -0.012481   0.000423  -0.000162
     2  H    0.416712   0.510790  -0.020590  -0.001059   0.000223  -0.000005
     3  H    0.407046  -0.020590   0.541972   0.001664  -0.000058  -0.000001
     4  C   -0.012481  -0.001059   0.001664   5.305838   0.458048   0.252650
     5  H    0.000423   0.000223  -0.000058   0.458048   0.534851  -0.036380
     6  O   -0.000162  -0.000005  -0.000001   0.252650  -0.036380   8.110761
     7  H   -0.000043  -0.000002   0.000003  -0.026313  -0.011860   0.287452
     8  C   -0.010173   0.012049  -0.007335   0.019525  -0.054232  -0.042052
     9  H    0.011015  -0.000043  -0.001023  -0.096422   0.003114   0.003392
    10  O    0.008843  -0.000406   0.000115  -0.041369   0.001482  -0.005719
    11  H   -0.000660  -0.000103   0.000309   0.012809  -0.000620  -0.000315
    12  C   -0.000269   0.000358   0.000072   0.103593  -0.054951  -0.031020
    13  H    0.000164   0.000023   0.000091  -0.095742   0.005112   0.007427
    14  C    0.191288  -0.047979  -0.038455   0.079424   0.007504   0.005640
    15  H   -0.062702  -0.005123  -0.002884  -0.008659   0.000001   0.000069
    16  O   -0.037050   0.001871   0.005268  -0.074614  -0.001181   0.006834
    17  N   -0.000131  -0.000101  -0.000032   0.015561  -0.010552  -0.001224
    18  C   -0.000536   0.000153  -0.000030  -0.005742   0.000915   0.001492
    19  H   -0.000840  -0.000165   0.000114  -0.016940  -0.002900   0.000979
    20  C    0.000054  -0.000001  -0.000002   0.004841   0.004529  -0.001000
    21  H    0.000008   0.000001  -0.000000   0.000052   0.000064  -0.000007
    22  C   -0.000011  -0.000000   0.000000  -0.000259  -0.000268   0.000111
    23  H   -0.000000   0.000000   0.000000   0.000005   0.000004   0.000000
    24  H    0.000000  -0.000000  -0.000000   0.000028  -0.000040   0.000003
    25  C   -0.000064  -0.000004   0.000001  -0.004671  -0.000186  -0.000439
    26  C   -0.000309   0.000043  -0.000005   0.014167  -0.000602  -0.007112
    27  H   -0.000019   0.000001  -0.000000   0.000528  -0.000138  -0.000034
    28  C    0.000000   0.000000  -0.000000   0.000071   0.000005  -0.000032
    29  O   -0.000000  -0.000000  -0.000000   0.000007   0.000000   0.000000
    30  N   -0.000000   0.000000   0.000000   0.000001   0.000000  -0.000000
    31  H   -0.000000   0.000000  -0.000000  -0.000000   0.000000  -0.000000
    32  H    0.000000   0.000000  -0.000000   0.000000   0.000000   0.000000
    33  C    0.000002  -0.000000  -0.000000   0.000505  -0.000363  -0.017743
    34  C    0.000001  -0.000000  -0.000000  -0.000572   0.000242   0.010500
    35  C   -0.000000   0.000000   0.000000  -0.000170   0.000102   0.000757
    36  C   -0.000000   0.000000   0.000000  -0.000002   0.000001   0.000003
    37  C   -0.000000   0.000000  -0.000000   0.000161  -0.000003  -0.000003
    38  O   -0.000000   0.000000  -0.000000   0.004275   0.000104  -0.037958
    39  S    0.000000  -0.000000  -0.000000   0.000001   0.000019   0.000718
    40  H   -0.000000   0.000000  -0.000000   0.000153   0.000025  -0.000141
    41  H   -0.000007   0.000000  -0.000000  -0.000291   0.000490   0.010218
    42  H    0.000000   0.000000  -0.000000   0.000000  -0.000000  -0.000000
    43  H    0.000000   0.000000  -0.000000   0.000000  -0.000000  -0.000000
    44  H    0.000000  -0.000000  -0.000000   0.000000  -0.000000   0.000000
    45  H   -0.000000   0.000000   0.000000   0.000007   0.000002   0.000010
    46  H   -0.000000  -0.000000   0.000000  -0.000013   0.000000   0.000019
    47  H    0.384345  -0.023151  -0.024632   0.000825  -0.000104  -0.000004
    48  H    0.000000   0.000000  -0.000000  -0.000009   0.000006   0.000808
               7          8          9         10         11         12
     1  C   -0.000043  -0.010173   0.011015   0.008843  -0.000660  -0.000269
     2  H   -0.000002   0.012049  -0.000043  -0.000406  -0.000103   0.000358
     3  H    0.000003  -0.007335  -0.001023   0.000115   0.000309   0.000072
     4  C   -0.026313   0.019525  -0.096422  -0.041369   0.012809   0.103593
     5  H   -0.011860  -0.054232   0.003114   0.001482  -0.000620  -0.054951
     6  O    0.287452  -0.042052   0.003392  -0.005719  -0.000315  -0.031020
     7  H    0.350548   0.010285  -0.000336  -0.000435   0.000129   0.001696
     8  C    0.010285   5.313547   0.488843   0.275664  -0.039140  -0.032268
     9  H   -0.000336   0.488843   0.582764  -0.059128  -0.005217   0.012852
    10  O   -0.000435   0.275664  -0.059128   8.038371   0.292877  -0.022174
    11  H    0.000129  -0.039140  -0.005217   0.292877   0.426511  -0.002877
    12  C    0.001696  -0.032268   0.012852  -0.022174  -0.002877   5.472221
    13  H   -0.001180   0.022896   0.002689   0.017030  -0.001009   0.452473
    14  C   -0.000942   0.154984  -0.101410  -0.051236   0.000144  -0.068443
    15  H    0.000047  -0.024145   0.008934  -0.004853   0.002886  -0.003913
    16  O   -0.000085  -0.046367   0.004412   0.008773   0.000183   0.227405
    17  N    0.003627  -0.003434  -0.000808  -0.000264   0.000003   0.165148
    18  C    0.000582  -0.002858  -0.000236  -0.000282   0.000008  -0.073421
    19  H    0.000285   0.001535   0.000053  -0.000010   0.000005   0.018590
    20  C   -0.001045  -0.000782   0.000024   0.000009  -0.000001   0.014397
    21  H   -0.000009   0.000001   0.000000   0.000000  -0.000000   0.000121
    22  C    0.000241   0.000034  -0.000002  -0.000002   0.000000  -0.007157
    23  H   -0.000001   0.000000   0.000000   0.000000  -0.000000   0.000255
    24  H    0.000030   0.000004  -0.000000   0.000000   0.000000  -0.000322
    25  C    0.000577  -0.000415  -0.000002  -0.000053  -0.000000  -0.015906
    26  C    0.000197  -0.003861  -0.000075  -0.000579  -0.000053  -0.062863
    27  H    0.000101  -0.000001  -0.000013  -0.000200   0.000009  -0.002723
    28  C    0.000051  -0.000010   0.000000   0.000000  -0.000000  -0.002607
    29  O    0.000012   0.000000   0.000000  -0.000000  -0.000000   0.000290
    30  N    0.000000  -0.000000  -0.000000  -0.000000  -0.000000  -0.000001
    31  H   -0.000000  -0.000000   0.000000  -0.000000  -0.000000  -0.000004
    32  H   -0.000000  -0.000000  -0.000000   0.000000  -0.000000  -0.000007
    33  C    0.001020   0.000730   0.000018  -0.001181   0.000079  -0.000312
    34  C   -0.007657  -0.000097  -0.000021   0.000022   0.000001   0.000398
    35  C   -0.000263  -0.000064  -0.000001   0.000001  -0.000000   0.000518
    36  C   -0.000014  -0.000000  -0.000000  -0.000000  -0.000000   0.000045
    37  C    0.000065   0.000000  -0.000000  -0.000000  -0.000000  -0.000817
    38  O    0.029041  -0.000436   0.000005  -0.000000  -0.000001   0.000922
    39  S    0.000795  -0.000009   0.000001   0.000010  -0.000003  -0.000860
    40  H   -0.001784  -0.000015   0.000002   0.000025  -0.000002   0.000014
    41  H   -0.008467  -0.001001   0.000006   0.003480  -0.000237   0.000125
    42  H   -0.000001   0.000000  -0.000000  -0.000000  -0.000000   0.000001
    43  H    0.000001   0.000000  -0.000000   0.000000   0.000000   0.000001
    44  H    0.000000   0.000000  -0.000000   0.000000   0.000000  -0.000000
    45  H    0.000026   0.000000  -0.000000  -0.000000  -0.000000  -0.000023
    46  H   -0.000072   0.000000  -0.000000  -0.000000   0.000000   0.000065
    47  H    0.000007  -0.009506   0.000805   0.000168   0.000094  -0.000796
    48  H    0.000262  -0.000032   0.000001   0.000004  -0.000003   0.000012
              13         14         15         16         17         18
     1  C    0.000164   0.191288  -0.062702  -0.037050  -0.000131  -0.000536
     2  H    0.000023  -0.047979  -0.005123   0.001871  -0.000101   0.000153
     3  H    0.000091  -0.038455  -0.002884   0.005268  -0.000032  -0.000030
     4  C   -0.095742   0.079424  -0.008659  -0.074614   0.015561  -0.005742
     5  H    0.005112   0.007504   0.000001  -0.001181  -0.010552   0.000915
     6  O    0.007427   0.005640   0.000069   0.006834  -0.001224   0.001492
     7  H   -0.001180  -0.000942   0.000047  -0.000085   0.003627   0.000582
     8  C    0.022896   0.154984  -0.024145  -0.046367  -0.003434  -0.002858
     9  H    0.002689  -0.101410   0.008934   0.004412  -0.000808  -0.000236
    10  O    0.017030  -0.051236  -0.004853   0.008773  -0.000264  -0.000282
    11  H   -0.001009   0.000144   0.002886   0.000183   0.000003   0.000008
    12  C    0.452473  -0.068443  -0.003913   0.227405   0.165148  -0.073421
    13  H    0.520081  -0.013385   0.006098  -0.033211  -0.063231   0.010859
    14  C   -0.013385   5.252785   0.405034   0.208868   0.015054  -0.000034
    15  H    0.006098   0.405034   0.604524  -0.038599  -0.001458   0.000045
    16  O   -0.033211   0.208868  -0.038599   8.136602  -0.077104   0.003410
    17  N   -0.063231   0.015054  -0.001458  -0.077104   6.593354   0.316420
    18  C    0.010859  -0.000034   0.000045   0.003410   0.316420   5.005803
    19  H    0.001520  -0.003911   0.000316   0.017317  -0.052198   0.408242
    20  C   -0.000353   0.000367   0.000011  -0.001198  -0.085321   0.526594
    21  H    0.000008  -0.000003  -0.000000  -0.000100   0.004424  -0.030394
    22  C    0.000013  -0.000039   0.000001   0.000601  -0.000133  -0.006445
    23  H   -0.000002  -0.000000   0.000000  -0.000008  -0.000925   0.002537
    24  H   -0.000010   0.000002   0.000000   0.000027   0.005619   0.003568
    25  C    0.009115  -0.000019   0.000027  -0.001324  -0.067518   0.040239
    26  C   -0.018546   0.000298  -0.000449   0.000562   0.304582  -0.150901
    27  H   -0.000543   0.000018  -0.000028   0.001013  -0.036333   0.007355
    28  C    0.000010  -0.000003  -0.000001   0.000030   0.002518   0.003228
    29  O   -0.000058  -0.000000   0.000000  -0.000000  -0.000693   0.000310
    30  N   -0.000000   0.000000  -0.000000  -0.000000  -0.000511  -0.000112
    31  H    0.000000  -0.000000  -0.000000   0.000000   0.000030  -0.000000
    32  H    0.000001   0.000000  -0.000000   0.000000   0.000045   0.000072
    33  C   -0.000361  -0.000079   0.000000   0.000001   0.000084  -0.000010
    34  C    0.000307   0.000065  -0.000000   0.000093   0.006660  -0.001207
    35  C   -0.000014   0.000005  -0.000000  -0.000005  -0.002627  -0.000785
    36  C    0.000003   0.000000   0.000000  -0.000000  -0.000151  -0.000012
    37  C   -0.000034  -0.000001  -0.000000  -0.000001  -0.000447   0.000531
    38  O   -0.000447   0.000034  -0.000000   0.000001  -0.002310   0.002385
    39  S    0.001255  -0.000008   0.000001  -0.000000  -0.000157   0.000179
[...]
      4        6          -0.002579478    0.017178543    0.013299771
      5        1           0.011070353    0.003716347   -0.010121319
      6        8           0.015930568   -0.009685499   -0.004970259
      7        1          -0.001355765   -0.004646555   -0.004602879
      8        6           0.013697869    0.000306606   -0.002518193
      9        1          -0.007238816    0.003292442   -0.010821825
     10        8          -0.000960363    0.007239404    0.002421576
     11        1          -0.011191864   -0.005785477   -0.001717922
     12        6           0.015872541   -0.017804015   -0.001331701
     13        1          -0.008626834   -0.006605249    0.004525367
     14        6          -0.020514010    0.001736017   -0.002669337
     15        1          -0.004397310   -0.006775607    0.010601158
     16        8           0.002210375   -0.005013911   -0.000162166
     17        7          -0.000427136    0.004176585   -0.006758777
     18        6           0.021282695    0.010020687    0.012635162
     19        1          -0.005173299    0.002057663   -0.001857777
     20        6          -0.021179862    0.005127637   -0.011283392
     21        1           0.003634118    0.002771073    0.001195227
     22        6           0.015592181   -0.000926290    0.006048130
     23        1           0.001402619   -0.000359747    0.007578741
     24        1           0.002821141   -0.000930557   -0.007807211
     25        6          -0.016343221   -0.007171389   -0.009740633
     26        6           0.005328617   -0.016573869    0.007219907
     27        1          -0.007031626    0.000404719    0.001896332
     28        6          -0.012363124   -0.004561675    0.000457490
     29        8           0.016403201    0.015844447    0.011278294
     30        7           0.003397371   -0.009395848   -0.001889825
     31        1          -0.001547704    0.000576091   -0.001882596
     32        1          -0.003419072   -0.000474008   -0.003897841
     33        6          -0.005700021   -0.009535203   -0.009891192
     34        6          -0.007809966   -0.040769937    0.012174908
     35        6          -0.001627351    0.010205185   -0.008979361
     36        6           0.007620388   -0.003109225    0.005915929
     37        6          -0.004623748   -0.001099618    0.003277394
     38        8          -0.009930368    0.018330260   -0.009570240
     39       16           0.019113237    0.017545713    0.013175600
     40        1           0.006732021    0.002241161   -0.002464280
     41        1          -0.004424410    0.004862258    0.005301877
     42        1           0.003356798    0.005299449   -0.001158942
     43        1          -0.004874672   -0.002273876    0.002322762
     44        1           0.001415516   -0.004252242   -0.003109203
     45        1           0.005779167    0.006132179   -0.003323700
     46        1          -0.004643584   -0.004917254    0.001149911
     47        1           0.001194679   -0.001295800   -0.000997296
     48        1          -0.003655703    0.004087820   -0.004782086
 -------------------------------------------------------------------
 Cartesian Forces:  Max     0.040769937 RMS     0.009061533
 Leave Link  716 at Wed Mar  8 14:26:55 2023, MaxMem=  2684354560 cpu:               0.8 elap:               0.1
 (Enter /opt/gaussian/g16/l103.exe)

 GradGradGradGradGradGradGradGradGradGradGradGradGradGradGradGradGradGrad
 Berny optimization.
 Search for a local minimum.
 Step number   1 out of a maximum of    2
 All quantities printed in internal units (Hartrees-Bohrs-Radians)
 Second derivative matrix not updated -- first step.
 ITU=  0
     Eigenvalues ---    0.00026   0.00065   0.00087   0.00096   0.00141
     Eigenvalues ---    0.00190   0.00222   0.00262   0.00325   0.00446
     Eigenvalues ---    0.00483   0.00670   0.00736   0.00829   0.00961
     Eigenvalues ---    0.01035   0.01109   0.01287   0.01332   0.01434
     Eigenvalues ---    0.01579   0.01729   0.01884   0.02340   0.02533
     Eigenvalues ---    0.02857   0.02908   0.03190   0.03308   0.03654
     Eigenvalues ---    0.03997   0.04418   0.04507   0.04859   0.05033
     Eigenvalues ---    0.05114   0.05269   0.05415   0.05621   0.05690
     Eigenvalues ---    0.05802   0.05860   0.05926   0.06307   0.06593
     Eigenvalues ---    0.07036   0.07072   0.07429   0.07634   0.07753
     Eigenvalues ---    0.08482   0.08666   0.09102   0.09668   0.10139
     Eigenvalues ---    0.10524   0.10945   0.11645   0.11933   0.12290
     Eigenvalues ---    0.12830   0.12868   0.13011   0.13099   0.13644
     Eigenvalues ---    0.13820   0.14007   0.14635   0.15553   0.16085
     Eigenvalues ---    0.16556   0.17222   0.17605   0.18432   0.19030
     Eigenvalues ---    0.19753   0.19964   0.21014   0.21315   0.21717
     Eigenvalues ---    0.24191   0.25887   0.26373   0.26794   0.30755
     Eigenvalues ---    0.32189   0.33552   0.34519   0.34682   0.36682
     Eigenvalues ---    0.36940   0.36940   0.36940   0.36940   0.40977
     Eigenvalues ---    0.42362   0.43306   0.46712   0.52465   0.56199
     Eigenvalues ---    0.59409   0.64554   0.66251   0.69095   0.74057
     Eigenvalues ---    0.76932   0.78080   0.83904   0.86955   0.87214
     Eigenvalues ---    0.88469   0.89549   0.89993   0.90377   0.91302
     Eigenvalues ---    0.92432   0.93514   0.94804   0.97842   0.99859
     Eigenvalues ---    1.00187   1.01041   1.03924   1.05829   1.10547
     Eigenvalues ---    1.12843   1.15879   1.21678   1.24896   1.27124
     Eigenvalues ---    1.29229   1.38608   1.47709   1.61229   1.66681
     Eigenvalues ---    1.79529   2.02245   2.34600
 Quadratic step=3.749D+00 exceeds max=3.000D-01 adjusted using Lamda=-7.804D-02.
 Angle between NR and scaled steps=  71.39 degrees.
 Angle between quadratic step and forces=  47.39 degrees.
 Linear search not attempted -- first point.
 Variable       Old X    -DE/DX   Delta X   Delta X   Delta X     New X
                                 (Linear)    (Quad)   (Total)
    X1        6.50118   0.00407   0.00000  -0.01277  -0.01277   6.48840
    Y1       -6.71038   0.02760   0.00000   0.06173   0.06173  -6.64866
    Z1       -1.57679   0.00249   0.00000   0.01803   0.01803  -1.55877
    X2        6.42965   0.00083   0.00000   0.00190   0.00190   6.43155
    Y2       -6.85250  -0.00342   0.00000   0.00440   0.00440  -6.84809
    Z2       -3.64590   0.00666   0.00000   0.03339   0.03339  -3.61251
    X3        8.31554  -0.00711   0.00000  -0.03769  -0.03769   8.27784
    Y3       -7.42370  -0.00336   0.00000   0.00800   0.00800  -7.41571
    Z3       -0.85776  -0.00331   0.00000  -0.00070  -0.00070  -0.85846
    X4        3.01116  -0.00258   0.00000   0.03055   0.03055   3.04171
    Y4       -2.28698   0.01718   0.00000   0.02687   0.02687  -2.26012
    Z4        1.86870   0.01330   0.00000   0.00114   0.00114   1.86984
    X5        1.64171   0.01107   0.00000   0.07311   0.07311   1.71482
    Y5       -3.87900   0.00372   0.00000   0.01260   0.01260  -3.86641
    Z5        1.91406  -0.01012   0.00000  -0.06152  -0.06152   1.85254
    X6        2.43960   0.01593   0.00000   0.05632   0.05632   2.49592
    Y6       -0.68447  -0.00969   0.00000  -0.01201  -0.01201  -0.69648
    Z6        3.92778  -0.00497   0.00000  -0.00051  -0.00051   3.92727
    X7        0.74967  -0.00136   0.00000   0.03263   0.03263   0.78230
    Y7        0.04759  -0.00465   0.00000  -0.05231  -0.05231  -0.00472
    Z7        3.85518  -0.00460   0.00000  -0.02427  -0.02427   3.83090
    X8        5.80097   0.01370   0.00000   0.00699   0.00699   5.80796
    Y8       -3.22164   0.00031   0.00000   0.02746   0.02746  -3.19418
    Z8        1.95358  -0.00252   0.00000  -0.01535  -0.01535   1.93823
    X9        6.15051  -0.00724   0.00000  -0.04157  -0.04157   6.10893
    Y9       -4.80147   0.00329   0.00000   0.00684   0.00684  -4.79463
    Z9        3.28774  -0.01082   0.00000  -0.05947  -0.05947   3.22826
   X10        7.30885  -0.00096   0.00000  -0.02453  -0.02453   7.28432
   Y10       -1.14170   0.00724   0.00000   0.03361   0.03361  -1.10809
   Z10        2.73394   0.00242   0.00000   0.00644   0.00644   2.74038
   X11        9.10699  -0.01119   0.00000  -0.04979  -0.04979   9.05720
   Y11       -1.46239  -0.00579   0.00000  -0.03225  -0.03225  -1.49463
   Z11        2.59162  -0.00172   0.00000  -0.00841  -0.00841   2.58321
   X12        3.02415   0.01587   0.00000   0.02143   0.02143   3.04558
   Y12       -0.86837  -0.01780   0.00000  -0.03737  -0.03737  -0.90573
   Z12       -0.69248  -0.00133   0.00000  -0.01330  -0.01330  -0.70578
   X13        4.15219  -0.00863   0.00000  -0.02820  -0.02820   4.12399
   Y13        0.88941  -0.00661   0.00000  -0.03200  -0.03200   0.85741
   Z13       -0.53733   0.00453   0.00000   0.02167   0.02167  -0.51566
   X14        6.39450  -0.02051   0.00000  -0.05080  -0.05080   6.34370
   Y14       -3.85656   0.00174   0.00000   0.01718   0.01718  -3.83938
   Z14       -0.89220  -0.00267   0.00000   0.00340   0.00340  -0.88880
   X15        8.13489  -0.00440   0.00000  -0.02405  -0.02405   8.11084
   Y15       -2.89127  -0.00678   0.00000  -0.02598  -0.02598  -2.91725
   Z15       -1.55273   0.01060   0.00000   0.06743   0.06743  -1.48530
   X16        4.35478   0.00221   0.00000  -0.01135  -0.01135   4.34342
   Y16       -2.63400  -0.00501   0.00000  -0.02311  -0.02311  -2.65711
   Z16       -2.27751  -0.00016   0.00000  -0.02669  -0.02669  -2.30421
   X17        0.62006  -0.00043   0.00000   0.01881   0.01881   0.63887
   Y17       -0.28211   0.00418   0.00000  -0.00981  -0.00981  -0.29192
   Z17       -1.76831  -0.00676   0.00000  -0.00684  -0.00684  -1.77516
   X18       -1.00678   0.02128   0.00000   0.01009   0.01009  -0.99669
   Y18       -2.28148   0.01002   0.00000   0.02061   0.02061  -2.26087
   Z18       -2.49993   0.01264   0.00000   0.01206   0.01206  -2.48787
   X19       -0.18876  -0.00517   0.00000  -0.02466  -0.02466  -0.21342
   Y19       -4.13326   0.00206   0.00000   0.01155   0.01155  -4.12171
   Z19       -2.16173  -0.00186   0.00000  -0.00091  -0.00091  -2.16264
   X20       -3.20777  -0.02118   0.00000  -0.00702  -0.00702  -3.21479
   Y20       -1.83232   0.00513   0.00000   0.01332   0.01332  -1.81900
   Z20       -3.56327  -0.01128   0.00000  -0.00673  -0.00673  -3.57000
   X21       -4.38884   0.00363   0.00000   0.00904   0.00904  -4.37980
   Y21       -3.41143   0.00277   0.00000   0.01261   0.01261  -3.39881
   Z21       -4.14777   0.00120   0.00000  -0.00038  -0.00038  -4.14815
   X22       -4.21878   0.01559   0.00000   0.02378   0.02378  -4.19500
   Y22        0.83428  -0.00093   0.00000  -0.00593  -0.00593   0.82835
   Z22       -4.00338   0.00605   0.00000   0.00424   0.00424  -3.99913
   X23       -5.17830   0.00140   0.00000   0.01139   0.01139  -5.16690
   Y23        0.94878  -0.00036   0.00000  -0.00346  -0.00346   0.94533
   Z23       -5.84808   0.00758   0.00000   0.02818   0.02818  -5.81990
   X24       -5.61333   0.00282   0.00000   0.01486   0.01486  -5.59847
   Y24        1.31398  -0.00093   0.00000   0.00015   0.00015   1.31412
   Z24       -2.51392  -0.00781   0.00000  -0.02868  -0.02868  -2.54259
   X25       -2.00369  -0.01634   0.00000  -0.01701  -0.01701  -2.02070
   Y25        2.72731  -0.00717   0.00000  -0.02131  -0.02131   2.70601
   Z25       -3.85740  -0.00974   0.00000  -0.01028  -0.01028  -3.86768
   X26        0.18701   0.00533   0.00000  -0.01102  -0.01102   0.17599
   Y26        2.11885  -0.01657   0.00000  -0.03069  -0.03069   2.08816
   Z26       -2.76957   0.00722   0.00000   0.00375   0.00375  -2.76582
   X27        1.79608  -0.00703   0.00000  -0.04744  -0.04744   1.74864
   Y27        3.39986   0.00040   0.00000   0.00302   0.00302   3.40288
   Z27       -2.66724   0.00190   0.00000   0.02419   0.02419  -2.64305
   X28       -2.37289  -0.01236   0.00000  -0.02445  -0.02445  -2.39734
   Y28        5.33109  -0.00456   0.00000   0.00443   0.00443   5.33552
   Z28       -4.80689   0.00046   0.00000   0.03052   0.03052  -4.77638
   X29       -1.60338   0.01640   0.00000   0.06846   0.06846  -1.53491
   Y29        7.18093   0.01584   0.00000   0.00174   0.00174   7.18267
   Z29       -3.72528   0.01128   0.00000   0.01165   0.01165  -3.71362
   X30       -3.91863   0.00340   0.00000   0.00895   0.00895  -3.90968
   Y30        5.65846  -0.00940   0.00000  -0.01945  -0.01945   5.63901
   Z30       -6.87582  -0.00189   0.00000  -0.00742  -0.00742  -6.88324
   X31       -3.80331  -0.00155   0.00000  -0.00873  -0.00873  -3.81204
   Y31        7.42370   0.00058   0.00000  -0.01501  -0.01501   7.40869
   Z31       -7.58109  -0.00188   0.00000  -0.01139  -0.01139  -7.59248
   X32       -3.90706  -0.00342   0.00000  -0.01823  -0.01823  -3.92529
   Y32        4.24683  -0.00047   0.00000  -0.01386  -0.01386   4.23297
   Z32       -8.14763  -0.00390   0.00000  -0.01728  -0.01728  -8.16491
   X33        1.79305  -0.00570   0.00000  -0.00809  -0.00809   1.78496
   Y33        4.10567  -0.00954   0.00000  -0.01312  -0.01312   4.09255
   Z33        7.17100  -0.00989   0.00000  -0.02511  -0.02511   7.14589
   X34       -1.77930  -0.00781   0.00000  -0.02316  -0.02316  -1.80246
   Y34        4.15051  -0.04077   0.00000  -0.02361  -0.02361   4.12691
   Z34        3.38443   0.01217   0.00000   0.02534   0.02534   3.40976
   X35       -3.51636  -0.00163   0.00000  -0.00008  -0.00008  -3.51644
   Y35        5.37801   0.01021   0.00000   0.00907   0.00907   5.38708
   Z35        1.61790  -0.00898   0.00000  -0.00299  -0.00299   1.61492
   X36       -7.71271   0.00762   0.00000   0.02057   0.02057  -7.69214
   Y36        5.91407  -0.00311   0.00000  -0.00996  -0.00996   5.90411
   Z36       -0.54736   0.00592   0.00000   0.01318   0.01318  -0.53418
   X37       -5.86427  -0.00462   0.00000   0.00483   0.00483  -5.85944
   Y37        4.57030  -0.00110   0.00000   0.00706   0.00706   4.57736
   Z37        1.17870   0.00328   0.00000   0.00850   0.00850   1.18720
   X38       -1.88950  -0.00993   0.00000  -0.08961  -0.08961  -1.97911
   Y38        1.89989   0.01833   0.00000  -0.00703  -0.00703   1.89286
   Z38        4.00560  -0.00957   0.00000  -0.01181  -0.01181   3.99379
   X39        0.42240   0.01911   0.00000   0.02902   0.02902   0.45142
   Y39        6.11501   0.01755   0.00000   0.01586   0.01586   6.13087
   Z39        4.71288   0.01318   0.00000   0.01743   0.01743   4.73031
   X40        0.21164   0.00673   0.00000   0.01884   0.01884   0.23048
   Y40        3.18063   0.00224   0.00000  -0.00299  -0.00299   3.17764
   Z40        8.14763  -0.00246   0.00000  -0.01035  -0.01035   8.13728
   X41        2.99913  -0.00442   0.00000  -0.00207  -0.00207   2.99706
   Y41        2.67899   0.00486   0.00000   0.00161   0.00161   2.68061
   Z41        6.26099   0.00530   0.00000   0.01049   0.01049   6.27148
   X42       -9.10699   0.00336   0.00000   0.02353   0.02353  -9.08347
   Y42        4.56328   0.00530   0.00000   0.01470   0.01470   4.57799
   Z42       -1.27287  -0.00116   0.00000  -0.00683  -0.00683  -1.27969
   X43       -6.68519  -0.00487   0.00000  -0.00864  -0.00864  -6.69383
   Y43        6.83743  -0.00227   0.00000  -0.00703  -0.00703   6.83040
   Z43       -2.09522   0.00232   0.00000   0.01115   0.01115  -2.08407
   X44       -8.72842   0.00142   0.00000   0.00890   0.00890  -8.71953
   Y44        7.37888  -0.00425   0.00000  -0.02138  -0.02138   7.35750
   Z44        0.52465  -0.00311   0.00000  -0.00381  -0.00381   0.52084
   X45       -6.56782   0.00578   0.00000   0.03314   0.03314  -6.53468
   Y45        2.89128   0.00613   0.00000   0.01510   0.01510   2.90638
   Z45        2.18013  -0.00332   0.00000   0.00075   0.00075   2.18089
   X46       -2.77199  -0.00464   0.00000  -0.01113  -0.01113  -2.78313
   Y46        7.07805  -0.00492   0.00000  -0.00738  -0.00738   7.07067
   Z46        0.70152   0.00115   0.00000  -0.00538  -0.00538   0.69614
   X47        4.91528   0.00119   0.00000   0.00230   0.00230   4.91759
   Y47       -7.71224  -0.00130   0.00000   0.02036   0.02036  -7.69189
   Z47       -0.72591  -0.00100   0.00000  -0.00154  -0.00154  -0.72745
   X48        2.90080  -0.00366   0.00000  -0.02628  -0.02628   2.87453
   Y48        5.23566   0.00409   0.00000   0.02393   0.02393   5.25959
   Z48        8.48962  -0.00478   0.00000  -0.04284  -0.04284   8.44678
         Item               Value     Threshold  Converged?
 Maximum Force            0.040770     0.000450     NO 
 RMS     Force            0.009062     0.000300     NO 
 Maximum Displacement     0.089613     0.001800     NO 
 RMS     Displacement     0.025002     0.001200     NO 
 Predicted change in Energy=-1.455522D-02
 GradGradGradGradGradGradGradGradGradGradGradGradGradGradGradGradGradGrad

 Leave Link  103 at Wed Mar  8 14:26:56 2023, MaxMem=  2684354560 cpu:               2.0 elap:               0.1
 (Enter /opt/gaussian/g16/l9999.exe)

 Test job not archived.
 1\1\GINC-JULIO-SYS\Force\RM062X\def2TZVP\C16H24N2O5S1\JVELAZQUEZ\08-Ma
 r-2023\0\\#P M062X/Def2TZVP scf=(direct,conver=8) EmpiricalDispersion=
 GD3 NoSymm Force pop=(NBORead) Charge Prop=(Field,Read)\\Gaussian run 
 using SANDER external interface, route from template gau_job.tpl\\0,1\
 C,3.4402758396,-3.5509817417,-0.834403604\H,3.4024250809,-3.6261844825
 ,-1.9293256205\H,4.4003923121,-3.9284534987,-0.4539071905\C,1.59343898
 88,-1.2102192818,0.9888733958\H,0.8687571959,-2.0526785099,1.012875904
 3\O,1.2909817811,-0.3622062571,2.0784937176\H,0.3967096461,0.025182753
 2,2.0400714468\C,3.0697394147,-1.7048194868,1.0337878775\H,3.254709001
 1,-2.540829148,1.7397956871\O,3.8676769506,-0.6041602569,1.4467404708\
 H,4.8192129053,-0.7738624759,1.3714250177\C,1.600312506,-0.4595194644,
 -0.3664442749\H,2.1972436574,0.4706570963,-0.2843424889\C,3.3838259867
 ,-2.0408012329,-0.4721315878\H,4.3047998636,-1.5299932952,-0.821668131
 9\O,2.3044488082,-1.3938512169,-1.2052070945\N,0.3281239301,-0.1492858
 021,-0.9357504521\C,-0.5327668548,-1.2073066381,-1.3229060928\H,-0.099
 8878618,-2.1872283446,-1.1439375679\C,-1.6974780677,-0.9696242601,-1.8
 856003327\H,-2.3224742101,-1.8052505675,-2.194905842\C,-2.2324832346,0
 .4414843082,-2.1184956465\H,-2.7402372202,0.5020747107,-3.0946689454\H
 ,-2.9704462605,0.6953270223,-1.3303070546\C,-1.0603061027,1.4432323237
 ,-2.0412455577\C,0.0989603232,1.1212463523,-1.4655944277\H,0.950446968
 4,1.7991308672,-1.4114414592\C,-1.255679212,2.8210923468,-2.5436985024
 \O,-0.848469581,3.7999823909,-1.9713320152\N,-2.0736486913,2.994327621
 ,-3.6385276187\H,-2.0126259474,3.9284534987,-4.0117385483\H,-2.0675275
 952,2.2473245335,-4.3115401471\C,0.9488425224,2.1726273604,3.794727235
 8\C,-0.9415630081,2.1963578946,1.7909609906\C,-1.8607774641,2.84591987
 9,0.856156995\C,-4.0813877989,3.1295936176,-0.2896503547\C,-3.10323801
 65,2.4184991094,0.6237409456\O,-0.999880124,1.0053765007,2.1196714994\
 S,0.22352414,3.2359264941,2.4939479034\H,0.1119948356,1.6831155878,4.3
 115401471\H,1.5870726696,1.4176620131,3.3131748762\H,-4.8192129053,2.4
 147863482,-0.6735724823\H,-3.537652804,3.6182127686,-1.1087440865\H,-4
 .6188828962,3.9047355034,0.2776339719\H,-3.4755390616,1.5299999725,1.1
 536771525\H,-1.4668757449,3.7455424427,0.3712271758\H,2.6010562042,-4.
 0811423612,-0.3841368818\H,1.5350396133,2.7705944175,4.4925154338\\Ver
 sion=ES64L-G16RevA.03\HF=-1507.8952127\RMSD=2.307e-09\RMSF=9.062e-03\D
 ipole=0.119277,-0.947673,-0.779674\Quadrupole=9.4640563,-8.5549416,-0.
 9091147,-7.2630344,6.7423024,-1.5111086\PG=C01 [X(C16H24N2O5S1)]\\@


 THE POLHOLDE ROLLS WITHOUT SLIPPING ON THE HERPOLHOLDE LYING IN
 THE INVARIABLE PLANE.
 H.GOLDSTEIN, "CLASSICAL MECHANICS", PG 161
 Job cpu time:       0 days  7 hours 30 minutes 34.1 seconds.
 Elapsed time:       0 days  0 hours 28 minutes 17.5 seconds.
 File lengths (MBytes):  RWF=    435 Int=      0 D2E=      0 Chk=     48 Scr=      1
 Normal termination of Gaussian 16 at Wed Mar  8 14:26:56 2023.
