 Entering Gaussian System, Link 0=g16
 Initial command:
 /opt/gaussian/g16/l1.exe "/opt/gaussian/scratch16/Gau-2681525.inp" -scrdir="/opt/gaussian/scratch16/"
 Entering Link 1 = /opt/gaussian/g16/l1.exe PID=   2681527.
  
 Copyright (c) 1988,1990,1992,1993,1995,1998,2003,2009,2016,
            Gaussian, Inc.  All Rights Reserved.
  
 This is part of the Gaussian(R) 16 program.  It is based on
 the Gaussian(R) 09 system (copyright 2009, Gaussian, Inc.),
 the Gaussian(R) 03 system (copyright 2003, Gaussian, Inc.),
 the Gaussian(R) 98 system (copyright 1998, Gaussian, Inc.),
 the Gaussian(R) 94 system (copyright 1995, Gaussian, Inc.),
 the Gaussian 92(TM) system (copyright 1992, Gaussian, Inc.),
 the Gaussian 90(TM) system (copyright 1990, Gaussian, Inc.),
 the Gaussian 88(TM) system (copyright 1988, Gaussian, Inc.),
 the Gaussian 86(TM) system (copyright 1986, Carnegie Mellon
 University), and the Gaussian 82(TM) system (copyright 1983,
 Carnegie Mellon University). Gaussian is a federally registered
 trademark of Gaussian, Inc.
  
 This software contains proprietary and confidential information,
 including trade secrets, belonging to Gaussian, Inc.
  
 This software is provided under written license and may be
 used, copied, transmitted, or stored only in accord with that
 written license.
  
 The following legend is applicable only to US Government
 contracts under FAR:
  
                    RESTRICTED RIGHTS LEGEND
  
 Use, reproduction and disclosure by the US Government is
 subject to restrictions as set forth in subparagraphs (a)
 and (c) of the Commercial Computer Software - Restricted
 Rights clause in FAR 52.227-19.
  
 Gaussian, Inc.
 340 Quinnipiac St., Bldg. 40, Wallingford CT 06492
  
  
 ---------------------------------------------------------------
 Warning -- This program may not be used in any manner that
 competes with the business of Gaussian, Inc. or will provide
 assistance to any competitor of Gaussian, Inc.  The licensee
 of this program is prohibited from giving any competitor of
 Gaussian, Inc. access to this program.  By using this program,
 the user acknowledges that Gaussian, Inc. is engaged in the
 business of creating and licensing software in the field of
 computational chemistry and represents and warrants to the
 licensee that it is not a competitor of Gaussian, Inc. and that
 it will not use this program in any manner prohibited above.
 ---------------------------------------------------------------
  

 Cite this work as:
 Gaussian 16, Revision A.03,
 M. J. Frisch, G. W. Trucks, H. B. Schlegel, G. E. Scuseria, 
 M. A. Robb, J. R. Cheeseman, G. Scalmani, V. Barone, 
 G. A. Petersson, H. Nakatsuji, X. Li, M. Caricato, A. V. Marenich, 
 J. Bloino, B. G. Janesko, R. Gomperts, B. Mennucci, H. P. Hratchian, 
 J. V. Ortiz, A. F. Izmaylov, J. L. Sonnenberg, D. Williams-Young, 
 F. Ding, F. Lipparini, F. Egidi, J. Goings, B. Peng, A. Petrone, 
 T. Henderson, D. Ranasinghe, V. G. Zakrzewski, J. Gao, N. Rega, 
 G. Zheng, W. Liang, M. Hada, M. Ehara, K. Toyota, R. Fukuda, 
 J. Hasegawa, M. Ishida, T. Nakajima, Y. Honda, O. Kitao, H. Nakai, 
 T. Vreven, K. Throssell, J. A. Montgomery, Jr., J. E. Peralta, 
 F. Ogliaro, M. J. Bearpark, J. J. Heyd, E. N. Brothers, K. N. Kudin, 
 V. N. Staroverov, T. A. Keith, R. Kobayashi, J. Normand, 
 K. Raghavachari, A. P. Rendell, J. C. Burant, S. S. Iyengar, 
 J. Tomasi, M. Cossi, J. M. Millam, M. Klene, C. Adamo, R. Cammi, 
 J. W. Ochterski, R. L. Martin, K. Morokuma, O. Farkas, 
 J. B. Foresman, and D. J. Fox, Gaussian, Inc., Wallingford CT, 2016.
 
 ******************************************
 Gaussian 16:  ES64L-G16RevA.03 25-Dec-2016
                 8-Mar-2023 
 ******************************************
 %chk=5.chk
 %NProcShared=16
 Will use up to   16 processors via shared memory.
 %mem=20GB
 ----------------------------------------------------------------------
 #P M062X/Def2TZVP scf=(direct,conver=8) EmpiricalDispersion=GD3 NoSymm
  Force pop=(NBORead) Charge Prop=(Field,Read)
 ----------------------------------------------------------------------
 1/10=7,18=10,28=-2,30=1,38=1,125=101/1,3;
 2/12=2,15=1,17=6,18=5,29=2,40=1/2;
 3/5=44,7=101,11=2,25=1,30=1,71=1,74=-55,124=31/1,2,3;
 4//1;
 5/5=2,6=8,38=5/2;
 6/7=2,8=2,9=2,10=2,14=2,15=1,28=1,40=2/1,2,7;
 7/7=1,16=-2,29=1,30=1/1,2,3,16;
 1/10=7,18=10,28=-2,30=1/3;
 99/12=1/99;
 Leave Link    1 at Wed Mar  8 13:58:41 2023, MaxMem=  2684354560 cpu:               0.9 elap:               0.1
 (Enter /opt/gaussian/g16/l101.exe)
 ----------------------------------------------------------------------
 Gaussian run using SANDER external interface, route from template gau_
 job.tpl
 ----------------------------------------------------------------------
 Symbolic Z-matrix:
 Charge =  0 Multiplicity = 1
 C                     3.44264  -3.55142  -0.83481 
 H                     3.40441  -3.62666  -1.92972 
 H                     4.40282  -3.92919  -0.45469 
 C                     1.59716  -1.20979   0.98828 
 H                     0.87169  -2.05186   1.01086 
 O                     1.29468  -0.36326   2.07913 
 H                     0.39996   0.02391   2.04046 
 C                     3.07266  -1.70527   1.03311 
 H                     3.25685  -2.54179   1.7388 
 O                     3.87143  -0.6056    1.44756 
 H                     4.82277  -0.77521   1.37019 
 C                     1.60408  -0.45738  -0.36552 
 H                     2.20419   0.4703   -0.28526 
 C                     3.38593  -2.0407   -0.47324 
 H                     4.30733  -1.53062  -0.82293 
 O                     2.30608  -1.39474  -1.20578 
 N                     0.3334   -0.13973  -0.92677 
 C                    -0.53535  -1.19205  -1.30709 
 H                    -0.10812  -2.17734  -1.14754 
 C                    -1.70714  -0.94732  -1.85207 
 H                    -2.34107  -1.773    -2.16911 
 C                    -2.23008   0.46867  -2.0823 
 H                    -2.77984   0.53484  -3.03788 
 H                    -2.94376   0.7365   -1.27185 
 C                    -1.04237   1.45705  -2.0394 
 C                     0.1175    1.12992  -1.46911 
 H                     0.97729   1.7989   -1.43039 
 C                    -1.24342   2.83333  -2.54771 
 O                    -0.84365   3.81448  -1.97477 
 N                    -2.06101   2.99681  -3.6426 
 H                    -2.00526   3.92919  -4.02034 
 H                    -2.05789   2.24603  -4.31146 
 C                     0.94546   2.17124   3.79304 
 C                    -0.9396    2.1834    1.7835 
 C                    -1.85979   2.82974   0.84638 
 C                    -4.07982   3.11261  -0.29962 
 C                    -3.09956   2.39663   0.60821 
 O                    -0.99761   0.99352   2.11978 
 S                     0.22036   3.22923   2.48798 
 H                     0.10869   1.68333   4.31146 
 H                     1.58277   1.41475   3.31301 
 H                    -4.82277   2.4067   -0.68889 
 H                    -3.54374   3.60113  -1.12369 
 H                    -4.60479   3.88344   0.28325 
 H                    -3.46396   1.49281   1.11745 
 H                    -1.47169   3.73356   0.36317 
 H                     2.60345  -4.08135  -0.38421 
 H                     1.53263   2.77048   4.48892 
 
 ITRead=  0  0  0  0  0  0  0  0  0  0  0  0  0  0  0  0  0  0  0  0
 ITRead=  0  0  0  0  0  0  0  0  0  0  0  0  0  0  0  0  0  0  0  0
 ITRead=  0  0  0  0  0  0  0  0
 MicOpt= -1 -1 -1 -1 -1 -1 -1 -1 -1 -1 -1 -1 -1 -1 -1 -1 -1 -1 -1 -1
 MicOpt= -1 -1 -1 -1 -1 -1 -1 -1 -1 -1 -1 -1 -1 -1 -1 -1 -1 -1 -1 -1
 MicOpt= -1 -1 -1 -1 -1 -1 -1 -1
 NAtoms=     48 NQM=       48 NQMF=       0 NMMI=      0 NMMIF=      0
                NMic=       0 NMicF=      0.
                    Isotopes and Nuclear Properties:
 (Nuclear quadrupole moments (NQMom) in fm**2, nuclear magnetic moments (NMagM)
  in nuclear magnetons)

  Atom         1           2           3           4           5           6           7           8           9          10
 IAtWgt=          12           1           1          12           1          16           1          12           1          16
 AtmWgt=  12.0000000   1.0078250   1.0078250  12.0000000   1.0078250  15.9949146   1.0078250  12.0000000   1.0078250  15.9949146
 NucSpn=           0           1           1           0           1           0           1           0           1           0
 AtZEff=  -0.0000000  -0.0000000  -0.0000000  -0.0000000  -0.0000000  -0.0000000  -0.0000000  -0.0000000  -0.0000000  -0.0000000
 NQMom=    0.0000000   0.0000000   0.0000000   0.0000000   0.0000000   0.0000000   0.0000000   0.0000000   0.0000000   0.0000000
 NMagM=    0.0000000   2.7928460   2.7928460   0.0000000   2.7928460   0.0000000   2.7928460   0.0000000   2.7928460   0.0000000
 AtZNuc=   6.0000000   1.0000000   1.0000000   6.0000000   1.0000000   8.0000000   1.0000000   6.0000000   1.0000000   8.0000000

  Atom        11          12          13          14          15          16          17          18          19          20
 IAtWgt=           1          12           1          12           1          16          14          12           1          12
 AtmWgt=   1.0078250  12.0000000   1.0078250  12.0000000   1.0078250  15.9949146  14.0030740  12.0000000   1.0078250  12.0000000
 NucSpn=           1           0           1           0           1           0           2           0           1           0
 AtZEff=  -0.0000000  -0.0000000  -0.0000000  -0.0000000  -0.0000000  -0.0000000  -0.0000000  -0.0000000  -0.0000000  -0.0000000
 NQMom=    0.0000000   0.0000000   0.0000000   0.0000000   0.0000000   0.0000000   2.0440000   0.0000000   0.0000000   0.0000000
 NMagM=    2.7928460   0.0000000   2.7928460   0.0000000   2.7928460   0.0000000   0.4037610   0.0000000   2.7928460   0.0000000
 AtZNuc=   1.0000000   6.0000000   1.0000000   6.0000000   1.0000000   8.0000000   7.0000000   6.0000000   1.0000000   6.0000000

  Atom        21          22          23          24          25          26          27          28          29          30
 IAtWgt=           1          12           1           1          12          12           1          12          16          14
 AtmWgt=   1.0078250  12.0000000   1.0078250   1.0078250  12.0000000  12.0000000   1.0078250  12.0000000  15.9949146  14.0030740
 NucSpn=           1           0           1           1           0           0           1           0           0           2
 AtZEff=  -0.0000000  -0.0000000  -0.0000000  -0.0000000  -0.0000000  -0.0000000  -0.0000000  -0.0000000  -0.0000000  -0.0000000
 NQMom=    0.0000000   0.0000000   0.0000000   0.0000000   0.0000000   0.0000000   0.0000000   0.0000000   0.0000000   2.0440000
 NMagM=    2.7928460   0.0000000   2.7928460   2.7928460   0.0000000   0.0000000   2.7928460   0.0000000   0.0000000   0.4037610
 AtZNuc=   1.0000000   6.0000000   1.0000000   1.0000000   6.0000000   6.0000000   1.0000000   6.0000000   8.0000000   7.0000000

  Atom        31          32          33          34          35          36          37          38          39          40
 IAtWgt=           1           1          12          12          12          12          12          16          32           1
 AtmWgt=   1.0078250   1.0078250  12.0000000  12.0000000  12.0000000  12.0000000  12.0000000  15.9949146  31.9720718   1.0078250
 NucSpn=           1           1           0           0           0           0           0           0           0           1
 AtZEff=  -0.0000000  -0.0000000  -0.0000000  -0.0000000  -0.0000000  -0.0000000  -0.0000000  -0.0000000  -0.0000000  -0.0000000
 NQMom=    0.0000000   0.0000000   0.0000000   0.0000000   0.0000000   0.0000000   0.0000000   0.0000000   0.0000000   0.0000000
 NMagM=    2.7928460   2.7928460   0.0000000   0.0000000   0.0000000   0.0000000   0.0000000   0.0000000   0.0000000   2.7928460
 AtZNuc=   1.0000000   1.0000000   6.0000000   6.0000000   6.0000000   6.0000000   6.0000000   8.0000000  16.0000000   1.0000000

  Atom        41          42          43          44          45          46          47          48
 IAtWgt=           1           1           1           1           1           1           1           1
 AtmWgt=   1.0078250   1.0078250   1.0078250   1.0078250   1.0078250   1.0078250   1.0078250   1.0078250
 NucSpn=           1           1           1           1           1           1           1           1
 AtZEff=  -0.0000000  -0.0000000  -0.0000000  -0.0000000  -0.0000000  -0.0000000  -0.0000000  -0.0000000
 NQMom=    0.0000000   0.0000000   0.0000000   0.0000000   0.0000000   0.0000000   0.0000000   0.0000000
 NMagM=    2.7928460   2.7928460   2.7928460   2.7928460   2.7928460   2.7928460   2.7928460   2.7928460
 AtZNuc=   1.0000000   1.0000000   1.0000000   1.0000000   1.0000000   1.0000000   1.0000000   1.0000000
 Background charge distribution read from input stream:
 Leave Link  101 at Wed Mar  8 13:58:41 2023, MaxMem=  2684354560 cpu:               3.4 elap:               0.2
 (Enter /opt/gaussian/g16/l103.exe)

 GradGradGradGradGradGradGradGradGradGradGradGradGradGradGradGradGradGrad
 Berny optimization.
 Initialization pass.
 Trust Radius=3.00D-01 FncErr=1.00D-07 GrdErr=1.00D-07 EigMax=2.50D+02 EigMin=1.00D-04
 Number of steps in this run=      2 maximum allowed number of steps=      2.
 GradGradGradGradGradGradGradGradGradGradGradGradGradGradGradGradGradGrad

 Leave Link  103 at Wed Mar  8 13:58:41 2023, MaxMem=  2684354560 cpu:               0.3 elap:               0.0
 (Enter /opt/gaussian/g16/l202.exe)
 ---------------------------------------------------------------------------------------------------
                            Z-MATRIX (ANGSTROMS AND DEGREES)
   CD    Cent   Atom    N1       Length/X        N2       Alpha/Y        N3        Beta/Z          J
 ---------------------------------------------------------------------------------------------------
      1      1  C        0   3.442640         -3.551422         -0.834805
      2      2  H        0   3.404407         -3.626656         -1.929716
      3      3  H        0   4.402821         -3.929186         -0.454690
      4      4  C        0   1.597164         -1.209795          0.988282
      5      5  H        0   0.871694         -2.051858          1.010857
      6      6  O        0   1.294684         -0.363261          2.079134
      7      7  H        0   0.399960          0.023907          2.040463
      8      8  C        0   3.072663         -1.705267          1.033106
      9      9  H        0   3.256848         -2.541793          1.738795
     10     10  O        0   3.871425         -0.605602          1.447560
     11     11  H        0   4.822767         -0.775214          1.370186
     12     12  C        0   1.604075         -0.457384         -0.365519
     13     13  H        0   2.204192          0.470302         -0.285258
     14     14  C        0   3.385930         -2.040699         -0.473241
     15     15  H        0   4.307327         -1.530618         -0.822931
     16     16  O        0   2.306079         -1.394740         -1.205785
     17     17  N        0   0.333404         -0.139725         -0.926766
     18     18  C        0  -0.535346         -1.192055         -1.307089
     19     19  H        0  -0.108122         -2.177338         -1.147541
     20     20  C        0  -1.707138         -0.947315         -1.852072
     21     21  H        0  -2.341068         -1.773004         -2.169109
     22     22  C        0  -2.230083          0.468667         -2.082295
     23     23  H        0  -2.779843          0.534840         -3.037884
     24     24  H        0  -2.943758          0.736502         -1.271852
     25     25  C        0  -1.042365          1.457051         -2.039399
     26     26  C        0   0.117498          1.129917         -1.469110
     27     27  H        0   0.977293          1.798900         -1.430395
     28     28  C        0  -1.243424          2.833332         -2.547706
     29     29  O        0  -0.843654          3.814478         -1.974769
     30     30  N        0  -2.061008          2.996812         -3.642595
     31     31  H        0  -2.005261          3.929186         -4.020343
     32     32  H        0  -2.057888          2.246025         -4.311458
     33     33  C        0   0.945463          2.171237          3.793043
     34     34  C        0  -0.939600          2.183401          1.783502
     35     35  C        0  -1.859793          2.829742          0.846381
     36     36  C        0  -4.079822          3.112609         -0.299616
     37     37  C        0  -3.099555          2.396630          0.608209
     38     38  O        0  -0.997612          0.993519          2.119783
     39     39  S        0   0.220362          3.229235          2.487983
     40     40  H        0   0.108686          1.683327          4.311458
     41     41  H        0   1.582769          1.414747          3.313006
     42     42  H        0  -4.822767          2.406705         -0.688886
     43     43  H        0  -3.543739          3.601132         -1.123686
     44     44  H        0  -4.604793          3.883438          0.283246
     45     45  H        0  -3.463963          1.492813          1.117448
     46     46  H        0  -1.471686          3.733563          0.363175
     47     47  H        0   2.603449         -4.081347         -0.384209
     48     48  H        0   1.532627          2.770483          4.488917
 ---------------------------------------------------------------------------------------------------
                         Z-Matrix orientation:                         
 ---------------------------------------------------------------------
 Center     Atomic      Atomic             Coordinates (Angstroms)
 Number     Number       Type             X           Y           Z
 ---------------------------------------------------------------------
      1          6           0        3.442640   -3.551422   -0.834805
      2          1           0        3.404407   -3.626656   -1.929716
      3          1           0        4.402821   -3.929186   -0.454690
      4          6           0        1.597164   -1.209795    0.988282
      5          1           0        0.871694   -2.051858    1.010857
      6          8           0        1.294684   -0.363261    2.079134
      7          1           0        0.399960    0.023907    2.040463
      8          6           0        3.072663   -1.705267    1.033106
      9          1           0        3.256848   -2.541793    1.738795
     10          8           0        3.871425   -0.605602    1.447560
     11          1           0        4.822767   -0.775214    1.370186
     12          6           0        1.604075   -0.457384   -0.365519
     13          1           0        2.204192    0.470302   -0.285258
     14          6           0        3.385930   -2.040699   -0.473241
     15          1           0        4.307327   -1.530618   -0.822931
     16          8           0        2.306079   -1.394740   -1.205785
     17          7           0        0.333404   -0.139725   -0.926766
     18          6           0       -0.535346   -1.192055   -1.307089
     19          1           0       -0.108122   -2.177338   -1.147541
     20          6           0       -1.707138   -0.947315   -1.852072
     21          1           0       -2.341068   -1.773004   -2.169109
     22          6           0       -2.230083    0.468667   -2.082295
     23          1           0       -2.779843    0.534840   -3.037884
     24          1           0       -2.943758    0.736502   -1.271852
     25          6           0       -1.042365    1.457051   -2.039399
     26          6           0        0.117498    1.129917   -1.469110
     27          1           0        0.977293    1.798900   -1.430395
     28          6           0       -1.243424    2.833332   -2.547706
     29          8           0       -0.843654    3.814478   -1.974769
     30          7           0       -2.061008    2.996812   -3.642595
     31          1           0       -2.005261    3.929186   -4.020343
     32          1           0       -2.057888    2.246025   -4.311458
     33          6           0        0.945463    2.171237    3.793043
     34          6           0       -0.939600    2.183401    1.783502
     35          6           0       -1.859793    2.829742    0.846381
     36          6           0       -4.079822    3.112609   -0.299616
     37          6           0       -3.099555    2.396630    0.608209
     38          8           0       -0.997612    0.993519    2.119783
     39         16           0        0.220362    3.229235    2.487983
     40          1           0        0.108686    1.683327    4.311458
     41          1           0        1.582769    1.414747    3.313006
     42          1           0       -4.822767    2.406705   -0.688886
     43          1           0       -3.543739    3.601132   -1.123686
     44          1           0       -4.604793    3.883438    0.283246
     45          1           0       -3.463963    1.492813    1.117448
     46          1           0       -1.471686    3.733563    0.363175
     47          1           0        2.603449   -4.081347   -0.384209
     48          1           0        1.532627    2.770483    4.488917
 ---------------------------------------------------------------------
                    Distance matrix (angstroms):
                    1          2          3          4          5
     1  C    0.000000
     2  H    1.098159   0.000000
     3  H    1.099608   1.806670   0.000000
     4  C    3.494660   4.197864   4.165209   0.000000
     5  H    3.502132   4.188268   4.259230   1.111704   0.000000
     6  O    4.823809   5.583149   5.366246   1.413532   2.042424
     7  H    5.505275   6.173786   6.154317   2.015540   2.364619
     8  C    2.652219   3.546844   2.988088   1.557112   2.228201
     9  H    2.770792   3.828404   2.837162   2.256556   2.541435
    10  O    3.751120   4.555312   3.866153   2.397551   3.358683
    11  H    3.804480   4.586046   3.667978   3.277076   4.167722
    12  C    3.629548   3.966382   4.460306   1.548853   2.230053
    13  H    4.243822   4.574912   4.921196   2.193881   3.133170
    14  C    1.554422   2.153350   2.144945   2.454819   2.919598
    15  H    2.198061   2.536456   2.428548   3.275424   3.929127
    16  O    2.465903   2.590724   3.374001   2.313157   2.720802
    17  N    4.616870   4.753489   5.580593   2.531708   2.774958
    18  C    4.649090   4.672964   5.709987   3.133152   2.844626
    19  H    3.820186   3.879455   4.888518   2.899290   2.373703
    20  C    5.859728   5.771722   6.940880   4.365194   4.008335
    21  H    6.196323   6.041839   7.284805   5.078975   4.528994
    22  C    7.063791   6.967240   8.123153   5.185894   5.053876
    23  H    7.763401   7.535982   8.842571   6.197737   6.034652
    24  H    7.704764   7.731049   8.741202   5.432886   5.248179
    25  C    6.830163   6.754990   7.821311   4.821415   5.027935
    26  C    5.777010   5.800078   6.707276   3.701681   4.103991
    27  H    5.921032   5.964634   6.745162   3.909793   4.560614
    28  C    8.102982   7.982210   9.054968   6.076103   6.403294
    29  O    8.598158   8.568461   9.476311   6.323020   6.802226
    30  N    9.002955   8.756428   9.995662   7.247260   7.466219
    31  H    9.787071   9.525017  10.748553   8.029502   8.328428
    32  H    8.715120   8.366465   9.733891   7.306801   7.441860
    33  C    7.771853   8.509520   8.198275   4.441033   5.057720
    34  C    7.677744   8.149549   8.421085   4.310606   4.670673
    35  C    8.465308   8.780865   9.305709   5.318698   5.596257
    36  C   10.063954  10.202382  11.025704   7.250519   7.273690
    37  C    8.958903   9.220768   9.870732   5.933796   5.976788
    38  O    7.007277   7.557925   7.747619   3.587164   3.741436
    39  S    8.209830   8.755423   8.797458   4.883612   5.522325
    40  H    8.062374   8.832324   8.523852   4.650722   5.042594
    41  H    6.732481   7.498016   7.120803   3.506104   4.221714
    42  H   10.190070  10.277523  11.194187   7.556948   7.429320
    43  H   10.002598  10.058196  10.968183   7.350803   7.483890
    44  H   11.013100  11.200267  11.946495   8.056200   8.108580
    45  H    8.772501   9.092231   9.682767   5.738970   5.601248
    46  H    8.868865   9.121757   9.690018   5.851955   6.275509
    47  H    1.090000   1.799131   1.807169   3.337986   3.010649
    48  H    8.482727   9.253421   8.806976   5.301059   5.982367
                    6          7          8          9         10
     6  O    0.000000
     7  H    0.975667   0.000000
     8  C    2.460968   3.338884   0.000000
     9  H    2.951597   3.851705   1.109819   0.000000
    10  O    2.664059   3.577553   1.420935   2.052160   0.000000
    11  H    3.622110   4.544126   2.010345   2.389305   0.969435
    12  C    2.465950   2.733182   2.381199   3.391837   2.906905
    13  H    2.666905   2.977163   2.688015   3.778571   2.634368
    14  C    3.701585   4.415578   1.574717   2.271753   2.446362
    15  H    4.342893   5.087542   2.236017   2.947613   2.490139
    16  O    3.588532   4.022931   2.386778   3.300037   3.180139
    17  N    3.163773   2.972482   3.714237   4.628356   4.286264
    18  C    3.937311   3.682318   4.331007   5.047766   5.229880
    19  H    3.958557   3.907301   3.885288   4.448234   5.004168
    20  C    4.980606   4.531552   5.634291   6.330707   6.490355
    21  H    5.766597   5.335037   6.290250   6.870183   7.282732
    22  C    5.516664   4.910405   6.523099   7.332805   7.130381
    23  H    6.602441   6.013469   7.472808   8.289993   8.103035
    24  H    5.513890   4.760218   6.890020   7.632741   7.459435
    25  C    5.073229   4.558452   6.031086   6.982031   6.368576
    26  C    4.025591   3.690548   4.799203   5.798934   5.060727
    27  H    4.134304   3.940910   4.768500   5.837958   4.737115
    28  C    6.169915   5.625378   7.214548   8.216965   7.345073
    29  O    6.201623   5.660132   7.406243   8.426557   7.313099
    30  N    7.435653   6.869620   8.386077   9.376305   8.607022
    31  H    8.155878   7.600635   9.114258  10.135632   9.219419
    32  H    7.673837   7.164197   8.396405   9.368841   8.743844
    33  C    3.079467   2.824913   5.212438   5.636940   4.666196
    34  C    3.400722   2.554186   5.637649   6.319782   5.571118
    35  C    4.654640   3.795395   6.703006   7.471935   6.708940
    36  C    6.828283   5.923217   8.726174   9.484415   8.949863
    37  C    5.393511   4.464054   7.423097   8.128353   7.636261
    38  O    2.664043   1.702835   5.003144   5.544729   5.168810
    39  S    3.771916   3.241397   5.882312   6.564015   5.396176
    40  H    3.252442   2.827708   5.569139   5.863545   5.253505
    41  H    2.183288   2.225498   4.141523   4.575467   3.577659
    42  H    7.263460   6.356410   9.067048   9.780667   9.446024
    43  H    7.027432   6.193636   8.751364   9.600901   8.904637
    44  H    7.487556   6.559828   9.525714  10.257077   9.661955
    45  H    5.197555   4.235510   7.277520   7.863423   7.636769
    46  H    5.232713   4.480837   7.119043   7.976933   6.968004
    47  H    4.648128   5.252381   2.806190   2.702647   4.128431
    48  H    3.960306   3.849876   5.860604   6.225463   5.110556
                   11         12         13         14         15
    11  H    0.000000
    12  C    3.670648   0.000000
    13  H    3.338972   1.107783   0.000000
    14  C    2.657852   2.386105   2.781541   0.000000
    15  H    2.376147   2.944253   2.952279   1.109702   0.000000
    16  O    3.654197   1.441351   2.082338   1.456009   2.042066
    17  N    5.082737   1.424961   2.069665   3.624542   4.211583
    18  C    6.004242   2.450188   3.363426   4.097792   4.878577
    19  H    5.711266   2.549788   3.619437   3.561144   4.474349
    20  C    7.283695   3.662514   4.445565   5.388506   6.129694
    21  H    8.052498   4.532985   5.407467   5.978807   6.787643
    22  C    7.950444   4.301821   4.784574   6.358111   6.951321
    23  H    8.885212   5.229224   5.694007   7.157342   7.707146
    24  H    8.341735   4.788485   5.248392   6.958130   7.610492
    25  C    7.141992   3.670230   3.819794   5.856357   6.247013
    26  C    5.816414   2.438719   2.488150   4.661245   5.005063
    27  H    5.408972   2.572477   2.140512   4.632516   4.748034
    28  C    8.072803   4.868163   4.752751   7.034949   7.268407
    29  O    8.022613   5.179756   4.829837   7.377470   7.511950
    30  N    9.313565   6.008622   5.987228   8.067865   8.306853
    31  H    9.889951   6.754779   6.605621   8.791268   8.937654
    32  H    9.420847   6.024021   6.126076   7.921052   8.182225
    33  C    5.439236   4.963573   4.594575   6.472826   6.805371
    34  C    6.490693   4.249979   4.134961   6.453381   6.936690
    35  C    7.610958   4.926691   4.833585   7.278751   7.735161
    36  C    9.856951   6.712368   6.816951   9.073268   9.600921
    37  C    8.567636   5.587279   5.713034   7.932273   8.504901
    38  O    6.129202   3.879513   4.038505   5.928381   6.570632
    39  S    6.202194   4.862951   4.386132   6.823626   7.093774
    40  H    6.076023   5.356579   5.195418   6.892173   7.370208
    41  H    4.366699   4.127574   3.771690   5.433891   5.762323
    42  H   10.363430   7.043569   7.300049   9.338555   9.943796
    43  H    9.765767   6.598966   6.598770   8.959556   9.384270
    44  H   10.571819   7.603531   7.637733   9.975937  10.486253
    45  H    8.595214   5.629163   5.927992   7.870009   8.561492
    46  H    7.807898   5.249318   4.957965   7.591978   7.906670
    47  H    4.351298   3.759282   4.570198   2.187338   3.098693
    48  H    5.755299   5.830076   5.341777   7.155783   7.376595
                   16         17         18         19         20
    16  O    0.000000
    17  N    2.354647   0.000000
    18  C    2.850445   1.416605   0.000000
    19  H    2.538546   2.096558   1.085707   0.000000
    20  C    4.089472   2.381639   1.315295   2.136860   0.000000
    21  H    4.760993   3.371026   2.083558   2.488601   1.088182
    22  C    4.981699   2.876952   2.496213   3.518214   1.526919
    23  H    5.739901   3.821539   3.318973   4.250576   2.180282
    24  H    5.666334   3.409787   3.085615   4.067770   2.168208
    25  C    4.476573   2.383357   2.794836   3.857073   2.501598
    26  C    3.351584   1.397406   2.417438   3.330502   2.791209
    27  H    3.466332   2.103926   3.353967   4.131417   3.863377
    28  C    5.681225   3.735359   4.271328   5.325053   3.871980
    29  O    6.135805   4.256701   5.060259   6.093208   4.841006
    30  N    6.655465   4.790282   5.032776   6.067198   4.345956
    31  H    7.406319   5.620997   5.979088   7.010118   5.345141
    32  H    6.476463   4.781864   4.812978   5.777378   4.045865
    33  C    6.289336   5.290723   6.286165   6.665547   6.973448
    34  C    5.680965   3.789855   4.594440   5.319626   4.858796
    35  C    6.277907   4.095351   4.750415   5.667004   4.644471
    36  C    7.868740   5.517930   5.666431   6.669102   4.952044
    37  C    6.847331   4.535907   4.808554   5.740429   4.378788
    38  O    5.260946   3.512450   4.090706   4.639067   4.477265
    39  S    6.274972   4.798247   5.875497   6.523493   6.324152
    40  H    6.689020   5.550946   6.344341   6.689724   6.943097
    41  H    5.369903   4.685399   5.712014   5.971488   6.563601
    42  H    8.095591   5.755605   5.631627   6.591790   4.723304
    43  H    7.693233   5.391198   5.662040   6.722704   4.959034
    44  H    8.822501   6.483499   6.697028   7.681160   6.024298
    45  H    6.857751   4.611289   4.654427   5.464600   4.225957
    46  H    6.559926   4.463704   5.284716   6.251426   5.183954
    47  H    2.825115   4.580814   4.364831   3.400079   5.527923
    48  H    7.097672   6.263950   7.319284   7.677412   8.032823
                   21         22         23         24         25
    21  H    0.000000
    22  C    2.246095   0.000000
    23  H    2.504683   1.104429   0.000000
    24  H    2.732384   1.112602   1.785050   0.000000
    25  C    3.483778   1.545774   2.205963   2.173387   0.000000
    26  C    3.868009   2.514833   3.348096   3.092729   1.333240
    27  H    4.931097   3.532953   4.277609   4.065522   2.137000
    28  C    4.750420   2.604178   2.807833   2.985906   1.480861
    29  O    5.787916   3.623286   3.954120   3.791895   2.366670
    30  N    5.000073   2.975674   2.635091   3.392443   2.445144
    31  H    6.004564   3.972626   3.617566   4.316040   3.311004
    32  H    4.563161   2.856189   2.251969   3.507510   2.610750
    33  C    7.868009   6.892201   7.950928   6.545049   6.203137
    34  C    5.765447   4.421544   5.417565   3.930058   3.892650
    35  C    5.523592   3.780070   4.604409   3.169155   3.298514
    36  C    5.512484   3.686449   3.979063   2.807449   3.872191
    37  C    5.067015   3.422256   4.106393   2.512952   3.482049
    38  O    5.277605   4.410433   5.476154   3.918767   4.185172
    39  S    7.298754   5.874764   6.840774   5.510148   5.023176
    40  H    7.742432   6.915585   7.979689   6.433292   6.458290
    41  H    7.457334   6.673993   7.755025   6.478456   5.961658
    42  H    5.081324   3.524143   3.632520   2.580717   4.125186
    43  H    5.605413   3.529441   3.694568   2.930535   3.419427
    44  H    6.567635   4.784944   5.057020   3.883371   4.896215
    45  H    4.767379   3.579062   4.318855   2.559565   3.978831
    46  H    6.122954   4.149100   4.848742   3.717887   3.337542
    47  H    5.741303   6.851946   7.571724   7.400749   6.834141
    48  H    8.943048   7.914366   8.958138   7.573742   7.139651
                   26         27         28         29         30
    26  C    0.000000
    27  H    1.090085   0.000000
    28  C    2.432509   2.692586   0.000000
    29  O    2.895924   2.770333   1.204459   0.000000
    30  N    3.599336   3.944629   1.376209   2.220850   0.000000
    31  H    4.341750   4.487936   1.987447   2.355177   1.007533
    32  H    3.749259   4.208654   2.029556   3.065049   1.005518
    33  C    5.427719   5.236788   6.740527   6.258501   8.062825
    34  C    3.578655   3.761842   4.390227   4.098075   5.600154
    35  C    3.487203   3.780926   3.449602   3.156126   4.496588
    36  C    4.787095   5.345924   3.630022   3.711003   3.906984
    37  C    4.033516   4.597160   3.687239   3.710951   4.416801
    38  O    3.760616   4.141576   5.023026   4.974623   6.192657
    39  S    4.480659   4.239396   5.259047   4.625018   6.545430
    40  H    5.807005   5.808330   7.085114   6.705625   8.348639
    41  H    5.009669   4.797293   6.659407   6.293393   8.010020
    42  H    5.161894   5.878772   4.055727   4.412331   4.086555
    43  H    4.430674   4.876662   2.812259   2.839070   2.984727
    44  H    5.740441   6.200125   4.518387   4.387431   4.761216
    45  H    4.432701   5.129322   4.490116   4.670969   5.185393
    46  H    3.558335   3.599626   3.055446   2.422179   4.115373
    47  H    5.874882   6.190008   8.203166   8.761076   9.081551
    48  H    6.339728   6.024170   7.564687   6.965334   8.893083
                   31         32         33         34         35
    31  H    0.000000
    32  H    1.708961   0.000000
    33  C    8.534996   8.643416   0.000000
    34  C    6.153699   6.197017   2.755334   0.000000
    35  C    4.991487   5.194542   4.121396   1.463799   0.000000
    36  C    4.337558   4.575375   6.549010   3.881212   2.514329
    37  C    4.996968   5.030991   5.153265   2.468236   1.334662
    38  O    6.880017   6.637305   2.821764   1.237848   2.395125
    39  S    6.913872   7.238060   1.829840   1.713351   2.679831
    40  H    8.884343   8.908723   1.098637   2.782002   4.146798
    41  H    8.542503   8.489867   1.099487   3.048369   4.465163
    42  H    4.621135   4.559978   7.308598   4.608856   3.363810
    43  H    3.296233   3.769079   6.809681   4.152498   2.704048
    44  H    5.027975   5.502649   6.786431   4.309818   2.993730
    45  H    5.870316   5.658391   5.202125   2.700546   2.105758
    46  H    4.420203   4.940505   4.477440   2.168743   1.095905
    47  H    9.931279   8.785612   7.700205   7.516597   8.318535
    48  H    9.287990   9.519110   1.090000   3.711583   4.977961
                   36         37         38         39         40
    36  C    0.000000
    37  C    1.515815   0.000000
    38  O    4.454667   2.944783   0.000000
    39  S    5.126001   3.904949   2.572441   0.000000
    40  H    6.391279   4.951330   2.550131   2.393191   0.000000
    41  H    6.928110   5.495834   2.873948   2.414370   1.800545
    42  H    1.096265   2.156852   4.951517   6.016826   7.060166
    43  H    1.097785   2.155825   4.878780   5.229810   6.823413
    44  H    1.099773   2.140546   4.973555   5.345181   6.579047
    45  H    2.238547   1.099546   2.708664   4.297415   4.796021
    46  H    2.761748   2.120705   3.289112   2.762640   4.721226
    47  H    9.819688   8.687539   6.707599   8.208118   7.842486
    48  H    7.385574   6.054485   3.895190   2.436439   1.800280
                   41         42         43         44         45
    41  H    0.000000
    42  H    7.617743   0.000000
    43  H    7.123594   1.803225   0.000000
    44  H    7.318456   1.781374   1.784654   0.000000
    45  H    5.504187   2.438111   3.077995   2.777134   0.000000
    46  H    4.838192   3.754614   2.553761   3.137708   3.091772
    47  H    6.702107   9.865917   9.866875  10.762994   8.374946
    48  H    1.795356   8.205670   7.613198   7.522916   6.161588
                   46         47         48
    46  H    0.000000
    47  H    8.845232   0.000000
    48  H    5.193763   8.475942   0.000000
 Symmetry turned off by external request.
 Stoichiometry    C16H24N2O5S
 Framework group  C1[X(C16H24N2O5S)]
 Deg. of freedom   138
 Full point group                 C1      NOp   1
 Rotational constants (GHZ):           0.2858231           0.1679885           0.1248810
 Leave Link  202 at Wed Mar  8 13:58:41 2023, MaxMem=  2684354560 cpu:               0.1 elap:               0.0
 (Enter /opt/gaussian/g16/l301.exe)
 Standard basis: def2TZVP (5D, 7F)
 Ernie: Thresh=  0.10000D-02 Tol=  0.10000D-05 Strict=F.
   894 basis functions,  1434 primitive gaussians,  1014 cartesian basis functions
    95 alpha electrons       95 beta electrons
       nuclear repulsion energy      2424.2368827195 Hartrees.
 IExCor= 4336 DFT=T Ex+Corr=M062X ExCW=0 ScaHFX=  0.540000
 ScaDFX=  1.000000  1.000000  1.000000  1.000000 ScalE2=  1.000000  1.000000
 IRadAn=      5 IRanWt=     -1 IRanGd=            0 ICorTp=0 IEmpDi=131
 NAtoms=   48 NActive=   48 NUniq=   48 SFac= 1.00D+00 NAtFMM=   60 NAOKFM=F Big=F
 Integral buffers will be    131072 words long.
 Raffenetti 2 integral format.
 Two-electron integral symmetry is turned off.
 R6Disp:  Grimme-D3 Dispersion energy=       -0.0042228113 Hartrees.
 Nuclear repulsion after empirical dispersion term =     2424.2326599082 Hartrees.
 Leave Link  301 at Wed Mar  8 13:58:41 2023, MaxMem=  2684354560 cpu:               0.7 elap:               0.0
 (Enter /opt/gaussian/g16/l302.exe)
 NPDir=0 NMtPBC=     1 NCelOv=     1 NCel=       1 NClECP=     1 NCelD=      1
         NCelK=      1 NCelE2=     1 NClLst=     1 CellRange=     0.0.
 One-electron integrals computed using PRISM.
   1 Symmetry operations used in ECPInt.
 ECPInt:  NShTT=   65703 NPrTT=  200010 LenC2=   55987 LenP2D=  118247.
 LDataN:  DoStor=T MaxTD1= 6 Len=  172
 NBasis=   894 RedAO= T EigKep=  3.34D-05  NBF=   894
 NBsUse=   894 1.00D-06 EigRej= -1.00D+00 NBFU=   894
 Precomputing XC quadrature grid using
 IXCGrd= 4 IRadAn=           5 IRanWt=          -1 IRanGd=           0 AccXCQ= 0.00D+00.
 Generated NRdTot=       0 NPtTot=           0 NUsed=           0 NTot=          32
 NSgBfM=   999   999   999   999   999 MxSgAt=    48 MxSgA2=    48.
 Leave Link  302 at Wed Mar  8 13:58:43 2023, MaxMem=  2684354560 cpu:              35.7 elap:               2.2
 (Enter /opt/gaussian/g16/l303.exe)
 DipDrv:  MaxL=1.
 Leave Link  303 at Wed Mar  8 13:58:44 2023, MaxMem=  2684354560 cpu:               4.6 elap:               0.3
 (Enter /opt/gaussian/g16/l401.exe)
 ExpMin= 9.52D-02 ExpMax= 6.07D+04 ExpMxC= 2.07D+03 IAcc=3 IRadAn=         5 AccDes= 0.00D+00
 Harris functional with IExCor= 1009 and IRadAn=       5 diagonalized for initial guess.
 HarFok:  IExCor= 1009 AccDes= 0.00D+00 IRadAn=         5 IDoV= 1 UseB2=F ITyADJ=14
 ICtDFT=  3500011 ScaDFX=  1.000000  1.000000  1.000000  1.000000
 FoFCou: FMM=F IPFlag=           0 FMFlag=      100000 FMFlg1=           0
         NFxFlg=           0 DoJE=T BraDBF=F KetDBF=T FulRan=T
         wScrn=  0.000000 ICntrl=       500 IOpCl=  0 I1Cent=   200000004 NGrid=           0
         NMat0=    1 NMatS0=      1 NMatT0=    0 NMatD0=    1 NMtDS0=    0 NMtDT0=    0
 Symmetry not used in FoFCou.
 Harris En= -1507.21608527871    
 JPrj=0 DoOrth=F DoCkMO=F.
 Leave Link  401 at Wed Mar  8 13:58:50 2023, MaxMem=  2684354560 cpu:             108.6 elap:               6.8
 (Enter /opt/gaussian/g16/l502.exe)
 Two-electron integral symmetry not used.
 Closed shell SCF:
 Using DIIS extrapolation, IDIIS=  1040.
 NGot=  2684354560 LenX=  2682275214 LenY=  2681246004
 Requested convergence on RMS density matrix=1.00D-08 within 128 cycles.
 Requested convergence on MAX density matrix=1.00D-06.
 Requested convergence on             energy=1.00D-06.
 No special actions if energy rises.
 Fock matrices will be formed incrementally for  20 cycles.
 Integral accuracy reduced to 1.0D-05 until final iterations.

 Cycle   1  Pass 0  IDiag  1:
 FoFJK:  IHMeth= 1 ICntrl=       0 DoSepK=F KAlg= 0 I1Cent=           0 FoldK=F
 IRaf= 780000000 NMat=       1 IRICut=       1 DoRegI=T DoRafI=F ISym2E= 0 IDoP0=0 IntGTp=1.
 FoFCou: FMM=F IPFlag=           0 FMFlag=      100000 FMFlg1=           0
         NFxFlg=           0 DoJE=F BraDBF=F KetDBF=F FulRan=T
         wScrn=  0.000000 ICntrl=         0 IOpCl=  0 I1Cent=           0 NGrid=           0
         NMat0=    1 NMatS0=      1 NMatT0=    0 NMatD0=    1 NMtDS0=    0 NMtDT0=    0
 Symmetry not used in FoFCou.
 E= -1507.15210610937    
 DIIS: error= 1.34D-02 at cycle   1 NSaved=   1.
 NSaved= 1 IEnMin= 1 EnMin= -1507.15210610937     IErMin= 1 ErrMin= 1.34D-02
 ErrMax= 1.34D-02  0.00D+00 EMaxC= 1.00D-01 BMatC= 9.99D-01 BMatP= 9.99D-01
 IDIUse=3 WtCom= 8.66D-01 WtEn= 1.34D-01
 Coeff-Com:  0.100D+01
 Coeff-En:   0.100D+01
 Coeff:      0.100D+01
 Gap=     0.321 Goal=   None    Shift=    0.000
 GapD=    0.321 DampG=1.000 DampE=0.500 DampFc=0.5000 IDamp=-1.
 Damping current iteration by 5.00D-01
 RMSDP=3.66D-03 MaxDP=1.04D+00              OVMax= 2.13D-01

 Cycle   2  Pass 0  IDiag  1:
 RMSU=  1.83D-03    CP:  1.01D+00
 E= -1507.48729941763     Delta-E=       -0.335193308258 Rises=F Damp=T
 DIIS: error= 4.33D-03 at cycle   2 NSaved=   2.
 NSaved= 2 IEnMin= 2 EnMin= -1507.48729941763     IErMin= 2 ErrMin= 4.33D-03
 ErrMax= 4.33D-03  0.00D+00 EMaxC= 1.00D-01 BMatC= 8.92D-02 BMatP= 9.99D-01
 IDIUse=3 WtCom= 9.57D-01 WtEn= 4.33D-02
 Coeff-Com:  0.223D-02 0.998D+00
 Coeff-En:   0.517D-01 0.948D+00
 Coeff:      0.437D-02 0.996D+00
 Gap=     0.348 Goal=   None    Shift=    0.000
 RMSDP=1.13D-03 MaxDP=3.04D-01 DE=-3.35D-01 OVMax= 1.81D-01

 Cycle   3  Pass 0  IDiag  1:
 RMSU=  9.14D-04    CP:  9.96D-01  6.43D-01
 E= -1507.85005579207     Delta-E=       -0.362756374436 Rises=F Damp=F
 DIIS: error= 5.26D-03 at cycle   3 NSaved=   3.
 NSaved= 3 IEnMin= 3 EnMin= -1507.85005579207     IErMin= 2 ErrMin= 4.33D-03
 ErrMax= 5.26D-03  0.00D+00 EMaxC= 1.00D-01 BMatC= 5.58D-02 BMatP= 8.92D-02
 IDIUse=3 WtCom= 9.47D-01 WtEn= 5.26D-02
 Coeff-Com: -0.771D-01 0.458D+00 0.619D+00
 Coeff-En:   0.000D+00 0.000D+00 0.100D+01
 Coeff:     -0.730D-01 0.434D+00 0.639D+00
 Gap=     0.226 Goal=   None    Shift=    0.000
 RMSDP=3.35D-04 MaxDP=3.05D-02 DE=-3.63D-01 OVMax= 7.26D-02

 Cycle   4  Pass 0  IDiag  1:
 RMSU=  2.98D-04    CP:  9.99D-01  7.18D-01  9.24D-01
 E= -1507.88595078086     Delta-E=       -0.035894988793 Rises=F Damp=F
 DIIS: error= 2.36D-03 at cycle   4 NSaved=   4.
 NSaved= 4 IEnMin= 4 EnMin= -1507.88595078086     IErMin= 4 ErrMin= 2.36D-03
 ErrMax= 2.36D-03  0.00D+00 EMaxC= 1.00D-01 BMatC= 1.13D-02 BMatP= 5.58D-02
 IDIUse=3 WtCom= 9.76D-01 WtEn= 2.36D-02
 Coeff-Com: -0.356D-01 0.974D-01 0.347D+00 0.591D+00
 Coeff-En:   0.000D+00 0.000D+00 0.141D+00 0.859D+00
 Coeff:     -0.347D-01 0.951D-01 0.342D+00 0.598D+00
 Gap=     0.226 Goal=   None    Shift=    0.000
 RMSDP=1.12D-04 MaxDP=1.05D-02 DE=-3.59D-02 OVMax= 1.93D-02

 Cycle   5  Pass 0  IDiag  1:
 RMSU=  7.27D-05    CP:  9.98D-01  7.15D-01  9.52D-01  7.28D-01
 E= -1507.89424784238     Delta-E=       -0.008297061517 Rises=F Damp=F
 DIIS: error= 4.10D-04 at cycle   5 NSaved=   5.
 NSaved= 5 IEnMin= 5 EnMin= -1507.89424784238     IErMin= 5 ErrMin= 4.10D-04
 ErrMax= 4.10D-04  0.00D+00 EMaxC= 1.00D-01 BMatC= 4.78D-04 BMatP= 1.13D-02
 IDIUse=3 WtCom= 9.96D-01 WtEn= 4.10D-03
 Coeff-Com: -0.101D-01 0.167D-01 0.121D+00 0.271D+00 0.601D+00
 Coeff-En:   0.000D+00 0.000D+00 0.000D+00 0.000D+00 0.100D+01
 Coeff:     -0.101D-01 0.167D-01 0.120D+00 0.270D+00 0.603D+00
 Gap=     0.225 Goal=   None    Shift=    0.000
 RMSDP=4.44D-05 MaxDP=1.08D-02 DE=-8.30D-03 OVMax= 4.35D-03

 Cycle   6  Pass 0  IDiag  1:
 RMSU=  2.96D-05    CP:  9.97D-01  6.99D-01  9.64D-01  7.52D-01  8.73D-01
 E= -1507.89462040398     Delta-E=       -0.000372561609 Rises=F Damp=F
 DIIS: error= 1.28D-04 at cycle   6 NSaved=   6.
 NSaved= 6 IEnMin= 6 EnMin= -1507.89462040398     IErMin= 6 ErrMin= 1.28D-04
 ErrMax= 1.28D-04  0.00D+00 EMaxC= 1.00D-01 BMatC= 5.31D-05 BMatP= 4.78D-04
 IDIUse=3 WtCom= 9.99D-01 WtEn= 1.28D-03
 Coeff-Com:  0.476D-03-0.510D-02 0.101D-01 0.398D-01 0.260D+00 0.695D+00
 Coeff-En:   0.000D+00 0.000D+00 0.000D+00 0.000D+00 0.000D+00 0.100D+01
 Coeff:      0.476D-03-0.509D-02 0.101D-01 0.398D-01 0.259D+00 0.695D+00
 Gap=     0.226 Goal=   None    Shift=    0.000
 RMSDP=1.71D-05 MaxDP=1.01D-03 DE=-3.73D-04 OVMax= 2.18D-03

 Cycle   7  Pass 0  IDiag  1:
 RMSU=  1.56D-05    CP:  9.97D-01  6.98D-01  9.69D-01  7.59D-01  9.38D-01
                    CP:  1.00D+00
 E= -1507.89468841753     Delta-E=       -0.000068013540 Rises=F Damp=F
 DIIS: error= 6.19D-05 at cycle   7 NSaved=   7.
 NSaved= 7 IEnMin= 7 EnMin= -1507.89468841753     IErMin= 7 ErrMin= 6.19D-05
 ErrMax= 6.19D-05  0.00D+00 EMaxC= 1.00D-01 BMatC= 7.99D-06 BMatP= 5.31D-05
 IDIUse=1 WtCom= 1.00D+00 WtEn= 0.00D+00
 Coeff-Com:  0.180D-02-0.483D-02-0.123D-01-0.253D-01 0.865D-02 0.270D+00
 Coeff-Com:  0.762D+00
 Coeff:      0.180D-02-0.483D-02-0.123D-01-0.253D-01 0.865D-02 0.270D+00
 Coeff:      0.762D+00
 Gap=     0.226 Goal=   None    Shift=    0.000
 RMSDP=1.49D-05 MaxDP=3.90D-03 DE=-6.80D-05 OVMax= 2.04D-03

 Cycle   8  Pass 0  IDiag  1:
 RMSU=  9.71D-06    CP:  9.97D-01  6.93D-01  9.70D-01  7.65D-01  1.00D+00
                    CP:  1.17D+00  1.21D+00
 E= -1507.89470250343     Delta-E=       -0.000014085904 Rises=F Damp=F
 DIIS: error= 3.05D-05 at cycle   8 NSaved=   8.
 NSaved= 8 IEnMin= 8 EnMin= -1507.89470250343     IErMin= 8 ErrMin= 3.05D-05
 ErrMax= 3.05D-05  0.00D+00 EMaxC= 1.00D-01 BMatC= 1.93D-06 BMatP= 7.99D-06
 IDIUse=1 WtCom= 1.00D+00 WtEn= 0.00D+00
 Coeff-Com:  0.845D-03-0.150D-02-0.709D-02-0.205D-01-0.411D-01 0.105D-02
 Coeff-Com:  0.362D+00 0.707D+00
 Coeff:      0.845D-03-0.150D-02-0.709D-02-0.205D-01-0.411D-01 0.105D-02
 Coeff:      0.362D+00 0.707D+00
 Gap=     0.226 Goal=   None    Shift=    0.000
 RMSDP=1.17D-05 MaxDP=1.28D-03 DE=-1.41D-05 OVMax= 6.16D-04

 Cycle   9  Pass 0  IDiag  1:
 RMSU=  7.25D-06    CP:  9.97D-01  6.92D-01  9.72D-01  7.64D-01  1.03D+00
                    CP:  1.25D+00  1.63D+00  1.49D+00
 E= -1507.89469666466     Delta-E=        0.000005838770 Rises=F Damp=F
 DIIS: error= 1.56D-05 at cycle   9 NSaved=   9.
 NSaved= 9 IEnMin= 8 EnMin= -1507.89470250343     IErMin= 9 ErrMin= 1.56D-05
 ErrMax= 1.56D-05  0.00D+00 EMaxC= 1.00D-01 BMatC= 2.77D-07 BMatP= 1.93D-06
 IDIUse=1 WtCom= 1.00D+00 WtEn= 0.00D+00
 Coeff-Com:  0.126D-03-0.631D-04-0.907D-03-0.526D-02-0.162D-01-0.339D-01
 Coeff-Com:  0.510D-01 0.273D+00 0.732D+00
 Coeff:      0.126D-03-0.631D-04-0.907D-03-0.526D-02-0.162D-01-0.339D-01
 Coeff:      0.510D-01 0.273D+00 0.732D+00
 Gap=     0.226 Goal=   None    Shift=    0.000
 RMSDP=1.42D-05 MaxDP=1.57D-03 DE= 5.84D-06 OVMax= 2.33D-04

 Cycle  10  Pass 0  IDiag  1:
 RMSU=  4.44D-06    CP:  9.97D-01  6.91D-01  9.74D-01  7.65D-01  1.06D+00
                    CP:  1.32D+00  2.04D+00  2.25D+00  2.17D+00
 E= -1507.89468723595     Delta-E=        0.000009428706 Rises=F Damp=F
 DIIS: error= 2.30D-05 at cycle  10 NSaved=  10.
 NSaved=10 IEnMin= 8 EnMin= -1507.89470250343     IErMin= 9 ErrMin= 1.56D-05
 ErrMax= 2.30D-05  0.00D+00 EMaxC= 1.00D-01 BMatC= 2.12D-07 BMatP= 2.77D-07
 IDIUse=1 WtCom= 1.00D+00 WtEn= 0.00D+00
 Coeff-Com:  0.937D-04-0.387D-04-0.611D-03-0.403D-02-0.125D-01-0.277D-01
 Coeff-Com:  0.371D-01 0.211D+00 0.598D+00 0.199D+00
 Coeff:      0.937D-04-0.387D-04-0.611D-03-0.403D-02-0.125D-01-0.277D-01
 Coeff:      0.371D-01 0.211D+00 0.598D+00 0.199D+00
 Gap=     0.226 Goal=   None    Shift=    0.000
 RMSDP=5.55D-06 MaxDP=6.79D-04 DE= 9.43D-06 OVMax= 1.92D-05

 Initial convergence to 1.0D-05 achieved.  Increase integral accuracy.
 Cycle  11  Pass 1  IDiag  1:
 E= -1507.89458052567     Delta-E=        0.000106710280 Rises=F Damp=F
 DIIS: error= 3.16D-04 at cycle   1 NSaved=   1.
 NSaved= 1 IEnMin= 1 EnMin= -1507.89458052567     IErMin= 1 ErrMin= 3.16D-04
 ErrMax= 3.16D-04  0.00D+00 EMaxC= 1.00D-01 BMatC= 7.87D-05 BMatP= 7.87D-05
 IDIUse=3 WtCom= 9.97D-01 WtEn= 3.16D-03
 Coeff-Com:  0.100D+01
 Coeff-En:   0.100D+01
 Coeff:      0.100D+01
 Gap=     0.226 Goal=   None    Shift=    0.000
 RMSDP=5.55D-06 MaxDP=6.79D-04 DE= 1.07D-04 OVMax= 7.73D-04

 Cycle  12  Pass 1  IDiag  1:
 RMSU=  4.01D-04    CP:  9.97D-01
 E= -1507.89463103917     Delta-E=       -0.000050513499 Rises=F Damp=F
 DIIS: error= 7.76D-06 at cycle   2 NSaved=   2.
 NSaved= 2 IEnMin= 2 EnMin= -1507.89463103917     IErMin= 2 ErrMin= 7.76D-06
 ErrMax= 7.76D-06  0.00D+00 EMaxC= 1.00D-01 BMatC= 6.92D-08 BMatP= 7.87D-05
 IDIUse=1 WtCom= 1.00D+00 WtEn= 0.00D+00
 Coeff-Com: -0.164D-01 0.102D+01
 Coeff:     -0.164D-01 0.102D+01
 Gap=     0.227 Goal=   None    Shift=    0.000
 RMSDP=1.44D-05 MaxDP=1.12D-03 DE=-5.05D-05 OVMax= 5.16D-05

 Cycle  13  Pass 1  IDiag  1:
 RMSU=  4.62D-06    CP:  9.97D-01  1.03D+00
 E= -1507.89463110057     Delta-E=       -0.000000061398 Rises=F Damp=F
 DIIS: error= 3.12D-06 at cycle   3 NSaved=   3.
 NSaved= 3 IEnMin= 3 EnMin= -1507.89463110057     IErMin= 3 ErrMin= 3.12D-06
 ErrMax= 3.12D-06  0.00D+00 EMaxC= 1.00D-01 BMatC= 3.22D-08 BMatP= 6.92D-08
 IDIUse=1 WtCom= 1.00D+00 WtEn= 0.00D+00
 Coeff-Com: -0.770D-02 0.446D+00 0.562D+00
 Coeff:     -0.770D-02 0.446D+00 0.562D+00
 Gap=     0.227 Goal=   None    Shift=    0.000
 RMSDP=3.74D-07 MaxDP=3.24D-05 DE=-6.14D-08 OVMax= 2.41D-05

 Cycle  14  Pass 1  IDiag  1:
 RMSU=  2.96D-07    CP:  9.97D-01  1.03D+00  1.02D+00
 E= -1507.89463112218     Delta-E=       -0.000000021613 Rises=F Damp=F
 DIIS: error= 1.13D-06 at cycle   4 NSaved=   4.
 NSaved= 4 IEnMin= 4 EnMin= -1507.89463112218     IErMin= 4 ErrMin= 1.13D-06
 ErrMax= 1.13D-06  0.00D+00 EMaxC= 1.00D-01 BMatC= 3.01D-09 BMatP= 3.22D-08
 IDIUse=1 WtCom= 1.00D+00 WtEn= 0.00D+00
 Coeff-Com: -0.720D-03 0.328D-01 0.230D+00 0.738D+00
 Coeff:     -0.720D-03 0.328D-01 0.230D+00 0.738D+00
 Gap=     0.227 Goal=   None    Shift=    0.000
 RMSDP=2.45D-07 MaxDP=1.60D-05 DE=-2.16D-08 OVMax= 1.24D-05

 Cycle  15  Pass 1  IDiag  1:
 RMSU=  1.26D-07    CP:  9.97D-01  1.03D+00  1.05D+00  9.31D-01
 E= -1507.89463112404     Delta-E=       -0.000000001859 Rises=F Damp=F
 DIIS: error= 7.83D-07 at cycle   5 NSaved=   5.
 NSaved= 5 IEnMin= 5 EnMin= -1507.89463112404     IErMin= 5 ErrMin= 7.83D-07
 ErrMax= 7.83D-07  0.00D+00 EMaxC= 1.00D-01 BMatC= 6.61D-10 BMatP= 3.01D-09
 IDIUse=1 WtCom= 1.00D+00 WtEn= 0.00D+00
 Coeff-Com:  0.305D-03-0.228D-01 0.741D-01 0.419D+00 0.530D+00
 Coeff:      0.305D-03-0.228D-01 0.741D-01 0.419D+00 0.530D+00
 Gap=     0.227 Goal=   None    Shift=    0.000
 RMSDP=5.32D-08 MaxDP=4.75D-06 DE=-1.86D-09 OVMax= 4.26D-06

 Cycle  16  Pass 1  IDiag  1:
 RMSU=  3.68D-08    CP:  9.97D-01  1.03D+00  1.05D+00  9.65D-01  1.07D+00
 E= -1507.89463112457     Delta-E=       -0.000000000525 Rises=F Damp=F
 DIIS: error= 1.37D-07 at cycle   6 NSaved=   6.
 NSaved= 6 IEnMin= 6 EnMin= -1507.89463112457     IErMin= 6 ErrMin= 1.37D-07
 ErrMax= 1.37D-07  0.00D+00 EMaxC= 1.00D-01 BMatC= 2.52D-11 BMatP= 6.61D-10
 IDIUse=1 WtCom= 1.00D+00 WtEn= 0.00D+00
 Coeff-Com:  0.190D-03-0.124D-01 0.998D-02 0.114D+00 0.201D+00 0.687D+00
 Coeff:      0.190D-03-0.124D-01 0.998D-02 0.114D+00 0.201D+00 0.687D+00
 Gap=     0.227 Goal=   None    Shift=    0.000
 RMSDP=1.41D-08 MaxDP=1.90D-06 DE=-5.25D-10 OVMax= 1.94D-06

 Cycle  17  Pass 1  IDiag  1:
 RMSU=  9.98D-09    CP:  9.97D-01  1.03D+00  1.06D+00  9.83D-01  1.13D+00
                    CP:  1.03D+00
 E= -1507.89463112461     Delta-E=       -0.000000000040 Rises=F Damp=F
 DIIS: error= 4.24D-08 at cycle   7 NSaved=   7.
 NSaved= 7 IEnMin= 7 EnMin= -1507.89463112461     IErMin= 7 ErrMin= 4.24D-08
 ErrMax= 4.24D-08  0.00D+00 EMaxC= 1.00D-01 BMatC= 5.45D-12 BMatP= 2.52D-11
 IDIUse=1 WtCom= 1.00D+00 WtEn= 0.00D+00
 Coeff-Com:  0.734D-05 0.975D-04-0.114D-01-0.383D-01-0.448D-01 0.281D+00
 Coeff-Com:  0.813D+00
 Coeff:      0.734D-05 0.975D-04-0.114D-01-0.383D-01-0.448D-01 0.281D+00
 Coeff:      0.813D+00
 Gap=     0.227 Goal=   None    Shift=    0.000
 RMSDP=7.74D-09 MaxDP=8.40D-07 DE=-4.05D-11 OVMax= 9.64D-07

 SCF Done:  E(RM062X) =  -1507.89463112     A.U. after   17 cycles
            NFock= 17  Conv=0.77D-08     -V/T= 2.0042
 KE= 1.501614585767D+03 PE=-8.387715602422D+03 EE= 2.953973725622D+03
 Leave Link  502 at Wed Mar  8 14:17:34 2023, MaxMem=  2684354560 cpu:           17859.9 elap:            1123.4
 (Enter /opt/gaussian/g16/l601.exe)
 Copying SCF densities to generalized density rwf, IOpCl= 0 IROHF=0.

 **********************************************************************

            Population analysis using the SCF density.

 **********************************************************************

 Alpha  occ. eigenvalues --  -89.91039 -19.62781 -19.62630 -19.61569 -19.60122
 Alpha  occ. eigenvalues --  -19.59053 -14.78537 -14.76142 -10.64783 -10.64046
 Alpha  occ. eigenvalues --  -10.62483 -10.60262 -10.60168 -10.59569 -10.58503
 Alpha  occ. eigenvalues --  -10.57101 -10.55937 -10.55586 -10.55538 -10.54062
 Alpha  occ. eigenvalues --  -10.54048 -10.54014 -10.53783 -10.53387  -8.27004
 Alpha  occ. eigenvalues --   -6.18935  -6.18708  -6.18536  -1.17347  -1.17012
 Alpha  occ. eigenvalues --   -1.16304  -1.14316  -1.12011  -1.07065  -1.01077
 Alpha  occ. eigenvalues --   -0.91328  -0.90955  -0.88515  -0.87286  -0.86753
 Alpha  occ. eigenvalues --   -0.84660  -0.81181  -0.78232  -0.75296  -0.74793
 Alpha  occ. eigenvalues --   -0.72579  -0.69554  -0.67504  -0.66185  -0.65582
 Alpha  occ. eigenvalues --   -0.62506  -0.62259  -0.60901  -0.59835  -0.58161
 Alpha  occ. eigenvalues --   -0.57439  -0.55464  -0.55362  -0.54627  -0.53765
 Alpha  occ. eigenvalues --   -0.52783  -0.52515  -0.51544  -0.50747  -0.50473
 Alpha  occ. eigenvalues --   -0.49863  -0.49678  -0.48861  -0.48339  -0.48111
 Alpha  occ. eigenvalues --   -0.47891  -0.47607  -0.46779  -0.46259  -0.46084
 Alpha  occ. eigenvalues --   -0.44969  -0.44350  -0.43688  -0.43308  -0.42671
 Alpha  occ. eigenvalues --   -0.41884  -0.41204  -0.40714  -0.39555  -0.37184
 Alpha  occ. eigenvalues --   -0.35281  -0.35085  -0.34602  -0.34181  -0.33025
 Alpha  occ. eigenvalues --   -0.32569  -0.32380  -0.31859  -0.29984  -0.24847
 Alpha virt. eigenvalues --   -0.02194   0.01465   0.05252   0.05478   0.05760
 Alpha virt. eigenvalues --    0.06554   0.06913   0.07501   0.08243   0.08979
 Alpha virt. eigenvalues --    0.09393   0.09467   0.10141   0.10916   0.11505
 Alpha virt. eigenvalues --    0.11746   0.12078   0.12637   0.13071   0.13247
 Alpha virt. eigenvalues --    0.13700   0.14645   0.14712   0.14925   0.15276
 Alpha virt. eigenvalues --    0.15742   0.16000   0.16329   0.17174   0.17322
 Alpha virt. eigenvalues --    0.18067   0.18732   0.18963   0.19227   0.19791
 Alpha virt. eigenvalues --    0.20181   0.20999   0.21204   0.21606   0.21648
 Alpha virt. eigenvalues --    0.22932   0.23455   0.23728   0.23946   0.24442
 Alpha virt. eigenvalues --    0.24966   0.25148   0.25401   0.25900   0.26224
 Alpha virt. eigenvalues --    0.27004   0.27407   0.27676   0.28283   0.29056
 Alpha virt. eigenvalues --    0.29500   0.30313   0.30399   0.30972   0.31135
 Alpha virt. eigenvalues --    0.31681   0.31786   0.32783   0.32899   0.33492
 Alpha virt. eigenvalues --    0.33960   0.34242   0.34961   0.35436   0.36338
 Alpha virt. eigenvalues --    0.36384   0.37173   0.37590   0.38014   0.38418
 Alpha virt. eigenvalues --    0.38879   0.39041   0.39906   0.40418   0.40732
 Alpha virt. eigenvalues --    0.40938   0.41227   0.41616   0.42316   0.42400
 Alpha virt. eigenvalues --    0.42837   0.43132   0.43483   0.43877   0.43927
 Alpha virt. eigenvalues --    0.44385   0.44612   0.44769   0.45261   0.45600
 Alpha virt. eigenvalues --    0.45797   0.46100   0.46990   0.47267   0.47507
 Alpha virt. eigenvalues --    0.47727   0.48119   0.48827   0.49204   0.49307
 Alpha virt. eigenvalues --    0.49538   0.50100   0.50332   0.50387   0.50745
 Alpha virt. eigenvalues --    0.50989   0.51331   0.51561   0.52058   0.52320
 Alpha virt. eigenvalues --    0.52811   0.53102   0.53430   0.54265   0.54452
 Alpha virt. eigenvalues --    0.55100   0.55321   0.55459   0.56166   0.56306
 Alpha virt. eigenvalues --    0.57076   0.58086   0.58383   0.58786   0.59370
 Alpha virt. eigenvalues --    0.59852   0.60185   0.60399   0.61089   0.61261
 Alpha virt. eigenvalues --    0.61797   0.62580   0.63162   0.63402   0.64226
 Alpha virt. eigenvalues --    0.65243   0.65475   0.66008   0.66569   0.67214
 Alpha virt. eigenvalues --    0.68514   0.68589   0.69227   0.69359   0.70519
 Alpha virt. eigenvalues --    0.70704   0.71320   0.71787   0.72696   0.73053
 Alpha virt. eigenvalues --    0.73875   0.74992   0.75224   0.75641   0.77054
 Alpha virt. eigenvalues --    0.77881   0.78356   0.78681   0.79214   0.80110
 Alpha virt. eigenvalues --    0.80868   0.81559   0.82022   0.82740   0.83355
 Alpha virt. eigenvalues --    0.84335   0.84846   0.85632   0.86691   0.87034
 Alpha virt. eigenvalues --    0.88318   0.88687   0.89179   0.89973   0.90318
 Alpha virt. eigenvalues --    0.91536   0.92234   0.92701   0.92806   0.93807
 Alpha virt. eigenvalues --    0.94020   0.94881   0.96087   0.96339   0.96919
 Alpha virt. eigenvalues --    0.97077   0.97609   0.98414   0.99086   0.99360
 Alpha virt. eigenvalues --    1.00465   1.01140   1.01915   1.02551   1.03090
 Alpha virt. eigenvalues --    1.03986   1.04495   1.04824   1.05494   1.06372
 Alpha virt. eigenvalues --    1.07177   1.07569   1.08274   1.08844   1.08999
 Alpha virt. eigenvalues --    1.09734   1.10964   1.11525   1.12003   1.12707
 Alpha virt. eigenvalues --    1.13626   1.13771   1.14544   1.14944   1.15576
 Alpha virt. eigenvalues --    1.16152   1.16397   1.18029   1.18240   1.19003
 Alpha virt. eigenvalues --    1.20699   1.21183   1.21431   1.22765   1.23031
 Alpha virt. eigenvalues --    1.23963   1.24996   1.25847   1.26476   1.27334
 Alpha virt. eigenvalues --    1.27766   1.29008   1.29993   1.31659   1.31946
 Alpha virt. eigenvalues --    1.32458   1.33669   1.33832   1.34357   1.34827
 Alpha virt. eigenvalues --    1.35636   1.36572   1.38109   1.39840   1.40081
 Alpha virt. eigenvalues --    1.40647   1.40667   1.42341   1.42834   1.43719
 Alpha virt. eigenvalues --    1.45584   1.46610   1.46940   1.49362   1.49508
 Alpha virt. eigenvalues --    1.50346   1.50684   1.51571   1.53292   1.53345
 Alpha virt. eigenvalues --    1.53506   1.53957   1.54817   1.55124   1.55938
 Alpha virt. eigenvalues --    1.56214   1.56293   1.56875   1.57387   1.57535
 Alpha virt. eigenvalues --    1.57737   1.58520   1.58759   1.59553   1.60293
 Alpha virt. eigenvalues --    1.61352   1.61816   1.62113   1.62408   1.62607
 Alpha virt. eigenvalues --    1.63120   1.63936   1.64254   1.64922   1.65419
 Alpha virt. eigenvalues --    1.66030   1.66318   1.66602   1.67351   1.67506
 Alpha virt. eigenvalues --    1.67827   1.68198   1.69570   1.70064   1.70877
 Alpha virt. eigenvalues --    1.71351   1.72364   1.72645   1.73208   1.73741
 Alpha virt. eigenvalues --    1.74697   1.75063   1.76390   1.76759   1.77463
 Alpha virt. eigenvalues --    1.77810   1.78433   1.79138   1.79636   1.79651
 Alpha virt. eigenvalues --    1.80673   1.81028   1.81869   1.82318   1.83150
 Alpha virt. eigenvalues --    1.83830   1.85514   1.86166   1.86957   1.87429
 Alpha virt. eigenvalues --    1.88040   1.88277   1.88948   1.89944   1.90714
 Alpha virt. eigenvalues --    1.91549   1.91993   1.92852   1.93829   1.94304
 Alpha virt. eigenvalues --    1.94618   1.95488   1.96630   1.97000   1.97694
 Alpha virt. eigenvalues --    1.98493   1.99207   1.99531   2.00295   2.00869
 Alpha virt. eigenvalues --    2.01091   2.01802   2.02557   2.03069   2.03665
 Alpha virt. eigenvalues --    2.04760   2.05073   2.05918   2.07145   2.08270
 Alpha virt. eigenvalues --    2.09671   2.10134   2.10368   2.10635   2.11428
 Alpha virt. eigenvalues --    2.12187   2.12627   2.13486   2.14350   2.14504
 Alpha virt. eigenvalues --    2.15959   2.17072   2.17430   2.18132   2.18826
 Alpha virt. eigenvalues --    2.18903   2.19938   2.20241   2.20652   2.20953
 Alpha virt. eigenvalues --    2.22491   2.22831   2.23834   2.24623   2.25565
 Alpha virt. eigenvalues --    2.26533   2.26917   2.27992   2.28196   2.28815
 Alpha virt. eigenvalues --    2.29300   2.30074   2.30821   2.31448   2.31954
 Alpha virt. eigenvalues --    2.32356   2.33097   2.33250   2.33791   2.34890
 Alpha virt. eigenvalues --    2.35174   2.36133   2.36355   2.37179   2.38090
 Alpha virt. eigenvalues --    2.38767   2.39386   2.40128   2.40619   2.41852
 Alpha virt. eigenvalues --    2.42892   2.43330   2.45138   2.45765   2.46049
 Alpha virt. eigenvalues --    2.46796   2.47020   2.48184   2.48639   2.50049
 Alpha virt. eigenvalues --    2.50422   2.51134   2.51906   2.52164   2.53212
 Alpha virt. eigenvalues --    2.54791   2.55663   2.55847   2.56876   2.57515
 Alpha virt. eigenvalues --    2.57961   2.58173   2.59212   2.59572   2.60338
 Alpha virt. eigenvalues --    2.60622   2.61089   2.61738   2.62570   2.62834
 Alpha virt. eigenvalues --    2.63180   2.64237   2.64835   2.65476   2.66273
 Alpha virt. eigenvalues --    2.66589   2.66790   2.67929   2.68543   2.69125
 Alpha virt. eigenvalues --    2.69774   2.70896   2.71425   2.72300   2.72907
 Alpha virt. eigenvalues --    2.74029   2.74422   2.75141   2.76308   2.76933
 Alpha virt. eigenvalues --    2.78102   2.78656   2.79248   2.80497   2.81116
 Alpha virt. eigenvalues --    2.81249   2.81839   2.83723   2.84361   2.84798
 Alpha virt. eigenvalues --    2.85241   2.86273   2.87215   2.88118   2.88741
 Alpha virt. eigenvalues --    2.89152   2.89998   2.91232   2.92230   2.92897
 Alpha virt. eigenvalues --    2.93464   2.94245   2.94852   2.96217   2.96912
 Alpha virt. eigenvalues --    2.97694   2.98318   2.99417   2.99682   3.00135
 Alpha virt. eigenvalues --    3.01023   3.01752   3.02066   3.02603   3.03132
 Alpha virt. eigenvalues --    3.03571   3.04637   3.05171   3.05605   3.06461
 Alpha virt. eigenvalues --    3.06950   3.07376   3.07836   3.08516   3.09315
 Alpha virt. eigenvalues --    3.09568   3.10211   3.10326   3.11489   3.12116
 Alpha virt. eigenvalues --    3.12761   3.13027   3.13592   3.14094   3.15554
 Alpha virt. eigenvalues --    3.16037   3.16624   3.17171   3.17966   3.18362
 Alpha virt. eigenvalues --    3.18687   3.20053   3.20338   3.20973   3.21061
 Alpha virt. eigenvalues --    3.21430   3.22295   3.23301   3.23477   3.23751
 Alpha virt. eigenvalues --    3.24735   3.25467   3.25686   3.26810   3.27374
 Alpha virt. eigenvalues --    3.27481   3.27970   3.28394   3.29181   3.30559
 Alpha virt. eigenvalues --    3.30711   3.31530   3.32111   3.32521   3.32630
 Alpha virt. eigenvalues --    3.33674   3.33997   3.34230   3.34805   3.35740
 Alpha virt. eigenvalues --    3.36480   3.36611   3.37042   3.37428   3.38621
 Alpha virt. eigenvalues --    3.38944   3.39584   3.40458   3.41038   3.41884
 Alpha virt. eigenvalues --    3.42112   3.42420   3.42980   3.43979   3.45009
 Alpha virt. eigenvalues --    3.45537   3.45795   3.46218   3.47357   3.48396
 Alpha virt. eigenvalues --    3.48919   3.49715   3.49902   3.50494   3.52321
 Alpha virt. eigenvalues --    3.52892   3.53098   3.53916   3.54656   3.54885
 Alpha virt. eigenvalues --    3.56285   3.56811   3.57602   3.57947   3.58325
 Alpha virt. eigenvalues --    3.59444   3.60737   3.60955   3.62301   3.62918
 Alpha virt. eigenvalues --    3.63926   3.64887   3.65592   3.66473   3.67381
 Alpha virt. eigenvalues --    3.68256   3.69449   3.69609   3.70790   3.72040
 Alpha virt. eigenvalues --    3.73745   3.74496   3.74809   3.75437   3.75607
 Alpha virt. eigenvalues --    3.77090   3.77317   3.78617   3.79387   3.80405
 Alpha virt. eigenvalues --    3.81298   3.81641   3.84068   3.86225   3.87399
 Alpha virt. eigenvalues --    3.88160   3.89355   3.90097   3.91383   3.92072
 Alpha virt. eigenvalues --    3.92314   3.93578   3.95083   3.96310   3.98485
 Alpha virt. eigenvalues --    3.98920   3.99853   4.00083   4.01176   4.04217
 Alpha virt. eigenvalues --    4.05359   4.05970   4.06457   4.07336   4.08779
 Alpha virt. eigenvalues --    4.10351   4.11620   4.13245   4.13743   4.14772
 Alpha virt. eigenvalues --    4.17422   4.17912   4.19689   4.21018   4.22321
 Alpha virt. eigenvalues --    4.23342   4.25643   4.26073   4.27525   4.27988
 Alpha virt. eigenvalues --    4.31023   4.32190   4.33058   4.34848   4.37279
 Alpha virt. eigenvalues --    4.37985   4.39340   4.40337   4.40707   4.42724
 Alpha virt. eigenvalues --    4.43170   4.44171   4.45370   4.47202   4.48451
 Alpha virt. eigenvalues --    4.49732   4.50873   4.51967   4.53636   4.54383
 Alpha virt. eigenvalues --    4.58534   4.63188   4.64877   4.65997   4.67391
 Alpha virt. eigenvalues --    4.68452   4.71122   4.71195   4.72709   4.73134
 Alpha virt. eigenvalues --    4.74692   4.75786   4.76955   4.78785   4.79357
 Alpha virt. eigenvalues --    4.81671   4.86050   4.86777   4.88588   4.91668
 Alpha virt. eigenvalues --    4.92952   4.93627   4.96071   4.96868   4.97236
 Alpha virt. eigenvalues --    4.98505   4.99084   5.00794   5.03371   5.06375
 Alpha virt. eigenvalues --    5.07998   5.10399   5.12531   5.16388   5.19013
 Alpha virt. eigenvalues --    5.22054   5.23384   5.24033   5.26424   5.28451
 Alpha virt. eigenvalues --    5.28642   5.30190   5.32564   5.33410   5.35067
 Alpha virt. eigenvalues --    5.38298   5.40634   5.41603   5.42709   5.45516
 Alpha virt. eigenvalues --    5.47972   5.51770   5.53424   5.54898   5.58341
 Alpha virt. eigenvalues --    5.61508   5.67387   5.71742   5.73716   5.76160
 Alpha virt. eigenvalues --    5.79205   5.80116   5.82765   5.83679   5.84581
 Alpha virt. eigenvalues --    5.85836   5.87420   5.88569   5.89969   5.94119
 Alpha virt. eigenvalues --    5.95215   5.97201   6.04297   6.17064   6.20988
 Alpha virt. eigenvalues --    6.21745   6.23260   6.29407   6.32265   6.36849
 Alpha virt. eigenvalues --    6.37899   6.47605   6.50221   6.52055   6.52362
 Alpha virt. eigenvalues --    6.59674   6.60340   6.68353   6.71625   6.74066
 Alpha virt. eigenvalues --    6.75380   6.80922   6.84908   6.87056   6.87958
 Alpha virt. eigenvalues --    6.89779   6.92503   6.99629   7.06232   7.08009
 Alpha virt. eigenvalues --    7.08820   7.11380   7.12363   7.18390   7.25273
 Alpha virt. eigenvalues --    7.29515   7.35102   9.00002   9.40384   9.53196
 Alpha virt. eigenvalues --   20.06308  22.28500  22.39643  22.43467  22.44808
 Alpha virt. eigenvalues --   22.51855  22.56586  22.61720  22.64465  22.73037
 Alpha virt. eigenvalues --   22.76803  22.93296  22.95737  23.00558  23.06160
 Alpha virt. eigenvalues --   23.20459  23.45903  32.13437  33.13161  44.14465
 Alpha virt. eigenvalues --   44.18400  44.22728  44.28544  44.51085
          Condensed to atoms (all electrons):
               1          2          3          4          5          6
     1  C    5.112325   0.416600   0.407024  -0.012488   0.000398  -0.000162
     2  H    0.416600   0.511119  -0.020636  -0.001070   0.000222  -0.000005
     3  H    0.407024  -0.020636   0.542073   0.001676  -0.000053  -0.000001
     4  C   -0.012488  -0.001070   0.001676   5.307710   0.458381   0.251769
     5  H    0.000398   0.000222  -0.000053   0.458381   0.534011  -0.036371
     6  O   -0.000162  -0.000005  -0.000001   0.251769  -0.036371   8.112816
     7  H   -0.000044  -0.000002   0.000003  -0.026098  -0.011886   0.287316
     8  C   -0.010062   0.012095  -0.007404   0.019242  -0.053613  -0.041918
     9  H    0.011029  -0.000039  -0.001018  -0.096899   0.003094   0.003396
    10  O    0.008827  -0.000406   0.000115  -0.041452   0.001481  -0.005707
    11  H   -0.000649  -0.000104   0.000307   0.012861  -0.000618  -0.000315
    12  C   -0.000439   0.000351   0.000085   0.102388  -0.055663  -0.031060
    13  H    0.000185   0.000023   0.000093  -0.095578   0.005105   0.007386
    14  C    0.191353  -0.047981  -0.038383   0.079566   0.007466   0.005663
    15  H   -0.062631  -0.005127  -0.002862  -0.008712   0.000006   0.000071
    16  O   -0.036856   0.001883   0.005260  -0.073697  -0.001067   0.006813
    17  N   -0.000155  -0.000103  -0.000032   0.016069  -0.010642  -0.001274
    18  C   -0.000525   0.000151  -0.000031  -0.005644   0.000931   0.001539
    19  H   -0.000821  -0.000162   0.000113  -0.016858  -0.002990   0.000987
    20  C    0.000049   0.000000  -0.000002   0.004950   0.004612  -0.001042
    21  H    0.000007   0.000001  -0.000000   0.000052   0.000064  -0.000007
    22  C   -0.000011  -0.000000   0.000000  -0.000230  -0.000260   0.000101
    23  H   -0.000000   0.000000   0.000000   0.000005   0.000004   0.000000
    24  H    0.000000  -0.000000  -0.000000   0.000030  -0.000043   0.000004
    25  C   -0.000065  -0.000004   0.000001  -0.004594  -0.000188  -0.000436
    26  C   -0.000313   0.000043  -0.000005   0.013905  -0.000629  -0.007110
    27  H   -0.000018   0.000001  -0.000000   0.000556  -0.000133  -0.000041
    28  C    0.000000   0.000000  -0.000000   0.000069   0.000005  -0.000031
    29  O   -0.000000  -0.000000  -0.000000   0.000006   0.000000   0.000000
    30  N   -0.000000   0.000000   0.000000   0.000001   0.000000  -0.000000
    31  H   -0.000000   0.000000  -0.000000  -0.000000   0.000000  -0.000000
    32  H    0.000000   0.000000  -0.000000   0.000000   0.000000   0.000000
    33  C    0.000002  -0.000000  -0.000000   0.000552  -0.000368  -0.018001
    34  C    0.000001  -0.000000  -0.000000  -0.000534   0.000248   0.010659
    35  C   -0.000000   0.000000   0.000000  -0.000176   0.000111   0.000820
    36  C   -0.000000   0.000000   0.000000  -0.000002   0.000001   0.000003
    37  C   -0.000000   0.000000  -0.000000   0.000155  -0.000004  -0.000002
    38  O   -0.000000   0.000000  -0.000000   0.004496   0.000105  -0.038564
    39  S    0.000000  -0.000000  -0.000000  -0.000039   0.000019   0.000703
    40  H   -0.000000   0.000000  -0.000000   0.000148   0.000025  -0.000126
    41  H   -0.000007   0.000000  -0.000000  -0.000276   0.000496   0.010414
    42  H    0.000000   0.000000  -0.000000   0.000000  -0.000000  -0.000000
    43  H    0.000000   0.000000  -0.000000   0.000000  -0.000000  -0.000000
    44  H    0.000000  -0.000000  -0.000000   0.000000  -0.000000   0.000000
    45  H   -0.000000   0.000000   0.000000   0.000008   0.000002   0.000010
    46  H   -0.000000  -0.000000   0.000000  -0.000012   0.000000   0.000019
    47  H    0.384451  -0.023135  -0.024633   0.000814  -0.000099  -0.000004
    48  H    0.000000   0.000000  -0.000000  -0.000012   0.000006   0.000803
               7          8          9         10         11         12
     1  C   -0.000044  -0.010062   0.011029   0.008827  -0.000649  -0.000439
     2  H   -0.000002   0.012095  -0.000039  -0.000406  -0.000104   0.000351
     3  H    0.000003  -0.007404  -0.001018   0.000115   0.000307   0.000085
     4  C   -0.026098   0.019242  -0.096899  -0.041452   0.012861   0.102388
     5  H   -0.011886  -0.053613   0.003094   0.001481  -0.000618  -0.055663
     6  O    0.287316  -0.041918   0.003396  -0.005707  -0.000315  -0.031060
     7  H    0.350228   0.010206  -0.000333  -0.000443   0.000129   0.001529
     8  C    0.010206   5.315223   0.489396   0.275905  -0.039194  -0.032843
     9  H   -0.000333   0.489396   0.582909  -0.059259  -0.005152   0.012839
    10  O   -0.000443   0.275905  -0.059259   8.038528   0.292848  -0.022434
    11  H    0.000129  -0.039194  -0.005152   0.292848   0.426637  -0.002885
    12  C    0.001529  -0.032843   0.012839  -0.022434  -0.002885   5.476635
    13  H   -0.001162   0.023082   0.002704   0.017151  -0.001019   0.452870
    14  C   -0.000946   0.154097  -0.101417  -0.051160   0.000087  -0.068003
    15  H    0.000047  -0.024356   0.008935  -0.004863   0.002904  -0.003910
    16  O   -0.000093  -0.046833   0.004436   0.008818   0.000184   0.226659
    17  N    0.003641  -0.003666  -0.000821  -0.000281   0.000003   0.162070
    18  C    0.000638  -0.002964  -0.000241  -0.000291   0.000008  -0.074170
    19  H    0.000291   0.001584   0.000052  -0.000011   0.000005   0.018355
    20  C   -0.001086  -0.000784   0.000023   0.000009  -0.000001   0.014488
    21  H   -0.000009   0.000002   0.000000   0.000000  -0.000000   0.000118
    22  C    0.000248   0.000033  -0.000002  -0.000002   0.000000  -0.007586
    23  H   -0.000001   0.000000   0.000000   0.000000  -0.000000   0.000238
    24  H    0.000032   0.000004  -0.000000   0.000000   0.000000  -0.000325
    25  C    0.000572  -0.000441  -0.000002  -0.000054  -0.000000  -0.017076
    26  C    0.000248  -0.003914  -0.000075  -0.000604  -0.000053  -0.061114
    27  H    0.000093  -0.000000  -0.000013  -0.000197   0.000009  -0.002720
    28  C    0.000050  -0.000010   0.000000   0.000000  -0.000000  -0.002488
    29  O    0.000011   0.000000   0.000000  -0.000000   0.000000   0.000299
    30  N    0.000000  -0.000000  -0.000000  -0.000000  -0.000000  -0.000001
    31  H   -0.000000  -0.000000   0.000000  -0.000000  -0.000000  -0.000005
    32  H   -0.000000  -0.000000  -0.000000   0.000000  -0.000000  -0.000007
    33  C    0.001070   0.000725   0.000018  -0.001171   0.000078  -0.000340
    34  C   -0.007723  -0.000100  -0.000021   0.000023   0.000001   0.000308
    35  C   -0.000308  -0.000066  -0.000001   0.000001  -0.000000   0.000572
    36  C   -0.000015  -0.000000  -0.000000  -0.000000  -0.000000   0.000046
    37  C    0.000059   0.000000  -0.000000  -0.000000  -0.000000  -0.000797
    38  O    0.029296  -0.000438   0.000005  -0.000000  -0.000001   0.000816
    39  S    0.000856  -0.000011   0.000001   0.000010  -0.000003  -0.000820
    40  H   -0.001809  -0.000015   0.000002   0.000025  -0.000002   0.000017
    41  H   -0.008584  -0.001009   0.000007   0.003455  -0.000235   0.000116
    42  H   -0.000001   0.000000  -0.000000  -0.000000  -0.000000   0.000001
    43  H    0.000001   0.000000  -0.000000   0.000000   0.000000   0.000002
    44  H    0.000000   0.000000  -0.000000   0.000000   0.000000  -0.000000
    45  H    0.000029   0.000000   0.000000  -0.000000  -0.000000  -0.000025
    46  H   -0.000073   0.000000  -0.000000  -0.000000   0.000000   0.000065
    47  H    0.000007  -0.009461   0.000792   0.000169   0.000094  -0.000811
    48  H    0.000269  -0.000031   0.000001   0.000004  -0.000003   0.000013
              13         14         15         16         17         18
     1  C    0.000185   0.191353  -0.062631  -0.036856  -0.000155  -0.000525
     2  H    0.000023  -0.047981  -0.005127   0.001883  -0.000103   0.000151
     3  H    0.000093  -0.038383  -0.002862   0.005260  -0.000032  -0.000031
     4  C   -0.095578   0.079566  -0.008712  -0.073697   0.016069  -0.005644
     5  H    0.005105   0.007466   0.000006  -0.001067  -0.010642   0.000931
     6  O    0.007386   0.005663   0.000071   0.006813  -0.001274   0.001539
     7  H   -0.001162  -0.000946   0.000047  -0.000093   0.003641   0.000638
     8  C    0.023082   0.154097  -0.024356  -0.046833  -0.003666  -0.002964
     9  H    0.002704  -0.101417   0.008935   0.004436  -0.000821  -0.000241
    10  O    0.017151  -0.051160  -0.004863   0.008818  -0.000281  -0.000291
    11  H   -0.001019   0.000087   0.002904   0.000184   0.000003   0.000008
    12  C    0.452870  -0.068003  -0.003910   0.226659   0.162070  -0.074170
    13  H    0.520641  -0.013482   0.006116  -0.033596  -0.063738   0.011010
    14  C   -0.013482   5.252790   0.404942   0.209113   0.015087  -0.000043
    15  H    0.006116   0.404942   0.604969  -0.038594  -0.001459   0.000043
    16  O   -0.033596   0.209113  -0.038594   8.136129  -0.075893   0.002858
    17  N   -0.063738   0.015087  -0.001459  -0.075893   6.594270   0.317284
    18  C    0.011010  -0.000043   0.000043   0.002858   0.317284   5.009128
    19  H    0.001519  -0.003925   0.000316   0.017520  -0.051245   0.407820
    20  C   -0.000351   0.000383   0.000011  -0.000911  -0.086697   0.529849
    21  H    0.000008  -0.000003  -0.000000  -0.000093   0.004350  -0.029611
    22  C    0.000009  -0.000043   0.000001   0.000572   0.000288  -0.010093
    23  H   -0.000002  -0.000000   0.000000  -0.000007  -0.000986   0.002509
    24  H   -0.000012   0.000002   0.000000   0.000028   0.006126   0.003717
    25  C    0.009129  -0.000014   0.000027  -0.001453  -0.068165   0.043234
    26  C   -0.018764   0.000270  -0.000450   0.000603   0.306107  -0.152572
    27  H   -0.000576   0.000021  -0.000029   0.001060  -0.036074   0.007265
    28  C   -0.000003  -0.000003  -0.000001   0.000027   0.002666   0.002731
    29  O   -0.000051  -0.000000   0.000000  -0.000000  -0.000689   0.000295
    30  N   -0.000000   0.000000  -0.000000  -0.000000  -0.000510  -0.000117
    31  H    0.000000  -0.000000  -0.000000   0.000000   0.000030  -0.000002
    32  H    0.000001   0.000000  -0.000000   0.000000   0.000045   0.000071
    33  C   -0.000363  -0.000079   0.000000   0.000000   0.000085  -0.000009
    34  C    0.000295   0.000067  -0.000000   0.000097   0.007187  -0.001406
    35  C   -0.000007   0.000005  -0.000000  -0.000006  -0.003253  -0.000644
    36  C    0.000003   0.000000   0.000000  -0.000000  -0.000152   0.000011
    37  C   -0.000032  -0.000001  -0.000000  -0.000001  -0.000368   0.000657
    38  O   -0.000447   0.000035  -0.000000   0.000001  -0.002155   0.002253
    39  S    0.001261  -0.000007   0.000001  -0.000000  -0.000191   0.000186
    40  H    0.000031   0.000001  -0.000000  -0.000000  -0.000011  -0.000006
    41  H    0.000301   0.000156  -0.000000  -0.000004  -0.000003   0.000038
    42  H    0.000000  -0.000000  -0.000000   0.000000   0.000012   0.000036
    43  H   -0.000000   0.000000  -0.000000   0.000000   0.000048  -0.000014
    44  H   -0.000000  -0.000000   0.000000   0.000000   0.000002   0.000000
    45  H    0.000001  -0.000000   0.000000  -0.000000  -0.000166   0.000409
    46  H    0.000008   0.000000   0.000000   0.000000   0.000218   0.000019
    47  H    0.000054  -0.014871   0.007927   0.001109  -0.000244  -0.000076
    48  H    0.000012   0.000001   0.000000  -0.000000  -0.000005  -0.000001
              19         20         21         22         23         24
     1  C   -0.000821   0.000049   0.000007  -0.000011  -0.000000   0.000000
[...]
      5        1           0.011152646    0.003802278   -0.010140522
      6        8           0.015871767   -0.009672439   -0.005072517
      7        1          -0.001183144   -0.004794889   -0.004536854
      8        6           0.013750953    0.000258174   -0.002477094
      9        1          -0.007223422    0.003298642   -0.010882851
     10        8          -0.000990615    0.007198800    0.002316708
     11        1          -0.011155342   -0.005794981   -0.001714369
     12        6           0.017429368   -0.018304843   -0.000648124
     13        1          -0.008221346   -0.006550202    0.004794750
     14        6          -0.020355928    0.001437459   -0.002516750
     15        1          -0.004471451   -0.006685280    0.010564245
     16        8           0.001645569   -0.004519300   -0.000129879
     17        7          -0.000431079    0.004782366   -0.007906649
     18        6           0.019592257    0.008912815    0.011543196
     19        1          -0.004478636    0.002233349   -0.000921303
     20        6          -0.021300934    0.006444129   -0.013309252
     21        1           0.004043910    0.002124720    0.001816046
     22        6           0.013213055   -0.000248459    0.007492119
     23        1           0.003981796   -0.000766225    0.008028917
     24        1           0.004433388   -0.001588039   -0.009119143
     25        6          -0.018793463   -0.007035286   -0.009279367
     26        6           0.004660025   -0.016805392    0.006918446
     27        1          -0.007075042    0.000070342    0.002126576
     28        6          -0.011569117   -0.005965765    0.001202349
     29        8           0.016295440    0.016472089    0.010872177
     30        7           0.003249236   -0.008778164   -0.002425379
     31        1          -0.001738441    0.000767678   -0.002015229
     32        1          -0.003147766   -0.000552727   -0.003652397
     33        6          -0.005758964   -0.009682104   -0.009917985
     34        6          -0.007991183   -0.041063689    0.012983579
     35        6          -0.001732818    0.010232355   -0.009004264
     36        6           0.007810171   -0.003332990    0.005807493
     37        6          -0.003676208   -0.002247721    0.001930458
     38        8          -0.009957400    0.019534679   -0.010475575
     39       16           0.018736586    0.017287709    0.012746615
     40        1           0.006714889    0.002254422   -0.002449975
     41        1          -0.004298361    0.004796352    0.005351956
     42        1           0.003063878    0.004738985   -0.000128743
     43        1          -0.004223883   -0.001608380    0.003037096
     44        1           0.000548205   -0.003449167   -0.003954636
     45        1           0.005515535    0.006876718   -0.002293117
     46        1          -0.004586531   -0.005059698    0.001848972
     47        1           0.001195548   -0.001287427   -0.001002797
     48        1          -0.003698133    0.004156384   -0.004847971
 -------------------------------------------------------------------
 Cartesian Forces:  Max     0.041063689 RMS     0.009126247
 Leave Link  716 at Wed Mar  8 14:24:50 2023, MaxMem=  2684354560 cpu:               0.9 elap:               0.1
 (Enter /opt/gaussian/g16/l103.exe)

 GradGradGradGradGradGradGradGradGradGradGradGradGradGradGradGradGradGrad
 Berny optimization.
 Search for a local minimum.
 Step number   1 out of a maximum of    2
 All quantities printed in internal units (Hartrees-Bohrs-Radians)
 Second derivative matrix not updated -- first step.
 ITU=  0
     Eigenvalues ---    0.00026   0.00065   0.00087   0.00097   0.00142
     Eigenvalues ---    0.00189   0.00221   0.00265   0.00323   0.00447
     Eigenvalues ---    0.00482   0.00669   0.00733   0.00831   0.00959
     Eigenvalues ---    0.01033   0.01112   0.01284   0.01334   0.01429
     Eigenvalues ---    0.01579   0.01732   0.01884   0.02345   0.02543
     Eigenvalues ---    0.02862   0.02899   0.03190   0.03305   0.03654
     Eigenvalues ---    0.04007   0.04406   0.04496   0.04859   0.05034
     Eigenvalues ---    0.05110   0.05262   0.05413   0.05625   0.05688
     Eigenvalues ---    0.05801   0.05861   0.05919   0.06307   0.06599
     Eigenvalues ---    0.07037   0.07081   0.07431   0.07632   0.07752
     Eigenvalues ---    0.08485   0.08664   0.09086   0.09619   0.10167
     Eigenvalues ---    0.10530   0.10945   0.11649   0.11929   0.12253
     Eigenvalues ---    0.12843   0.12875   0.13013   0.13117   0.13650
     Eigenvalues ---    0.13852   0.14009   0.14640   0.15571   0.16078
     Eigenvalues ---    0.16502   0.17233   0.17593   0.18442   0.19080
     Eigenvalues ---    0.19603   0.19957   0.21017   0.21307   0.21723
     Eigenvalues ---    0.24219   0.25886   0.26377   0.26783   0.30772
     Eigenvalues ---    0.32199   0.33513   0.34476   0.34700   0.36663
     Eigenvalues ---    0.36925   0.36925   0.36925   0.36925   0.40926
     Eigenvalues ---    0.42230   0.43410   0.46708   0.52421   0.56149
     Eigenvalues ---    0.59416   0.64505   0.66233   0.69054   0.74022
     Eigenvalues ---    0.76955   0.78084   0.83896   0.85891   0.87154
     Eigenvalues ---    0.88398   0.89611   0.90201   0.90462   0.91248
     Eigenvalues ---    0.92444   0.93286   0.94753   0.97847   0.99730
     Eigenvalues ---    1.00176   1.01008   1.03903   1.05835   1.10564
     Eigenvalues ---    1.12674   1.15696   1.21860   1.24885   1.27209
     Eigenvalues ---    1.29576   1.38847   1.47674   1.61007   1.66648
     Eigenvalues ---    1.79538   2.01486   2.34989
 Quadratic step=4.392D+00 exceeds max=3.000D-01 adjusted using Lamda=-7.918D-02.
 Angle between NR and scaled steps=  73.26 degrees.
 Angle between quadratic step and forces=  47.40 degrees.
 Linear search not attempted -- first point.
 Variable       Old X    -DE/DX   Delta X   Delta X   Delta X     New X
                                 (Linear)    (Quad)   (Total)
    X1        6.50565   0.00403   0.00000  -0.01302  -0.01302   6.49263
    Y1       -6.71122   0.02769   0.00000   0.06171   0.06171  -6.64951
    Z1       -1.57755   0.00242   0.00000   0.01792   0.01792  -1.55963
    X2        6.43340   0.00082   0.00000   0.00136   0.00136   6.43475
    Y2       -6.85339  -0.00346   0.00000   0.00430   0.00430  -6.84909
    Z2       -3.64664   0.00665   0.00000   0.03317   0.03317  -3.61347
    X3        8.32013  -0.00712   0.00000  -0.03788  -0.03788   8.28225
    Y3       -7.42508  -0.00329   0.00000   0.00824   0.00824  -7.41684
    Z3       -0.85924  -0.00329   0.00000  -0.00083  -0.00083  -0.86007
    X4        3.01820  -0.00257   0.00000   0.03121   0.03121   3.04941
    Y4       -2.28618   0.01717   0.00000   0.02695   0.02695  -2.25923
    Z4        1.86758   0.01366   0.00000   0.00292   0.00292   1.87050
    X5        1.64726   0.01115   0.00000   0.07297   0.07297   1.72024
    Y5       -3.87745   0.00380   0.00000   0.01342   0.01342  -3.86403
    Z5        1.91024  -0.01014   0.00000  -0.06069  -0.06069   1.84955
    X6        2.44660   0.01587   0.00000   0.05685   0.05685   2.50345
    Y6       -0.68646  -0.00967   0.00000  -0.01166  -0.01166  -0.69812
    Z6        3.92899  -0.00507   0.00000   0.00072   0.00072   3.92971
    X7        0.75581  -0.00118   0.00000   0.03315   0.03315   0.78897
    Y7        0.04518  -0.00479   0.00000  -0.05247  -0.05247  -0.00729
    Z7        3.85592  -0.00454   0.00000  -0.02332  -0.02332   3.83260
    X8        5.80649   0.01375   0.00000   0.00776   0.00776   5.81425
    Y8       -3.22249   0.00026   0.00000   0.02703   0.02703  -3.19546
    Z8        1.95229  -0.00248   0.00000  -0.01435  -0.01435   1.93794
    X9        6.15455  -0.00722   0.00000  -0.04088  -0.04088   6.11367
    Y9       -4.80329   0.00330   0.00000   0.00644   0.00644  -4.79685
    Z9        3.28585  -0.01088   0.00000  -0.05885  -0.05885   3.22700
   X10        7.31593  -0.00099   0.00000  -0.02355  -0.02355   7.29239
   Y10       -1.14442   0.00720   0.00000   0.03328   0.03328  -1.11115
   Z10        2.73549   0.00232   0.00000   0.00657   0.00657   2.74207
   X11        9.11371  -0.01116   0.00000  -0.04883  -0.04883   9.06488
   Y11       -1.46494  -0.00579   0.00000  -0.03218  -0.03218  -1.49712
   Z11        2.58928  -0.00171   0.00000  -0.00873  -0.00873   2.58055
   X12        3.03126   0.01743   0.00000   0.02323   0.02323   3.05449
   Y12       -0.86433  -0.01830   0.00000  -0.03688  -0.03688  -0.90121
   Z12       -0.69073  -0.00065   0.00000  -0.01170  -0.01170  -0.70243
   X13        4.16532  -0.00822   0.00000  -0.02475  -0.02475   4.14057
   Y13        0.88874  -0.00655   0.00000  -0.03182  -0.03182   0.85692
   Z13       -0.53906   0.00479   0.00000   0.02374   0.02374  -0.51532
   X14        6.39848  -0.02036   0.00000  -0.05057  -0.05057   6.34792
   Y14       -3.85636   0.00144   0.00000   0.01680   0.01680  -3.83957
   Z14       -0.89430  -0.00252   0.00000   0.00410   0.00410  -0.89019
   X15        8.13967  -0.00447   0.00000  -0.02479  -0.02479   8.11488
   Y15       -2.89245  -0.00669   0.00000  -0.02544  -0.02544  -2.91789
   Z15       -1.55511   0.01056   0.00000   0.06665   0.06665  -1.48847
   X16        4.35786   0.00165   0.00000  -0.01167  -0.01167   4.34618
   Y16       -2.63568  -0.00452   0.00000  -0.02218  -0.02218  -2.65785
   Z16       -2.27860  -0.00013   0.00000  -0.02516  -0.02516  -2.30376
   X17        0.63004  -0.00043   0.00000   0.01876   0.01876   0.64880
   Y17       -0.26404   0.00478   0.00000  -0.01055  -0.01055  -0.27459
   Z17       -1.75133  -0.00791   0.00000  -0.01009  -0.01009  -1.76143
   X18       -1.01166   0.01959   0.00000   0.00795   0.00795  -1.00371
   Y18       -2.25266   0.00891   0.00000   0.01941   0.01941  -2.23325
   Z18       -2.47004   0.01154   0.00000   0.00874   0.00874  -2.46130
   X19       -0.20432  -0.00448   0.00000  -0.02323  -0.02323  -0.22755
   Y19       -4.11457   0.00223   0.00000   0.01297   0.01297  -4.10160
   Z19       -2.16854  -0.00092   0.00000   0.00453   0.00453  -2.16400
   X20       -3.22602  -0.02130   0.00000  -0.00695  -0.00695  -3.23297
   Y20       -1.79017   0.00644   0.00000   0.01434   0.01434  -1.77583
   Z20       -3.49991  -0.01331   0.00000  -0.01405  -0.01405  -3.51396
   X21       -4.42398   0.00404   0.00000   0.01028   0.01028  -4.41370
   Y21       -3.35049   0.00212   0.00000   0.00946   0.00946  -3.34103
   Z21       -4.09902   0.00182   0.00000   0.00056   0.00056  -4.09846
   X22       -4.21425   0.01321   0.00000   0.02082   0.02082  -4.19343
   Y22        0.88565  -0.00025   0.00000  -0.00574  -0.00574   0.87991
   Z22       -3.93497   0.00749   0.00000   0.00659   0.00659  -3.92838
   X23       -5.25314   0.00398   0.00000   0.02334   0.02334  -5.22980
   Y23        1.01070  -0.00077   0.00000  -0.00397  -0.00397   1.00673
   Z23       -5.74077   0.00803   0.00000   0.02714   0.02714  -5.71363
   X24       -5.56290   0.00443   0.00000   0.01566   0.01566  -5.54724
   Y24        1.39179  -0.00159   0.00000  -0.00270  -0.00270   1.38909
   Z24       -2.40345  -0.00912   0.00000  -0.02977  -0.02977  -2.43322
   X25       -1.96979  -0.01879   0.00000  -0.02424  -0.02424  -1.99403
   Y25        2.75343  -0.00704   0.00000  -0.02104  -0.02104   2.73239
   Z25       -3.85391  -0.00928   0.00000  -0.00572  -0.00572  -3.85963
   X26        0.22204   0.00466   0.00000  -0.01536  -0.01536   0.20668
   Y26        2.13523  -0.01681   0.00000  -0.03158  -0.03158   2.10365
   Z26       -2.77622   0.00692   0.00000   0.00289   0.00289  -2.77333
   X27        1.84682  -0.00708   0.00000  -0.04975  -0.04975   1.79707
   Y27        3.39943   0.00007   0.00000   0.00094   0.00094   3.40037
   Z27       -2.70305   0.00213   0.00000   0.02376   0.02376  -2.67929
   X28       -2.34973  -0.01157   0.00000  -0.02552  -0.02552  -2.37525
   Y28        5.35422  -0.00597   0.00000   0.00353   0.00353   5.35775
   Z28       -4.81447   0.00120   0.00000   0.03235   0.03235  -4.78211
   X29       -1.59427   0.01630   0.00000   0.06926   0.06926  -1.52502
   Y29        7.20832   0.01647   0.00000   0.00329   0.00329   7.21161
   Z29       -3.73177   0.01087   0.00000   0.00963   0.00963  -3.72214
   X30       -3.89474   0.00325   0.00000   0.00961   0.00961  -3.88513
   Y30        5.66315  -0.00878   0.00000  -0.01755  -0.01755   5.64560
   Z30       -6.88351  -0.00243   0.00000  -0.00754  -0.00754  -6.89105
   X31       -3.78939  -0.00174   0.00000  -0.00895  -0.00895  -3.79834
   Y31        7.42508   0.00077   0.00000  -0.01323  -0.01323   7.41186
   Z31       -7.59735  -0.00202   0.00000  -0.01228  -0.01228  -7.60962
   X32       -3.88884  -0.00315   0.00000  -0.01621  -0.01621  -3.90506
   Y32        4.24437  -0.00055   0.00000  -0.01330  -0.01330   4.23107
   Z32       -8.14747  -0.00365   0.00000  -0.01576  -0.01576  -8.16324
   X33        1.78667  -0.00576   0.00000  -0.00795  -0.00795   1.77872
   Y33        4.10304  -0.00968   0.00000  -0.01384  -0.01384   4.08920
   Z33        7.16781  -0.00992   0.00000  -0.02551  -0.02551   7.14231
   X34       -1.77559  -0.00799   0.00000  -0.02457  -0.02457  -1.80015
   Y34        4.12603  -0.04106   0.00000  -0.02198  -0.02198   4.10405
   Z34        3.37033   0.01298   0.00000   0.02719   0.02719   3.39752
   X35       -3.51450  -0.00173   0.00000   0.00052   0.00052  -3.51398
   Y35        5.34744   0.01023   0.00000   0.00852   0.00852   5.35596
   Z35        1.59943  -0.00900   0.00000  -0.00306  -0.00306   1.59637
   X36       -7.70975   0.00781   0.00000   0.02106   0.02106  -7.68869
   Y36        5.88198  -0.00333   0.00000  -0.01076  -0.01076   5.87122
   Z36       -0.56619   0.00581   0.00000   0.01300   0.01300  -0.55319
   X37       -5.85731  -0.00368   0.00000   0.00730   0.00730  -5.85001
   Y37        4.52897  -0.00225   0.00000   0.00396   0.00396   4.53293
   Z37        1.14935   0.00193   0.00000   0.00520   0.00520   1.15455
   X38       -1.88521  -0.00996   0.00000  -0.08860  -0.08860  -1.97381
   Y38        1.87748   0.01953   0.00000  -0.00551  -0.00551   1.87197
   Z38        4.00581  -0.01048   0.00000  -0.01461  -0.01461   3.99120
   X39        0.41642   0.01874   0.00000   0.02962   0.02962   0.44604
   Y39        6.10237   0.01729   0.00000   0.01533   0.01533   6.11770
   Z39        4.70161   0.01275   0.00000   0.01638   0.01638   4.71798
   X40        0.20539   0.00671   0.00000   0.01852   0.01852   0.22391
   Y40        3.18103   0.00225   0.00000  -0.00309  -0.00309   3.17794
   Z40        8.14747  -0.00245   0.00000  -0.01080  -0.01080   8.13668
   X41        2.99100  -0.00430   0.00000  -0.00141  -0.00141   2.98959
   Y41        2.67349   0.00480   0.00000   0.00066   0.00066   2.67414
   Z41        6.26067   0.00535   0.00000   0.01074   0.01074   6.27141
   X42       -9.11371   0.00306   0.00000   0.02314   0.02314  -9.09056
   Y42        4.54801   0.00474   0.00000   0.01091   0.01091   4.55892
   Z42       -1.30181  -0.00013   0.00000  -0.00125  -0.00125  -1.30305
   X43       -6.69670  -0.00422   0.00000  -0.00499  -0.00499  -6.70168
   Y43        6.80515  -0.00161   0.00000  -0.00522  -0.00522   6.79993
   Z43       -2.12346   0.00304   0.00000   0.01434   0.01434  -2.10912
   X44       -8.70180   0.00055   0.00000   0.00461   0.00461  -8.69718
   Y44        7.33863  -0.00345   0.00000  -0.01818  -0.01818   7.32045
   Z44        0.53526  -0.00395   0.00000  -0.01059  -0.01059   0.52467
   X45       -6.54594   0.00552   0.00000   0.03196   0.03196  -6.51398
   Y45        2.82101   0.00688   0.00000   0.01890   0.01890   2.83991
   Z45        2.11167  -0.00229   0.00000   0.00663   0.00663   2.11830
   X46       -2.78108  -0.00459   0.00000  -0.01032  -0.01032  -2.79141
   Y46        7.05541  -0.00506   0.00000  -0.00698  -0.00698   7.04843
   Z46        0.68630   0.00185   0.00000  -0.00137  -0.00137   0.68494
   X47        4.91981   0.00120   0.00000   0.00198   0.00198   4.92179
   Y47       -7.71263  -0.00129   0.00000   0.02033   0.02033  -7.69230
   Z47       -0.72605  -0.00100   0.00000  -0.00164  -0.00164  -0.72769
   X48        2.89625  -0.00370   0.00000  -0.02659  -0.02659   2.86965
   Y48        5.23545   0.00416   0.00000   0.02388   0.02388   5.25934
   Z48        8.48282  -0.00485   0.00000  -0.04352  -0.04352   8.43930
         Item               Value     Threshold  Converged?
 Maximum Force            0.041064     0.000450     NO 
 RMS     Force            0.009126     0.000300     NO 
 Maximum Displacement     0.088602     0.001800     NO 
 RMS     Displacement     0.025022     0.001200     NO 
 Predicted change in Energy=-1.469930D-02
 GradGradGradGradGradGradGradGradGradGradGradGradGradGradGradGradGradGrad

 Leave Link  103 at Wed Mar  8 14:24:50 2023, MaxMem=  2684354560 cpu:               2.3 elap:               0.1
 (Enter /opt/gaussian/g16/l9999.exe)

 Test job not archived.
 1\1\GINC-JULIO-SYS\Force\RM062X\def2TZVP\C16H24N2O5S1\JVELAZQUEZ\08-Ma
 r-2023\0\\#P M062X/Def2TZVP scf=(direct,conver=8) EmpiricalDispersion=
 GD3 NoSymm Force pop=(NBORead) Charge Prop=(Field,Read)\\Gaussian run 
 using SANDER external interface, route from template gau_job.tpl\\0,1\
 C,3.442640338,-3.5514221357,-0.8348052718\H,3.404406844,-3.6266555181,
 -1.9297163599\H,4.4028205455,-3.9291855947,-0.4546900709\C,1.597163863
 8,-1.2097947136,0.9882821389\H,0.8716943621,-2.0518578416,1.0108568807
 \O,1.2946842469,-0.3632606662,2.0791341896\H,0.399959932,0.0239068782,
 2.0404630374\C,3.0726625813,-1.7052667673,1.0331057334\H,3.2568484734,
 -2.5417933398,1.738795195\O,3.8714253343,-0.6056020587,1.4475597182\H,
 4.8227666515,-0.7752135419,1.3701856244\C,1.6040754985,-0.4573841705,-
 0.3655185272\H,2.204192059,0.4703022313,-0.2852577798\C,3.3859299662,-
 2.0406994246,-0.4732414984\H,4.3073266825,-1.5306179668,-0.8229309762\
 O,2.3060788611,-1.3947396682,-1.2057847989\N,0.3334036915,-0.139725082
 8,-0.9267656141\C,-0.5353457526,-1.1920546549,-1.3070891861\H,-0.10812
 15781,-2.1773382547,-1.1475413474\C,-1.7071376067,-0.9473152524,-1.852
 0722762\H,-2.3410679609,-1.7730035658,-2.1691087633\C,-2.2300833077,0.
 4686672696,-2.0822951076\H,-2.7798429514,0.5348400668,-3.0378836181\H,
 -2.9437577524,0.7365019621,-1.2718523372\C,-1.0423654978,1.4570514488,
 -2.0393994617\C,0.1174979347,1.1299166801,-1.469110378\H,0.97729315,1.
 7989004345,-1.4303946144\C,-1.2434237201,2.8333322034,-2.5477064843\O,
 -0.8436538731,3.814478297,-1.9747690065\N,-2.061007929,2.9968117708,-3
 .6425950138\H,-2.0052608836,3.9291855947,-4.0203425396\H,-2.0578879562
 ,2.2460252799,-4.3114575611\C,0.9454626026,2.1712365786,3.7930431703\C
 ,-0.9396000841,2.1834008073,1.7835022967\C,-1.8597934239,2.8297417954,
 0.8463812108\C,-4.0798222556,3.1126088682,-0.2996162851\C,-3.099555492
 1,2.3966301903,0.6082085802\O,-0.9976116335,0.993519494,2.1197832632\S
 ,0.22036165,3.2292346636,2.4879826359\H,0.1086864341,1.683327221,4.311
 4575611\H,1.5827693239,1.4147473781,3.313005694\H,-4.8227666515,2.4067
 046458,-0.6888858551\H,-3.5437385828,3.6011315666,-1.1236859054\H,-4.6
 047928977,3.8834377182,0.2832462273\H,-3.4639629588,1.4928132065,1.117
 4477146\H,-1.4716857543,3.7335629977,0.3631749298\H,2.603448844,-4.081
 3470791,-0.3842087883\H,1.5326274041,2.7704832351,4.4889173979\\Versio
 n=ES64L-G16RevA.03\HF=-1507.8946311\RMSD=7.739e-09\RMSF=9.126e-03\Dipo
 le=0.0989468,-0.9305136,-0.810872\Quadrupole=9.4990254,-8.6682902,-0.8
 307352,-7.2453589,6.8269096,-1.5850193\PG=C01 [X(C16H24N2O5S1)]\\@


 IT IS A CAPITAL MISTAKE TO THEORIZE BEFORE ONE HAS
 DATA.  INSENSIBLY ONE BEGINS TO TWIST FACTS TO SUIT
 THEORIES RATHER THAN THEORIES TO SUIT FACTS.

                                         -- SHERLOCK HOLMES
 Job cpu time:       0 days  6 hours 54 minutes 57.8 seconds.
 Elapsed time:       0 days  0 hours 26 minutes  6.2 seconds.
 File lengths (MBytes):  RWF=    435 Int=      0 D2E=      0 Chk=     48 Scr=      1
 Normal termination of Gaussian 16 at Wed Mar  8 14:24:50 2023.
