 Entering Gaussian System, Link 0=g16
 Initial command:
 /opt/gaussian/g16/l1.exe "/opt/gaussian/scratch16/Gau-2681709.inp" -scrdir="/opt/gaussian/scratch16/"
 Entering Link 1 = /opt/gaussian/g16/l1.exe PID=   2681711.
  
 Copyright (c) 1988,1990,1992,1993,1995,1998,2003,2009,2016,
            Gaussian, Inc.  All Rights Reserved.
  
 This is part of the Gaussian(R) 16 program.  It is based on
 the Gaussian(R) 09 system (copyright 2009, Gaussian, Inc.),
 the Gaussian(R) 03 system (copyright 2003, Gaussian, Inc.),
 the Gaussian(R) 98 system (copyright 1998, Gaussian, Inc.),
 the Gaussian(R) 94 system (copyright 1995, Gaussian, Inc.),
 the Gaussian 92(TM) system (copyright 1992, Gaussian, Inc.),
 the Gaussian 90(TM) system (copyright 1990, Gaussian, Inc.),
 the Gaussian 88(TM) system (copyright 1988, Gaussian, Inc.),
 the Gaussian 86(TM) system (copyright 1986, Carnegie Mellon
 University), and the Gaussian 82(TM) system (copyright 1983,
 Carnegie Mellon University). Gaussian is a federally registered
 trademark of Gaussian, Inc.
  
 This software contains proprietary and confidential information,
 including trade secrets, belonging to Gaussian, Inc.
  
 This software is provided under written license and may be
 used, copied, transmitted, or stored only in accord with that
 written license.
  
 The following legend is applicable only to US Government
 contracts under FAR:
  
                    RESTRICTED RIGHTS LEGEND
  
 Use, reproduction and disclosure by the US Government is
 subject to restrictions as set forth in subparagraphs (a)
 and (c) of the Commercial Computer Software - Restricted
 Rights clause in FAR 52.227-19.
  
 Gaussian, Inc.
 340 Quinnipiac St., Bldg. 40, Wallingford CT 06492
  
  
 ---------------------------------------------------------------
 Warning -- This program may not be used in any manner that
 competes with the business of Gaussian, Inc. or will provide
 assistance to any competitor of Gaussian, Inc.  The licensee
 of this program is prohibited from giving any competitor of
 Gaussian, Inc. access to this program.  By using this program,
 the user acknowledges that Gaussian, Inc. is engaged in the
 business of creating and licensing software in the field of
 computational chemistry and represents and warrants to the
 licensee that it is not a competitor of Gaussian, Inc. and that
 it will not use this program in any manner prohibited above.
 ---------------------------------------------------------------
  

 Cite this work as:
 Gaussian 16, Revision A.03,
 M. J. Frisch, G. W. Trucks, H. B. Schlegel, G. E. Scuseria, 
 M. A. Robb, J. R. Cheeseman, G. Scalmani, V. Barone, 
 G. A. Petersson, H. Nakatsuji, X. Li, M. Caricato, A. V. Marenich, 
 J. Bloino, B. G. Janesko, R. Gomperts, B. Mennucci, H. P. Hratchian, 
 J. V. Ortiz, A. F. Izmaylov, J. L. Sonnenberg, D. Williams-Young, 
 F. Ding, F. Lipparini, F. Egidi, J. Goings, B. Peng, A. Petrone, 
 T. Henderson, D. Ranasinghe, V. G. Zakrzewski, J. Gao, N. Rega, 
 G. Zheng, W. Liang, M. Hada, M. Ehara, K. Toyota, R. Fukuda, 
 J. Hasegawa, M. Ishida, T. Nakajima, Y. Honda, O. Kitao, H. Nakai, 
 T. Vreven, K. Throssell, J. A. Montgomery, Jr., J. E. Peralta, 
 F. Ogliaro, M. J. Bearpark, J. J. Heyd, E. N. Brothers, K. N. Kudin, 
 V. N. Staroverov, T. A. Keith, R. Kobayashi, J. Normand, 
 K. Raghavachari, A. P. Rendell, J. C. Burant, S. S. Iyengar, 
 J. Tomasi, M. Cossi, J. M. Millam, M. Klene, C. Adamo, R. Cammi, 
 J. W. Ochterski, R. L. Martin, K. Morokuma, O. Farkas, 
 J. B. Foresman, and D. J. Fox, Gaussian, Inc., Wallingford CT, 2016.
 
 ******************************************
 Gaussian 16:  ES64L-G16RevA.03 25-Dec-2016
                 8-Mar-2023 
 ******************************************
 %chk=6.chk
 %NProcShared=16
 Will use up to   16 processors via shared memory.
 %mem=20GB
 ----------------------------------------------------------------------
 #P M062X/Def2TZVP scf=(direct,conver=8) EmpiricalDispersion=GD3 NoSymm
  Force pop=(NBORead) Charge Prop=(Field,Read)
 ----------------------------------------------------------------------
 1/10=7,18=10,28=-2,30=1,38=1,125=101/1,3;
 2/12=2,15=1,17=6,18=5,29=2,40=1/2;
 3/5=44,7=101,11=2,25=1,30=1,71=1,74=-55,124=31/1,2,3;
 4//1;
 5/5=2,6=8,38=5/2;
 6/7=2,8=2,9=2,10=2,14=2,15=1,28=1,40=2/1,2,7;
 7/7=1,16=-2,29=1,30=1/1,2,3,16;
 1/10=7,18=10,28=-2,30=1/3;
 99/12=1/99;
 Leave Link    1 at Wed Mar  8 13:58:47 2023, MaxMem=  2684354560 cpu:               1.0 elap:               0.1
 (Enter /opt/gaussian/g16/l101.exe)
 ----------------------------------------------------------------------
 Gaussian run using SANDER external interface, route from template gau_
 job.tpl
 ----------------------------------------------------------------------
 Symbolic Z-matrix:
 Charge =  0 Multiplicity = 1
 C                     3.44606  -3.55177  -0.83553 
 H                     3.40772  -3.62706  -1.93051 
 H                     4.40623  -3.92948  -0.45522 
 C                     1.60064  -1.20916   0.98724 
 H                     0.87549  -2.0516    1.01006 
 O                     1.29826  -0.3633    2.07864 
 H                     0.4034    0.02363   2.04085 
 C                     3.07642  -1.70531   1.0324 
 H                     3.26035  -2.54237   1.73805 
 O                     3.87518  -0.60576   1.44645 
 H                     4.8265   -0.77585   1.37005 
 C                     1.60747  -0.4567   -0.36692 
 H                     2.20916   0.47024  -0.28587 
 C                     3.38972  -2.04085  -0.47379 
 H                     4.31106  -1.53091  -0.8239 
 O                     2.30982  -1.39433  -1.20641 
 N                     0.33778  -0.13987  -0.93017 
 C                    -0.53374  -1.18801  -1.30777 
 H                    -0.10637  -2.17352  -1.14497 
 C                    -1.70922  -0.94111  -1.84599 
 H                    -2.33666  -1.77169  -2.16765 
 C                    -2.23051   0.47811  -2.06894 
 H                    -2.77562   0.53846  -3.02442 
 H                    -2.93261   0.77675  -1.23894 
 C                    -1.0382    1.4583   -2.03925 
 C                     0.12121   1.12862  -1.47104 
 H                     0.9804    1.79801  -1.43391 
 C                    -1.23882   2.8345   -2.54933 
 O                    -0.83925   3.81474  -1.97617 
 N                    -2.05695   2.9975   -3.64413 
 H                    -2.00017   3.92948  -4.02283 
 H                    -2.0523    2.24563  -4.31149 
 C                     0.94791   2.17042   3.79236 
 C                    -0.93802   2.18269   1.7808 
 C                    -1.85716   2.82253   0.84001 
 C                    -4.07576   3.1048   -0.30772 
 C                    -3.09011   2.37486   0.58335 
 O                    -0.99407   0.99305   2.11808 
 S                     0.22283   3.22879   2.48624 
 H                     0.11111   1.68324   4.31149 
 H                     1.58561   1.41301   3.31371 
 H                    -4.8265    2.4048   -0.69183 
 H                    -3.54258   3.60308  -1.12765 
 H                    -4.59409   3.87419   0.2843 
 H                    -3.46066   1.48696   1.11532 
 H                    -1.47166   3.73143   0.36573 
 H                     2.60688  -4.08159  -0.38481 
 H                     1.5352    2.76997   4.48786 
 
 ITRead=  0  0  0  0  0  0  0  0  0  0  0  0  0  0  0  0  0  0  0  0
 ITRead=  0  0  0  0  0  0  0  0  0  0  0  0  0  0  0  0  0  0  0  0
 ITRead=  0  0  0  0  0  0  0  0
 MicOpt= -1 -1 -1 -1 -1 -1 -1 -1 -1 -1 -1 -1 -1 -1 -1 -1 -1 -1 -1 -1
 MicOpt= -1 -1 -1 -1 -1 -1 -1 -1 -1 -1 -1 -1 -1 -1 -1 -1 -1 -1 -1 -1
 MicOpt= -1 -1 -1 -1 -1 -1 -1 -1
 NAtoms=     48 NQM=       48 NQMF=       0 NMMI=      0 NMMIF=      0
                NMic=       0 NMicF=      0.
                    Isotopes and Nuclear Properties:
 (Nuclear quadrupole moments (NQMom) in fm**2, nuclear magnetic moments (NMagM)
  in nuclear magnetons)

  Atom         1           2           3           4           5           6           7           8           9          10
 IAtWgt=          12           1           1          12           1          16           1          12           1          16
 AtmWgt=  12.0000000   1.0078250   1.0078250  12.0000000   1.0078250  15.9949146   1.0078250  12.0000000   1.0078250  15.9949146
 NucSpn=           0           1           1           0           1           0           1           0           1           0
 AtZEff=  -0.0000000  -0.0000000  -0.0000000  -0.0000000  -0.0000000  -0.0000000  -0.0000000  -0.0000000  -0.0000000  -0.0000000
 NQMom=    0.0000000   0.0000000   0.0000000   0.0000000   0.0000000   0.0000000   0.0000000   0.0000000   0.0000000   0.0000000
 NMagM=    0.0000000   2.7928460   2.7928460   0.0000000   2.7928460   0.0000000   2.7928460   0.0000000   2.7928460   0.0000000
 AtZNuc=   6.0000000   1.0000000   1.0000000   6.0000000   1.0000000   8.0000000   1.0000000   6.0000000   1.0000000   8.0000000

  Atom        11          12          13          14          15          16          17          18          19          20
 IAtWgt=           1          12           1          12           1          16          14          12           1          12
 AtmWgt=   1.0078250  12.0000000   1.0078250  12.0000000   1.0078250  15.9949146  14.0030740  12.0000000   1.0078250  12.0000000
 NucSpn=           1           0           1           0           1           0           2           0           1           0
 AtZEff=  -0.0000000  -0.0000000  -0.0000000  -0.0000000  -0.0000000  -0.0000000  -0.0000000  -0.0000000  -0.0000000  -0.0000000
 NQMom=    0.0000000   0.0000000   0.0000000   0.0000000   0.0000000   0.0000000   2.0440000   0.0000000   0.0000000   0.0000000
 NMagM=    2.7928460   0.0000000   2.7928460   0.0000000   2.7928460   0.0000000   0.4037610   0.0000000   2.7928460   0.0000000
 AtZNuc=   1.0000000   6.0000000   1.0000000   6.0000000   1.0000000   8.0000000   7.0000000   6.0000000   1.0000000   6.0000000

  Atom        21          22          23          24          25          26          27          28          29          30
 IAtWgt=           1          12           1           1          12          12           1          12          16          14
 AtmWgt=   1.0078250  12.0000000   1.0078250   1.0078250  12.0000000  12.0000000   1.0078250  12.0000000  15.9949146  14.0030740
 NucSpn=           1           0           1           1           0           0           1           0           0           2
 AtZEff=  -0.0000000  -0.0000000  -0.0000000  -0.0000000  -0.0000000  -0.0000000  -0.0000000  -0.0000000  -0.0000000  -0.0000000
 NQMom=    0.0000000   0.0000000   0.0000000   0.0000000   0.0000000   0.0000000   0.0000000   0.0000000   0.0000000   2.0440000
 NMagM=    2.7928460   0.0000000   2.7928460   2.7928460   0.0000000   0.0000000   2.7928460   0.0000000   0.0000000   0.4037610
 AtZNuc=   1.0000000   6.0000000   1.0000000   1.0000000   6.0000000   6.0000000   1.0000000   6.0000000   8.0000000   7.0000000

  Atom        31          32          33          34          35          36          37          38          39          40
 IAtWgt=           1           1          12          12          12          12          12          16          32           1
 AtmWgt=   1.0078250   1.0078250  12.0000000  12.0000000  12.0000000  12.0000000  12.0000000  15.9949146  31.9720718   1.0078250
 NucSpn=           1           1           0           0           0           0           0           0           0           1
 AtZEff=  -0.0000000  -0.0000000  -0.0000000  -0.0000000  -0.0000000  -0.0000000  -0.0000000  -0.0000000  -0.0000000  -0.0000000
 NQMom=    0.0000000   0.0000000   0.0000000   0.0000000   0.0000000   0.0000000   0.0000000   0.0000000   0.0000000   0.0000000
 NMagM=    2.7928460   2.7928460   0.0000000   0.0000000   0.0000000   0.0000000   0.0000000   0.0000000   0.0000000   2.7928460
 AtZNuc=   1.0000000   1.0000000   6.0000000   6.0000000   6.0000000   6.0000000   6.0000000   8.0000000  16.0000000   1.0000000

  Atom        41          42          43          44          45          46          47          48
 IAtWgt=           1           1           1           1           1           1           1           1
 AtmWgt=   1.0078250   1.0078250   1.0078250   1.0078250   1.0078250   1.0078250   1.0078250   1.0078250
 NucSpn=           1           1           1           1           1           1           1           1
 AtZEff=  -0.0000000  -0.0000000  -0.0000000  -0.0000000  -0.0000000  -0.0000000  -0.0000000  -0.0000000
 NQMom=    0.0000000   0.0000000   0.0000000   0.0000000   0.0000000   0.0000000   0.0000000   0.0000000
 NMagM=    2.7928460   2.7928460   2.7928460   2.7928460   2.7928460   2.7928460   2.7928460   2.7928460
 AtZNuc=   1.0000000   1.0000000   1.0000000   1.0000000   1.0000000   1.0000000   1.0000000   1.0000000
 Background charge distribution read from input stream:
 Leave Link  101 at Wed Mar  8 13:58:48 2023, MaxMem=  2684354560 cpu:               4.8 elap:               0.3
 (Enter /opt/gaussian/g16/l103.exe)

 GradGradGradGradGradGradGradGradGradGradGradGradGradGradGradGradGradGrad
 Berny optimization.
 Initialization pass.
 Trust Radius=3.00D-01 FncErr=1.00D-07 GrdErr=1.00D-07 EigMax=2.50D+02 EigMin=1.00D-04
 Number of steps in this run=      2 maximum allowed number of steps=      2.
 GradGradGradGradGradGradGradGradGradGradGradGradGradGradGradGradGradGrad

 Leave Link  103 at Wed Mar  8 13:58:48 2023, MaxMem=  2684354560 cpu:               0.5 elap:               0.0
 (Enter /opt/gaussian/g16/l202.exe)
 ---------------------------------------------------------------------------------------------------
                            Z-MATRIX (ANGSTROMS AND DEGREES)
   CD    Cent   Atom    N1       Length/X        N2       Alpha/Y        N3        Beta/Z          J
 ---------------------------------------------------------------------------------------------------
      1      1  C        0   3.446064         -3.551769         -0.835527
      2      2  H        0   3.407717         -3.627060         -1.930509
      3      3  H        0   4.406234         -3.929478         -0.455221
      4      4  C        0   1.600638         -1.209161          0.987242
      5      5  H        0   0.875488         -2.051604          1.010059
      6      6  O        0   1.298261         -0.363297          2.078637
      7      7  H        0   0.403398          0.023634          2.040853
      8      8  C        0   3.076415         -1.705306          1.032400
      9      9  H        0   3.260354         -2.542373          1.738054
     10     10  O        0   3.875179         -0.605757          1.446446
     11     11  H        0   4.826500         -0.775851          1.370048
     12     12  C        0   1.607473         -0.456703         -0.366919
     13     13  H        0   2.209160          0.470239         -0.285866
     14     14  C        0   3.389716         -2.040855         -0.473788
     15     15  H        0   4.311060         -1.530909         -0.823900
     16     16  O        0   2.309818         -1.394326         -1.206410
     17     17  N        0   0.337782         -0.139867         -0.930165
     18     18  C        0  -0.533744         -1.188015         -1.307771
     19     19  H        0  -0.106367         -2.173517         -1.144968
     20     20  C        0  -1.709217         -0.941108         -1.845987
     21     21  H        0  -2.336662         -1.771693         -2.167648
     22     22  C        0  -2.230513          0.478108         -2.068940
     23     23  H        0  -2.775621          0.538460         -3.024422
     24     24  H        0  -2.932608          0.776750         -1.238939
     25     25  C        0  -1.038197          1.458297         -2.039252
     26     26  C        0   0.121207          1.128615         -1.471040
     27     27  H        0   0.980399          1.798013         -1.433912
     28     28  C        0  -1.238815          2.834496         -2.549325
     29     29  O        0  -0.839247          3.814735         -1.976174
     30     30  N        0  -2.056949          2.997497         -3.644127
     31     31  H        0  -2.000172          3.929478         -4.022829
     32     32  H        0  -2.052297          2.245628         -4.311485
     33     33  C        0   0.947906          2.170418          3.792359
     34     34  C        0  -0.938016          2.182685          1.780798
     35     35  C        0  -1.857163          2.822529          0.840014
     36     36  C        0  -4.075755          3.104805         -0.307721
     37     37  C        0  -3.090112          2.374864          0.583354
     38     38  O        0  -0.994070          0.993047          2.118079
     39     39  S        0   0.222830          3.228795          2.486239
     40     40  H        0   0.111105          1.683236          4.311485
     41     41  H        0   1.585605          1.413010          3.313710
     42     42  H        0  -4.826500          2.404802         -0.691827
     43     43  H        0  -3.542579          3.603085         -1.127647
     44     44  H        0  -4.594087          3.874195          0.284296
     45     45  H        0  -3.460659          1.486960          1.115322
     46     46  H        0  -1.471657          3.731434          0.365727
     47     47  H        0   2.606876         -4.081593         -0.384806
     48     48  H        0   1.535204          2.769968          4.487860
 ---------------------------------------------------------------------------------------------------
                         Z-Matrix orientation:                         
 ---------------------------------------------------------------------
 Center     Atomic      Atomic             Coordinates (Angstroms)
 Number     Number       Type             X           Y           Z
 ---------------------------------------------------------------------
      1          6           0        3.446064   -3.551769   -0.835527
      2          1           0        3.407717   -3.627060   -1.930509
      3          1           0        4.406234   -3.929478   -0.455221
      4          6           0        1.600638   -1.209161    0.987242
      5          1           0        0.875488   -2.051604    1.010059
      6          8           0        1.298261   -0.363297    2.078637
      7          1           0        0.403398    0.023634    2.040853
      8          6           0        3.076415   -1.705306    1.032400
      9          1           0        3.260354   -2.542373    1.738054
     10          8           0        3.875179   -0.605757    1.446446
     11          1           0        4.826500   -0.775851    1.370048
     12          6           0        1.607473   -0.456703   -0.366919
     13          1           0        2.209160    0.470239   -0.285866
     14          6           0        3.389716   -2.040855   -0.473788
     15          1           0        4.311060   -1.530909   -0.823900
     16          8           0        2.309818   -1.394326   -1.206410
     17          7           0        0.337782   -0.139867   -0.930165
     18          6           0       -0.533744   -1.188015   -1.307771
     19          1           0       -0.106367   -2.173517   -1.144968
     20          6           0       -1.709217   -0.941108   -1.845987
     21          1           0       -2.336662   -1.771693   -2.167648
     22          6           0       -2.230513    0.478108   -2.068940
     23          1           0       -2.775621    0.538460   -3.024422
     24          1           0       -2.932608    0.776750   -1.238939
     25          6           0       -1.038197    1.458297   -2.039252
     26          6           0        0.121207    1.128615   -1.471040
     27          1           0        0.980399    1.798013   -1.433912
     28          6           0       -1.238815    2.834496   -2.549325
     29          8           0       -0.839247    3.814735   -1.976174
     30          7           0       -2.056949    2.997497   -3.644127
     31          1           0       -2.000172    3.929478   -4.022829
     32          1           0       -2.052297    2.245628   -4.311485
     33          6           0        0.947906    2.170418    3.792359
     34          6           0       -0.938016    2.182685    1.780798
     35          6           0       -1.857163    2.822529    0.840014
     36          6           0       -4.075755    3.104805   -0.307721
     37          6           0       -3.090112    2.374864    0.583354
     38          8           0       -0.994070    0.993047    2.118079
     39         16           0        0.222830    3.228795    2.486239
     40          1           0        0.111105    1.683236    4.311485
     41          1           0        1.585605    1.413010    3.313710
     42          1           0       -4.826500    2.404802   -0.691827
     43          1           0       -3.542579    3.603085   -1.127647
     44          1           0       -4.594087    3.874195    0.284296
     45          1           0       -3.460659    1.486960    1.115322
     46          1           0       -1.471657    3.731434    0.365727
     47          1           0        2.606876   -4.081593   -0.384806
     48          1           0        1.535204    2.769968    4.487860
 ---------------------------------------------------------------------
                    Distance matrix (angstroms):
                    1          2          3          4          5
     1  C    0.000000
     2  H    1.098237   0.000000
     3  H    1.099646   1.806922   0.000000
     4  C    3.495124   4.198218   4.165595   0.000000
     5  H    3.502077   4.188220   4.259063   1.111789   0.000000
     6  O    4.824082   5.583476   5.366337   1.413529   2.042297
     7  H    5.505895   6.174561   6.154686   2.015754   2.364744
     8  C    2.652398   3.547073   2.988038   1.557600   2.228116
     9  H    2.770683   3.828396   2.836821   2.257394   2.541341
    10  O    3.751070   4.555284   3.865938   2.397603   3.358431
    11  H    3.804718   4.586503   3.667913   3.277267   4.167449
    12  C    3.630350   3.966970   4.461056   1.549191   2.230601
    13  H    4.243655   4.574849   4.920703   2.193510   3.133336
    14  C    1.554636   2.153696   2.144889   2.455019   2.919462
    15  H    2.198233   2.536624   2.428603   3.275690   3.929082
    16  O    2.466409   2.591294   3.374350   2.312862   2.720671
    17  N    4.616432   4.752441   5.580234   2.532715   2.776389
    18  C    4.652873   4.676736   5.713654   3.134186   2.846763
    19  H    3.822971   3.883124   4.891086   2.896579   2.371296
    20  C    5.866303   5.779662   6.947181   4.365110   4.008853
    21  H    6.195413   6.041234   7.283892   5.076624   4.527039
    22  C    7.069989   6.975758   8.128795   5.183131   5.052417
    23  H    7.760838   7.535375   8.839813   6.188641   6.026281
    24  H    7.719214   7.750582   8.753364   5.426789   5.249682
    25  C    6.830689   6.755651   7.821706   4.820627   5.027911
    26  C    5.776205   5.799026   6.706537   3.700955   4.103485
    27  H    5.920957   5.964050   6.745245   3.910215   4.561091
    28  C    8.103677   7.982788   9.055561   6.076263   6.404176
    29  O    8.598276   8.568495   9.476350   6.322532   6.802341
    30  N    9.003570   8.756929   9.996241   7.247310   7.466864
    31  H    9.787208   9.524932  10.748630   8.029462   8.329029
    32  H    8.713442   8.364763   9.732179   7.304520   7.440225
    33  C    7.771843   8.509561   8.198212   4.440304   5.056867
    34  C    7.677844   8.149376   8.421361   4.310350   4.670336
    35  C    8.459511   8.774506   9.300396   5.313435   5.590480
    36  C   10.058147  10.195773  11.020300   7.246287   7.269106
    37  C    8.936431   9.195889   9.849800   5.917052   5.958329
    38  O    7.006706   7.557260   7.747025   3.586227   3.740702
    39  S    8.209714   8.755222   8.797381   4.882704   5.521565
    40  H    8.063433   8.833424   8.524797   4.651372   5.043087
    41  H    6.732496   7.498282   7.120601   3.505490   4.220738
    42  H   10.194935  10.282024  11.199217   7.562282   7.434288
    43  H   10.005919  10.061123  10.971567   7.354125   7.487630
    44  H   11.001953  11.189417  11.935240   8.044207   8.096794
    45  H    8.769118   9.088722   9.679484   5.736045   5.597739
    46  H    8.869725   9.122961   9.690878   5.851047   6.274374
    47  H    1.090000   1.799206   1.807149   3.338546   3.010682
    48  H    8.482581   9.253309   8.806783   5.300196   5.981461
                    6          7          8          9         10
     6  O    0.000000
     7  H    0.975665   0.000000
     8  C    2.461186   3.339346   0.000000
     9  H    2.951979   3.852048   1.110163   0.000000
    10  O    2.664388   3.578088   1.420728   2.052688   0.000000
    11  H    3.622261   4.544556   2.010147   2.389318   0.969422
    12  C    2.466797   2.734573   2.382204   3.393073   2.907405
    13  H    2.667470   2.978901   2.687555   3.778504   2.633304
    14  C    3.701792   4.416291   1.574596   2.271673   2.445910
    15  H    4.343386   5.088540   2.236205   2.947991   2.490054
    16  O    3.588566   4.023650   2.386766   3.300212   3.179598
    17  N    3.166281   2.976237   3.715154   4.629562   4.287016
    18  C    3.937532   3.682337   4.333271   5.050397   5.230998
    19  H    3.954934   3.903432   3.884618   4.447772   5.002600
    20  C    4.978098   4.527846   5.636611   6.332932   6.491383
    21  H    5.764303   5.333162   6.288571   6.868409   7.280663
    22  C    5.510227   4.902493   6.522967   7.332539   7.128266
    23  H    6.591729   6.002351   7.465830   8.282856   8.095124
    24  H    5.496023   4.738476   6.886794   7.630978   7.447723
    25  C    5.072894   4.558915   6.031041   6.982187   6.368019
    26  C    4.026346   3.692426   4.799122   5.799024   5.060837
    27  H    4.136460   3.944026   4.769615   5.839393   4.738599
    28  C    6.170954   5.627392   7.215246   8.217959   7.345370
    29  O    6.202127   5.661548   7.406402   8.427042   7.313063
    30  N    7.436558   6.871402   8.386757   9.377192   8.607410
    31  H    8.156927   7.602697   9.114706  10.136358   9.219603
    32  H    7.672443   7.163790   8.394681   9.367290   8.741804
    33  C    3.078847   2.823641   5.212405   5.637196   4.666839
    34  C    3.401715   2.555098   5.638461   6.320942   5.572616
    35  C    4.651921   3.792884   6.699141   7.468442   6.706761
    36  C    6.826601   5.922181   8.722765   9.481261   8.947778
    37  C    5.384349   4.456142   7.407799   8.114245   7.625242
    38  O    2.663833   1.702540   5.002865   5.544703   5.168835
    39  S    3.771712   3.240992   5.882342   6.564503   5.396722
    40  H    3.253190   2.827629   5.570250   5.864817   5.255111
    41  H    2.182484   2.224443   4.141351   4.575208   3.578302
    42  H    7.269837   6.363123   9.073148   9.786524   9.452772
    43  H    7.031797   6.198597   8.755336   9.605144   8.908616
    44  H    7.476347   6.548830   9.514573  10.245877   9.651375
    45  H    5.196032   4.234250   7.275354   7.861001   7.635681
    46  H    5.231952   4.479917   7.119519   7.977208   6.969062
    47  H    4.648306   5.252811   2.806364   2.702363   4.128379
    48  H    3.959525   3.848529   5.860342   6.225635   5.110890
                   11         12         13         14         15
    11  H    0.000000
    12  C    3.671654   0.000000
    13  H    3.338452   1.108069   0.000000
    14  C    2.657877   2.386912   2.781118   0.000000
    15  H    2.376804   2.944849   2.951620   1.109729   0.000000
    16  O    3.654358   1.441239   2.081858   1.456336   2.042043
    17  N    5.083703   1.424691   2.071088   3.624408   4.211084
    18  C    6.006064   2.450475   3.364166   4.100781   4.880966
    19  H    5.710688   2.547559   3.617895   3.562398   4.475455
    20  C    7.285999   3.663703   4.447421   5.393653   6.134840
    21  H    8.050956   4.530787   5.406650   5.977710   6.786446
    22  C    7.949873   4.301265   4.784361   6.362127   6.955462
    23  H    8.878684   5.221511   5.687915   7.153320   7.703612
    24  H    8.331934   4.784784   5.238327   6.963916   7.613689
    25  C    7.142087   3.669263   3.820464   5.856718   6.247158
    26  C    5.817091   2.437478   2.489506   4.660815   5.004670
    27  H    5.411050   2.572049   2.142626   4.632877   4.748383
    28  C    8.073669   4.867878   4.754102   7.035638   7.268766
    29  O    8.023177   5.178931   4.830692   7.377617   7.511945
    30  N    9.314611   6.008292   5.988709   8.068593   8.307327
    31  H    9.890738   6.754210   6.606792   8.791556   8.937596
    32  H    9.419501   6.021304   6.125163   7.919429   8.180329
    33  C    5.439815   4.963506   4.594920   6.472809   6.805915
    34  C    6.492403   4.249538   4.136217   6.453736   6.937437
    35  C    7.609246   4.920747   4.830720   7.273810   7.730977
    36  C    9.855179   6.707229   6.814805   9.068553   9.596612
    37  C    8.556789   5.566695   5.697844   7.912288   8.486034
    38  O    6.129240   3.878791   4.038931   5.927893   6.570388
    39  S    6.202971   4.862164   4.386308   6.823498   7.094042
    40  H    6.077344   5.357791   5.197002   6.893256   7.371739
    41  H    4.367189   4.128358   3.772875   5.434072   5.763210
    42  H   10.370549   7.049098   7.308067   9.344389   9.949988
    43  H    9.770110   6.601789   6.603470   8.963164   9.387748
    44  H   10.561688   7.592108   7.628641   9.965120  10.475920
    45  H    8.594312   5.626796   5.928229   7.867553   8.559658
    46  H    7.809677   5.249600   4.960683   7.593223   7.908684
    47  H    4.351341   3.760180   4.570245   2.187548   3.098876
    48  H    5.755538   5.829709   5.341482   7.155500   7.376836
                   16         17         18         19         20
    16  O    0.000000
    17  N    2.353487   0.000000
    18  C    2.852837   1.414481   0.000000
    19  H    2.539461   2.092639   1.086448   0.000000
    20  C    4.094766   2.381370   1.316198   2.139950   0.000000
    21  H    4.759849   3.368512   2.081006   2.486273   1.089507
    22  C    4.986438   2.876603   2.496872   3.520913   1.528277
    23  H    5.736071   3.813046   3.309625   4.244064   2.171416
    24  H    5.674297   3.410422   3.101545   4.086629   2.194590
    25  C    4.476637   2.382755   2.791505   3.854623   2.498953
    26  C    3.350414   1.395886   2.412963   3.325987   2.788332
    27  H    3.465564   2.102878   3.350358   4.127662   3.860909
    28  C    5.681474   3.735529   4.268392   5.323049   3.869257
    29  O    6.135427   4.256573   5.056441   6.089924   4.836511
    30  N    6.655766   4.789925   5.029634   6.065472   4.343597
    31  H    7.406154   5.620513   5.975841   7.008218   5.342837
    32  H    6.474472   4.778743   4.808139   5.774280   4.043720
    33  C    6.288871   5.292627   6.283763   6.660215   6.966552
    34  C    5.680391   3.790941   4.589587   5.313025   4.848340
    35  C    6.271638   4.089879   4.738025   5.653840   4.626170
    36  C    7.862910   5.513134   5.654577   6.657154   4.933171
    37  C    6.824170   4.512768   4.775508   5.707679   4.336386
    38  O    5.259986   3.514131   4.087221   4.632776   4.468356
    39  S    6.274107   4.799262   5.871551   6.517591   6.315780
    40  H    6.689760   5.554276   6.343181   6.685410   6.936513
    41  H    5.370019   4.688173   5.710959   5.967056   6.558979
    42  H    8.100938   5.762114   5.631649   6.591357   4.716424
    43  H    7.696159   5.394988   5.660404   6.721382   4.952466
    44  H    8.811550   6.473867   6.681843   7.665327   6.003976
    45  H    6.854973   4.610721   4.646903   5.455206   4.210988
    46  H    6.560836   4.465465   5.280270   6.246171   5.175013
    47  H    2.825718   4.580764   4.368999   3.402982   5.534108
    48  H    7.096906   6.265457   7.316796   7.672128   8.025956
                   21         22         23         24         25
    21  H    0.000000
    22  C    2.254466   0.000000
    23  H    2.502710   1.101694   0.000000
    24  H    2.777087   1.127398   1.808141   0.000000
    25  C    3.483581   1.543784   2.198932   2.166518   0.000000
    26  C    3.864994   2.512217   3.339595   3.082769   1.332581
    27  H    4.927886   3.529216   4.268943   4.048779   2.134612
    28  C    4.750571   2.601307   2.803439   2.969910   1.481333
    29  O    5.786804   3.616256   3.947448   3.762317   2.365663
    30  N    5.000340   2.976350   2.635789   3.388720   2.445939
    31  H    6.004854   3.972744   3.618997   4.308036   3.311602
    32  H    4.562430   2.860926   2.257023   3.517541   2.609853
    33  C    7.864498   6.879033   7.937030   6.504972   6.201565
    34  C    5.760516   4.404159   5.400963   3.882507   3.889416
    35  C    5.512062   3.754692   4.581964   3.108672   3.289682
    36  C    5.501273   3.661468   3.956885   2.755684   3.864705
    37  C    5.032856   3.372130   4.060460   2.428895   3.453768
    38  O    5.273879   4.396030   5.461308   3.882561   4.183516
    39  S    7.294830   5.859592   6.826125   5.463173   5.020449
    40  H    7.739979   6.902560   7.966130   6.394772   6.457813
    41  H    7.454650   6.664062   7.743194   6.445594   5.961593
    42  H    5.081383   3.513935   3.623580   2.556700   4.130698
    43  H    5.605719   3.517532   3.684821   2.893548   3.420975
    44  H    6.556222   4.760001   5.038011   3.830787   4.886696
    45  H    4.760261   3.559575   4.301908   2.515111   3.977497
    46  H    6.119692   4.133715   4.836167   3.665991   3.337508
    47  H    5.740447   6.857660   7.568601   7.417473   6.834773
    48  H    8.939453   7.900941   8.944116   7.531964   7.137651
                   26         27         28         29         30
    26  C    0.000000
    27  H    1.089808   0.000000
    28  C    2.433596   2.691348   0.000000
    29  O    2.897046   2.769897   1.203755   0.000000
    30  N    3.599915   3.943259   1.376410   2.220978   0.000000
    31  H    4.342431   4.486584   1.987426   2.355782   1.007585
    32  H    3.746994   4.204524   2.028232   3.063865   1.005334
    33  C    5.428826   5.239624   6.740898   6.258887   8.063159
    34  C    3.578752   3.763330   4.389226   4.097338   5.598726
    35  C    3.481991   3.777847   3.445304   3.154606   4.491998
    36  C    4.782586   5.342350   3.625753   3.709814   3.901115
    37  C    4.010766   4.579430   3.667730   3.700108   4.396214
    38  O    3.760850   4.142842   5.023494   4.974816   6.192782
    39  S    4.481198   4.241301   5.258211   4.624333   6.544637
    40  H    5.809071   5.811922   7.086494   6.706796   8.349821
    41  H    5.011903   4.801502   6.661318   6.295321   8.011885
    42  H    5.168717   5.885487   4.062809   4.419914   4.091182
    43  H    4.434439   4.879489   2.814112   2.841267   2.984377
    44  H    5.731790   6.191742   4.513118   4.383159   4.757959
    45  H    4.432544   5.130141   4.492447   4.674150   5.186953
    46  H    3.561684   3.604081   3.058798   2.427217   4.118272
    47  H    5.874072   6.189976   8.204070   8.761290   9.082287
    48  H    6.340498   6.026599   7.564477   6.965148   8.892949
                   31         32         33         34         35
    31  H    0.000000
    32  H    1.709208   0.000000
    33  C    8.535961   8.641711   0.000000
    34  C    6.153173   6.193666   2.757396   0.000000
    35  C    4.989291   5.187373   4.124319   1.462636   0.000000
    36  C    4.334761   4.567570   6.551405   3.880415   2.513787
    37  C    4.982140   5.005319   5.161889   2.470287   1.336578
    38  O    6.880815   6.635367   2.821469   1.237796   2.392777
    39  S    6.913802   7.235459   1.830805   1.714513   2.683557
    40  H    8.886163   8.907986   1.098669   2.784687   4.150082
    41  H    8.544894   8.489475   1.099741   3.051374   4.467501
    42  H    4.626915   4.563274   7.314823   4.613406   3.367194
    43  H    3.296609   3.768350   6.813476   4.154556   2.705843
    44  H    5.028198   5.498558   6.776655   4.297392   2.984222
    45  H    5.873628   5.657676   5.202796   2.700114   2.104932
    46  H    4.424701   4.941769   4.475808   2.164675   1.095295
    47  H    9.931634   8.784100   7.699904   7.516467   8.312323
    48  H    9.288443   9.517014   1.090000   3.713476   4.981736
                   36         37         38         39         40
    36  C    0.000000
    37  C    1.516022   0.000000
    38  O    4.454302   2.942480   0.000000
    39  S    5.128296   3.914811   2.571955   0.000000
    40  H    6.394351   4.962368   2.551236   2.394318   0.000000
    41  H    6.930219   5.499303   2.874131   2.416390   1.800757
    42  H    1.095974   2.154536   4.957433   6.022856   7.066381
    43  H    1.097651   2.154246   4.882820   5.232453   6.827839
    44  H    1.100506   2.144614   4.962247   5.335521   6.569428
    45  H    2.240718   1.099395   2.708049   4.299010   4.797028
    46  H    2.761797   2.122979   3.285968   2.760525   4.719031
    47  H    9.813654   8.664805   6.706953   8.207822   7.843295
    48  H    7.388679   6.065873   3.894937   2.437075   1.800042
                   41         42         43         44         45
    41  H    0.000000
    42  H    7.625160   0.000000
    43  H    7.128840   1.809496   0.000000
    44  H    7.309130   1.779311   1.781223   0.000000
    45  H    5.504831   2.444124   3.084738   2.770226   0.000000
    46  H    4.838651   3.759434   2.556435   3.126753   3.091227
    47  H    6.701692   9.870291   9.870252  10.751563   8.371030
    48  H    1.795133   8.211807   7.616553   7.513819   6.162691
                   46         47         48
    46  H    0.000000
    47  H    8.845400   0.000000
    48  H    5.192071   8.475567   0.000000
 Symmetry turned off by external request.
 Stoichiometry    C16H24N2O5S
 Framework group  C1[X(C16H24N2O5S)]
 Deg. of freedom   138
 Full point group                 C1      NOp   1
 Rotational constants (GHZ):           0.2862293           0.1680464           0.1250121
 Leave Link  202 at Wed Mar  8 13:58:48 2023, MaxMem=  2684354560 cpu:               0.1 elap:               0.0
 (Enter /opt/gaussian/g16/l301.exe)
 Standard basis: def2TZVP (5D, 7F)
 Ernie: Thresh=  0.10000D-02 Tol=  0.10000D-05 Strict=F.
   894 basis functions,  1434 primitive gaussians,  1014 cartesian basis functions
    95 alpha electrons       95 beta electrons
       nuclear repulsion energy      2425.1492008909 Hartrees.
 IExCor= 4336 DFT=T Ex+Corr=M062X ExCW=0 ScaHFX=  0.540000
 ScaDFX=  1.000000  1.000000  1.000000  1.000000 ScalE2=  1.000000  1.000000
 IRadAn=      5 IRanWt=     -1 IRanGd=            0 ICorTp=0 IEmpDi=131
 NAtoms=   48 NActive=   48 NUniq=   48 SFac= 1.00D+00 NAtFMM=   60 NAOKFM=F Big=F
 Integral buffers will be    131072 words long.
 Raffenetti 2 integral format.
 Two-electron integral symmetry is turned off.
 R6Disp:  Grimme-D3 Dispersion energy=       -0.0042201284 Hartrees.
 Nuclear repulsion after empirical dispersion term =     2425.1449807625 Hartrees.
 Leave Link  301 at Wed Mar  8 13:58:48 2023, MaxMem=  2684354560 cpu:               1.1 elap:               0.1
 (Enter /opt/gaussian/g16/l302.exe)
 NPDir=0 NMtPBC=     1 NCelOv=     1 NCel=       1 NClECP=     1 NCelD=      1
         NCelK=      1 NCelE2=     1 NClLst=     1 CellRange=     0.0.
 One-electron integrals computed using PRISM.
   1 Symmetry operations used in ECPInt.
 ECPInt:  NShTT=   65703 NPrTT=  200010 LenC2=   56004 LenP2D=  118293.
 LDataN:  DoStor=T MaxTD1= 6 Len=  172
 NBasis=   894 RedAO= T EigKep=  3.32D-05  NBF=   894
 NBsUse=   894 1.00D-06 EigRej= -1.00D+00 NBFU=   894
 Precomputing XC quadrature grid using
 IXCGrd= 4 IRadAn=           5 IRanWt=          -1 IRanGd=           0 AccXCQ= 0.00D+00.
 Generated NRdTot=       0 NPtTot=           0 NUsed=           0 NTot=          32
 NSgBfM=   999   999   999   999   999 MxSgAt=    48 MxSgA2=    48.
 Leave Link  302 at Wed Mar  8 13:58:50 2023, MaxMem=  2684354560 cpu:              36.5 elap:               2.3
 (Enter /opt/gaussian/g16/l303.exe)
 DipDrv:  MaxL=1.
 Leave Link  303 at Wed Mar  8 13:58:50 2023, MaxMem=  2684354560 cpu:               4.5 elap:               0.3
 (Enter /opt/gaussian/g16/l401.exe)
 ExpMin= 9.52D-02 ExpMax= 6.07D+04 ExpMxC= 2.07D+03 IAcc=3 IRadAn=         5 AccDes= 0.00D+00
 Harris functional with IExCor= 1009 and IRadAn=       5 diagonalized for initial guess.
 HarFok:  IExCor= 1009 AccDes= 0.00D+00 IRadAn=         5 IDoV= 1 UseB2=F ITyADJ=14
 ICtDFT=  3500011 ScaDFX=  1.000000  1.000000  1.000000  1.000000
 FoFCou: FMM=F IPFlag=           0 FMFlag=      100000 FMFlg1=           0
         NFxFlg=           0 DoJE=T BraDBF=F KetDBF=T FulRan=T
         wScrn=  0.000000 ICntrl=       500 IOpCl=  0 I1Cent=   200000004 NGrid=           0
         NMat0=    1 NMatS0=      1 NMatT0=    0 NMatD0=    1 NMtDS0=    0 NMtDT0=    0
 Symmetry not used in FoFCou.
 Harris En= -1507.21417793126    
 JPrj=0 DoOrth=F DoCkMO=F.
 Leave Link  401 at Wed Mar  8 13:58:59 2023, MaxMem=  2684354560 cpu:             130.5 elap:               8.2
 (Enter /opt/gaussian/g16/l502.exe)
 Two-electron integral symmetry not used.
 Closed shell SCF:
 Using DIIS extrapolation, IDIIS=  1040.
 NGot=  2684354560 LenX=  2682275214 LenY=  2681246004
 Requested convergence on RMS density matrix=1.00D-08 within 128 cycles.
 Requested convergence on MAX density matrix=1.00D-06.
 Requested convergence on             energy=1.00D-06.
 No special actions if energy rises.
 Fock matrices will be formed incrementally for  20 cycles.
 Integral accuracy reduced to 1.0D-05 until final iterations.

 Cycle   1  Pass 0  IDiag  1:
 FoFJK:  IHMeth= 1 ICntrl=       0 DoSepK=F KAlg= 0 I1Cent=           0 FoldK=F
 IRaf= 780000000 NMat=       1 IRICut=       1 DoRegI=T DoRafI=F ISym2E= 0 IDoP0=0 IntGTp=1.
 FoFCou: FMM=F IPFlag=           0 FMFlag=      100000 FMFlg1=           0
         NFxFlg=           0 DoJE=F BraDBF=F KetDBF=F FulRan=T
         wScrn=  0.000000 ICntrl=         0 IOpCl=  0 I1Cent=           0 NGrid=           0
         NMat0=    1 NMatS0=      1 NMatT0=    0 NMatD0=    1 NMtDS0=    0 NMtDT0=    0
 Symmetry not used in FoFCou.
 E= -1507.15188338948    
 DIIS: error= 1.50D-02 at cycle   1 NSaved=   1.
 NSaved= 1 IEnMin= 1 EnMin= -1507.15188338948     IErMin= 1 ErrMin= 1.50D-02
 ErrMax= 1.50D-02  0.00D+00 EMaxC= 1.00D-01 BMatC= 9.98D-01 BMatP= 9.98D-01
 IDIUse=3 WtCom= 8.50D-01 WtEn= 1.50D-01
 Coeff-Com:  0.100D+01
 Coeff-En:   0.100D+01
 Coeff:      0.100D+01
 Gap=     0.318 Goal=   None    Shift=    0.000
 GapD=    0.318 DampG=1.000 DampE=0.500 DampFc=0.5000 IDamp=-1.
 Damping current iteration by 5.00D-01
 RMSDP=3.66D-03 MaxDP=1.04D+00              OVMax= 2.12D-01

 Cycle   2  Pass 0  IDiag  1:
 RMSU=  1.83D-03    CP:  1.01D+00
 E= -1507.48655111013     Delta-E=       -0.334667720651 Rises=F Damp=T
 DIIS: error= 4.48D-03 at cycle   2 NSaved=   2.
 NSaved= 2 IEnMin= 2 EnMin= -1507.48655111013     IErMin= 2 ErrMin= 4.48D-03
 ErrMax= 4.48D-03  0.00D+00 EMaxC= 1.00D-01 BMatC= 8.93D-02 BMatP= 9.98D-01
 IDIUse=3 WtCom= 9.55D-01 WtEn= 4.48D-02
 Coeff-Com:  0.260D-02 0.997D+00
 Coeff-En:   0.526D-01 0.947D+00
 Coeff:      0.484D-02 0.995D+00
 Gap=     0.347 Goal=   None    Shift=    0.000
 RMSDP=1.13D-03 MaxDP=3.04D-01 DE=-3.35D-01 OVMax= 1.82D-01

 Cycle   3  Pass 0  IDiag  1:
 RMSU=  9.18D-04    CP:  9.96D-01  6.42D-01
 E= -1507.84910996315     Delta-E=       -0.362558853015 Rises=F Damp=F
 DIIS: error= 5.36D-03 at cycle   3 NSaved=   3.
 NSaved= 3 IEnMin= 3 EnMin= -1507.84910996315     IErMin= 2 ErrMin= 4.48D-03
 ErrMax= 5.36D-03  0.00D+00 EMaxC= 1.00D-01 BMatC= 5.59D-02 BMatP= 8.93D-02
 IDIUse=3 WtCom= 9.46D-01 WtEn= 5.36D-02
 Coeff-Com: -0.769D-01 0.458D+00 0.618D+00
 Coeff-En:   0.000D+00 0.000D+00 0.100D+01
 Coeff:     -0.728D-01 0.434D+00 0.639D+00
 Gap=     0.225 Goal=   None    Shift=    0.000
 RMSDP=3.36D-04 MaxDP=3.06D-02 DE=-3.63D-01 OVMax= 7.25D-02

 Cycle   4  Pass 0  IDiag  1:
 RMSU=  2.99D-04    CP:  9.99D-01  7.16D-01  9.25D-01
 E= -1507.88503331014     Delta-E=       -0.035923346992 Rises=F Damp=F
 DIIS: error= 2.32D-03 at cycle   4 NSaved=   4.
 NSaved= 4 IEnMin= 4 EnMin= -1507.88503331014     IErMin= 4 ErrMin= 2.32D-03
 ErrMax= 2.32D-03  0.00D+00 EMaxC= 1.00D-01 BMatC= 1.14D-02 BMatP= 5.59D-02
 IDIUse=3 WtCom= 9.77D-01 WtEn= 2.32D-02
 Coeff-Com: -0.355D-01 0.971D-01 0.347D+00 0.591D+00
 Coeff-En:   0.000D+00 0.000D+00 0.142D+00 0.858D+00
 Coeff:     -0.346D-01 0.949D-01 0.342D+00 0.597D+00
 Gap=     0.225 Goal=   None    Shift=    0.000
 RMSDP=1.12D-04 MaxDP=1.06D-02 DE=-3.59D-02 OVMax= 1.95D-02

 Cycle   5  Pass 0  IDiag  1:
 RMSU=  7.28D-05    CP:  9.98D-01  7.13D-01  9.53D-01  7.28D-01
 E= -1507.89339061277     Delta-E=       -0.008357302628 Rises=F Damp=F
 DIIS: error= 4.15D-04 at cycle   5 NSaved=   5.
 NSaved= 5 IEnMin= 5 EnMin= -1507.89339061277     IErMin= 5 ErrMin= 4.15D-04
 ErrMax= 4.15D-04  0.00D+00 EMaxC= 1.00D-01 BMatC= 4.79D-04 BMatP= 1.14D-02
 IDIUse=3 WtCom= 9.96D-01 WtEn= 4.15D-03
 Coeff-Com: -0.101D-01 0.166D-01 0.121D+00 0.271D+00 0.601D+00
 Coeff-En:   0.000D+00 0.000D+00 0.000D+00 0.000D+00 0.100D+01
 Coeff:     -0.100D-01 0.165D-01 0.121D+00 0.270D+00 0.603D+00
 Gap=     0.224 Goal=   None    Shift=    0.000
 RMSDP=4.46D-05 MaxDP=1.10D-02 DE=-8.36D-03 OVMax= 4.39D-03

 Cycle   6  Pass 0  IDiag  1:
 RMSU=  2.96D-05    CP:  9.97D-01  6.98D-01  9.65D-01  7.52D-01  8.72D-01
 E= -1507.89376450674     Delta-E=       -0.000373893969 Rises=F Damp=F
 DIIS: error= 1.30D-04 at cycle   6 NSaved=   6.
 NSaved= 6 IEnMin= 6 EnMin= -1507.89376450674     IErMin= 6 ErrMin= 1.30D-04
 ErrMax= 1.30D-04  0.00D+00 EMaxC= 1.00D-01 BMatC= 5.33D-05 BMatP= 4.79D-04
 IDIUse=3 WtCom= 9.99D-01 WtEn= 1.30D-03
 Coeff-Com:  0.501D-03-0.517D-02 0.995D-02 0.393D-01 0.259D+00 0.696D+00
 Coeff-En:   0.000D+00 0.000D+00 0.000D+00 0.000D+00 0.000D+00 0.100D+01
 Coeff:      0.500D-03-0.516D-02 0.993D-02 0.393D-01 0.259D+00 0.696D+00
 Gap=     0.225 Goal=   None    Shift=    0.000
 RMSDP=1.71D-05 MaxDP=9.57D-04 DE=-3.74D-04 OVMax= 2.20D-03

 Cycle   7  Pass 0  IDiag  1:
 RMSU=  1.55D-05    CP:  9.97D-01  6.96D-01  9.70D-01  7.58D-01  9.38D-01
                    CP:  9.97D-01
 E= -1507.89383274513     Delta-E=       -0.000068238398 Rises=F Damp=F
 DIIS: error= 5.87D-05 at cycle   7 NSaved=   7.
 NSaved= 7 IEnMin= 7 EnMin= -1507.89383274513     IErMin= 7 ErrMin= 5.87D-05
 ErrMax= 5.87D-05  0.00D+00 EMaxC= 1.00D-01 BMatC= 8.05D-06 BMatP= 5.33D-05
 IDIUse=1 WtCom= 1.00D+00 WtEn= 0.00D+00
 Coeff-Com:  0.181D-02-0.484D-02-0.124D-01-0.255D-01 0.851D-02 0.271D+00
 Coeff-Com:  0.762D+00
 Coeff:      0.181D-02-0.484D-02-0.124D-01-0.255D-01 0.851D-02 0.271D+00
 Coeff:      0.762D+00
 Gap=     0.225 Goal=   None    Shift=    0.000
 RMSDP=1.43D-05 MaxDP=3.64D-03 DE=-6.82D-05 OVMax= 2.05D-03

 Cycle   8  Pass 0  IDiag  1:
 RMSU=  9.53D-06    CP:  9.97D-01  6.92D-01  9.71D-01  7.64D-01  9.99D-01
                    CP:  1.17D+00  1.20D+00
 E= -1507.89384633109     Delta-E=       -0.000013585953 Rises=F Damp=F
 DIIS: error= 3.13D-05 at cycle   8 NSaved=   8.
 NSaved= 8 IEnMin= 8 EnMin= -1507.89384633109     IErMin= 8 ErrMin= 3.13D-05
 ErrMax= 3.13D-05  0.00D+00 EMaxC= 1.00D-01 BMatC= 1.94D-06 BMatP= 8.05D-06
 IDIUse=1 WtCom= 1.00D+00 WtEn= 0.00D+00
 Coeff-Com:  0.843D-03-0.149D-02-0.712D-02-0.206D-01-0.411D-01 0.110D-02
 Coeff-Com:  0.361D+00 0.707D+00
 Coeff:      0.843D-03-0.149D-02-0.712D-02-0.206D-01-0.411D-01 0.110D-02
 Coeff:      0.361D+00 0.707D+00
 Gap=     0.226 Goal=   None    Shift=    0.000
 RMSDP=1.16D-05 MaxDP=1.25D-03 DE=-1.36D-05 OVMax= 6.17D-04

 Cycle   9  Pass 0  IDiag  1:
 RMSU=  7.43D-06    CP:  9.97D-01  6.91D-01  9.73D-01  7.63D-01  1.03D+00
                    CP:  1.25D+00  1.60D+00  1.44D+00
 E= -1507.89383987524     Delta-E=        0.000006455844 Rises=F Damp=F
 DIIS: error= 1.55D-05 at cycle   9 NSaved=   9.
 NSaved= 9 IEnMin= 8 EnMin= -1507.89384633109     IErMin= 9 ErrMin= 1.55D-05
 ErrMax= 1.55D-05  0.00D+00 EMaxC= 1.00D-01 BMatC= 2.78D-07 BMatP= 1.94D-06
 IDIUse=1 WtCom= 1.00D+00 WtEn= 0.00D+00
 Coeff-Com:  0.124D-03-0.578D-04-0.899D-03-0.523D-02-0.161D-01-0.340D-01
 Coeff-Com:  0.507D-01 0.273D+00 0.733D+00
 Coeff:      0.124D-03-0.578D-04-0.899D-03-0.523D-02-0.161D-01-0.340D-01
 Coeff:      0.507D-01 0.273D+00 0.733D+00
 Gap=     0.226 Goal=   None    Shift=    0.000
 RMSDP=1.40D-05 MaxDP=1.43D-03 DE= 6.46D-06 OVMax= 2.33D-04

 Cycle  10  Pass 0  IDiag  1:
 RMSU=  4.14D-06    CP:  9.97D-01  6.89D-01  9.75D-01  7.65D-01  1.06D+00
                    CP:  1.33D+00  2.01D+00  2.15D+00  2.15D+00
 E= -1507.89383154676     Delta-E=        0.000008328486 Rises=F Damp=F
 DIIS: error= 2.29D-05 at cycle  10 NSaved=  10.
 NSaved=10 IEnMin= 8 EnMin= -1507.89384633109     IErMin= 9 ErrMin= 1.55D-05
 ErrMax= 2.29D-05  0.00D+00 EMaxC= 1.00D-01 BMatC= 2.15D-07 BMatP= 2.78D-07
 IDIUse=1 WtCom= 1.00D+00 WtEn= 0.00D+00
 Coeff-Com:  0.935D-04-0.355D-04-0.617D-03-0.406D-02-0.127D-01-0.281D-01
 Coeff-Com:  0.375D-01 0.214D+00 0.603D+00 0.191D+00
 Coeff:      0.935D-04-0.355D-04-0.617D-03-0.406D-02-0.127D-01-0.281D-01
 Coeff:      0.375D-01 0.214D+00 0.603D+00 0.191D+00
 Gap=     0.226 Goal=   None    Shift=    0.000
 RMSDP=5.25D-06 MaxDP=5.70D-04 DE= 8.33D-06 OVMax= 1.85D-05

 Initial convergence to 1.0D-05 achieved.  Increase integral accuracy.
 Cycle  11  Pass 1  IDiag  1:
 E= -1507.89368677156     Delta-E=        0.000144775195 Rises=F Damp=F
 DIIS: error= 3.20D-04 at cycle   1 NSaved=   1.
 NSaved= 1 IEnMin= 1 EnMin= -1507.89368677156     IErMin= 1 ErrMin= 3.20D-04
 ErrMax= 3.20D-04  0.00D+00 EMaxC= 1.00D-01 BMatC= 7.90D-05 BMatP= 7.90D-05
 IDIUse=3 WtCom= 9.97D-01 WtEn= 3.20D-03
 Coeff-Com:  0.100D+01
 Coeff-En:   0.100D+01
 Coeff:      0.100D+01
 Gap=     0.226 Goal=   None    Shift=    0.000
 RMSDP=5.25D-06 MaxDP=5.70D-04 DE= 1.45D-04 OVMax= 7.82D-04

 Cycle  12  Pass 1  IDiag  1:
 RMSU=  4.03D-04    CP:  9.97D-01
 E= -1507.89373735241     Delta-E=       -0.000050580851 Rises=F Damp=F
 DIIS: error= 7.80D-06 at cycle   2 NSaved=   2.
 NSaved= 2 IEnMin= 2 EnMin= -1507.89373735241     IErMin= 2 ErrMin= 7.80D-06
 ErrMax= 7.80D-06  0.00D+00 EMaxC= 1.00D-01 BMatC= 7.20D-08 BMatP= 7.90D-05
 IDIUse=1 WtCom= 1.00D+00 WtEn= 0.00D+00
 Coeff-Com: -0.164D-01 0.102D+01
 Coeff:     -0.164D-01 0.102D+01
 Gap=     0.226 Goal=   None    Shift=    0.000
 RMSDP=1.45D-05 MaxDP=1.15D-03 DE=-5.06D-05 OVMax= 5.19D-05

 Cycle  13  Pass 1  IDiag  1:
 RMSU=  4.68D-06    CP:  9.97D-01  1.03D+00
 E= -1507.89373741305     Delta-E=       -0.000000060639 Rises=F Damp=F
 DIIS: error= 3.24D-06 at cycle   3 NSaved=   3.
 NSaved= 3 IEnMin= 3 EnMin= -1507.89373741305     IErMin= 3 ErrMin= 3.24D-06
 ErrMax= 3.24D-06  0.00D+00 EMaxC= 1.00D-01 BMatC= 3.68D-08 BMatP= 7.20D-08
 IDIUse=1 WtCom= 1.00D+00 WtEn= 0.00D+00
 Coeff-Com: -0.790D-02 0.457D+00 0.551D+00
 Coeff:     -0.790D-02 0.457D+00 0.551D+00
 Gap=     0.226 Goal=   None    Shift=    0.000
 RMSDP=3.91D-07 MaxDP=3.30D-05 DE=-6.06D-08 OVMax= 2.70D-05

 Cycle  14  Pass 1  IDiag  1:
 RMSU=  3.17D-07    CP:  9.97D-01  1.03D+00  1.02D+00
 E= -1507.89373743773     Delta-E=       -0.000000024681 Rises=F Damp=F
 DIIS: error= 1.26D-06 at cycle   4 NSaved=   4.
 NSaved= 4 IEnMin= 4 EnMin= -1507.89373743773     IErMin= 4 ErrMin= 1.26D-06
 ErrMax= 1.26D-06  0.00D+00 EMaxC= 1.00D-01 BMatC= 3.24D-09 BMatP= 3.68D-08
 IDIUse=1 WtCom= 1.00D+00 WtEn= 0.00D+00
 Coeff-Com: -0.830D-03 0.390D-01 0.227D+00 0.735D+00
 Coeff:     -0.830D-03 0.390D-01 0.227D+00 0.735D+00
 Gap=     0.226 Goal=   None    Shift=    0.000
 RMSDP=2.50D-07 MaxDP=1.73D-05 DE=-2.47D-08 OVMax= 1.43D-05

 Cycle  15  Pass 1  IDiag  1:
 RMSU=  1.27D-07    CP:  9.97D-01  1.04D+00  1.05D+00  9.35D-01
 E= -1507.89373743976     Delta-E=       -0.000000002026 Rises=F Damp=F
 DIIS: error= 8.29D-07 at cycle   5 NSaved=   5.
 NSaved= 5 IEnMin= 5 EnMin= -1507.89373743976     IErMin= 5 ErrMin= 8.29D-07
 ErrMax= 8.29D-07  0.00D+00 EMaxC= 1.00D-01 BMatC= 7.13D-10 BMatP= 3.24D-09
 IDIUse=1 WtCom= 1.00D+00 WtEn= 0.00D+00
 Coeff-Com:  0.309D-03-0.231D-01 0.696D-01 0.415D+00 0.538D+00
 Coeff:      0.309D-03-0.231D-01 0.696D-01 0.415D+00 0.538D+00
 Gap=     0.226 Goal=   None    Shift=    0.000
 RMSDP=5.91D-08 MaxDP=5.12D-06 DE=-2.03D-09 OVMax= 4.71D-06

 Cycle  16  Pass 1  IDiag  1:
 RMSU=  4.02D-08    CP:  9.97D-01  1.04D+00  1.06D+00  9.69D-01  1.10D+00
 E= -1507.89373744034     Delta-E=       -0.000000000577 Rises=F Damp=F
 DIIS: error= 1.47D-07 at cycle   6 NSaved=   6.
 NSaved= 6 IEnMin= 6 EnMin= -1507.89373744034     IErMin= 6 ErrMin= 1.47D-07
 ErrMax= 1.47D-07  0.00D+00 EMaxC= 1.00D-01 BMatC= 2.71D-11 BMatP= 7.13D-10
 IDIUse=1 WtCom= 1.00D+00 WtEn= 0.00D+00
 Coeff-Com:  0.197D-03-0.128D-01 0.880D-02 0.114D+00 0.202D+00 0.688D+00
 Coeff:      0.197D-03-0.128D-01 0.880D-02 0.114D+00 0.202D+00 0.688D+00
 Gap=     0.226 Goal=   None    Shift=    0.000
 RMSDP=1.54D-08 MaxDP=2.28D-06 DE=-5.77D-10 OVMax= 1.95D-06

 Cycle  17  Pass 1  IDiag  1:
 RMSU=  1.11D-08    CP:  9.97D-01  1.04D+00  1.06D+00  9.82D-01  1.17D+00
                    CP:  1.04D+00
 E= -1507.89373744035     Delta-E=       -0.000000000013 Rises=F Damp=F
 DIIS: error= 4.54D-08 at cycle   7 NSaved=   7.
 NSaved= 7 IEnMin= 7 EnMin= -1507.89373744035     IErMin= 7 ErrMin= 4.54D-08
 ErrMax= 4.54D-08  0.00D+00 EMaxC= 1.00D-01 BMatC= 5.90D-12 BMatP= 2.71D-11
 IDIUse=1 WtCom= 1.00D+00 WtEn= 0.00D+00
 Coeff-Com:  0.504D-05 0.279D-03-0.115D-01-0.410D-01-0.519D-01 0.273D+00
 Coeff-Com:  0.831D+00
 Coeff:      0.504D-05 0.279D-03-0.115D-01-0.410D-01-0.519D-01 0.273D+00
 Coeff:      0.831D+00
 Gap=     0.226 Goal=   None    Shift=    0.000
 RMSDP=9.03D-09 MaxDP=1.46D-06 DE=-1.32D-11 OVMax= 9.08D-07

 Cycle  18  Pass 1  IDiag  1:
 RMSU=  5.43D-09    CP:  9.97D-01  1.04D+00  1.06D+00  9.83D-01  1.21D+00
                    CP:  1.14D+00  1.05D+00
 E= -1507.89373744038     Delta-E=       -0.000000000028 Rises=F Damp=F
 DIIS: error= 1.90D-08 at cycle   8 NSaved=   8.
 NSaved= 8 IEnMin= 8 EnMin= -1507.89373744038     IErMin= 8 ErrMin= 1.90D-08
 ErrMax= 1.90D-08  0.00D+00 EMaxC= 1.00D-01 BMatC= 6.94D-13 BMatP= 5.90D-12
 IDIUse=1 WtCom= 1.00D+00 WtEn= 0.00D+00
 Coeff-Com: -0.196D-04 0.153D-02-0.579D-02-0.284D-01-0.493D-01 0.504D-01
 Coeff-Com:  0.347D+00 0.684D+00
 Coeff:     -0.196D-04 0.153D-02-0.579D-02-0.284D-01-0.493D-01 0.504D-01
 Coeff:      0.347D+00 0.684D+00
 Gap=     0.226 Goal=   None    Shift=    0.000
 RMSDP=2.25D-09 MaxDP=1.99D-07 DE=-2.82D-11 OVMax= 2.90D-07

 SCF Done:  E(RM062X) =  -1507.89373744     A.U. after   18 cycles
            NFock= 18  Conv=0.23D-08     -V/T= 2.0042
 KE= 1.501602852363D+03 PE=-8.389529456941D+03 EE= 2.954887886374D+03
 Leave Link  502 at Wed Mar  8 14:19:09 2023, MaxMem=  2684354560 cpu:           19289.3 elap:            1210.6
 (Enter /opt/gaussian/g16/l601.exe)
 Copying SCF densities to generalized density rwf, IOpCl= 0 IROHF=0.

 **********************************************************************

            Population analysis using the SCF density.

 **********************************************************************

 Alpha  occ. eigenvalues --  -89.91042 -19.62775 -19.62634 -19.61549 -19.60122
 Alpha  occ. eigenvalues --  -19.59059 -14.78539 -14.76139 -10.64774 -10.64035
 Alpha  occ. eigenvalues --  -10.62496 -10.60270 -10.60169 -10.59580 -10.58431
 Alpha  occ. eigenvalues --  -10.57097 -10.56014 -10.55610 -10.55599 -10.54084
 Alpha  occ. eigenvalues --  -10.54016 -10.54003 -10.53826 -10.53394  -8.27004
 Alpha  occ. eigenvalues --   -6.18935  -6.18709  -6.18535  -1.17347  -1.17050
 Alpha  occ. eigenvalues --   -1.16303  -1.14323  -1.12012  -1.07129  -1.01083
 Alpha  occ. eigenvalues --   -0.91335  -0.90933  -0.88503  -0.87255  -0.86748
 Alpha  occ. eigenvalues --   -0.84651  -0.81201  -0.78203  -0.75297  -0.74729
 Alpha  occ. eigenvalues --   -0.72586  -0.69554  -0.67504  -0.66246  -0.65581
 Alpha  occ. eigenvalues --   -0.62508  -0.62258  -0.60916  -0.59837  -0.58134
 Alpha  occ. eigenvalues --   -0.57385  -0.55479  -0.55363  -0.54617  -0.53771
 Alpha  occ. eigenvalues --   -0.52812  -0.52495  -0.51561  -0.50728  -0.50423
 Alpha  occ. eigenvalues --   -0.49878  -0.49653  -0.48857  -0.48317  -0.48055
 Alpha  occ. eigenvalues --   -0.47891  -0.47609  -0.46827  -0.46284  -0.46047
 Alpha  occ. eigenvalues --   -0.44966  -0.44339  -0.43656  -0.43314  -0.42613
 Alpha  occ. eigenvalues --   -0.41955  -0.41198  -0.40718  -0.39564  -0.37191
 Alpha  occ. eigenvalues --   -0.35288  -0.35094  -0.34610  -0.34179  -0.33016
 Alpha  occ. eigenvalues --   -0.32561  -0.32355  -0.31798  -0.29976  -0.24835
 Alpha virt. eigenvalues --   -0.02279   0.01512   0.05254   0.05501   0.05741
 Alpha virt. eigenvalues --    0.06548   0.06901   0.07529   0.08250   0.08974
 Alpha virt. eigenvalues --    0.09383   0.09477   0.10140   0.10919   0.11503
 Alpha virt. eigenvalues --    0.11757   0.12078   0.12622   0.13084   0.13238
 Alpha virt. eigenvalues --    0.13703   0.14647   0.14709   0.14923   0.15266
 Alpha virt. eigenvalues --    0.15704   0.16016   0.16343   0.17143   0.17353
 Alpha virt. eigenvalues --    0.18072   0.18739   0.18974   0.19274   0.19840
 Alpha virt. eigenvalues --    0.20171   0.21055   0.21246   0.21570   0.21650
 Alpha virt. eigenvalues --    0.22953   0.23470   0.23746   0.23945   0.24402
 Alpha virt. eigenvalues --    0.24972   0.25155   0.25371   0.25896   0.26232
 Alpha virt. eigenvalues --    0.27001   0.27420   0.27676   0.28273   0.29095
 Alpha virt. eigenvalues --    0.29555   0.30294   0.30416   0.30911   0.31098
 Alpha virt. eigenvalues --    0.31745   0.31856   0.32804   0.32913   0.33498
 Alpha virt. eigenvalues --    0.33980   0.34223   0.34952   0.35438   0.36344
 Alpha virt. eigenvalues --    0.36352   0.37212   0.37596   0.38003   0.38415
 Alpha virt. eigenvalues --    0.38876   0.39092   0.39957   0.40500   0.40735
 Alpha virt. eigenvalues --    0.40902   0.41220   0.41636   0.42317   0.42394
 Alpha virt. eigenvalues --    0.42860   0.43156   0.43453   0.43843   0.43943
 Alpha virt. eigenvalues --    0.44375   0.44603   0.44764   0.45306   0.45641
 Alpha virt. eigenvalues --    0.45817   0.46110   0.47016   0.47319   0.47565
 Alpha virt. eigenvalues --    0.47731   0.48118   0.48827   0.49223   0.49320
 Alpha virt. eigenvalues --    0.49497   0.50000   0.50327   0.50430   0.50697
 Alpha virt. eigenvalues --    0.51028   0.51338   0.51582   0.52057   0.52342
 Alpha virt. eigenvalues --    0.52815   0.53144   0.53506   0.54183   0.54375
 Alpha virt. eigenvalues --    0.55136   0.55328   0.55571   0.56168   0.56371
 Alpha virt. eigenvalues --    0.57114   0.58155   0.58359   0.58861   0.59294
 Alpha virt. eigenvalues --    0.59971   0.60201   0.60373   0.61114   0.61295
 Alpha virt. eigenvalues --    0.61808   0.62559   0.63137   0.63393   0.64266
 Alpha virt. eigenvalues --    0.65231   0.65628   0.66087   0.66589   0.67221
 Alpha virt. eigenvalues --    0.68578   0.68702   0.69164   0.69370   0.70583
 Alpha virt. eigenvalues --    0.70818   0.71430   0.71893   0.72745   0.73027
 Alpha virt. eigenvalues --    0.73928   0.75121   0.75204   0.75736   0.77112
 Alpha virt. eigenvalues --    0.77970   0.78507   0.78834   0.79311   0.80191
 Alpha virt. eigenvalues --    0.81008   0.81424   0.81995   0.82738   0.83299
 Alpha virt. eigenvalues --    0.84415   0.84850   0.85649   0.86638   0.87085
 Alpha virt. eigenvalues --    0.88386   0.88695   0.89102   0.89926   0.90403
 Alpha virt. eigenvalues --    0.91559   0.92213   0.92727   0.92792   0.93896
 Alpha virt. eigenvalues --    0.94021   0.94811   0.96041   0.96336   0.96812
 Alpha virt. eigenvalues --    0.97023   0.97630   0.98415   0.99054   0.99350
 Alpha virt. eigenvalues --    1.00475   1.01182   1.01955   1.02600   1.03109
 Alpha virt. eigenvalues --    1.04039   1.04525   1.04839   1.05493   1.06443
 Alpha virt. eigenvalues --    1.07172   1.07552   1.08341   1.08944   1.09115
 Alpha virt. eigenvalues --    1.09780   1.10973   1.11581   1.12042   1.12811
 Alpha virt. eigenvalues --    1.13662   1.13805   1.14549   1.14977   1.15567
 Alpha virt. eigenvalues --    1.16165   1.16417   1.18005   1.18269   1.19003
 Alpha virt. eigenvalues --    1.20639   1.21177   1.21450   1.22791   1.23067
 Alpha virt. eigenvalues --    1.24098   1.24994   1.25880   1.26447   1.27297
 Alpha virt. eigenvalues --    1.27787   1.29023   1.30005   1.31664   1.32095
 Alpha virt. eigenvalues --    1.32534   1.33730   1.33861   1.34272   1.34793
 Alpha virt. eigenvalues --    1.35644   1.36476   1.38178   1.39931   1.40104
 Alpha virt. eigenvalues --    1.40673   1.40842   1.42282   1.42795   1.43758
 Alpha virt. eigenvalues --    1.45635   1.46577   1.46980   1.49463   1.49538
 Alpha virt. eigenvalues --    1.50301   1.50700   1.51566   1.53229   1.53414
 Alpha virt. eigenvalues --    1.53498   1.53931   1.54773   1.55165   1.55933
 Alpha virt. eigenvalues --    1.56155   1.56245   1.56867   1.57463   1.57559
 Alpha virt. eigenvalues --    1.57931   1.58493   1.58841   1.59601   1.60304
 Alpha virt. eigenvalues --    1.61386   1.61757   1.62100   1.62310   1.62697
 Alpha virt. eigenvalues --    1.63154   1.64007   1.64307   1.64899   1.65397
 Alpha virt. eigenvalues --    1.66238   1.66520   1.66623   1.67286   1.67510
 Alpha virt. eigenvalues --    1.67883   1.68174   1.69595   1.70045   1.70889
 Alpha virt. eigenvalues --    1.71366   1.72389   1.72639   1.73179   1.73770
 Alpha virt. eigenvalues --    1.74637   1.75086   1.76412   1.76775   1.77391
 Alpha virt. eigenvalues --    1.77934   1.78447   1.79054   1.79584   1.80046
 Alpha virt. eigenvalues --    1.80653   1.81143   1.81831   1.82344   1.83164
 Alpha virt. eigenvalues --    1.83862   1.85657   1.86255   1.86971   1.87466
 Alpha virt. eigenvalues --    1.88146   1.88419   1.88958   1.90169   1.90526
 Alpha virt. eigenvalues --    1.91806   1.92150   1.92783   1.93776   1.94203
 Alpha virt. eigenvalues --    1.94736   1.95365   1.96727   1.96981   1.97626
 Alpha virt. eigenvalues --    1.98501   1.99267   1.99473   2.00132   2.00890
 Alpha virt. eigenvalues --    2.01009   2.01889   2.02618   2.03321   2.03596
 Alpha virt. eigenvalues --    2.04780   2.05047   2.05903   2.07170   2.08496
 Alpha virt. eigenvalues --    2.09593   2.10139   2.10462   2.10724   2.11576
 Alpha virt. eigenvalues --    2.12077   2.12653   2.13524   2.14306   2.14542
 Alpha virt. eigenvalues --    2.15943   2.16975   2.17908   2.18210   2.18899
 Alpha virt. eigenvalues --    2.18944   2.19915   2.20259   2.20674   2.20982
 Alpha virt. eigenvalues --    2.22553   2.22864   2.23797   2.24563   2.25750
 Alpha virt. eigenvalues --    2.26438   2.26922   2.28011   2.28111   2.28884
 Alpha virt. eigenvalues --    2.29316   2.30035   2.30786   2.31445   2.31988
 Alpha virt. eigenvalues --    2.32258   2.33106   2.33315   2.33756   2.34824
 Alpha virt. eigenvalues --    2.35202   2.36056   2.36354   2.37297   2.38001
 Alpha virt. eigenvalues --    2.38754   2.39353   2.40245   2.40690   2.42104
 Alpha virt. eigenvalues --    2.43054   2.43382   2.45220   2.45648   2.46061
 Alpha virt. eigenvalues --    2.46877   2.47236   2.48248   2.48693   2.50135
 Alpha virt. eigenvalues --    2.50288   2.51003   2.51691   2.52329   2.53341
 Alpha virt. eigenvalues --    2.54806   2.55799   2.55851   2.56922   2.57540
 Alpha virt. eigenvalues --    2.57946   2.58210   2.59112   2.59484   2.60212
 Alpha virt. eigenvalues --    2.60567   2.60953   2.61611   2.62609   2.62804
 Alpha virt. eigenvalues --    2.62942   2.64272   2.64813   2.65574   2.66360
 Alpha virt. eigenvalues --    2.66636   2.66864   2.68061   2.68485   2.69036
 Alpha virt. eigenvalues --    2.69708   2.70826   2.71365   2.72127   2.72929
 Alpha virt. eigenvalues --    2.74043   2.74433   2.75093   2.76245   2.76955
 Alpha virt. eigenvalues --    2.78141   2.78695   2.79281   2.80291   2.81101
 Alpha virt. eigenvalues --    2.81249   2.81796   2.83709   2.84149   2.84743
 Alpha virt. eigenvalues --    2.85328   2.86279   2.87300   2.88279   2.88670
 Alpha virt. eigenvalues --    2.89338   2.90127   2.91323   2.92226   2.92941
 Alpha virt. eigenvalues --    2.93482   2.94271   2.94745   2.96339   2.97062
 Alpha virt. eigenvalues --    2.97982   2.98412   2.99529   2.99718   3.00339
 Alpha virt. eigenvalues --    3.01123   3.01828   3.02137   3.02826   3.03188
 Alpha virt. eigenvalues --    3.03961   3.04318   3.05229   3.05531   3.06540
 Alpha virt. eigenvalues --    3.07095   3.07404   3.08013   3.08409   3.09349
 Alpha virt. eigenvalues --    3.09552   3.10169   3.10376   3.11847   3.12014
 Alpha virt. eigenvalues --    3.12659   3.13068   3.13502   3.14185   3.15545
 Alpha virt. eigenvalues --    3.16010   3.16516   3.17242   3.17686   3.18503
 Alpha virt. eigenvalues --    3.18628   3.20067   3.20643   3.21002   3.21132
 Alpha virt. eigenvalues --    3.21567   3.22223   3.23289   3.23444   3.23936
 Alpha virt. eigenvalues --    3.24803   3.25334   3.25766   3.26749   3.27463
 Alpha virt. eigenvalues --    3.27645   3.28102   3.28543   3.29208   3.30563
 Alpha virt. eigenvalues --    3.30820   3.31373   3.32124   3.32396   3.32648
 Alpha virt. eigenvalues --    3.33590   3.33795   3.34114   3.34803   3.35689
 Alpha virt. eigenvalues --    3.36505   3.36808   3.37138   3.37448   3.38498
 Alpha virt. eigenvalues --    3.38938   3.39511   3.40477   3.41060   3.41992
 Alpha virt. eigenvalues --    3.42183   3.42378   3.43097   3.43985   3.45010
 Alpha virt. eigenvalues --    3.45554   3.45813   3.46329   3.47458   3.48504
 Alpha virt. eigenvalues --    3.48988   3.49778   3.50029   3.50463   3.52418
 Alpha virt. eigenvalues --    3.52875   3.53136   3.53956   3.54655   3.54996
 Alpha virt. eigenvalues --    3.56254   3.56944   3.57614   3.57999   3.58257
 Alpha virt. eigenvalues --    3.59435   3.60866   3.61042   3.62055   3.63118
 Alpha virt. eigenvalues --    3.63936   3.64796   3.65538   3.66652   3.67782
 Alpha virt. eigenvalues --    3.68262   3.68978   3.69585   3.70808   3.71964
 Alpha virt. eigenvalues --    3.73681   3.74528   3.74877   3.75537   3.75721
 Alpha virt. eigenvalues --    3.77083   3.77397   3.78606   3.79675   3.80622
 Alpha virt. eigenvalues --    3.81370   3.81695   3.83978   3.86230   3.87206
 Alpha virt. eigenvalues --    3.88114   3.89338   3.90065   3.91624   3.92153
 Alpha virt. eigenvalues --    3.92286   3.93628   3.95131   3.96566   3.98509
 Alpha virt. eigenvalues --    3.98805   3.99954   4.00053   4.01464   4.04206
 Alpha virt. eigenvalues --    4.05315   4.05956   4.06487   4.07302   4.08918
 Alpha virt. eigenvalues --    4.10474   4.11970   4.13201   4.13831   4.14770
 Alpha virt. eigenvalues --    4.16988   4.17916   4.19628   4.20982   4.22620
 Alpha virt. eigenvalues --    4.23356   4.25617   4.26052   4.27483   4.28027
 Alpha virt. eigenvalues --    4.30938   4.31660   4.32968   4.34819   4.37345
 Alpha virt. eigenvalues --    4.37975   4.39225   4.40046   4.40391   4.42643
 Alpha virt. eigenvalues --    4.43053   4.44482   4.45393   4.47350   4.48170
 Alpha virt. eigenvalues --    4.49621   4.50915   4.51643   4.53813   4.54475
 Alpha virt. eigenvalues --    4.58561   4.63097   4.65063   4.66242   4.67323
 Alpha virt. eigenvalues --    4.68238   4.71059   4.71153   4.72788   4.73248
 Alpha virt. eigenvalues --    4.74966   4.75875   4.77123   4.78807   4.79331
 Alpha virt. eigenvalues --    4.81623   4.86057   4.86795   4.88607   4.91660
 Alpha virt. eigenvalues --    4.93118   4.93630   4.95862   4.96603   4.97297
 Alpha virt. eigenvalues --    4.98336   4.99131   5.00784   5.03460   5.06348
 Alpha virt. eigenvalues --    5.07959   5.10352   5.12591   5.16526   5.19305
 Alpha virt. eigenvalues --    5.22048   5.23459   5.24053   5.26354   5.28488
 Alpha virt. eigenvalues --    5.28649   5.30195   5.32553   5.33406   5.35061
 Alpha virt. eigenvalues --    5.38243   5.40668   5.41849   5.42765   5.45589
 Alpha virt. eigenvalues --    5.47977   5.51769   5.53422   5.54921   5.58319
 Alpha virt. eigenvalues --    5.61591   5.67465   5.71953   5.73753   5.76224
 Alpha virt. eigenvalues --    5.79291   5.80137   5.82811   5.83754   5.84639
 Alpha virt. eigenvalues --    5.85937   5.87548   5.88591   5.89997   5.94178
 Alpha virt. eigenvalues --    5.95232   5.97307   6.04255   6.17087   6.21052
 Alpha virt. eigenvalues --    6.21900   6.23310   6.29416   6.32298   6.36900
 Alpha virt. eigenvalues --    6.38062   6.47727   6.50215   6.52122   6.52369
 Alpha virt. eigenvalues --    6.59698   6.60362   6.68351   6.71601   6.74156
 Alpha virt. eigenvalues --    6.75366   6.80907   6.84899   6.87108   6.87962
 Alpha virt. eigenvalues --    6.89902   6.92513   6.99619   7.06385   7.08011
 Alpha virt. eigenvalues --    7.08812   7.11432   7.12374   7.18390   7.25240
 Alpha virt. eigenvalues --    7.29553   7.35143   8.99961   9.40326   9.53228
 Alpha virt. eigenvalues --   20.05905  22.28472  22.39612  22.43463  22.44918
 Alpha virt. eigenvalues --   22.51921  22.56554  22.61823  22.64473  22.73202
 Alpha virt. eigenvalues --   22.76846  22.93206  22.95524  23.00584  23.05951
 Alpha virt. eigenvalues --   23.20960  23.45954  32.13446  33.13554  44.14561
 Alpha virt. eigenvalues --   44.18399  44.22750  44.28510  44.51095
          Condensed to atoms (all electrons):
               1          2          3          4          5          6
     1  C    5.112311   0.416530   0.406969  -0.012418   0.000418  -0.000164
     2  H    0.416530   0.511096  -0.020627  -0.001067   0.000222  -0.000005
     3  H    0.406969  -0.020627   0.542152   0.001677  -0.000055  -0.000001
     4  C   -0.012418  -0.001067   0.001677   5.306465   0.458281   0.251791
     5  H    0.000418   0.000222  -0.000055   0.458281   0.534224  -0.036382
     6  O   -0.000164  -0.000005  -0.000001   0.251791  -0.036382   8.113074
     7  H   -0.000044  -0.000002   0.000003  -0.026099  -0.011902   0.287329
     8  C   -0.010107   0.012078  -0.007409   0.020253  -0.053675  -0.042018
     9  H    0.011039  -0.000039  -0.001019  -0.096682   0.003092   0.003393
    10  O    0.008839  -0.000406   0.000114  -0.041480   0.001482  -0.005684
    11  H   -0.000651  -0.000103   0.000308   0.012891  -0.000619  -0.000319
    12  C   -0.000404   0.000349   0.000082   0.102924  -0.055487  -0.031170
    13  H    0.000180   0.000022   0.000093  -0.095364   0.005117   0.007456
    14  C    0.191339  -0.047911  -0.038374   0.079191   0.007427   0.005662
    15  H   -0.062635  -0.005121  -0.002858  -0.008655   0.000005   0.000070
    16  O   -0.036818   0.001886   0.005254  -0.073706  -0.001092   0.006816
    17  N   -0.000157  -0.000102  -0.000032   0.015994  -0.010644  -0.001218
    18  C   -0.000524   0.000150  -0.000030  -0.005606   0.000982   0.001542
    19  H   -0.000808  -0.000162   0.000112  -0.016823  -0.002926   0.000985
    20  C    0.000043   0.000001  -0.000002   0.004856   0.004495  -0.001026
    21  H    0.000007   0.000001  -0.000000   0.000048   0.000060  -0.000007
    22  C   -0.000011  -0.000000   0.000000  -0.000242  -0.000251   0.000102
    23  H   -0.000000   0.000000   0.000000   0.000006   0.000004   0.000000
    24  H    0.000000  -0.000000  -0.000000   0.000026  -0.000044   0.000004
    25  C   -0.000064  -0.000004   0.000001  -0.004574  -0.000171  -0.000414
    26  C   -0.000317   0.000043  -0.000005   0.013907  -0.000666  -0.007156
    27  H   -0.000018   0.000001  -0.000000   0.000563  -0.000134  -0.000054
    28  C    0.000000   0.000000  -0.000000   0.000069   0.000005  -0.000030
    29  O   -0.000000  -0.000000  -0.000000   0.000006   0.000000   0.000000
    30  N   -0.000000   0.000000   0.000000   0.000001   0.000000  -0.000000
    31  H   -0.000000   0.000000  -0.000000  -0.000000   0.000000  -0.000000
    32  H    0.000000   0.000000  -0.000000   0.000000   0.000000   0.000000
    33  C    0.000002  -0.000000  -0.000000   0.000539  -0.000368  -0.017970
    34  C    0.000001  -0.000000  -0.000000  -0.000505   0.000247   0.010601
    35  C   -0.000000   0.000000   0.000000  -0.000202   0.000114   0.000834
    36  C   -0.000000   0.000000   0.000000  -0.000002   0.000001   0.000002
    37  C   -0.000000   0.000000  -0.000000   0.000169  -0.000005  -0.000014
    38  O   -0.000000   0.000000  -0.000000   0.004503   0.000101  -0.038615
    39  S    0.000000  -0.000000  -0.000000  -0.000042   0.000019   0.000715
    40  H   -0.000000   0.000000  -0.000000   0.000150   0.000025  -0.000126
    41  H   -0.000007   0.000000  -0.000000  -0.000274   0.000497   0.010391
    42  H    0.000000   0.000000  -0.000000   0.000000  -0.000000  -0.000000
    43  H    0.000000   0.000000  -0.000000   0.000000  -0.000000  -0.000000
    44  H    0.000000  -0.000000  -0.000000   0.000000  -0.000000   0.000000
    45  H   -0.000000   0.000000   0.000000   0.000007   0.000002   0.000012
    46  H   -0.000000  -0.000000   0.000000  -0.000014   0.000000   0.000021
    47  H    0.384455  -0.023118  -0.024642   0.000801  -0.000100  -0.000004
    48  H    0.000000   0.000000  -0.000000  -0.000012   0.000006   0.000805
               7          8          9         10         11         12
     1  C   -0.000044  -0.010107   0.011039   0.008839  -0.000651  -0.000404
     2  H   -0.000002   0.012078  -0.000039  -0.000406  -0.000103   0.000349
     3  H    0.000003  -0.007409  -0.001019   0.000114   0.000308   0.000082
     4  C   -0.026099   0.020253  -0.096682  -0.041480   0.012891   0.102924
     5  H   -0.011902  -0.053675   0.003092   0.001482  -0.000619  -0.055487
     6  O    0.287329  -0.042018   0.003393  -0.005684  -0.000319  -0.031170
     7  H    0.350118   0.010193  -0.000329  -0.000441   0.000128   0.001564
     8  C    0.010193   5.314626   0.489196   0.275963  -0.039227  -0.033309
     9  H   -0.000329   0.489196   0.582897  -0.059205  -0.005172   0.012786
    10  O   -0.000441   0.275963  -0.059205   8.038440   0.292871  -0.022410
    11  H    0.000128  -0.039227  -0.005172   0.292871   0.426631  -0.002887
    12  C    0.001564  -0.033309   0.012786  -0.022410  -0.002887   5.477140
    13  H   -0.001163   0.022925   0.002704   0.017150  -0.001021   0.452589
    14  C   -0.000943   0.154294  -0.101449  -0.051319   0.000093  -0.067769
    15  H    0.000047  -0.024363   0.008926  -0.004858   0.002896  -0.003931
    16  O   -0.000094  -0.046771   0.004449   0.008833   0.000181   0.226764
    17  N    0.003574  -0.003579  -0.000814  -0.000281   0.000002   0.163449
    18  C    0.000597  -0.002946  -0.000245  -0.000291   0.000008  -0.073706
    19  H    0.000286   0.001547   0.000055  -0.000011   0.000005   0.018593
    20  C   -0.001055  -0.000755   0.000021   0.000008  -0.000001   0.013634
    21  H   -0.000008   0.000002   0.000000   0.000000  -0.000000   0.000106
    22  C    0.000246   0.000031  -0.000002  -0.000002   0.000000  -0.007663
    23  H   -0.000001   0.000000   0.000000   0.000000  -0.000000   0.000225
    24  H    0.000035   0.000004  -0.000000   0.000000   0.000000  -0.000264
    25  C    0.000545  -0.000456  -0.000002  -0.000054  -0.000000  -0.016879
    26  C    0.000304  -0.003914  -0.000076  -0.000605  -0.000053  -0.062239
    27  H    0.000096   0.000005  -0.000013  -0.000196   0.000009  -0.002770
    28  C    0.000048  -0.000010   0.000000   0.000000  -0.000000  -0.002405
    29  O    0.000011   0.000000   0.000000  -0.000000   0.000000   0.000308
    30  N    0.000000  -0.000000  -0.000000  -0.000000  -0.000000  -0.000002
    31  H   -0.000000  -0.000000   0.000000  -0.000000  -0.000000  -0.000005
    32  H   -0.000000  -0.000000  -0.000000   0.000000  -0.000000  -0.000008
    33  C    0.001066   0.000724   0.000018  -0.001169   0.000078  -0.000330
    34  C   -0.007764  -0.000097  -0.000021   0.000023   0.000001   0.000333
    35  C   -0.000309  -0.000067  -0.000001   0.000001  -0.000000   0.000561
    36  C   -0.000014  -0.000000  -0.000000  -0.000000  -0.000000   0.000044
    37  C    0.000066   0.000001  -0.000000  -0.000000  -0.000000  -0.000821
    38  O    0.029340  -0.000438   0.000005  -0.000000  -0.000001   0.000801
    39  S    0.000850  -0.000010   0.000001   0.000010  -0.000003  -0.000804
    40  H   -0.001808  -0.000015   0.000002   0.000024  -0.000002   0.000017
    41  H   -0.008595  -0.001013   0.000007   0.003452  -0.000236   0.000116
    42  H   -0.000000   0.000000  -0.000000  -0.000000  -0.000000   0.000001
    43  H    0.000001   0.000000  -0.000000   0.000000   0.000000   0.000002
    44  H    0.000000   0.000000  -0.000000   0.000000   0.000000  -0.000000
    45  H    0.000025   0.000000   0.000000  -0.000000  -0.000000  -0.000023
    46  H   -0.000075   0.000000  -0.000000  -0.000000   0.000000   0.000068
    47  H    0.000007  -0.009418   0.000783   0.000168   0.000095  -0.000818
    48  H    0.000270  -0.000031   0.000001   0.000004  -0.000003   0.000013
              13         14         15         16         17         18
     1  C    0.000180   0.191339  -0.062635  -0.036818  -0.000157  -0.000524
     2  H    0.000022  -0.047911  -0.005121   0.001886  -0.000102   0.000150
     3  H    0.000093  -0.038374  -0.002858   0.005254  -0.000032  -0.000030
     4  C   -0.095364   0.079191  -0.008655  -0.073706   0.015994  -0.005606
     5  H    0.005117   0.007427   0.000005  -0.001092  -0.010644   0.000982
     6  O    0.007456   0.005662   0.000070   0.006816  -0.001218   0.001542
     7  H   -0.001163  -0.000943   0.000047  -0.000094   0.003574   0.000597
     8  C    0.022925   0.154294  -0.024363  -0.046771  -0.003579  -0.002946
     9  H    0.002704  -0.101449   0.008926   0.004449  -0.000814  -0.000245
    10  O    0.017150  -0.051319  -0.004858   0.008833  -0.000281  -0.000291
    11  H   -0.001021   0.000093   0.002896   0.000181   0.000002   0.000008
    12  C    0.452589  -0.067769  -0.003931   0.226764   0.163449  -0.073706
    13  H    0.520321  -0.013465   0.006123  -0.033633  -0.063522   0.010988
    14  C   -0.013465   5.252853   0.404978   0.209150   0.015084  -0.000060
    15  H    0.006123   0.404978   0.604865  -0.038622  -0.001459   0.000044
    16  O   -0.033633   0.209150  -0.038622   8.136127  -0.076256   0.002705
    17  N   -0.063522   0.015084  -0.001459  -0.076256   6.592291   0.317791
    18  C    0.010988  -0.000060   0.000044   0.002705   0.317791   5.006276
    19  H    0.001522  -0.003928   0.000314   0.017350  -0.051614   0.407538
    20  C   -0.000366   0.000389   0.000011  -0.000593  -0.086836   0.533316
    21  H    0.000008  -0.000003  -0.000000  -0.000086   0.004365  -0.030190
    22  C    0.000031  -0.000045   0.000001   0.000552   0.000190  -0.011803
    23  H   -0.000002  -0.000000   0.000000  -0.000007  -0.001047   0.003100
    24  H   -0.000013   0.000002   0.000000   0.000028   0.006534   0.002982
    25  C    0.009056  -0.000007   0.000026  -0.001543  -0.067862   0.041585
    26  C   -0.018747   0.000263  -0.000450   0.000771   0.304854  -0.150387
    27  H   -0.000566   0.000016  -0.000028   0.001063  -0.036130   0.007278
    28  C   -0.000006  -0.000003  -0.000001   0.000026   0.002830   0.002101
    29  O   -0.000050  -0.000000   0.000000  -0.000000  -0.000663   0.000269
    30  N   -0.000000   0.000000  -0.000000  -0.000000  -0.000507  -0.000109
    31  H    0.000000  -0.000000  -0.000000   0.000000   0.000029  -0.000001
    32  H    0.000001   0.000000  -0.000000   0.000000   0.000043   0.000075
    33  C   -0.000363  -0.000078   0.000000   0.000001   0.000090  -0.000007
    34  C    0.000288   0.000066  -0.000000   0.000097   0.007078  -0.001482
    35  C    0.000005   0.000004   0.000000  -0.000007  -0.003411  -0.000535
    36  C    0.000003   0.000000   0.000000  -0.000000  -0.000159   0.000038
    37  C   -0.000035  -0.000001  -0.000000  -0.000001  -0.000333   0.000592
    38  O   -0.000451   0.000035  -0.000000   0.000002  -0.002025   0.002062
    39  S    0.001275  -0.000007   0.000001  -0.000000  -0.000166   0.000180
[...]
      4        6          -0.002612892    0.016964369    0.013758341
      5        1           0.011135344    0.003856715   -0.010184315
      6        8           0.015941810   -0.009664150   -0.005121015
      7        1          -0.001213834   -0.004769059   -0.004580941
      8        6           0.013571161    0.000219576   -0.002543732
      9        1          -0.007276064    0.003499705   -0.010956758
     10        8          -0.000930553    0.007234587    0.002402417
     11        1          -0.011138517   -0.005779319   -0.001716202
     12        6           0.017970115   -0.018624048   -0.000358011
     13        1          -0.008560606   -0.006537878    0.004660785
     14        6          -0.020507530    0.001468482   -0.002671605
     15        1          -0.004477038   -0.006701254    0.010605134
     16        8           0.001767198   -0.004745459   -0.000233977
     17        7          -0.000535014    0.005271433   -0.007211904
     18        6           0.019193552    0.007766669    0.012069188
     19        1          -0.004872301    0.002397871   -0.001686435
     20        6          -0.020977772    0.005963321   -0.011906773
     21        1           0.003726978    0.003454308    0.002178559
     22        6           0.011355786    0.001136597    0.012422053
     23        1           0.001617820    0.000295849    0.007869851
     24        1           0.007931692   -0.006549777   -0.016186176
     25        6          -0.018443245   -0.006779485   -0.009686669
     26        6           0.005475996   -0.015157566    0.006722487
     27        1          -0.006727252    0.000039650    0.002083631
     28        6          -0.011710770   -0.006786715    0.001118348
     29        8           0.016588894    0.017499803    0.011187246
     30        7           0.003464059   -0.008797842   -0.002136902
     31        1          -0.001759842    0.000707861   -0.002063816
     32        1          -0.003226448   -0.000610999   -0.003911190
     33        6          -0.005869885   -0.009684148   -0.010029072
     34        6          -0.007506457   -0.041538912    0.013248113
     35        6          -0.002310964    0.009387447   -0.010130488
     36        6           0.007860423   -0.003745854    0.005595581
     37        6          -0.003716538    0.002686452    0.007668222
     38        8          -0.009975250    0.019068972   -0.010248897
     39       16           0.018391284    0.017102849    0.012618564
     40        1           0.006702808    0.002270933   -0.002505648
     41        1          -0.004459311    0.004970991    0.005270496
     42        1           0.003181015    0.004925117   -0.001151266
     43        1          -0.004582439   -0.002249624    0.002339533
     44        1           0.001142876   -0.004035308   -0.003434892
     45        1           0.005874440    0.005494284   -0.004248396
     46        1          -0.004700458   -0.004910642    0.001135292
     47        1           0.001191836   -0.001279201   -0.001005407
     48        1          -0.003721952    0.004224003   -0.004866460
 -------------------------------------------------------------------
 Cartesian Forces:  Max     0.041538912 RMS     0.009262141
 Leave Link  716 at Wed Mar  8 14:25:53 2023, MaxMem=  2684354560 cpu:               0.9 elap:               0.1
 (Enter /opt/gaussian/g16/l103.exe)

 GradGradGradGradGradGradGradGradGradGradGradGradGradGradGradGradGradGrad
 Berny optimization.
 Search for a local minimum.
 Step number   1 out of a maximum of    2
 All quantities printed in internal units (Hartrees-Bohrs-Radians)
 Second derivative matrix not updated -- first step.
 ITU=  0
     Eigenvalues ---    0.00026   0.00065   0.00087   0.00097   0.00142
     Eigenvalues ---    0.00189   0.00222   0.00264   0.00322   0.00446
     Eigenvalues ---    0.00482   0.00667   0.00735   0.00833   0.00957
     Eigenvalues ---    0.01034   0.01114   0.01279   0.01332   0.01428
     Eigenvalues ---    0.01580   0.01726   0.01884   0.02337   0.02543
     Eigenvalues ---    0.02871   0.02888   0.03177   0.03295   0.03655
     Eigenvalues ---    0.03983   0.04386   0.04482   0.04845   0.05026
     Eigenvalues ---    0.05099   0.05241   0.05407   0.05623   0.05694
     Eigenvalues ---    0.05801   0.05861   0.05912   0.06300   0.06597
     Eigenvalues ---    0.07026   0.07075   0.07420   0.07624   0.07743
     Eigenvalues ---    0.08481   0.08660   0.09084   0.09601   0.10187
     Eigenvalues ---    0.10532   0.10943   0.11634   0.11927   0.12264
     Eigenvalues ---    0.12835   0.12870   0.13006   0.13113   0.13648
     Eigenvalues ---    0.13822   0.14009   0.14621   0.15544   0.16053
     Eigenvalues ---    0.16507   0.17203   0.17593   0.18443   0.19071
     Eigenvalues ---    0.19606   0.19929   0.21016   0.21278   0.21719
     Eigenvalues ---    0.24220   0.25882   0.26328   0.26806   0.30782
     Eigenvalues ---    0.32145   0.33380   0.34393   0.34682   0.36633
     Eigenvalues ---    0.36903   0.36903   0.36903   0.36903   0.40881
     Eigenvalues ---    0.42138   0.43506   0.46617   0.52342   0.55866
     Eigenvalues ---    0.59437   0.64487   0.66209   0.69028   0.74014
     Eigenvalues ---    0.76786   0.78022   0.83780   0.84607   0.87107
     Eigenvalues ---    0.88318   0.89500   0.89935   0.90352   0.91186
     Eigenvalues ---    0.92406   0.93598   0.94693   0.97789   0.99722
     Eigenvalues ---    1.00144   1.00988   1.03884   1.05812   1.10497
     Eigenvalues ---    1.12692   1.15693   1.21881   1.24914   1.27266
     Eigenvalues ---    1.29647   1.38788   1.47991   1.60289   1.66819
     Eigenvalues ---    1.79503   2.01500   2.35581
 Quadratic step=5.175D+00 exceeds max=3.000D-01 adjusted using Lamda=-8.227D-02.
 Angle between NR and scaled steps=  75.14 degrees.
 Angle between quadratic step and forces=  46.65 degrees.
 Linear search not attempted -- first point.
 Variable       Old X    -DE/DX   Delta X   Delta X   Delta X     New X
                                 (Linear)    (Quad)   (Total)
    X1        6.51212   0.00403   0.00000  -0.01244  -0.01244   6.49968
    Y1       -6.71187   0.02778   0.00000   0.06126   0.06126  -6.65061
    Z1       -1.57892   0.00243   0.00000   0.01750   0.01750  -1.56141
    X2        6.43965   0.00084   0.00000   0.00153   0.00153   6.44119
    Y2       -6.85415  -0.00345   0.00000   0.00440   0.00440  -6.84975
    Z2       -3.64813   0.00671   0.00000   0.03274   0.03274  -3.61540
    X3        8.32657  -0.00713   0.00000  -0.03713  -0.03713   8.28944
    Y3       -7.42564  -0.00330   0.00000   0.00793   0.00793  -7.41771
    Z3       -0.86024  -0.00332   0.00000  -0.00130  -0.00130  -0.86155
    X4        3.02477  -0.00261   0.00000   0.03039   0.03039   3.05515
    Y4       -2.28498   0.01696   0.00000   0.02599   0.02599  -2.25899
    Z4        1.86562   0.01376   0.00000   0.00340   0.00340   1.86902
    X5        1.65443   0.01114   0.00000   0.07096   0.07096   1.72539
    Y5       -3.87697   0.00386   0.00000   0.01333   0.01333  -3.86364
    Z5        1.90874  -0.01018   0.00000  -0.05944  -0.05944   1.84929
    X6        2.45336   0.01594   0.00000   0.05558   0.05558   2.50894
    Y6       -0.68653  -0.00966   0.00000  -0.01150  -0.01150  -0.69803
    Z6        3.92806  -0.00512   0.00000   0.00033   0.00033   3.92838
    X7        0.76231  -0.00121   0.00000   0.03214   0.03214   0.79445
    Y7        0.04466  -0.00477   0.00000  -0.05124  -0.05124  -0.00658
    Z7        3.85665  -0.00458   0.00000  -0.02308  -0.02308   3.83357
    X8        5.81358   0.01357   0.00000   0.00744   0.00744   5.82102
    Y8       -3.22256   0.00022   0.00000   0.02663   0.02663  -3.19593
    Z8        1.95095  -0.00254   0.00000  -0.01431  -0.01431   1.93664
    X9        6.16118  -0.00728   0.00000  -0.04053  -0.04053   6.12064
    Y9       -4.80439   0.00350   0.00000   0.00724   0.00724  -4.79715
    Z9        3.28445  -0.01096   0.00000  -0.05781  -0.05781   3.22663
   X10        7.32303  -0.00093   0.00000  -0.02328  -0.02328   7.29975
   Y10       -1.14471   0.00723   0.00000   0.03291   0.03291  -1.11181
   Z10        2.73339   0.00240   0.00000   0.00662   0.00662   2.74000
   X11        9.12076  -0.01114   0.00000  -0.04818  -0.04818   9.07258
   Y11       -1.46615  -0.00578   0.00000  -0.03165  -0.03165  -1.49780
   Z11        2.58902  -0.00172   0.00000  -0.00788  -0.00788   2.58114
   X12        3.03768   0.01797   0.00000   0.02387   0.02387   3.06155
   Y12       -0.86304  -0.01862   0.00000  -0.03746  -0.03746  -0.90050
   Z12       -0.69338  -0.00036   0.00000  -0.01090  -0.01090  -0.70427
   X13        4.17471  -0.00856   0.00000  -0.02576  -0.02576   4.14895
   Y13        0.88862  -0.00654   0.00000  -0.03134  -0.03134   0.85729
   Z13       -0.54021   0.00466   0.00000   0.02353   0.02353  -0.51668
   X14        6.40563  -0.02051   0.00000  -0.05011  -0.05011   6.35553
   Y14       -3.85666   0.00147   0.00000   0.01642   0.01642  -3.84023
   Z14       -0.89533  -0.00267   0.00000   0.00366   0.00366  -0.89167
   X15        8.14672  -0.00448   0.00000  -0.02456  -0.02456   8.12216
   Y15       -2.89300  -0.00670   0.00000  -0.02513  -0.02513  -2.91812
   Z15       -1.55695   0.01061   0.00000   0.06581   0.06581  -1.49114
   X16        4.36492   0.00177   0.00000  -0.01127  -0.01127   4.35366
   Y16       -2.63489  -0.00475   0.00000  -0.02282  -0.02282  -2.65771
   Z16       -2.27978  -0.00023   0.00000  -0.02527  -0.02527  -2.30505
   X17        0.63832  -0.00054   0.00000   0.01893   0.01893   0.65725
   Y17       -0.26431   0.00527   0.00000  -0.00887  -0.00887  -0.27319
   Z17       -1.75776  -0.00721   0.00000  -0.00794  -0.00794  -1.76570
   X18       -1.00863   0.01919   0.00000   0.00773   0.00773  -1.00090
   Y18       -2.24502   0.00777   0.00000   0.01816   0.01816  -2.22686
   Z18       -2.47133   0.01207   0.00000   0.01171   0.01171  -2.45961
   X19       -0.20101  -0.00487   0.00000  -0.02417  -0.02417  -0.22518
   Y19       -4.10735   0.00240   0.00000   0.01162   0.01162  -4.09574
   Z19       -2.16368  -0.00169   0.00000   0.00072   0.00072  -2.16296
   X20       -3.22995  -0.02098   0.00000  -0.00666  -0.00666  -3.23661
   Y20       -1.77844   0.00596   0.00000   0.01405   0.01405  -1.76438
   Z20       -3.48841  -0.01191   0.00000  -0.01019  -0.01019  -3.49860
   X21       -4.41565   0.00373   0.00000   0.00621   0.00621  -4.40944
   Y21       -3.34802   0.00345   0.00000   0.01533   0.01533  -3.33269
   Z21       -4.09626   0.00218   0.00000   0.00408   0.00408  -4.09219
   X22       -4.21506   0.01136   0.00000   0.02288   0.02288  -4.19218
   Y22        0.90349   0.00114   0.00000  -0.00755  -0.00755   0.89594
   Z22       -3.90973   0.01242   0.00000   0.00530   0.00530  -3.90443
   X23       -5.24516   0.00162   0.00000   0.01150   0.01150  -5.23366
   Y23        1.01754   0.00030   0.00000   0.00144   0.00144   1.01898
   Z23       -5.71533   0.00787   0.00000   0.03011   0.03011  -5.68521
   X24       -5.54183   0.00793   0.00000   0.02100   0.02100  -5.52083
   Y24        1.46784  -0.00655   0.00000  -0.02796  -0.02796   1.43989
   Z24       -2.34126  -0.01619   0.00000  -0.04967  -0.04967  -2.39092
   X25       -1.96191  -0.01844   0.00000  -0.02146  -0.02146  -1.98337
   Y25        2.75578  -0.00678   0.00000  -0.01982  -0.01982   2.73597
   Z25       -3.85363  -0.00969   0.00000  -0.00693  -0.00693  -3.86055
   X26        0.22905   0.00548   0.00000  -0.01180  -0.01180   0.21724
   Y26        2.13277  -0.01516   0.00000  -0.02791  -0.02791   2.10487
   Z26       -2.77986   0.00672   0.00000   0.00268   0.00268  -2.77719
   X27        1.85269  -0.00673   0.00000  -0.04460  -0.04460   1.80809
   Y27        3.39775   0.00004   0.00000   0.00254   0.00254   3.40029
   Z27       -2.70970   0.00208   0.00000   0.02323   0.02323  -2.68648
   X28       -2.34102  -0.01171   0.00000  -0.02459  -0.02459  -2.36561
   Y28        5.35642  -0.00679   0.00000   0.00388   0.00388   5.36030
   Z28       -4.81753   0.00112   0.00000   0.03168   0.03168  -4.78585
   X29       -1.58595   0.01659   0.00000   0.06756   0.06756  -1.51838
   Y29        7.20880   0.01750   0.00000   0.00576   0.00576   7.21456
   Z29       -3.73443   0.01119   0.00000   0.00852   0.00852  -3.72591
   X30       -3.88707   0.00346   0.00000   0.01016   0.01016  -3.87691
   Y30        5.66445  -0.00880   0.00000  -0.01782  -0.01782   5.64663
   Z30       -6.88640  -0.00214   0.00000  -0.00756  -0.00756  -6.89397
   X31       -3.77978  -0.00176   0.00000  -0.00906  -0.00906  -3.78884
   Y31        7.42564   0.00071   0.00000  -0.01285  -0.01285   7.41278
   Z31       -7.60204  -0.00206   0.00000  -0.01110  -0.01110  -7.61314
   X32       -3.87828  -0.00323   0.00000  -0.01585  -0.01585  -3.89413
   Y32        4.24362  -0.00061   0.00000  -0.01263  -0.01263   4.23099
   Z32       -8.14753  -0.00391   0.00000  -0.01689  -0.01689  -8.16441
   X33        1.79128  -0.00587   0.00000  -0.00928  -0.00928   1.78201
   Y33        4.10150  -0.00968   0.00000  -0.01296  -0.01296   4.08853
   Z33        7.16652  -0.01003   0.00000  -0.02618  -0.02618   7.14034
   X34       -1.77259  -0.00751   0.00000  -0.02217  -0.02217  -1.79476
   Y34        4.12468  -0.04154   0.00000  -0.02598  -0.02598   4.09870
   Z34        3.36522   0.01325   0.00000   0.02375   0.02375   3.38897
   X35       -3.50953  -0.00231   0.00000   0.00064   0.00064  -3.50889
   Y35        5.33381   0.00939   0.00000   0.00969   0.00969   5.34350
   Z35        1.58740  -0.01013   0.00000  -0.00210  -0.00210   1.58530
   X36       -7.70206   0.00786   0.00000   0.02066   0.02066  -7.68140
   Y36        5.86723  -0.00375   0.00000  -0.01071  -0.01071   5.85653
   Z36       -0.58151   0.00560   0.00000   0.01376   0.01376  -0.56775
   X37       -5.83947  -0.00372   0.00000   0.00196   0.00196  -5.83750
   Y37        4.48784   0.00269   0.00000   0.01800   0.01800   4.50584
   Z37        1.10238   0.00767   0.00000   0.02313   0.02313   1.12551
   X38       -1.87852  -0.00998   0.00000  -0.08677  -0.08677  -1.96529
   Y38        1.87659   0.01907   0.00000  -0.00920  -0.00920   1.86739
   Z38        4.00259  -0.01025   0.00000  -0.01552  -0.01552   3.98707
   X39        0.42109   0.01839   0.00000   0.02791   0.02791   0.44899
   Y39        6.10154   0.01710   0.00000   0.01362   0.01362   6.11515
   Z39        4.69831   0.01262   0.00000   0.01353   0.01353   4.71184
   X40        0.20996   0.00670   0.00000   0.01767   0.01767   0.22762
   Y40        3.18085   0.00227   0.00000  -0.00256  -0.00256   3.17830
   Z40        8.14753  -0.00251   0.00000  -0.01097  -0.01097   8.13656
   X41        2.99636  -0.00446   0.00000  -0.00265  -0.00265   2.99371
   Y41        2.67020   0.00497   0.00000   0.00188   0.00188   2.67208
   Z41        6.26200   0.00527   0.00000   0.01024   0.01024   6.27225
   X42       -9.12076   0.00318   0.00000   0.02500   0.02500  -9.09576
   Y42        4.54442   0.00493   0.00000   0.01054   0.01054   4.55496
   Z42       -1.30736  -0.00115   0.00000  -0.00557  -0.00557  -1.31293
   X43       -6.69450  -0.00458   0.00000  -0.00536  -0.00536  -6.69986
   Y43        6.80884  -0.00225   0.00000  -0.00989  -0.00989   6.79895
   Z43       -2.13094   0.00234   0.00000   0.01179   0.01179  -2.11915
   X44       -8.68157   0.00114   0.00000   0.00511   0.00511  -8.67645
   Y44        7.32117  -0.00404   0.00000  -0.01897  -0.01897   7.30219
   Z44        0.53724  -0.00343   0.00000  -0.00958  -0.00958   0.52766
   X45       -6.53970   0.00587   0.00000   0.03314   0.03314  -6.50656
   Y45        2.80995   0.00549   0.00000   0.01473   0.01473   2.82467
   Z45        2.10765  -0.00425   0.00000  -0.00050  -0.00050   2.10716
   X46       -2.78103  -0.00470   0.00000  -0.00998  -0.00998  -2.79100
   Y46        7.05139  -0.00491   0.00000  -0.00776  -0.00776   7.04363
   Z46        0.69112   0.00114   0.00000  -0.00608  -0.00608   0.68504
   X47        4.92628   0.00119   0.00000   0.00232   0.00232   4.92860
   Y47       -7.71309  -0.00128   0.00000   0.02001   0.02001  -7.69308
   Z47       -0.72718  -0.00101   0.00000  -0.00192  -0.00192  -0.72910
   X48        2.90112  -0.00372   0.00000  -0.02735  -0.02735   2.87377
   Y48        5.23448   0.00422   0.00000   0.02423   0.02423   5.25871
   Z48        8.48083  -0.00487   0.00000  -0.04351  -0.04351   8.43731
         Item               Value     Threshold  Converged?
 Maximum Force            0.041539     0.000450     NO 
 RMS     Force            0.009262     0.000300     NO 
 Maximum Displacement     0.086769     0.001800     NO 
 RMS     Displacement     0.025003     0.001200     NO 
 Predicted change in Energy=-1.514815D-02
 GradGradGradGradGradGradGradGradGradGradGradGradGradGradGradGradGradGrad

 Leave Link  103 at Wed Mar  8 14:25:53 2023, MaxMem=  2684354560 cpu:               1.9 elap:               0.1
 (Enter /opt/gaussian/g16/l9999.exe)

 Test job not archived.
 1\1\GINC-JULIO-SYS\Force\RM062X\def2TZVP\C16H24N2O5S1\JVELAZQUEZ\08-Ma
 r-2023\0\\#P M062X/Def2TZVP scf=(direct,conver=8) EmpiricalDispersion=
 GD3 NoSymm Force pop=(NBORead) Charge Prop=(Field,Read)\\Gaussian run 
 using SANDER external interface, route from template gau_job.tpl\\0,1\
 C,3.4460643921,-3.5517688112,-0.835526693\H,3.4077166082,-3.627060088,
 -1.9305088239\H,4.4062335671,-3.9294776712,-0.4552205217\C,1.600638458
 5,-1.2091611596,0.9872420451\H,0.8754877932,-2.0516038429,1.0100592247
 \O,1.298260649,-0.3632968073,2.078637491\H,0.4033982026,0.0236336879,2
 .0408529684\C,3.0764152142,-1.7053062733,1.0324000845\H,3.260353691,-2
 .5423726092,1.7380540121\O,3.8751793207,-0.6057568262,1.4464456493\H,4
 .8265000364,-0.7758512405,1.3700477372\C,1.6074730242,-0.4567027687,-0
 .3669194899\H,2.2091596937,0.470238815,-0.2858661585\C,3.3897160091,-2
 .040854646,-0.4737877938\H,4.3110599717,-1.53090915,-0.8239003991\O,2.
 309817727,-1.3943256036,-1.2064100745\N,0.3377823648,-0.1398673258,-0.
 9301651651\C,-0.5337439875,-1.1880146215,-1.3077708607\H,-0.1063674277
 ,-2.1735166863,-1.1449676615\C,-1.7092171104,-0.9411081202,-1.84598682
 01\H,-2.3366623681,-1.7716933369,-2.167648325\C,-2.2305130091,0.478107
 749,-2.0689401687\H,-2.7756210727,0.5384602799,-3.0244216952\H,-2.9326
 075591,0.7767496092,-1.23893882\C,-1.0381966836,1.4582969111,-2.039251
 8027\C,0.1212073115,1.1286152585,-1.4710398565\H,0.9803988045,1.798012
 5206,-1.433912371\C,-1.2388151998,2.8344958931,-2.5493251342\O,-0.8392
 473059,3.8147352148,-1.9761735912\N,-2.0569491619,2.9974967839,-3.6441
 268127\H,-2.0001724981,3.9294776712,-4.0228289039\H,-2.0522965064,2.24
 56275491,-4.3114852215\C,0.9479063293,2.1704180188,3.7923590987\C,-0.9
 380161601,2.1826853326,1.7807979065\C,-1.8571627836,2.8225290003,0.840
 0139305\C,-4.0757550842,3.1048049879,-0.3077211004\C,-3.0901118738,2.3
 748643842,0.5833543649\O,-0.9940699882,0.9930473304,2.1180787839\S,0.2
 228298308,3.2287947756,2.4862385138\H,0.1111052819,1.683235808,4.31148
 52215\H,1.5856053034,1.4130102973,3.3137100437\H,-4.8265000364,2.40480
 19215,-0.6918268679\H,-3.5425791318,3.6030849825,-1.1276468702\H,-4.59
 40872783,3.8741947087,0.2842964286\H,-3.4606589994,1.4869603517,1.1153
 224243\H,-1.4716566872,3.7314336739,0.3657273044\H,2.6068755548,-4.081
 5926403,-0.3848063746\H,1.5352042744,2.7699680136,4.4878595857\\Versio
 n=ES64L-G16RevA.03\HF=-1507.8937374\RMSD=2.250e-09\RMSF=9.262e-03\Dipo
 le=0.0992221,-0.9198971,-0.80069\Quadrupole=9.4657978,-8.6212562,-0.84
 45416,-7.3732053,6.7339569,-1.5741575\PG=C01 [X(C16H24N2O5S1)]\\@


 If fifty million people say a stupid thing,
 it is still a stupid thing.
                   -- Anatole France
 Job cpu time:       0 days  7 hours 10 minutes 17.3 seconds.
 Elapsed time:       0 days  0 hours 27 minutes  2.0 seconds.
 File lengths (MBytes):  RWF=    435 Int=      0 D2E=      0 Chk=     48 Scr=      1
 Normal termination of Gaussian 16 at Wed Mar  8 14:25:53 2023.
