 Entering Gaussian System, Link 0=g16
 Initial command:
 /storage/apps/GAUSSIAN/G16_RevA03/g16/l1.exe "/scratch/tmp/1267147/Gau-33279.inp" -scrdir="/scratch/tmp/1267147/"
 Entering Link 1 = /storage/apps/GAUSSIAN/G16_RevA03/g16/l1.exe PID=     33280.
  
 Copyright (c) 1988,1990,1992,1993,1995,1998,2003,2009,2016,
            Gaussian, Inc.  All Rights Reserved.
  
 This is part of the Gaussian(R) 16 program.  It is based on
 the Gaussian(R) 09 system (copyright 2009, Gaussian, Inc.),
 the Gaussian(R) 03 system (copyright 2003, Gaussian, Inc.),
 the Gaussian(R) 98 system (copyright 1998, Gaussian, Inc.),
 the Gaussian(R) 94 system (copyright 1995, Gaussian, Inc.),
 the Gaussian 92(TM) system (copyright 1992, Gaussian, Inc.),
 the Gaussian 90(TM) system (copyright 1990, Gaussian, Inc.),
 the Gaussian 88(TM) system (copyright 1988, Gaussian, Inc.),
 the Gaussian 86(TM) system (copyright 1986, Carnegie Mellon
 University), and the Gaussian 82(TM) system (copyright 1983,
 Carnegie Mellon University). Gaussian is a federally registered
 trademark of Gaussian, Inc.
  
 This software contains proprietary and confidential information,
 including trade secrets, belonging to Gaussian, Inc.
  
 This software is provided under written license and may be
 used, copied, transmitted, or stored only in accord with that
 written license.
  
 The following legend is applicable only to US Government
 contracts under FAR:
  
                    RESTRICTED RIGHTS LEGEND
  
 Use, reproduction and disclosure by the US Government is
 subject to restrictions as set forth in subparagraphs (a)
 and (c) of the Commercial Computer Software - Restricted
 Rights clause in FAR 52.227-19.
  
 Gaussian, Inc.
 340 Quinnipiac St., Bldg. 40, Wallingford CT 06492
  
  
 ---------------------------------------------------------------
 Warning -- This program may not be used in any manner that
 competes with the business of Gaussian, Inc. or will provide
 assistance to any competitor of Gaussian, Inc.  The licensee
 of this program is prohibited from giving any competitor of
 Gaussian, Inc. access to this program.  By using this program,
 the user acknowledges that Gaussian, Inc. is engaged in the
 business of creating and licensing software in the field of
 computational chemistry and represents and warrants to the
 licensee that it is not a competitor of Gaussian, Inc. and that
 it will not use this program in any manner prohibited above.
 ---------------------------------------------------------------
  

 Cite this work as:
 Gaussian 16, Revision A.03,
 M. J. Frisch, G. W. Trucks, H. B. Schlegel, G. E. Scuseria, 
 M. A. Robb, J. R. Cheeseman, G. Scalmani, V. Barone, 
 G. A. Petersson, H. Nakatsuji, X. Li, M. Caricato, A. V. Marenich, 
 J. Bloino, B. G. Janesko, R. Gomperts, B. Mennucci, H. P. Hratchian, 
 J. V. Ortiz, A. F. Izmaylov, J. L. Sonnenberg, D. Williams-Young, 
 F. Ding, F. Lipparini, F. Egidi, J. Goings, B. Peng, A. Petrone, 
 T. Henderson, D. Ranasinghe, V. G. Zakrzewski, J. Gao, N. Rega, 
 G. Zheng, W. Liang, M. Hada, M. Ehara, K. Toyota, R. Fukuda, 
 J. Hasegawa, M. Ishida, T. Nakajima, Y. Honda, O. Kitao, H. Nakai, 
 T. Vreven, K. Throssell, J. A. Montgomery, Jr., J. E. Peralta, 
 F. Ogliaro, M. J. Bearpark, J. J. Heyd, E. N. Brothers, K. N. Kudin, 
 V. N. Staroverov, T. A. Keith, R. Kobayashi, J. Normand, 
 K. Raghavachari, A. P. Rendell, J. C. Burant, S. S. Iyengar, 
 J. Tomasi, M. Cossi, J. M. Millam, M. Klene, C. Adamo, R. Cammi, 
 J. W. Ochterski, R. L. Martin, K. Morokuma, O. Farkas, 
 J. B. Foresman, and D. J. Fox, Gaussian, Inc., Wallingford CT, 2016.
 
 ******************************************
 Gaussian 16:  ES64L-G16RevA.03 25-Dec-2016
                19-Feb-2023 
 ******************************************
 %chk=gau_job.chk
 %NProcShared=16
 Will use up to   16 processors via shared memory.
 %mem=20GB
 ----------------------------------------------------------------------
 #P M062X/Def2TZVP scf=(direct,conver=8) EmpiricalDispersion=GD3 NoSymm
  Force pop=(NBORead) Charge Prop=(Field,Read)
 ----------------------------------------------------------------------
 1/10=7,18=10,28=-2,30=1,38=1,125=101/1,3;
 2/12=2,15=1,17=6,18=5,29=2,40=1/2;
 3/5=44,7=101,11=2,25=1,30=1,71=1,74=-55,124=31/1,2,3;
 4//1;
 5/5=2,6=8,38=5/2;
 6/7=2,8=2,9=2,10=2,14=2,15=1,28=1,40=2/1,2,7;
 7/7=1,16=-2,29=1,30=1/1,2,3,16;
 1/10=7,18=10,28=-2,30=1/3;
 99/12=1/99;
 Leave Link    1 at Sun Feb 19 04:00:04 2023, MaxMem=  2684354560 cpu:               0.7 elap:               0.0
 (Enter /storage/apps/GAUSSIAN/G16_RevA03/g16/l101.exe)
 ----------------------------------------------------------------------
 Gaussian run using SANDER external interface, route from template gau_
 job.tpl
 ----------------------------------------------------------------------
 Symbolic Z-matrix:
 Charge =  0 Multiplicity = 1
 C                     3.4114   -3.8335   -0.74402 
 H                     3.4701   -3.96194  -1.83348 
 H                     4.31688  -4.24068  -0.27146 
 C                     1.58971  -1.55032   0.98983 
 H                     0.97016  -2.45965   0.87059 
 O                     1.11986  -0.78009   2.05557 
 H                     0.53139  -0.08809   1.7064 
 C                     3.04631  -2.00893   1.07651 
 H                     3.16777  -2.89931   1.72058 
 O                     3.83588  -0.94884   1.5381 
 H                     4.77717  -1.13321   1.30047 
 C                     1.60515  -0.82265  -0.35237 
 H                     2.14701   0.12599  -0.20942 
 C                     3.33199  -2.34819  -0.41621 
 H                     4.30388  -1.90715  -0.68785 
 O                     2.31151  -1.71689  -1.18057 
 N                     0.32465  -0.50618  -0.89289 
 C                    -0.5999   -1.5343   -1.10617 
 H                    -0.28688  -2.52451  -0.77933 
 C                    -1.77182  -1.33386  -1.71591 
 H                    -2.42759  -2.19129  -1.86871 
 C                    -2.19761   0.01936  -2.23015 
 H                    -2.57458  -0.0985   -3.26213 
 H                    -3.05175   0.46626  -1.62847 
 C                    -1.03968   0.98647  -2.18221 
 C                     0.10108   0.70891  -1.5268 
 H                     0.90741   1.44523  -1.49245 
 C                    -1.17961   2.33497  -2.79549 
 O                    -0.46864   3.27917  -2.47106 
 N                    -2.17938   2.47757  -3.7058 
 H                    -2.14537   3.36032  -4.20975 
 H                    -2.53377   1.6808   -4.23839 
 C                     0.52107   2.11146   3.7142 
 C                    -1.08219   2.22804   1.46731 
 C                    -1.8158    2.97771   0.42893 
 C                    -3.86935   3.37022  -0.93143 
 C                    -3.01111   2.5602   -0.01744 
 O                    -1.14913   1.02468   1.65032 
 S                    -0.13511   3.28985   2.50965 
 H                    -0.31935   1.63664   4.23839 
 H                     1.09956   1.33333   3.19825 
 H                    -4.19384   2.78019  -1.79633 
 H                    -3.32278   4.24068  -1.31805 
 H                    -4.77717   3.71395  -0.40497 
 H                    -3.41922   1.63359   0.40611 
 H                    -1.36693   3.91021   0.06966 
 H                     2.51749  -4.32659  -0.36206 
 H                     1.15463   2.62579   4.43681 
 
 ITRead=  0  0  0  0  0  0  0  0  0  0  0  0  0  0  0  0  0  0  0  0
 ITRead=  0  0  0  0  0  0  0  0  0  0  0  0  0  0  0  0  0  0  0  0
 ITRead=  0  0  0  0  0  0  0  0
 MicOpt= -1 -1 -1 -1 -1 -1 -1 -1 -1 -1 -1 -1 -1 -1 -1 -1 -1 -1 -1 -1
 MicOpt= -1 -1 -1 -1 -1 -1 -1 -1 -1 -1 -1 -1 -1 -1 -1 -1 -1 -1 -1 -1
 MicOpt= -1 -1 -1 -1 -1 -1 -1 -1
 NAtoms=     48 NQM=       48 NQMF=       0 NMMI=      0 NMMIF=      0
                NMic=       0 NMicF=      0.
                    Isotopes and Nuclear Properties:
 (Nuclear quadrupole moments (NQMom) in fm**2, nuclear magnetic moments (NMagM)
  in nuclear magnetons)

  Atom         1           2           3           4           5           6           7           8           9          10
 IAtWgt=          12           1           1          12           1          16           1          12           1          16
 AtmWgt=  12.0000000   1.0078250   1.0078250  12.0000000   1.0078250  15.9949146   1.0078250  12.0000000   1.0078250  15.9949146
 NucSpn=           0           1           1           0           1           0           1           0           1           0
 AtZEff=  -0.0000000  -0.0000000  -0.0000000  -0.0000000  -0.0000000  -0.0000000  -0.0000000  -0.0000000  -0.0000000  -0.0000000
 NQMom=    0.0000000   0.0000000   0.0000000   0.0000000   0.0000000   0.0000000   0.0000000   0.0000000   0.0000000   0.0000000
 NMagM=    0.0000000   2.7928460   2.7928460   0.0000000   2.7928460   0.0000000   2.7928460   0.0000000   2.7928460   0.0000000
 AtZNuc=   6.0000000   1.0000000   1.0000000   6.0000000   1.0000000   8.0000000   1.0000000   6.0000000   1.0000000   8.0000000

  Atom        11          12          13          14          15          16          17          18          19          20
 IAtWgt=           1          12           1          12           1          16          14          12           1          12
 AtmWgt=   1.0078250  12.0000000   1.0078250  12.0000000   1.0078250  15.9949146  14.0030740  12.0000000   1.0078250  12.0000000
 NucSpn=           1           0           1           0           1           0           2           0           1           0
 AtZEff=  -0.0000000  -0.0000000  -0.0000000  -0.0000000  -0.0000000  -0.0000000  -0.0000000  -0.0000000  -0.0000000  -0.0000000
 NQMom=    0.0000000   0.0000000   0.0000000   0.0000000   0.0000000   0.0000000   2.0440000   0.0000000   0.0000000   0.0000000
 NMagM=    2.7928460   0.0000000   2.7928460   0.0000000   2.7928460   0.0000000   0.4037610   0.0000000   2.7928460   0.0000000
 AtZNuc=   1.0000000   6.0000000   1.0000000   6.0000000   1.0000000   8.0000000   7.0000000   6.0000000   1.0000000   6.0000000

  Atom        21          22          23          24          25          26          27          28          29          30
 IAtWgt=           1          12           1           1          12          12           1          12          16          14
 AtmWgt=   1.0078250  12.0000000   1.0078250   1.0078250  12.0000000  12.0000000   1.0078250  12.0000000  15.9949146  14.0030740
 NucSpn=           1           0           1           1           0           0           1           0           0           2
 AtZEff=  -0.0000000  -0.0000000  -0.0000000  -0.0000000  -0.0000000  -0.0000000  -0.0000000  -0.0000000  -0.0000000  -0.0000000
 NQMom=    0.0000000   0.0000000   0.0000000   0.0000000   0.0000000   0.0000000   0.0000000   0.0000000   0.0000000   2.0440000
 NMagM=    2.7928460   0.0000000   2.7928460   2.7928460   0.0000000   0.0000000   2.7928460   0.0000000   0.0000000   0.4037610
 AtZNuc=   1.0000000   6.0000000   1.0000000   1.0000000   6.0000000   6.0000000   1.0000000   6.0000000   8.0000000   7.0000000

  Atom        31          32          33          34          35          36          37          38          39          40
 IAtWgt=           1           1          12          12          12          12          12          16          32           1
 AtmWgt=   1.0078250   1.0078250  12.0000000  12.0000000  12.0000000  12.0000000  12.0000000  15.9949146  31.9720718   1.0078250
 NucSpn=           1           1           0           0           0           0           0           0           0           1
 AtZEff=  -0.0000000  -0.0000000  -0.0000000  -0.0000000  -0.0000000  -0.0000000  -0.0000000  -0.0000000  -0.0000000  -0.0000000
 NQMom=    0.0000000   0.0000000   0.0000000   0.0000000   0.0000000   0.0000000   0.0000000   0.0000000   0.0000000   0.0000000
 NMagM=    2.7928460   2.7928460   0.0000000   0.0000000   0.0000000   0.0000000   0.0000000   0.0000000   0.0000000   2.7928460
 AtZNuc=   1.0000000   1.0000000   6.0000000   6.0000000   6.0000000   6.0000000   6.0000000   8.0000000  16.0000000   1.0000000

  Atom        41          42          43          44          45          46          47          48
 IAtWgt=           1           1           1           1           1           1           1           1
 AtmWgt=   1.0078250   1.0078250   1.0078250   1.0078250   1.0078250   1.0078250   1.0078250   1.0078250
 NucSpn=           1           1           1           1           1           1           1           1
 AtZEff=  -0.0000000  -0.0000000  -0.0000000  -0.0000000  -0.0000000  -0.0000000  -0.0000000  -0.0000000
 NQMom=    0.0000000   0.0000000   0.0000000   0.0000000   0.0000000   0.0000000   0.0000000   0.0000000
 NMagM=    2.7928460   2.7928460   2.7928460   2.7928460   2.7928460   2.7928460   2.7928460   2.7928460
 AtZNuc=   1.0000000   1.0000000   1.0000000   1.0000000   1.0000000   1.0000000   1.0000000   1.0000000
 Background charge distribution read from input stream:
 Leave Link  101 at Sun Feb 19 04:00:04 2023, MaxMem=  2684354560 cpu:               1.7 elap:               0.1
 (Enter /storage/apps/GAUSSIAN/G16_RevA03/g16/l103.exe)

 GradGradGradGradGradGradGradGradGradGradGradGradGradGradGradGradGradGrad
 Berny optimization.
 Initialization pass.
 Trust Radius=3.00D-01 FncErr=1.00D-07 GrdErr=1.00D-07 EigMax=2.50D+02 EigMin=1.00D-04
 Number of steps in this run=      2 maximum allowed number of steps=      2.
 GradGradGradGradGradGradGradGradGradGradGradGradGradGradGradGradGradGrad

 Leave Link  103 at Sun Feb 19 04:00:04 2023, MaxMem=  2684354560 cpu:               0.3 elap:               0.0
 (Enter /storage/apps/GAUSSIAN/G16_RevA03/g16/l202.exe)
 ---------------------------------------------------------------------------------------------------
                            Z-MATRIX (ANGSTROMS AND DEGREES)
   CD    Cent   Atom    N1       Length/X        N2       Alpha/Y        N3        Beta/Z          J
 ---------------------------------------------------------------------------------------------------
      1      1  C        0   3.411398         -3.833496         -0.744016
      2      2  H        0   3.470105         -3.961940         -1.833485
      3      3  H        0   4.316877         -4.240682         -0.271465
      4      4  C        0   1.589710         -1.550315          0.989826
      5      5  H        0   0.970159         -2.459655          0.870589
      6      6  O        0   1.119861         -0.780094          2.055568
      7      7  H        0   0.531393         -0.088091          1.706404
      8      8  C        0   3.046312         -2.008928          1.076505
      9      9  H        0   3.167765         -2.899308          1.720584
     10     10  O        0   3.835875         -0.948842          1.538100
     11     11  H        0   4.777165         -1.133215          1.300469
     12     12  C        0   1.605148         -0.822648         -0.352367
     13     13  H        0   2.147010          0.125993         -0.209420
     14     14  C        0   3.331987         -2.348190         -0.416205
     15     15  H        0   4.303880         -1.907152         -0.687847
     16     16  O        0   2.311506         -1.716891         -1.180566
     17     17  N        0   0.324655         -0.506180         -0.892888
     18     18  C        0  -0.599896         -1.534299         -1.106166
     19     19  H        0  -0.286879         -2.524509         -0.779329
     20     20  C        0  -1.771822         -1.333861         -1.715906
     21     21  H        0  -2.427586         -2.191286         -1.868714
     22     22  C        0  -2.197613          0.019360         -2.230153
     23     23  H        0  -2.574578         -0.098500         -3.262131
     24     24  H        0  -3.051753          0.466255         -1.628470
     25     25  C        0  -1.039676          0.986473         -2.182213
     26     26  C        0   0.101080          0.708906         -1.526797
     27     27  H        0   0.907408          1.445225         -1.492447
     28     28  C        0  -1.179605          2.334972         -2.795495
     29     29  O        0  -0.468645          3.279172         -2.471063
     30     30  N        0  -2.179382          2.477566         -3.705796
     31     31  H        0  -2.145371          3.360322         -4.209747
     32     32  H        0  -2.533766          1.680800         -4.238387
     33     33  C        0   0.521065          2.111458          3.714199
     34     34  C        0  -1.082191          2.228039          1.467306
     35     35  C        0  -1.815798          2.977708          0.428932
     36     36  C        0  -3.869355          3.370220         -0.931434
     37     37  C        0  -3.011112          2.560196         -0.017442
     38     38  O        0  -1.149134          1.024677          1.650317
     39     39  S        0  -0.135113          3.289849          2.509646
     40     40  H        0  -0.319346          1.636638          4.238387
     41     41  H        0   1.099559          1.333333          3.198250
     42     42  H        0  -4.193843          2.780189         -1.796333
     43     43  H        0  -3.322776          4.240682         -1.318047
     44     44  H        0  -4.777165          3.713952         -0.404970
     45     45  H        0  -3.419221          1.633589          0.406111
     46     46  H        0  -1.366927          3.910210          0.069660
     47     47  H        0   2.517493         -4.326590         -0.362055
     48     48  H        0   1.154627          2.625790          4.436807
 ---------------------------------------------------------------------------------------------------
                         Z-Matrix orientation:                         
 ---------------------------------------------------------------------
 Center     Atomic      Atomic             Coordinates (Angstroms)
 Number     Number       Type             X           Y           Z
 ---------------------------------------------------------------------
      1          6           0        3.411398   -3.833496   -0.744016
      2          1           0        3.470105   -3.961940   -1.833485
      3          1           0        4.316877   -4.240682   -0.271465
      4          6           0        1.589710   -1.550315    0.989826
      5          1           0        0.970159   -2.459655    0.870589
      6          8           0        1.119861   -0.780094    2.055568
      7          1           0        0.531393   -0.088091    1.706404
      8          6           0        3.046312   -2.008928    1.076505
      9          1           0        3.167765   -2.899308    1.720584
     10          8           0        3.835875   -0.948842    1.538100
     11          1           0        4.777165   -1.133215    1.300469
     12          6           0        1.605148   -0.822648   -0.352367
     13          1           0        2.147010    0.125993   -0.209420
     14          6           0        3.331987   -2.348190   -0.416205
     15          1           0        4.303880   -1.907152   -0.687847
     16          8           0        2.311506   -1.716891   -1.180566
     17          7           0        0.324655   -0.506180   -0.892888
     18          6           0       -0.599896   -1.534299   -1.106166
     19          1           0       -0.286879   -2.524509   -0.779329
     20          6           0       -1.771822   -1.333861   -1.715906
     21          1           0       -2.427586   -2.191286   -1.868714
     22          6           0       -2.197613    0.019360   -2.230153
     23          1           0       -2.574578   -0.098500   -3.262131
     24          1           0       -3.051753    0.466255   -1.628470
     25          6           0       -1.039676    0.986473   -2.182213
     26          6           0        0.101080    0.708906   -1.526797
     27          1           0        0.907408    1.445225   -1.492447
     28          6           0       -1.179605    2.334972   -2.795495
     29          8           0       -0.468645    3.279172   -2.471063
     30          7           0       -2.179382    2.477566   -3.705796
     31          1           0       -2.145371    3.360322   -4.209747
     32          1           0       -2.533766    1.680800   -4.238387
     33          6           0        0.521065    2.111458    3.714199
     34          6           0       -1.082191    2.228039    1.467306
     35          6           0       -1.815798    2.977708    0.428932
     36          6           0       -3.869355    3.370220   -0.931434
     37          6           0       -3.011112    2.560196   -0.017442
     38          8           0       -1.149134    1.024677    1.650317
     39         16           0       -0.135113    3.289849    2.509646
     40          1           0       -0.319346    1.636638    4.238387
     41          1           0        1.099559    1.333333    3.198250
     42          1           0       -4.193843    2.780189   -1.796333
     43          1           0       -3.322776    4.240682   -1.318047
     44          1           0       -4.777165    3.713952   -0.404970
     45          1           0       -3.419221    1.633589    0.406111
     46          1           0       -1.366927    3.910210    0.069660
     47          1           0        2.517493   -4.326590   -0.362055
     48          1           0        1.154627    2.625790    4.436807
 ---------------------------------------------------------------------
                    Distance matrix (angstroms):
                    1          2          3          4          5
     1  C    0.000000
     2  H    1.098584   0.000000
     3  H    1.099544   1.798507   0.000000
     4  C    3.396714   4.162078   4.033158   0.000000
     5  H    3.233270   3.977261   3.959402   1.106779   0.000000
     6  O    4.734139   5.547298   5.254680   1.396354   2.060949
     7  H    5.322316   6.014445   5.957001   1.942066   2.552532
     8  C    2.603197   3.530141   2.900359   1.529551   2.134471
     9  H    2.646945   3.721827   2.662329   2.200920   2.396927
    10  O    3.702630   4.536533   3.787096   2.389065   3.307636
    11  H    3.651953   4.419475   3.512719   3.229604   4.054323
    12  C    3.532865   3.940422   4.363826   1.526833   2.139771
    13  H    4.190707   4.593405   4.876477   2.135131   3.039239
    14  C    1.523122   2.152196   2.138336   2.376774   2.691931
    15  H    2.123790   2.495961   2.370423   3.210706   3.721247
    16  O    2.424944   2.609386   3.349253   2.293325   2.560888
    17  N    4.541055   4.766640   5.501864   2.497037   2.709722
    18  C    4.637665   4.794511   5.674142   3.031140   2.688665
    19  H    3.923257   4.158411   4.939407   2.756909   2.075230
    20  C    5.835967   5.865017   6.899875   4.320618   3.933933
    21  H    6.168916   6.157858   7.227656   4.971998   4.372697
    22  C    6.965207   6.937660   8.026394   5.213057   5.078868
    23  H    7.491529   7.314738   8.578689   6.126026   5.934609
    24  H    7.812966   7.885783   8.848358   5.697825   5.566150
    25  C    6.716589   6.704217   7.724427   4.838471   5.023429
    26  C    5.674889   5.767251   6.621723   3.695063   4.067251
    27  H    5.890247   5.993426   6.741277   3.949744   4.564643
    28  C    7.958384   7.886467   8.934275   6.090420   6.407036
    29  O    8.284170   8.267645   9.180831   6.287967   6.794920
    30  N    8.936356   8.768665   9.956448   7.244221   7.432298
    31  H    9.728309   9.528678  10.725949   8.068503   8.329975
    32  H    8.829670   8.583154   9.885936   7.401174   7.451342
    33  C    7.973217   8.738409   8.404962   4.687515   5.402118
    34  C    7.862855   8.362682   8.603349   4.652204   5.151960
    35  C    8.665558   9.012104   9.497653   5.693425   6.125483
    36  C   10.243926  10.413546  11.197133   7.596335   7.788172
    37  C    9.091526   9.372430  10.000794   6.251276   6.468232
    38  O    7.080475   7.638101   7.829082   3.816818   4.152102
    39  S    8.596866   9.189604   9.179526   5.358364   6.079879
    40  H    8.286445   9.086894   8.739349   4.935010   5.457518
    41  H    6.897984   7.679698   7.311614   3.665080   4.452135
    42  H   10.133504  10.207536  11.137783   7.743736   7.825303
    43  H   10.529528  10.662641  11.462686   7.936904   8.253117
    44  H   11.141431  11.356823  12.082865   8.378250   8.530663
    45  H    8.824351   9.153608   9.737216   5.963838   6.019722
    46  H    9.135614   9.433429   9.942788   6.277400   6.832177
    47  H    1.090000   1.790403   1.803710   3.224293   2.720129
    48  H    8.582326   9.384891   8.905958   5.432387   6.213991
                    6          7          8          9         10
     6  O    0.000000
     7  H    0.973180   0.000000
     8  C    2.485922   3.226640   0.000000
     9  H    2.966006   3.854037   1.105607   0.000000
    10  O    2.770015   3.418892   1.400094   2.069780   0.000000
    11  H    3.751098   4.391315   1.952661   2.426057   0.988174
    12  C    2.456718   2.435377   2.350721   3.324367   2.926762
    13  H    2.646922   2.515240   2.649573   3.730859   2.657323
    14  C    3.669072   4.178139   1.557207   2.212819   2.455888
    15  H    4.351386   4.824218   2.169049   2.841772   2.468244
    16  O    3.573538   3.762498   2.391568   3.247763   3.210101
    17  N    3.066068   2.640806   3.680241   4.543190   4.293521
    18  C    3.677356   3.358851   4.275998   4.903981   5.197208
    19  H    3.613660   3.575551   3.849689   4.280725   4.985008
    20  C    4.784611   4.309170   5.609607   6.217685   6.494849
    21  H    5.475019   5.095140   6.218611   6.685230   7.237471
    22  C    5.478336   4.791190   6.522782   7.274217   7.179146
    23  H    6.510865   5.859480   7.353088   8.102251   8.053521
    24  H    5.703322   4.926218   7.115463   7.824678   7.711620
    25  C    5.073770   4.329467   6.023866   6.930634   6.430954
    26  C    4.011031   3.357672   4.778932   5.741885   5.107878
    27  H    4.193518   3.567225   4.806828   5.857282   4.846823
    28  C    6.206770   5.391275   7.191677   8.166535   7.397197
    29  O    6.284217   5.458000   7.273525   8.304637   7.244197
    30  N    7.395314   6.574405   8.384921   9.324610   8.684586
    31  H    8.188953   7.352378   9.150239  10.128238   9.347831
    32  H    7.682374   6.918433   8.543971   9.433673   8.991949
    33  C    3.386840   2.978147   5.505622   6.007270   5.008872
    34  C    3.774116   2.832892   5.928672   6.664531   5.855336
    35  C    5.038364   4.066985   6.994712   7.813040   6.970614
    36  C    7.144198   6.187462   8.988520   9.790876   9.171884
    37  C    5.702618   4.747042   7.665898   8.426473   7.849477
    38  O    2.927416   2.016326   5.209010   5.834228   5.362619
    39  S    4.283175   3.535521   6.344477   7.059554   5.888901
    40  H    3.560423   3.179526   5.883477   6.250927   5.589465
    41  H    2.402646   2.137490   4.411616   4.937229   3.930884
    42  H    7.466472   6.544009   9.143778   9.940758   9.460470
    43  H    7.505098   6.537599   9.238874  10.116317   9.291664
    44  H    7.811890   6.862523   9.805759  10.553441   9.985071
    45  H    5.399059   4.501366   7.451206   8.103295   7.783751
    46  H    5.668060   4.719000   7.451618   8.346168   7.268828
    47  H    4.513968   5.117420   2.778608   2.607177   4.093642
    48  H    4.155906   3.899830   6.029155   6.477446   5.326311
                   11         12         13         14         15
    11  H    0.000000
    12  C    3.590266   0.000000
    13  H    3.283761   1.101803   0.000000
    14  C    2.551798   2.305066   2.751094   0.000000
    15  H    2.185493   2.927772   3.002443   1.101308   0.000000
    16  O    3.546222   1.408733   2.089595   1.422733   2.061195
    17  N    5.002883   1.425474   2.046399   3.558691   4.223624
    18  C    5.904705   2.436571   3.332599   4.074085   4.935689
    19  H    5.648522   2.580386   3.643319   3.641310   4.632987
    20  C    7.213045   3.677568   4.444988   5.363484   6.188677
    21  H    7.941767   4.520555   5.389802   5.941976   6.840162
    22  C    7.901978   4.323893   4.792753   6.282689   6.954105
    23  H    8.714131   5.144047   5.626974   6.931660   7.563818
    24  H    8.510520   4.997643   5.399687   7.081160   7.786088
    25  C    7.103365   3.690034   3.845426   5.774964   6.257778
    26  C    5.766508   2.446868   2.502219   4.584541   5.021068
    27  H    5.424367   2.632466   2.218816   4.628918   4.839611
    28  C    8.018002   4.867678   4.757493   6.924413   7.246130
    29  O    7.823819   5.061069   4.679660   7.094678   7.270131
    30  N    9.300214   6.038176   6.039222   8.030225   8.388471
    31  H    9.923501   6.814911   6.699853   8.773798   9.041178
    32  H    9.594130   6.204758   6.368647   8.077679   8.499008
    33  C    5.870977   5.130416   4.688342   6.697013   7.059527
    34  C    6.757064   4.454177   4.202112   6.631324   7.124202
    35  C    7.818339   5.172621   4.923781   7.455142   7.909457
    36  C   10.001231   6.919945   6.873351   9.210049   9.731997
    37  C    8.719830   5.732858   5.706874   8.030329   8.597427
    38  O    6.316638   3.874199   3.889835   5.977223   6.618005
    39  S    6.719827   5.303985   4.755143   7.236634   7.545690
    40  H    6.502144   5.552188   5.305464   7.132764   7.628922
    41  H    4.817699   4.184585   3.763912   5.621533   5.989171
    42  H   10.265666   6.978092   7.054748   9.211035   9.767866
    43  H   10.066998   7.131219   6.933850   9.408105   9.816257
    44  H   10.848446   7.830544   7.801018  10.124626  10.683736
    45  H    8.696886   5.643817   5.799539   7.880964   8.566206
    46  H    8.043687   5.604577   5.171647   7.841138   8.159263
    47  H    4.250617   3.620784   4.470576   2.140186   3.025062
    48  H    6.090116   5.918689   5.368541   7.282383   7.531762
                   16         17         18         19         20
    16  O    0.000000
    17  N    2.344389   0.000000
    18  C    2.918071   1.399039   0.000000
    19  H    2.750426   2.111995   1.088723   0.000000
    20  C    4.136045   2.399507   1.336177   2.121291   0.000000
    21  H    4.812233   3.371446   2.086519   2.424958   1.090208
    22  C    4.944528   2.902810   2.495978   3.496722   1.508959
    23  H    5.552109   3.766307   3.257157   4.157330   2.135731
    24  H    5.807865   3.589825   3.207277   4.160558   2.210495
    25  C    4.420622   2.398285   2.775892   3.855098   2.477384
    26  C    3.300053   1.388617   2.387523   3.341285   2.777845
    27  H    3.473866   2.122982   3.361360   4.206382   3.866721
    28  C    5.586900   3.735620   4.261590   5.336332   3.869957
    29  O    5.861337   4.177182   5.004965   6.047951   4.852691
    30  N    6.643668   4.804726   5.034671   6.096435   4.318882
    31  H    7.403903   5.661486   5.998169   7.060665   5.328615
    32  H    6.661174   4.913839   4.887487   5.890519   4.003955
    33  C    6.466890   5.302438   6.146871   6.506670   6.827415
    34  C    5.838740   3.876298   4.583728   5.316634   4.826548
    35  C    6.454796   4.297234   4.918654   5.837112   4.815796
    36  C    8.008983   5.711189   5.896966   6.899645   5.209935
    37  C    6.926514   4.614803   4.874851   5.818603   4.425415
    38  O    5.244628   3.314131   3.801081   4.386727   4.157150
    39  S    6.683641   5.118443   6.046695   6.681852   6.474010
    40  H    6.894389   5.597892   6.220756   6.518717   6.810812
    41  H    5.472359   4.552108   5.444213   5.711942   6.285514
    42  H    7.932369   5.659793   5.657526   6.666220   4.774732
    43  H    8.201019   6.001434   6.388222   7.434695   5.799938
    44  H    8.963530   6.638987   6.744286   7.695531   6.019224
    45  H    6.825284   4.503623   4.502343   5.339158   4.002829
    46  H    6.837997   4.826225   5.622596   6.579733   5.554500
    47  H    2.742794   4.436875   4.250730   3.359482   5.402552
    48  H    7.193896   6.237286   7.149073   7.470715   7.880280
                   21         22         23         24         25
    21  H    0.000000
    22  C    2.251773   0.000000
    23  H    2.518525   1.104975   0.000000
    24  H    2.740407   1.136351   1.793180   0.000000
    25  C    3.481771   1.509445   2.167790   2.150747   0.000000
    26  C    3.862922   2.500835   3.289747   3.163791   1.344596
    27  H    4.948533   3.495492   4.199892   4.080667   2.115979
    28  C    4.785748   2.591912   2.843498   2.891191   1.488000
    29  O    5.841762   3.697803   4.058253   3.910871   2.380332
    30  N    5.023410   2.867164   2.643697   3.020213   2.417352
    31  H    6.031620   3.883755   3.611876   3.982480   3.311890
    32  H    4.540890   2.628001   2.029939   2.924910   2.634815
    33  C    7.640489   6.863193   7.945823   6.634443   6.202352
    34  C    5.698206   4.449004   5.477918   4.070244   3.855163
    35  C    5.689636   3.996041   4.864437   3.473886   3.374235
    36  C    5.821301   3.963541   4.374999   3.096343   3.905609
    37  C    5.132669   3.466082   4.217491   2.642281   3.324063
    38  O    4.935629   4.143431   5.236942   3.831741   3.834283
    39  S    7.380265   6.116838   7.123574   5.796850   5.304461
    40  H    7.509618   6.927156   8.022129   6.576918   6.493512
    41  H    7.108995   6.485787   7.568748   6.425141   5.800518
    42  H    5.276407   3.434431   3.613508   2.585892   3.648985
    43  H    6.517270   4.462902   4.813290   3.796855   4.068071
    44  H    6.521879   4.861625   5.248766   3.875762   4.956466
    45  H    4.559368   3.323846   4.143616   2.374283   3.574971
    46  H    6.489264   4.595421   5.350608   4.193221   3.704897
    47  H    5.593152   6.679019   7.226090   7.455983   6.647937
    48  H    8.706093   7.904388   8.977882   7.690566   7.163362
                   26         27         28         29         30
    26  C    0.000000
    27  H    1.092480   0.000000
    28  C    2.427723   2.616335   0.000000
    29  O    2.796872   2.492904   1.225657   0.000000
    30  N    3.616172   3.936104   1.359608   2.256936   0.000000
    31  H    4.390304   4.513399   1.996035   2.416820   1.017046
    32  H    3.903808   4.408782   2.084138   3.153245   1.021801
    33  C    5.441652   5.263296   6.731891   6.371856   7.904605
    34  C    3.559852   3.651224   4.265255   4.122144   5.294061
    35  C    3.556228   3.668249   3.348848   3.211802   4.180708
    36  C    4.816783   5.180522   3.432377   3.734110   3.368965
    37  C    3.923157   4.332851   3.335074   3.605734   3.781872
    38  O    3.428819   3.779311   4.634981   4.746745   5.644488
    39  S    4.796866   4.528381   5.490653   4.991875   6.593221
    40  H    5.854468   5.863789   7.120619   6.909191   8.202252
    41  H    4.869593   4.695964   6.490211   6.195697   7.728297
    42  H    4.775901   5.281784   3.206583   3.818553   2.792076
    43  H    4.923394   5.073406   3.226107   3.224905   3.180766
    44  H    5.838328   6.216438   4.534163   4.798033   4.378650
    45  H    4.121127   4.728607   3.969647   4.437564   4.376903
    46  H    3.866790   3.699855   3.274993   2.767741   4.119056
    47  H    5.705427   6.097869   7.997910   8.438753   8.918395
    48  H    6.352085   6.050695   7.605223   7.126050   8.799976
                   31         32         33         34         35
    31  H    0.000000
    32  H    1.724084   0.000000
    33  C    8.453311   8.530011   0.000000
    34  C    5.885691   5.912823   2.762707   0.000000
    35  C    4.666086   4.897073   4.123627   1.475942   0.000000
    36  C    3.703992   3.946375   6.514766   3.850560   2.494345
    37  C    4.354897   4.337923   5.157789   2.456734   1.342513
    38  O    6.386555   6.084780   2.868844   1.219039   2.398031
    39  S    7.014011   7.340199   1.808349   1.763765   2.692861
    40  H    8.813423   8.761353   1.098417   2.934378   4.306946
    41  H    8.337666   8.284042   1.098333   2.925183   4.344237
    42  H    3.218286   3.150896   7.283099   4.542972   3.262808
    43  H    3.243955   3.962817   6.680735   4.102334   2.630214
    44  H    4.639798   4.884837   6.899768   4.400704   3.163407
    45  H    5.090231   4.728385   5.166978   2.634619   2.092401
    46  H    4.384254   4.989094   4.481371   2.205490   1.095501
    47  H    9.779348   8.753851   7.877184   7.698536   8.529704
    48  H    9.283988   9.473977   1.090000   3.738916   5.001033
                   36         37         38         39         40
    36  C    0.000000
    37  C    1.492683   0.000000
    38  O    4.423417   2.933633   0.000000
    39  S    5.078587   3.897427   2.626345   0.000000
    40  H    6.506529   5.119633   2.785884   2.399082   0.000000
    41  H    6.774459   5.361294   2.747359   2.413824   1.785265
    42  H    1.096120   2.147488   4.922547   5.939234   7.262044
    43  H    1.098145   2.147729   4.886573   5.071145   6.831954
    44  H    1.104280   2.144825   4.961756   5.497590   6.763738
    45  H    2.237752   1.097521   2.659346   4.237148   4.929054
    46  H    2.748804   2.129194   3.297304   2.802810   4.862596
    47  H   10.017829   8.838102   6.791896   8.561141   8.048094
    48  H    7.390033   6.099018   3.954163   2.412127   1.786166
                   41         42         43         44         45
    41  H    0.000000
    42  H    7.420199   0.000000
    43  H    6.957490   1.766509   0.000000
    44  H    7.292902   1.774279   1.796218   0.000000
    45  H    5.320297   2.601056   3.127133   2.613384   0.000000
    46  H    4.744673   3.570761   2.420803   3.448697   3.083523
    47  H    6.835279   9.879550  10.412532  10.856528   8.447390
    48  H    1.790950   8.214743   7.468157   7.733891   6.176654
                   46         47         48
    46  H    0.000000
    47  H    9.117016   0.000000
    48  H    5.203839   8.556989   0.000000
 Symmetry turned off by external request.
 Stoichiometry    C16H24N2O5S
 Framework group  C1[X(C16H24N2O5S)]
 Deg. of freedom   138
 Full point group                 C1      NOp   1
 Rotational constants (GHZ):           0.2867891           0.1633676           0.1206697
 Leave Link  202 at Sun Feb 19 04:00:04 2023, MaxMem=  2684354560 cpu:               0.2 elap:               0.0
 (Enter /storage/apps/GAUSSIAN/G16_RevA03/g16/l301.exe)
 Standard basis: def2TZVP (5D, 7F)
 Ernie: Thresh=  0.10000D-02 Tol=  0.10000D-05 Strict=F.
   894 basis functions,  1434 primitive gaussians,  1014 cartesian basis functions
    95 alpha electrons       95 beta electrons
       nuclear repulsion energy      2414.8733213166 Hartrees.
 IExCor= 4336 DFT=T Ex+Corr=M062X ExCW=0 ScaHFX=  0.540000
 ScaDFX=  1.000000  1.000000  1.000000  1.000000 ScalE2=  1.000000  1.000000
 IRadAn=      5 IRanWt=     -1 IRanGd=            0 ICorTp=0 IEmpDi=131
 NAtoms=   48 NActive=   48 NUniq=   48 SFac= 1.00D+00 NAtFMM=   60 NAOKFM=F Big=F
 Integral buffers will be    131072 words long.
 Raffenetti 2 integral format.
 Two-electron integral symmetry is turned off.
 R6Disp:  Grimme-D3 Dispersion energy=       -0.0041326130 Hartrees.
 Nuclear repulsion after empirical dispersion term =     2414.8691887036 Hartrees.
 Leave Link  301 at Sun Feb 19 04:00:04 2023, MaxMem=  2684354560 cpu:               0.8 elap:               0.1
 (Enter /storage/apps/GAUSSIAN/G16_RevA03/g16/l302.exe)
 NPDir=0 NMtPBC=     1 NCelOv=     1 NCel=       1 NClECP=     1 NCelD=      1
         NCelK=      1 NCelE2=     1 NClLst=     1 CellRange=     0.0.
 One-electron integrals computed using PRISM.
   1 Symmetry operations used in ECPInt.
 ECPInt:  NShTT=   65703 NPrTT=  200010 LenC2=   55711 LenP2D=  117783.
 LDataN:  DoStor=T MaxTD1= 6 Len=  172
 NBasis=   894 RedAO= T EigKep=  3.16D-05  NBF=   894
 NBsUse=   894 1.00D-06 EigRej= -1.00D+00 NBFU=   894
 Precomputing XC quadrature grid using
 IXCGrd= 4 IRadAn=           5 IRanWt=          -1 IRanGd=           0 AccXCQ= 0.00D+00.
 Generated NRdTot=       0 NPtTot=           0 NUsed=           0 NTot=          32
 NSgBfM=   998   998   998   998   998 MxSgAt=    48 MxSgA2=    48.
 Leave Link  302 at Sun Feb 19 04:00:05 2023, MaxMem=  2684354560 cpu:              18.0 elap:               1.1
 (Enter /storage/apps/GAUSSIAN/G16_RevA03/g16/l303.exe)
 DipDrv:  MaxL=1.
 Leave Link  303 at Sun Feb 19 04:00:06 2023, MaxMem=  2684354560 cpu:               2.0 elap:               0.2
 (Enter /storage/apps/GAUSSIAN/G16_RevA03/g16/l401.exe)
 ExpMin= 9.52D-02 ExpMax= 6.07D+04 ExpMxC= 2.07D+03 IAcc=3 IRadAn=         5 AccDes= 0.00D+00
 Harris functional with IExCor= 1009 and IRadAn=       5 diagonalized for initial guess.
 HarFok:  IExCor= 1009 AccDes= 0.00D+00 IRadAn=         5 IDoV= 1 UseB2=F ITyADJ=14
 ICtDFT=  3500011 ScaDFX=  1.000000  1.000000  1.000000  1.000000
 FoFCou: FMM=F IPFlag=           0 FMFlag=      100000 FMFlg1=           0
         NFxFlg=           0 DoJE=T BraDBF=F KetDBF=T FulRan=T
         wScrn=  0.000000 ICntrl=       500 IOpCl=  0 I1Cent=   200000004 NGrid=           0
         NMat0=    1 NMatS0=      1 NMatT0=    0 NMatD0=    1 NMtDS0=    0 NMtDT0=    0
 Symmetry not used in FoFCou.
 Harris En= -1507.22717200223    
 JPrj=0 DoOrth=F DoCkMO=F.
 Leave Link  401 at Sun Feb 19 04:00:09 2023, MaxMem=  2684354560 cpu:              56.4 elap:               3.6
 (Enter /storage/apps/GAUSSIAN/G16_RevA03/g16/l502.exe)
 Two-electron integral symmetry not used.
 Closed shell SCF:
 Using DIIS extrapolation, IDIIS=  1040.
 NGot=  2684354560 LenX=  2682275214 LenY=  2681246004
 Requested convergence on RMS density matrix=1.00D-08 within 128 cycles.
 Requested convergence on MAX density matrix=1.00D-06.
 Requested convergence on             energy=1.00D-06.
 No special actions if energy rises.
 Fock matrices will be formed incrementally for  20 cycles.
 Integral accuracy reduced to 1.0D-05 until final iterations.

 Cycle   1  Pass 0  IDiag  1:
 FoFJK:  IHMeth= 1 ICntrl=       0 DoSepK=F KAlg= 0 I1Cent=           0 FoldK=F
 IRaf= 770000000 NMat=       1 IRICut=       1 DoRegI=T DoRafI=F ISym2E= 0 IDoP0=0 IntGTp=1.
 FoFCou: FMM=F IPFlag=           0 FMFlag=      100000 FMFlg1=           0
         NFxFlg=           0 DoJE=F BraDBF=F KetDBF=F FulRan=T
         wScrn=  0.000000 ICntrl=         0 IOpCl=  0 I1Cent=           0 NGrid=           0
         NMat0=    1 NMatS0=      1 NMatT0=    0 NMatD0=    1 NMtDS0=    0 NMtDT0=    0
 Symmetry not used in FoFCou.
 E= -1507.16491184005    
 DIIS: error= 1.66D-02 at cycle   1 NSaved=   1.
 NSaved= 1 IEnMin= 1 EnMin= -1507.16491184005     IErMin= 1 ErrMin= 1.66D-02
 ErrMax= 1.66D-02  0.00D+00 EMaxC= 1.00D-01 BMatC= 9.93D-01 BMatP= 9.93D-01
 IDIUse=3 WtCom= 8.34D-01 WtEn= 1.66D-01
 Coeff-Com:  0.100D+01
 Coeff-En:   0.100D+01
 Coeff:      0.100D+01
 Gap=     0.385 Goal=   None    Shift=    0.000
 GapD=    0.385 DampG=1.000 DampE=0.500 DampFc=0.5000 IDamp=-1.
 Damping current iteration by 5.00D-01
 RMSDP=4.59D-03 MaxDP=1.65D+00              OVMax= 2.08D-01

 Cycle   2  Pass 0  IDiag  1:
 RMSU=  2.29D-03    CP:  1.03D+00
 E= -1507.49768389014     Delta-E=       -0.332772050084 Rises=F Damp=T
 DIIS: error= 3.85D-03 at cycle   2 NSaved=   2.
 NSaved= 2 IEnMin= 2 EnMin= -1507.49768389014     IErMin= 2 ErrMin= 3.85D-03
 ErrMax= 3.85D-03  0.00D+00 EMaxC= 1.00D-01 BMatC= 9.05D-02 BMatP= 9.93D-01
 IDIUse=3 WtCom= 9.62D-01 WtEn= 3.85D-02
 Coeff-Com:  0.524D-02 0.995D+00
 Coeff-En:   0.585D-01 0.942D+00
 Coeff:      0.729D-02 0.993D+00
 Gap=     0.353 Goal=   None    Shift=    0.000
 RMSDP=1.42D-03 MaxDP=5.37D-01 DE=-3.33D-01 OVMax= 1.70D-01

 Cycle   3  Pass 0  IDiag  1:
 RMSU=  1.03D-03    CP:  1.01D+00  5.77D-01
 E= -1507.86008419190     Delta-E=       -0.362400301766 Rises=F Damp=F
 DIIS: error= 5.56D-03 at cycle   3 NSaved=   3.
 NSaved= 3 IEnMin= 3 EnMin= -1507.86008419190     IErMin= 2 ErrMin= 3.85D-03
 ErrMax= 5.56D-03  0.00D+00 EMaxC= 1.00D-01 BMatC= 5.89D-02 BMatP= 9.05D-02
 IDIUse=3 WtCom= 9.44D-01 WtEn= 5.56D-02
 Coeff-Com: -0.777D-01 0.465D+00 0.613D+00
 Coeff-En:   0.000D+00 0.000D+00 0.100D+01
 Coeff:     -0.734D-01 0.439D+00 0.634D+00
 Gap=     0.223 Goal=   None    Shift=    0.000
 RMSDP=3.76D-04 MaxDP=6.56D-02 DE=-3.62D-01 OVMax= 6.99D-02

 Cycle   4  Pass 0  IDiag  1:
 RMSU=  3.12D-04    CP:  1.01D+00  6.61D-01  9.24D-01
 E= -1507.89816531542     Delta-E=       -0.038081123518 Rises=F Damp=F
 DIIS: error= 3.00D-03 at cycle   4 NSaved=   4.
 NSaved= 4 IEnMin= 4 EnMin= -1507.89816531542     IErMin= 4 ErrMin= 3.00D-03
 ErrMax= 3.00D-03  0.00D+00 EMaxC= 1.00D-01 BMatC= 1.13D-02 BMatP= 5.89D-02
 IDIUse=3 WtCom= 9.70D-01 WtEn= 3.00D-02
 Coeff-Com: -0.358D-01 0.970D-01 0.342D+00 0.597D+00
 Coeff-En:   0.000D+00 0.000D+00 0.133D+00 0.867D+00
 Coeff:     -0.347D-01 0.941D-01 0.335D+00 0.605D+00
 Gap=     0.224 Goal=   None    Shift=    0.000
 RMSDP=1.18D-04 MaxDP=1.37D-02 DE=-3.81D-02 OVMax= 1.77D-02

 Cycle   5  Pass 0  IDiag  1:
 RMSU=  7.84D-05    CP:  1.01D+00  6.56D-01  9.52D-01  7.34D-01
 E= -1507.90648508668     Delta-E=       -0.008319771256 Rises=F Damp=F
 DIIS: error= 5.22D-04 at cycle   5 NSaved=   5.
 NSaved= 5 IEnMin= 5 EnMin= -1507.90648508668     IErMin= 5 ErrMin= 5.22D-04
 ErrMax= 5.22D-04  0.00D+00 EMaxC= 1.00D-01 BMatC= 4.48D-04 BMatP= 1.13D-02
 IDIUse=3 WtCom= 9.95D-01 WtEn= 5.22D-03
 Coeff-Com: -0.103D-01 0.174D-01 0.117D+00 0.270D+00 0.605D+00
 Coeff-En:   0.000D+00 0.000D+00 0.000D+00 0.000D+00 0.100D+01
 Coeff:     -0.103D-01 0.173D-01 0.117D+00 0.269D+00 0.607D+00
 Gap=     0.223 Goal=   None    Shift=    0.000
 RMSDP=5.49D-05 MaxDP=1.89D-02 DE=-8.32D-03 OVMax= 4.32D-03

 Cycle   6  Pass 0  IDiag  1:
 RMSU=  3.25D-05    CP:  1.01D+00  6.39D-01  9.64D-01  7.59D-01  8.67D-01
 E= -1507.90683456765     Delta-E=       -0.000349480971 Rises=F Damp=F
 DIIS: error= 1.52D-04 at cycle   6 NSaved=   6.
 NSaved= 6 IEnMin= 6 EnMin= -1507.90683456765     IErMin= 6 ErrMin= 1.52D-04
 ErrMax= 1.52D-04  0.00D+00 EMaxC= 1.00D-01 BMatC= 5.83D-05 BMatP= 4.48D-04
 IDIUse=3 WtCom= 9.98D-01 WtEn= 1.52D-03
 Coeff-Com:  0.266D-03-0.459D-02 0.105D-01 0.421D-01 0.277D+00 0.674D+00
 Coeff-En:   0.000D+00 0.000D+00 0.000D+00 0.000D+00 0.000D+00 0.100D+01
 Coeff:      0.266D-03-0.459D-02 0.105D-01 0.420D-01 0.277D+00 0.675D+00
 Gap=     0.224 Goal=   None    Shift=    0.000
 RMSDP=1.98D-05 MaxDP=1.77D-03 DE=-3.49D-04 OVMax= 2.53D-03

 Cycle   7  Pass 0  IDiag  1:
 RMSU=  1.80D-05    CP:  1.01D+00  6.39D-01  9.68D-01  7.67D-01  9.49D-01
                    CP:  9.88D-01
 E= -1507.90690701357     Delta-E=       -0.000072445925 Rises=F Damp=F
 DIIS: error= 5.46D-05 at cycle   7 NSaved=   7.
 NSaved= 7 IEnMin= 7 EnMin= -1507.90690701357     IErMin= 7 ErrMin= 5.46D-05
 ErrMax= 5.46D-05  0.00D+00 EMaxC= 1.00D-01 BMatC= 8.44D-06 BMatP= 5.83D-05
 IDIUse=1 WtCom= 1.00D+00 WtEn= 0.00D+00
 Coeff-Com:  0.175D-02-0.479D-02-0.119D-01-0.246D-01 0.155D-01 0.271D+00
 Coeff-Com:  0.753D+00
 Coeff:      0.175D-02-0.479D-02-0.119D-01-0.246D-01 0.155D-01 0.271D+00
 Coeff:      0.753D+00
 Gap=     0.225 Goal=   None    Shift=    0.000
 RMSDP=1.85D-05 MaxDP=5.22D-03 DE=-7.24D-05 OVMax= 2.08D-03

 Cycle   8  Pass 0  IDiag  1:
 RMSU=  1.06D-05    CP:  1.01D+00  6.34D-01  9.71D-01  7.74D-01  1.02D+00
                    CP:  1.18D+00  1.31D+00
 E= -1507.90692246254     Delta-E=       -0.000015448965 Rises=F Damp=F
 DIIS: error= 3.64D-05 at cycle   8 NSaved=   8.
 NSaved= 8 IEnMin= 8 EnMin= -1507.90692246254     IErMin= 8 ErrMin= 3.64D-05
 ErrMax= 3.64D-05  0.00D+00 EMaxC= 1.00D-01 BMatC= 1.95D-06 BMatP= 8.44D-06
 IDIUse=1 WtCom= 1.00D+00 WtEn= 0.00D+00
 Coeff-Com:  0.854D-03-0.152D-02-0.713D-02-0.210D-01-0.432D-01-0.220D-03
 Coeff-Com:  0.353D+00 0.719D+00
 Coeff:      0.854D-03-0.152D-02-0.713D-02-0.210D-01-0.432D-01-0.220D-03
 Coeff:      0.353D+00 0.719D+00
 Gap=     0.225 Goal=   None    Shift=    0.000
 RMSDP=1.76D-05 MaxDP=2.98D-03 DE=-1.54D-05 OVMax= 6.73D-04

 Cycle   9  Pass 0  IDiag  1:
 RMSU=  1.04D-05    CP:  1.01D+00  6.33D-01  9.73D-01  7.77D-01  1.08D+00
                    CP:  1.28D+00  1.87D+00  1.73D+00
 E= -1507.90691804859     Delta-E=        0.000004413946 Rises=F Damp=F
 DIIS: error= 2.30D-05 at cycle   9 NSaved=   9.
 NSaved= 9 IEnMin= 8 EnMin= -1507.90692246254     IErMin= 9 ErrMin= 2.30D-05
 ErrMax= 2.30D-05  0.00D+00 EMaxC= 1.00D-01 BMatC= 3.75D-07 BMatP= 1.95D-06
 IDIUse=1 WtCom= 1.00D+00 WtEn= 0.00D+00
 Coeff-Com:  0.194D-03-0.209D-03-0.151D-02-0.671D-02-0.190D-01-0.280D-01
 Coeff-Com:  0.769D-01 0.306D+00 0.673D+00
 Coeff:      0.194D-03-0.209D-03-0.151D-02-0.671D-02-0.190D-01-0.280D-01
 Coeff:      0.769D-01 0.306D+00 0.673D+00
 Gap=     0.225 Goal=   None    Shift=    0.000
 RMSDP=2.18D-05 MaxDP=3.94D-03 DE= 4.41D-06 OVMax= 2.24D-04

 Cycle  10  Pass 0  IDiag  1:
 RMSU=  4.48D-06    CP:  1.01D+00  6.33D-01  9.75D-01  7.82D-01  1.14D+00
                    CP:  1.36D+00  2.46D+00  2.75D+00  2.32D+00
 E= -1507.90691376826     Delta-E=        0.000004280329 Rises=F Damp=F
 DIIS: error= 3.11D-05 at cycle  10 NSaved=  10.
 NSaved=10 IEnMin= 8 EnMin= -1507.90692246254     IErMin= 9 ErrMin= 2.30D-05
 ErrMax= 3.11D-05  0.00D+00 EMaxC= 1.00D-01 BMatC= 4.64D-07 BMatP= 3.75D-07
 IDIUse=1 WtCom= 1.00D+00 WtEn= 0.00D+00
 Coeff-Com:  0.215D-03-0.198D-03-0.171D-02-0.785D-02-0.231D-01-0.365D-01
 Coeff-Com:  0.856D-01 0.372D+00 0.877D+00-0.266D+00
 Coeff:      0.215D-03-0.198D-03-0.171D-02-0.785D-02-0.231D-01-0.365D-01
 Coeff:      0.856D-01 0.372D+00 0.877D+00-0.266D+00
 Gap=     0.225 Goal=   None    Shift=    0.000
 RMSDP=1.20D-05 MaxDP=2.31D-03 DE= 4.28D-06 OVMax= 2.12D-05

 Cycle  11  Pass 0  IDiag  1:
 RMSU=  1.82D-06    CP:  1.01D+00  6.33D-01  9.74D-01  7.79D-01  1.11D+00
                    CP:  1.34D+00  2.16D+00  2.27D+00  1.52D+00  3.09D-01
 E= -1507.90690847893     Delta-E=        0.000005289329 Rises=F Damp=F
 DIIS: error= 2.68D-05 at cycle  11 NSaved=  11.
 NSaved=11 IEnMin= 8 EnMin= -1507.90692246254     IErMin= 9 ErrMin= 2.30D-05
 ErrMax= 2.68D-05  0.00D+00 EMaxC= 1.00D-01 BMatC= 3.14D-07 BMatP= 3.75D-07
 IDIUse=1 WtCom= 1.00D+00 WtEn= 0.00D+00
 Coeff-Com: -0.493D-04 0.238D-03 0.649D-03-0.841D-03-0.731D-02-0.308D-01
 Coeff-Com: -0.243D-01 0.109D+00 0.729D+00-0.205D+01 0.227D+01
 Coeff:     -0.493D-04 0.238D-03 0.649D-03-0.841D-03-0.731D-02-0.308D-01
 Coeff:     -0.243D-01 0.109D+00 0.729D+00-0.205D+01 0.227D+01
 Gap=     0.225 Goal=   None    Shift=    0.000
 RMSDP=2.66D-05 MaxDP=4.50D-03 DE= 5.29D-06 OVMax= 9.75D-05

 Cycle  12  Pass 0  IDiag  1:
 RMSU=  9.53D-06    CP:  1.01D+00  6.29D-01  9.72D-01  7.74D-01  1.07D+00
                    CP:  1.34D+00  1.67D+00  1.69D+00  2.30D-02 -1.95D+00
                    CP:  3.00D+00
 E= -1507.90688388823     Delta-E=        0.000024590705 Rises=F Damp=F
 DIIS: error= 2.09D-05 at cycle  12 NSaved=  12.
 NSaved=12 IEnMin= 8 EnMin= -1507.90692246254     IErMin=12 ErrMin= 2.09D-05
 ErrMax= 2.09D-05  0.00D+00 EMaxC= 1.00D-01 BMatC= 1.66D-07 BMatP= 3.14D-07
 IDIUse=1 WtCom= 1.00D+00 WtEn= 0.00D+00
 Coeff-Com: -0.482D-04 0.234D-03 0.639D-03-0.839D-03-0.723D-02-0.305D-01
 Coeff-Com: -0.239D-01 0.108D+00 0.720D+00-0.202D+01 0.224D+01 0.142D-01
 Coeff:     -0.482D-04 0.234D-03 0.639D-03-0.839D-03-0.723D-02-0.305D-01
 Coeff:     -0.239D-01 0.108D+00 0.720D+00-0.202D+01 0.224D+01 0.142D-01
 Gap=     0.225 Goal=   None    Shift=    0.000
 RMSDP=2.93D-07 MaxDP=6.79D-05 DE= 2.46D-05 OVMax= 7.55D-07

 Initial convergence to 1.0D-05 achieved.  Increase integral accuracy.
 Cycle  13  Pass 1  IDiag  1:
 E= -1507.90678819741     Delta-E=        0.000095690816 Rises=F Damp=F
 DIIS: error= 3.33D-04 at cycle   1 NSaved=   1.
 NSaved= 1 IEnMin= 1 EnMin= -1507.90678819741     IErMin= 1 ErrMin= 3.33D-04
 ErrMax= 3.33D-04  0.00D+00 EMaxC= 1.00D-01 BMatC= 8.51D-05 BMatP= 8.51D-05
 IDIUse=3 WtCom= 9.97D-01 WtEn= 3.33D-03
 Coeff-Com:  0.100D+01
 Coeff-En:   0.100D+01
 Coeff:      0.100D+01
 Gap=     0.225 Goal=   None    Shift=    0.000
 RMSDP=2.93D-07 MaxDP=6.79D-05 DE= 9.57D-05 OVMax= 9.48D-04

 Cycle  14  Pass 1  IDiag  1:
 RMSU=  4.47D-04    CP:  9.95D-01
 E= -1507.90684614434     Delta-E=       -0.000057946925 Rises=F Damp=F
 DIIS: error= 6.81D-06 at cycle   2 NSaved=   2.
 NSaved= 2 IEnMin= 2 EnMin= -1507.90684614434     IErMin= 2 ErrMin= 6.81D-06
 ErrMax= 6.81D-06  0.00D+00 EMaxC= 1.00D-01 BMatC= 7.23D-08 BMatP= 8.51D-05
 IDIUse=1 WtCom= 1.00D+00 WtEn= 0.00D+00
 Coeff-Com: -0.172D-01 0.102D+01
 Coeff:     -0.172D-01 0.102D+01
 Gap=     0.225 Goal=   None    Shift=    0.000
 RMSDP=1.61D-05 MaxDP=1.62D-03 DE=-5.79D-05 OVMax= 7.33D-05

 Cycle  15  Pass 1  IDiag  1:
 RMSU=  5.05D-06    CP:  9.94D-01  1.03D+00
 E= -1507.90684622326     Delta-E=       -0.000000078921 Rises=F Damp=F
 DIIS: error= 4.39D-06 at cycle   3 NSaved=   3.
 NSaved= 3 IEnMin= 3 EnMin= -1507.90684622326     IErMin= 3 ErrMin= 4.39D-06
 ErrMax= 4.39D-06  0.00D+00 EMaxC= 1.00D-01 BMatC= 2.36D-08 BMatP= 7.23D-08
 IDIUse=1 WtCom= 1.00D+00 WtEn= 0.00D+00
 Coeff-Com: -0.710D-02 0.395D+00 0.612D+00
 Coeff:     -0.710D-02 0.395D+00 0.612D+00
 Gap=     0.225 Goal=   None    Shift=    0.000
 RMSDP=4.66D-07 MaxDP=3.57D-05 DE=-7.89D-08 OVMax= 4.10D-05

 Cycle  16  Pass 1  IDiag  1:
 RMSU=  3.22D-07    CP:  9.94D-01  1.03D+00  1.04D+00
 E= -1507.90684624108     Delta-E=       -0.000000017817 Rises=F Damp=F
 DIIS: error= 2.35D-06 at cycle   4 NSaved=   4.
 NSaved= 4 IEnMin= 4 EnMin= -1507.90684624108     IErMin= 4 ErrMin= 2.35D-06
 ErrMax= 2.35D-06  0.00D+00 EMaxC= 1.00D-01 BMatC= 4.51D-09 BMatP= 2.36D-08
 IDIUse=1 WtCom= 1.00D+00 WtEn= 0.00D+00
 Coeff-Com: -0.442D-03 0.145D-01 0.295D+00 0.691D+00
 Coeff:     -0.442D-03 0.145D-01 0.295D+00 0.691D+00
 Gap=     0.225 Goal=   None    Shift=    0.000
 RMSDP=2.66D-07 MaxDP=2.74D-05 DE=-1.78D-08 OVMax= 1.43D-05

 Cycle  17  Pass 1  IDiag  1:
 RMSU=  1.31D-07    CP:  9.94D-01  1.04D+00  1.07D+00  9.62D-01
 E= -1507.90684624483     Delta-E=       -0.000000003756 Rises=F Damp=F
 DIIS: error= 7.13D-07 at cycle   5 NSaved=   5.
 NSaved= 5 IEnMin= 5 EnMin= -1507.90684624483     IErMin= 5 ErrMin= 7.13D-07
 ErrMax= 7.13D-07  0.00D+00 EMaxC= 1.00D-01 BMatC= 6.47D-10 BMatP= 4.51D-09
 IDIUse=1 WtCom= 1.00D+00 WtEn= 0.00D+00
 Coeff-Com:  0.451D-03-0.305D-01 0.102D+00 0.372D+00 0.556D+00
 Coeff:      0.451D-03-0.305D-01 0.102D+00 0.372D+00 0.556D+00
 Gap=     0.225 Goal=   None    Shift=    0.000
 RMSDP=5.37D-08 MaxDP=3.77D-06 DE=-3.76D-09 OVMax= 5.84D-06

 Cycle  18  Pass 1  IDiag  1:
 RMSU=  3.58D-08    CP:  9.94D-01  1.04D+00  1.07D+00  9.98D-01  1.05D+00
 E= -1507.90684624541     Delta-E=       -0.000000000582 Rises=F Damp=F
 DIIS: error= 1.59D-07 at cycle   6 NSaved=   6.
 NSaved= 6 IEnMin= 6 EnMin= -1507.90684624541     IErMin= 6 ErrMin= 1.59D-07
 ErrMax= 1.59D-07  0.00D+00 EMaxC= 1.00D-01 BMatC= 3.08D-11 BMatP= 6.47D-10
 IDIUse=1 WtCom= 1.00D+00 WtEn= 0.00D+00
 Coeff-Com:  0.187D-03-0.112D-01 0.556D-02 0.524D-01 0.185D+00 0.768D+00
 Coeff:      0.187D-03-0.112D-01 0.556D-02 0.524D-01 0.185D+00 0.768D+00
 Gap=     0.225 Goal=   None    Shift=    0.000
 RMSDP=1.58D-08 MaxDP=2.34D-06 DE=-5.82D-10 OVMax= 3.16D-06

 Cycle  19  Pass 1  IDiag  1:
 RMSU=  1.11D-08    CP:  9.94D-01  1.04D+00  1.07D+00  1.01D+00  1.12D+00
                    CP:  1.06D+00
 E= -1507.90684624542     Delta-E=       -0.000000000007 Rises=F Damp=F
 DIIS: error= 8.85D-08 at cycle   7 NSaved=   7.
 NSaved= 7 IEnMin= 7 EnMin= -1507.90684624542     IErMin= 7 ErrMin= 8.85D-08
 ErrMax= 8.85D-08  0.00D+00 EMaxC= 1.00D-01 BMatC= 1.27D-11 BMatP= 3.08D-11
 IDIUse=1 WtCom= 1.00D+00 WtEn= 0.00D+00
 Coeff-Com: -0.139D-05 0.902D-03-0.205D-01-0.609D-01-0.341D-01 0.422D+00
 Coeff-Com:  0.692D+00
 Coeff:     -0.139D-05 0.902D-03-0.205D-01-0.609D-01-0.341D-01 0.422D+00
 Coeff:      0.692D+00
 Gap=     0.225 Goal=   None    Shift=    0.000
 RMSDP=9.43D-09 MaxDP=6.01D-07 DE=-7.28D-12 OVMax= 1.44D-06

 SCF Done:  E(RM062X) =  -1507.90684625     A.U. after   19 cycles
            NFock= 19  Conv=0.94D-08     -V/T= 2.0041
 KE= 1.501788088061D+03 PE=-8.368533221480D+03 EE= 2.943969098470D+03
 Leave Link  502 at Sun Feb 19 04:07:34 2023, MaxMem=  2684354560 cpu:            7109.3 elap:             444.8
 (Enter /storage/apps/GAUSSIAN/G16_RevA03/g16/l601.exe)
 Copying SCF densities to generalized density rwf, IOpCl= 0 IROHF=0.

 **********************************************************************

            Population analysis using the SCF density.

 **********************************************************************

 Alpha  occ. eigenvalues --  -89.90817 -19.63936 -19.63588 -19.62204 -19.61829
 Alpha  occ. eigenvalues --  -19.58366 -14.79025 -14.76848 -10.65036 -10.63986
 Alpha  occ. eigenvalues --  -10.62908 -10.60070 -10.59817 -10.59314 -10.58473
 Alpha  occ. eigenvalues --  -10.57496 -10.56009 -10.55831 -10.55560 -10.54497
 Alpha  occ. eigenvalues --  -10.53972 -10.53755 -10.53744 -10.53669  -8.26743
 Alpha  occ. eigenvalues --   -6.18681  -6.18455  -6.18256  -1.19728  -1.17183
 Alpha  occ. eigenvalues --   -1.15720  -1.15262  -1.13991  -1.08005  -1.01286
 Alpha  occ. eigenvalues --   -0.91748  -0.91097  -0.88481  -0.88234  -0.86990
 Alpha  occ. eigenvalues --   -0.85890  -0.81233  -0.78837  -0.74949  -0.74922
 Alpha  occ. eigenvalues --   -0.72859  -0.70282  -0.68297  -0.66420  -0.66100
 Alpha  occ. eigenvalues --   -0.63349  -0.62627  -0.61054  -0.60378  -0.59689
 Alpha  occ. eigenvalues --   -0.57449  -0.56119  -0.55441  -0.54559  -0.53627
 Alpha  occ. eigenvalues --   -0.52979  -0.52793  -0.51864  -0.50945  -0.50518
 Alpha  occ. eigenvalues --   -0.50283  -0.49577  -0.49012  -0.48892  -0.48613
 Alpha  occ. eigenvalues --   -0.48142  -0.47342  -0.47009  -0.46904  -0.46642
 Alpha  occ. eigenvalues --   -0.46287  -0.44904  -0.44293  -0.43775  -0.42977
 Alpha  occ. eigenvalues --   -0.42410  -0.42201  -0.41237  -0.40036  -0.37853
 Alpha  occ. eigenvalues --   -0.35556  -0.34906  -0.34724  -0.33978  -0.33751
 Alpha  occ. eigenvalues --   -0.32743  -0.32160  -0.32008  -0.29863  -0.24637
 Alpha virt. eigenvalues --   -0.02180   0.00964   0.04761   0.05002   0.05650
 Alpha virt. eigenvalues --    0.06487   0.06666   0.07675   0.08633   0.08771
 Alpha virt. eigenvalues --    0.08910   0.09681   0.10191   0.10905   0.11457
 Alpha virt. eigenvalues --    0.11810   0.12415   0.12689   0.12937   0.13269
 Alpha virt. eigenvalues --    0.13697   0.13955   0.14319   0.14717   0.15171
 Alpha virt. eigenvalues --    0.15613   0.15980   0.16585   0.16731   0.17616
 Alpha virt. eigenvalues --    0.18118   0.18754   0.19292   0.19601   0.20174
 Alpha virt. eigenvalues --    0.20991   0.21244   0.21739   0.21931   0.22554
 Alpha virt. eigenvalues --    0.22640   0.23067   0.23735   0.24156   0.24760
 Alpha virt. eigenvalues --    0.24986   0.25214   0.25613   0.26628   0.26788
 Alpha virt. eigenvalues --    0.27040   0.27146   0.27474   0.28611   0.28701
 Alpha virt. eigenvalues --    0.29125   0.29678   0.29901   0.30993   0.31204
 Alpha virt. eigenvalues --    0.31677   0.32008   0.32193   0.32680   0.33641
 Alpha virt. eigenvalues --    0.33806   0.34286   0.34718   0.35301   0.35806
 Alpha virt. eigenvalues --    0.36811   0.37348   0.37759   0.37991   0.38370
 Alpha virt. eigenvalues --    0.38755   0.38962   0.39507   0.39838   0.40327
 Alpha virt. eigenvalues --    0.40866   0.41052   0.41347   0.41607   0.41829
 Alpha virt. eigenvalues --    0.42403   0.43016   0.43241   0.43423   0.43751
 Alpha virt. eigenvalues --    0.44045   0.44616   0.44715   0.45100   0.45218
 Alpha virt. eigenvalues --    0.45506   0.46135   0.46662   0.47035   0.47642
 Alpha virt. eigenvalues --    0.47928   0.48592   0.48924   0.49004   0.49379
 Alpha virt. eigenvalues --    0.49786   0.50076   0.50358   0.50623   0.50898
 Alpha virt. eigenvalues --    0.51244   0.51277   0.51483   0.51719   0.52209
 Alpha virt. eigenvalues --    0.52964   0.53263   0.53788   0.54186   0.54554
 Alpha virt. eigenvalues --    0.55062   0.55194   0.56158   0.56597   0.57463
 Alpha virt. eigenvalues --    0.57848   0.57992   0.58460   0.58768   0.59134
 Alpha virt. eigenvalues --    0.59534   0.60387   0.60710   0.61195   0.61440
 Alpha virt. eigenvalues --    0.62282   0.62490   0.63134   0.64066   0.64252
 Alpha virt. eigenvalues --    0.64653   0.65708   0.66222   0.66539   0.67216
 Alpha virt. eigenvalues --    0.67947   0.68542   0.68751   0.69462   0.70529
 Alpha virt. eigenvalues --    0.70786   0.71664   0.72117   0.73094   0.73660
 Alpha virt. eigenvalues --    0.74938   0.75270   0.75938   0.76527   0.76597
 Alpha virt. eigenvalues --    0.77718   0.78068   0.78777   0.79647   0.80263
 Alpha virt. eigenvalues --    0.81168   0.81689   0.82104   0.82215   0.82616
 Alpha virt. eigenvalues --    0.84206   0.84410   0.85060   0.85298   0.86418
 Alpha virt. eigenvalues --    0.86582   0.88128   0.88948   0.89485   0.90510
 Alpha virt. eigenvalues --    0.90758   0.91198   0.91607   0.92289   0.93437
 Alpha virt. eigenvalues --    0.93932   0.94544   0.95135   0.95630   0.96606
 Alpha virt. eigenvalues --    0.97066   0.97894   0.98464   0.98877   0.99514
 Alpha virt. eigenvalues --    1.00253   1.01183   1.02112   1.02651   1.02938
 Alpha virt. eigenvalues --    1.04512   1.05194   1.05535   1.05688   1.06066
 Alpha virt. eigenvalues --    1.06953   1.07930   1.08388   1.09058   1.09475
 Alpha virt. eigenvalues --    1.10283   1.10993   1.11375   1.12105   1.12776
 Alpha virt. eigenvalues --    1.13083   1.13669   1.13896   1.14480   1.15754
 Alpha virt. eigenvalues --    1.16293   1.16645   1.17303   1.18499   1.19159
 Alpha virt. eigenvalues --    1.20024   1.20675   1.22095   1.22344   1.23795
 Alpha virt. eigenvalues --    1.25256   1.25694   1.26591   1.26994   1.27421
 Alpha virt. eigenvalues --    1.28864   1.29592   1.30263   1.31669   1.32207
 Alpha virt. eigenvalues --    1.32683   1.33200   1.33922   1.34730   1.35439
 Alpha virt. eigenvalues --    1.35672   1.37074   1.38000   1.38407   1.39580
 Alpha virt. eigenvalues --    1.40349   1.41381   1.42262   1.43521   1.44850
 Alpha virt. eigenvalues --    1.45183   1.46541   1.46987   1.47971   1.48791
 Alpha virt. eigenvalues --    1.50073   1.51239   1.51732   1.52532   1.53146
 Alpha virt. eigenvalues --    1.53607   1.54008   1.54563   1.55329   1.55637
 Alpha virt. eigenvalues --    1.56349   1.56688   1.56732   1.57368   1.57784
 Alpha virt. eigenvalues --    1.57972   1.58705   1.58928   1.59578   1.59959
 Alpha virt. eigenvalues --    1.60544   1.61082   1.61496   1.61965   1.62308
 Alpha virt. eigenvalues --    1.62882   1.64149   1.64299   1.64675   1.65002
 Alpha virt. eigenvalues --    1.65730   1.66018   1.66915   1.67277   1.67927
 Alpha virt. eigenvalues --    1.68536   1.68868   1.69131   1.69405   1.70213
 Alpha virt. eigenvalues --    1.71193   1.72163   1.72772   1.73503   1.74206
 Alpha virt. eigenvalues --    1.74465   1.74766   1.75362   1.76352   1.77183
 Alpha virt. eigenvalues --    1.77627   1.78473   1.79460   1.79573   1.80364
 Alpha virt. eigenvalues --    1.80836   1.81245   1.81826   1.82522   1.83415
 Alpha virt. eigenvalues --    1.83943   1.84520   1.84790   1.85573   1.86290
 Alpha virt. eigenvalues --    1.87232   1.87720   1.88705   1.89936   1.90661
 Alpha virt. eigenvalues --    1.91114   1.91428   1.92201   1.93705   1.94515
 Alpha virt. eigenvalues --    1.94757   1.95682   1.96303   1.96440   1.96851
 Alpha virt. eigenvalues --    1.97708   1.98904   1.99147   1.99664   2.00447
 Alpha virt. eigenvalues --    2.01136   2.01589   2.02609   2.03082   2.03701
 Alpha virt. eigenvalues --    2.04173   2.05071   2.06585   2.06880   2.08040
 Alpha virt. eigenvalues --    2.08941   2.09581   2.10110   2.11058   2.11353
 Alpha virt. eigenvalues --    2.12759   2.13061   2.14295   2.15346   2.15636
 Alpha virt. eigenvalues --    2.16134   2.17346   2.18100   2.18194   2.19227
 Alpha virt. eigenvalues --    2.19875   2.21449   2.22087   2.22209   2.22680
 Alpha virt. eigenvalues --    2.23871   2.24059   2.24351   2.26289   2.27112
 Alpha virt. eigenvalues --    2.27344   2.27619   2.28212   2.28899   2.29358
 Alpha virt. eigenvalues --    2.30469   2.30972   2.31079   2.31847   2.32386
 Alpha virt. eigenvalues --    2.32790   2.33405   2.34405   2.35121   2.35345
 Alpha virt. eigenvalues --    2.35774   2.36305   2.37821   2.38092   2.38816
 Alpha virt. eigenvalues --    2.39636   2.40709   2.41546   2.42630   2.43122
 Alpha virt. eigenvalues --    2.43519   2.43706   2.44476   2.44792   2.45807
 Alpha virt. eigenvalues --    2.46782   2.47517   2.48176   2.49250   2.49743
 Alpha virt. eigenvalues --    2.50964   2.51255   2.51563   2.52487   2.53757
 Alpha virt. eigenvalues --    2.54771   2.55220   2.56079   2.56766   2.57470
 Alpha virt. eigenvalues --    2.57874   2.58516   2.59043   2.59528   2.60295
 Alpha virt. eigenvalues --    2.60436   2.61463   2.61782   2.62938   2.63379
 Alpha virt. eigenvalues --    2.63987   2.64521   2.65036   2.65635   2.66516
 Alpha virt. eigenvalues --    2.67203   2.67506   2.67838   2.68339   2.69098
 Alpha virt. eigenvalues --    2.70318   2.70555   2.70873   2.72101   2.72810
 Alpha virt. eigenvalues --    2.73349   2.74052   2.74901   2.75696   2.76585
 Alpha virt. eigenvalues --    2.77224   2.77994   2.79069   2.80208   2.81167
 Alpha virt. eigenvalues --    2.81425   2.82850   2.82996   2.84346   2.85080
 Alpha virt. eigenvalues --    2.85624   2.86103   2.86273   2.88285   2.88492
 Alpha virt. eigenvalues --    2.89172   2.89726   2.91336   2.91850   2.92629
 Alpha virt. eigenvalues --    2.93394   2.94502   2.95136   2.96290   2.96667
 Alpha virt. eigenvalues --    2.97295   2.97898   2.99472   3.00229   3.00462
 Alpha virt. eigenvalues --    3.01232   3.01784   3.02674   3.03188   3.03809
 Alpha virt. eigenvalues --    3.04402   3.04496   3.05254   3.05554   3.06244
 Alpha virt. eigenvalues --    3.06741   3.07355   3.08689   3.09392   3.09652
 Alpha virt. eigenvalues --    3.10426   3.10527   3.11236   3.11860   3.12075
 Alpha virt. eigenvalues --    3.12755   3.13488   3.13960   3.14381   3.15539
 Alpha virt. eigenvalues --    3.15779   3.16560   3.17255   3.17553   3.18350
 Alpha virt. eigenvalues --    3.18397   3.19000   3.20036   3.20431   3.20501
 Alpha virt. eigenvalues --    3.21313   3.21871   3.22251   3.23538   3.23745
 Alpha virt. eigenvalues --    3.24164   3.25927   3.26412   3.26699   3.27442
 Alpha virt. eigenvalues --    3.27672   3.28294   3.28607   3.28894   3.29416
 Alpha virt. eigenvalues --    3.30855   3.31618   3.32292   3.32572   3.33503
 Alpha virt. eigenvalues --    3.33919   3.34629   3.35738   3.35991   3.36347
 Alpha virt. eigenvalues --    3.36758   3.38096   3.38118   3.38500   3.38866
 Alpha virt. eigenvalues --    3.39494   3.40195   3.40591   3.41665   3.42190
 Alpha virt. eigenvalues --    3.42816   3.43404   3.43631   3.44635   3.45051
 Alpha virt. eigenvalues --    3.45619   3.46385   3.47355   3.47899   3.49111
 Alpha virt. eigenvalues --    3.49157   3.49348   3.51320   3.51957   3.52201
 Alpha virt. eigenvalues --    3.53162   3.53493   3.53675   3.54418   3.56142
 Alpha virt. eigenvalues --    3.56693   3.57686   3.58070   3.58646   3.59583
 Alpha virt. eigenvalues --    3.60641   3.62195   3.62324   3.63036   3.64411
 Alpha virt. eigenvalues --    3.65346   3.66042   3.66646   3.66917   3.68749
 Alpha virt. eigenvalues --    3.68896   3.71131   3.71712   3.72678   3.73165
 Alpha virt. eigenvalues --    3.74184   3.74485   3.75591   3.76033   3.76825
 Alpha virt. eigenvalues --    3.78090   3.78596   3.78677   3.79404   3.80555
 Alpha virt. eigenvalues --    3.82341   3.83555   3.85414   3.86321   3.87923
 Alpha virt. eigenvalues --    3.88537   3.90355   3.90642   3.91988   3.92460
 Alpha virt. eigenvalues --    3.93062   3.94033   3.95456   3.96068   3.97969
 Alpha virt. eigenvalues --    4.00338   4.00775   4.02906   4.03683   4.07102
 Alpha virt. eigenvalues --    4.07643   4.08593   4.09953   4.10552   4.11610
 Alpha virt. eigenvalues --    4.12548   4.13309   4.14136   4.14464   4.16109
 Alpha virt. eigenvalues --    4.18376   4.19044   4.20226   4.20744   4.21335
 Alpha virt. eigenvalues --    4.24436   4.25955   4.27265   4.28380   4.28602
 Alpha virt. eigenvalues --    4.32427   4.32840   4.34438   4.36028   4.37613
 Alpha virt. eigenvalues --    4.39273   4.39910   4.41268   4.41411   4.41729
 Alpha virt. eigenvalues --    4.42668   4.44907   4.46642   4.47419   4.48836
 Alpha virt. eigenvalues --    4.49918   4.52186   4.53107   4.55797   4.56851
 Alpha virt. eigenvalues --    4.59682   4.61144   4.63973   4.65238   4.66837
 Alpha virt. eigenvalues --    4.68566   4.69697   4.70492   4.71737   4.73963
 Alpha virt. eigenvalues --    4.75157   4.76374   4.78031   4.79165   4.80638
 Alpha virt. eigenvalues --    4.83115   4.85829   4.89188   4.90544   4.91814
 Alpha virt. eigenvalues --    4.93223   4.95455   4.95733   4.98001   4.99090
 Alpha virt. eigenvalues --    5.00457   5.01043   5.02420   5.05439   5.07268
 Alpha virt. eigenvalues --    5.11244   5.14808   5.16320   5.17429   5.21213
 Alpha virt. eigenvalues --    5.21883   5.22732   5.23719   5.26316   5.27567
 Alpha virt. eigenvalues --    5.29303   5.30448   5.31169   5.35513   5.36083
 Alpha virt. eigenvalues --    5.37820   5.41647   5.43576   5.44231   5.46987
 Alpha virt. eigenvalues --    5.47842   5.49818   5.53901   5.57432   5.57969
 Alpha virt. eigenvalues --    5.62586   5.66550   5.75043   5.75895   5.77443
 Alpha virt. eigenvalues --    5.79986   5.80418   5.83978   5.84415   5.86558
 Alpha virt. eigenvalues --    5.88052   5.90259   5.90925   5.92737   5.95646
 Alpha virt. eigenvalues --    5.99611   6.02627   6.08333   6.15787   6.20576
 Alpha virt. eigenvalues --    6.22751   6.25140   6.29509   6.30858   6.34786
 Alpha virt. eigenvalues --    6.38757   6.44403   6.44983   6.47615   6.52392
 Alpha virt. eigenvalues --    6.54148   6.60095   6.69519   6.74569   6.74774
 Alpha virt. eigenvalues --    6.78657   6.81437   6.82768   6.85638   6.86559
 Alpha virt. eigenvalues --    6.87349   6.93488   6.98811   6.99416   7.06676
 Alpha virt. eigenvalues --    7.08476   7.09404   7.12472   7.15914   7.24182
 Alpha virt. eigenvalues --    7.25983   7.34450   8.98741   9.37746   9.51164
 Alpha virt. eigenvalues --   19.85296  22.27752  22.42286  22.47407  22.48322
 Alpha virt. eigenvalues --   22.54078  22.62598  22.66835  22.72304  22.80990
 Alpha virt. eigenvalues --   22.86103  22.92882  22.99332  23.02224  23.05019
 Alpha virt. eigenvalues --   23.20981  23.49099  32.18375  33.18291  44.13132
 Alpha virt. eigenvalues --   44.18014  44.23248  44.27265  44.57332
          Condensed to atoms (all electrons):
               1          2          3          4          5          6
     1  C    5.119887   0.421213   0.412194  -0.016884  -0.000350  -0.000083
     2  H    0.421213   0.509085  -0.022227  -0.001451   0.000453  -0.000005
     3  H    0.412194  -0.022227   0.541837   0.001208  -0.000034  -0.000007
     4  C   -0.016884  -0.001451   0.001208   5.618856   0.474885   0.250214
     5  H   -0.000350   0.000453  -0.000034   0.474885   0.553170  -0.030039
     6  O   -0.000083  -0.000005  -0.000007   0.250214  -0.030039   8.011252
     7  H    0.000007  -0.000009   0.000004  -0.064992  -0.002851   0.295542
     8  C    0.005443   0.013251  -0.008689  -0.165340  -0.089307  -0.058934
     9  H    0.010094  -0.000017  -0.001879  -0.129292   0.003460   0.002159
    10  O    0.007869  -0.000366   0.000240  -0.041862   0.002158   0.000791
    11  H   -0.000668  -0.000185   0.000439   0.011482  -0.000917  -0.000580
    12  C   -0.001324  -0.000046   0.001134  -0.047107  -0.053485  -0.001726
    13  H   -0.000414   0.000051   0.000115  -0.112135   0.006020  -0.000489
    14  C    0.189451  -0.048539  -0.040608   0.157203   0.020167   0.009797
    15  H   -0.077662  -0.006521  -0.003001  -0.013673  -0.000225   0.000017
    16  O   -0.037964   0.000924   0.005497  -0.087436  -0.002994   0.005735
    17  N    0.000604  -0.000107  -0.000053   0.037749  -0.015320  -0.006601
    18  C   -0.001345  -0.000003   0.000017  -0.005969  -0.003380   0.002602
    19  H    0.000009  -0.000074   0.000049  -0.015986  -0.002930   0.001087
    20  C   -0.000042   0.000006  -0.000003   0.004941   0.005685  -0.002031
    21  H    0.000006   0.000001  -0.000000   0.000029   0.000143  -0.000024
    22  C   -0.000009  -0.000001   0.000000   0.000084  -0.000353   0.000204
    23  H   -0.000000   0.000000   0.000000   0.000032   0.000008   0.000000
    24  H    0.000000  -0.000000  -0.000000  -0.000095  -0.000022  -0.000004
    25  C   -0.000070  -0.000007   0.000001  -0.002514  -0.000706  -0.000466
    26  C   -0.000266   0.000034  -0.000005   0.024292  -0.000309  -0.003474
    27  H   -0.000020   0.000000   0.000000   0.000899  -0.000094   0.000104
    28  C    0.000001   0.000000  -0.000000   0.000149  -0.000001  -0.000021
    29  O   -0.000000   0.000000   0.000000   0.000001  -0.000000  -0.000000
    30  N   -0.000000   0.000000   0.000000   0.000001  -0.000000  -0.000000
    31  H   -0.000000   0.000000   0.000000   0.000000   0.000000  -0.000000
    32  H   -0.000000   0.000000  -0.000000   0.000001   0.000000  -0.000000
    33  C    0.000000  -0.000000   0.000000  -0.000160  -0.000349  -0.012689
    34  C    0.000000  -0.000000  -0.000000   0.000058  -0.000001  -0.000617
    35  C    0.000000   0.000000  -0.000000  -0.000327   0.000033  -0.000105
    36  C   -0.000000   0.000000  -0.000000   0.000001   0.000000   0.000000
    37  C   -0.000000   0.000000   0.000000   0.000171   0.000002   0.000045
    38  O    0.000000   0.000000  -0.000000  -0.000747  -0.000049  -0.016773
    39  S   -0.000000  -0.000000   0.000000   0.000745   0.000018   0.000973
    40  H   -0.000000   0.000000  -0.000000   0.000201   0.000020   0.000205
    41  H   -0.000001   0.000000  -0.000000  -0.004300   0.000534   0.014557
    42  H    0.000000  -0.000000  -0.000000  -0.000000  -0.000000  -0.000000
    43  H    0.000000  -0.000000  -0.000000  -0.000000  -0.000000  -0.000000
    44  H   -0.000000  -0.000000  -0.000000   0.000000  -0.000000   0.000000
    45  H   -0.000000  -0.000000   0.000000   0.000012   0.000002   0.000008
    46  H   -0.000000  -0.000000   0.000000  -0.000008  -0.000000   0.000004
    47  H    0.378823  -0.022520  -0.025077   0.003102  -0.001251   0.000045
    48  H    0.000000   0.000000  -0.000000   0.000058   0.000002   0.000429
               7          8          9         10         11         12
     1  C    0.000007   0.005443   0.010094   0.007869  -0.000668  -0.001324
     2  H   -0.000009   0.013251  -0.000017  -0.000366  -0.000185  -0.000046
     3  H    0.000004  -0.008689  -0.001879   0.000240   0.000439   0.001134
     4  C   -0.064992  -0.165340  -0.129292  -0.041862   0.011482  -0.047107
     5  H   -0.002851  -0.089307   0.003460   0.002158  -0.000917  -0.053485
     6  O    0.295542  -0.058934   0.002159   0.000791  -0.000580  -0.001726
     7  H    0.431648   0.003227  -0.000948  -0.001302   0.000289   0.001896
     8  C    0.003227   5.590468   0.526729   0.256407  -0.039377   0.027237
     9  H   -0.000948   0.526729   0.574239  -0.056758  -0.001965   0.017221
    10  O   -0.001302   0.256407  -0.056758   8.037517   0.289312  -0.011728
    11  H    0.000289  -0.039377  -0.001965   0.289312   0.428562  -0.001234
    12  C    0.001896   0.027237   0.017221  -0.011728  -0.001234   5.559009
    13  H   -0.003540   0.019503   0.002733   0.015141  -0.001463   0.484843
    14  C   -0.000234   0.042734  -0.109173  -0.046361  -0.006211  -0.115757
    15  H    0.000123  -0.033854   0.011618  -0.007674   0.005939   0.000404
    16  O    0.001512  -0.042294   0.004746   0.007364   0.000390   0.283961
    17  N    0.016306   0.003430  -0.001096  -0.000455   0.000043   0.115160
    18  C    0.000358  -0.004831  -0.000418  -0.000419   0.000021  -0.082501
    19  H    0.000440   0.001140   0.000062  -0.000003   0.000004   0.022416
    20  C   -0.001036  -0.002003   0.000020   0.000012  -0.000001   0.012820
    21  H   -0.000012  -0.000007   0.000000   0.000000  -0.000000   0.000337
    22  C    0.000388   0.000054  -0.000003  -0.000003   0.000000  -0.007671
    23  H   -0.000012  -0.000000   0.000000   0.000000  -0.000000   0.000197
    24  H    0.000134   0.000002  -0.000000   0.000000   0.000000   0.000090
    25  C   -0.001306   0.000047  -0.000003  -0.000054   0.000002  -0.021809
    26  C   -0.003619  -0.003644  -0.000143  -0.000712  -0.000042  -0.078939
    27  H    0.000087  -0.000017  -0.000010  -0.000153   0.000008  -0.002881
    28  C    0.000066   0.000006   0.000000   0.000000  -0.000000  -0.001474
    29  O    0.000026   0.000000   0.000000  -0.000000  -0.000000   0.000435
    30  N   -0.000000  -0.000000  -0.000000  -0.000000  -0.000000   0.000009
    31  H   -0.000000  -0.000000   0.000000  -0.000000  -0.000000  -0.000003
    32  H   -0.000000  -0.000000   0.000000  -0.000000  -0.000000  -0.000003
    33  C    0.004913   0.000882   0.000002  -0.000545   0.000042  -0.000949
    34  C   -0.001791  -0.000057  -0.000001   0.000019  -0.000001  -0.001473
    35  C    0.002643  -0.000048  -0.000000   0.000001  -0.000000   0.001127
    36  C   -0.000005  -0.000000  -0.000000  -0.000000  -0.000000   0.000020
    37  C   -0.000892   0.000001  -0.000000  -0.000000   0.000000  -0.000415
    38  O    0.027059   0.000045   0.000004   0.000005  -0.000000  -0.000790
    39  S   -0.003369  -0.000008  -0.000000  -0.000003  -0.000000  -0.000666
    40  H   -0.001629  -0.000012   0.000000   0.000008  -0.000001   0.000003
    41  H    0.000539  -0.002091   0.000037   0.001861  -0.000142   0.002063
    42  H    0.000001   0.000000  -0.000000   0.000000   0.000000   0.000002
    43  H    0.000001   0.000000  -0.000000   0.000000   0.000000  -0.000001
    44  H   -0.000000  -0.000000  -0.000000   0.000000   0.000000  -0.000000
    45  H   -0.000063  -0.000000   0.000000  -0.000000  -0.000000  -0.000022
    46  H   -0.000022  -0.000000  -0.000000  -0.000000   0.000000   0.000051
    47  H    0.000035  -0.016050   0.001699   0.000086   0.000139  -0.000888
    48  H   -0.000166  -0.000007   0.000001   0.000006  -0.000001  -0.000010
              13         14         15         16         17         18
     1  C   -0.000414   0.189451  -0.077662  -0.037964   0.000604  -0.001345
     2  H    0.000051  -0.048539  -0.006521   0.000924  -0.000107  -0.000003
     3  H    0.000115  -0.040608  -0.003001   0.005497  -0.000053   0.000017
     4  C   -0.112135   0.157203  -0.013673  -0.087436   0.037749  -0.005969
     5  H    0.006020   0.020167  -0.000225  -0.002994  -0.015320  -0.003380
     6  O   -0.000489   0.009797   0.000017   0.005735  -0.006601   0.002602
     7  H   -0.003540  -0.000234   0.000123   0.001512   0.016306   0.000358
     8  C    0.019503   0.042734  -0.033854  -0.042294   0.003430  -0.004831
     9  H    0.002733  -0.109173   0.011618   0.004746  -0.001096  -0.000418
    10  O    0.015141  -0.046361  -0.007674   0.007364  -0.000455  -0.000419
    11  H   -0.001463  -0.006211   0.005939   0.000390   0.000043   0.000021
    12  C    0.484843  -0.115757   0.000404   0.283961   0.115160  -0.082501
    13  H    0.520237  -0.008494   0.005819  -0.037593  -0.076047   0.012535
    14  C   -0.008494   5.313623   0.408074   0.214717   0.011112  -0.000488
    15  H    0.005819   0.408074   0.639422  -0.036601  -0.001846   0.000214
    16  O   -0.037593   0.214717  -0.036601   8.065908  -0.074666   0.010626
    17  N   -0.076047   0.011112  -0.001846  -0.074666   6.623609   0.302753
    18  C    0.012535  -0.000488   0.000214   0.010626   0.302753   5.030029
    19  H    0.000920  -0.003658   0.000139   0.006621  -0.049458   0.409378
    20  C   -0.000624   0.001267  -0.000001  -0.000394  -0.074729   0.493444
    21  H    0.000013   0.000004  -0.000000  -0.000053   0.004353  -0.030484
    22  C    0.000029  -0.000106   0.000001   0.000352  -0.008471   0.005264
    23  H    0.000004   0.000001   0.000000  -0.000014  -0.000462   0.000466
[...]
      5        1           0.003867424    0.004014372    0.001403618
      6        8           0.006731592    0.001593029   -0.004954812
      7        1          -0.004488529   -0.005478408    0.003679091
      8        6          -0.003179864   -0.010928861   -0.001392062
      9        1          -0.001224491    0.005412198   -0.003985326
     10        8           0.024909253    0.001475475   -0.004694663
     11        1          -0.023466057    0.004789674    0.007099882
     12        6           0.003714358    0.005334473    0.006479840
     13        1          -0.000863630   -0.002468630   -0.002744465
     14        6           0.009276520   -0.002332849    0.001816744
     15        1          -0.003091395    0.003076230    0.001206217
     16        8           0.001531402   -0.002065007   -0.006720429
     17        7          -0.001268762    0.004992647   -0.005485194
     18        6          -0.007923850   -0.000860161   -0.003988584
     19        1          -0.001589963    0.006387431   -0.001501771
     20        6           0.003532667   -0.002178814    0.002520641
     21        1           0.003269896    0.005286403    0.001129826
     22        6          -0.011305936    0.005147696    0.006312607
     23        1           0.000060545    0.000603810    0.006069900
     24        1           0.013250242   -0.012167309   -0.011968518
     25        6           0.001489221    0.000730177   -0.001126795
     26        6          -0.002118078   -0.004330488   -0.000936412
     27        1          -0.004916071   -0.004760908    0.001956586
     28        6           0.019120606   -0.002570117    0.015415445
     29        8          -0.007654362   -0.004847253   -0.005527421
     30        7          -0.009099047    0.002307676   -0.019208112
     31        1          -0.001400501   -0.005935269    0.003377369
     32        1           0.005313483    0.009042950    0.009903254
     33        6          -0.006076993   -0.012770373   -0.003114219
     34        6          -0.000106692   -0.011699673    0.005307546
     35        6          -0.009184913    0.000305757   -0.007818520
     36        6          -0.002364304    0.001666512   -0.004908040
     37        6           0.008259081    0.004961394    0.014438124
     38        8           0.000963857    0.009890628   -0.004535752
     39       16           0.005884843    0.004111113    0.002634773
     40        1           0.005487890    0.002426682   -0.003091393
     41        1          -0.002130568    0.005591720    0.004613273
     42        1          -0.000220632    0.000846173    0.003088721
     43        1          -0.002663144   -0.003905956    0.003065119
     44        1           0.006375555   -0.002436299   -0.003158330
     45        1           0.003037286    0.005184909   -0.004308863
     46        1          -0.003769877   -0.005856214    0.003193450
     47        1           0.001267777   -0.004529767   -0.000992470
     48        1          -0.001915389    0.003260716   -0.004501653
 -------------------------------------------------------------------
 Cartesian Forces:  Max     0.024909253 RMS     0.006451907
 Leave Link  716 at Sun Feb 19 04:10:26 2023, MaxMem=  2684354560 cpu:               0.4 elap:               0.0
 (Enter /storage/apps/GAUSSIAN/G16_RevA03/g16/l103.exe)

 GradGradGradGradGradGradGradGradGradGradGradGradGradGradGradGradGradGrad
 Berny optimization.
 Search for a local minimum.
 Step number   1 out of a maximum of    2
 All quantities printed in internal units (Hartrees-Bohrs-Radians)
 Second derivative matrix not updated -- first step.
 ITU=  0
     Eigenvalues ---    0.00016   0.00068   0.00072   0.00120   0.00177
     Eigenvalues ---    0.00212   0.00310   0.00357   0.00375   0.00445
     Eigenvalues ---    0.00512   0.00717   0.00799   0.00888   0.00901
     Eigenvalues ---    0.01003   0.01077   0.01199   0.01364   0.01411
     Eigenvalues ---    0.01724   0.01742   0.01956   0.02116   0.02625
     Eigenvalues ---    0.02896   0.03182   0.03279   0.03346   0.03557
     Eigenvalues ---    0.03927   0.04525   0.04770   0.04949   0.05108
     Eigenvalues ---    0.05275   0.05393   0.05440   0.05768   0.05830
     Eigenvalues ---    0.05971   0.06163   0.06277   0.06399   0.06835
     Eigenvalues ---    0.06950   0.07050   0.07436   0.07549   0.07899
     Eigenvalues ---    0.08523   0.08889   0.09081   0.09784   0.10124
     Eigenvalues ---    0.10440   0.11261   0.11919   0.12228   0.12317
     Eigenvalues ---    0.12465   0.12798   0.12826   0.12952   0.13736
     Eigenvalues ---    0.13787   0.14203   0.14816   0.15442   0.16476
     Eigenvalues ---    0.16911   0.17321   0.18058   0.18807   0.19130
     Eigenvalues ---    0.19580   0.19830   0.21212   0.21462   0.21897
     Eigenvalues ---    0.24436   0.26846   0.27136   0.27429   0.30640
     Eigenvalues ---    0.32575   0.32742   0.33791   0.34713   0.36824
     Eigenvalues ---    0.37285   0.37285   0.37285   0.37285   0.39543
     Eigenvalues ---    0.42598   0.43432   0.47743   0.54134   0.55320
     Eigenvalues ---    0.60406   0.64711   0.67750   0.68743   0.72144
     Eigenvalues ---    0.77728   0.81359   0.83903   0.87270   0.87648
     Eigenvalues ---    0.89205   0.90212   0.91662   0.92024   0.92233
     Eigenvalues ---    0.92708   0.95062   0.97052   0.98193   0.99996
     Eigenvalues ---    1.01970   1.05907   1.08077   1.10409   1.11772
     Eigenvalues ---    1.17266   1.17867   1.20593   1.26349   1.29869
     Eigenvalues ---    1.36584   1.41881   1.48496   1.56434   1.64124
     Eigenvalues ---    1.75345   2.15116   2.21327
 Quadratic step=2.056D+00 exceeds max=3.000D-01 adjusted using Lamda=-2.331D-02.
 Angle between NR and scaled steps=  56.18 degrees.
 Angle between quadratic step and forces=  59.72 degrees.
 Linear search not attempted -- first point.
 Variable       Old X    -DE/DX   Delta X   Delta X   Delta X     New X
                                 (Linear)    (Quad)   (Total)
    X1        6.44661  -0.00085   0.00000  -0.02038  -0.02038   6.42623
    Y1       -7.24426   0.00889   0.00000   0.02112   0.02112  -7.22314
    Z1       -1.40599   0.00014   0.00000   0.00751   0.00751  -1.39848
    X2        6.55755  -0.00025   0.00000  -0.00784  -0.00784   6.54971
    Y2       -7.48698  -0.00090   0.00000   0.00922   0.00922  -7.47776
    Z2       -3.46478   0.00662   0.00000   0.02568   0.02568  -3.43910
    X3        8.15772  -0.00671   0.00000  -0.04785  -0.04785   8.10986
    Y3       -8.01373  -0.00145   0.00000  -0.02300  -0.02300  -8.03672
    Z3       -0.51299  -0.00300   0.00000  -0.01478  -0.01478  -0.52777
    X4        3.00412  -0.00751   0.00000   0.00252   0.00252   3.00663
    Y4       -2.92967  -0.00286   0.00000   0.00456   0.00456  -2.92511
    Z4        1.87050   0.00219   0.00000  -0.00027  -0.00027   1.87023
    X5        1.83334   0.00387   0.00000   0.02624   0.02624   1.85958
    Y5       -4.64807   0.00401   0.00000   0.00536   0.00536  -4.64271
    Z5        1.64518   0.00140   0.00000   0.02792   0.02792   1.67310
    X6        2.11623   0.00673   0.00000   0.05097   0.05097   2.16720
    Y6       -1.47416   0.00159   0.00000   0.00777   0.00777  -1.46639
    Z6        3.88446  -0.00495   0.00000   0.00731   0.00731   3.89177
    X7        1.00419  -0.00449   0.00000  -0.09989  -0.09989   0.90430
    Y7       -0.16647  -0.00548   0.00000  -0.09618  -0.09618  -0.26265
    Z7        3.22464   0.00368   0.00000   0.06573   0.06573   3.29037
    X8        5.75669  -0.00318   0.00000   0.00053   0.00053   5.75723
    Y8       -3.79632  -0.01093   0.00000   0.00861   0.00861  -3.78771
    Z8        2.03430  -0.00139   0.00000  -0.01354  -0.01354   2.02076
    X9        5.98621  -0.00122   0.00000   0.00400   0.00400   5.99021
    Y9       -5.47890   0.00541   0.00000   0.02473   0.02473  -5.45417
    Z9        3.25143  -0.00399   0.00000  -0.02486  -0.02486   3.22657
   X10        7.24875   0.02491   0.00000  -0.00714  -0.00714   7.24161
   Y10       -1.79305   0.00148   0.00000   0.02678   0.02678  -1.76627
   Z10        2.90659  -0.00469   0.00000  -0.00487  -0.00487   2.90172
   X11        9.02753  -0.02347   0.00000  -0.04473  -0.04473   8.98281
   Y11       -2.14147   0.00479   0.00000   0.03568   0.03568  -2.10579
   Z11        2.45753   0.00710   0.00000   0.03077   0.03077   2.48830
   X12        3.03329   0.00371   0.00000  -0.00054  -0.00054   3.03275
   Y12       -1.55458   0.00533   0.00000  -0.00116  -0.00116  -1.55574
   Z12       -0.66588   0.00648   0.00000  -0.00621  -0.00621  -0.67209
   X13        4.05726  -0.00086   0.00000   0.00457   0.00457   4.06183
   Y13        0.23809  -0.00247   0.00000  -0.00658  -0.00658   0.23151
   Z13       -0.39575  -0.00274   0.00000  -0.04178  -0.04178  -0.43753
   X14        6.29654   0.00928   0.00000   0.01538   0.01538   6.31193
   Y14       -4.43744  -0.00233   0.00000   0.01446   0.01446  -4.42298
   Z14       -0.78651   0.00182   0.00000  -0.00186  -0.00186  -0.78837
   X15        8.13315  -0.00309   0.00000  -0.00515  -0.00515   8.12801
   Y15       -3.60399   0.00308   0.00000   0.04971   0.04971  -3.55428
   Z15       -1.29984   0.00121   0.00000   0.00069   0.00069  -1.29915
   X16        4.36811   0.00153   0.00000   0.00429   0.00429   4.37241
   Y16       -3.24445  -0.00207   0.00000  -0.00609  -0.00609  -3.25055
   Z16       -2.23095  -0.00672   0.00000  -0.01297  -0.01297  -2.24392
   X17        0.61351  -0.00127   0.00000  -0.00772  -0.00772   0.60579
   Y17       -0.95654   0.00499   0.00000  -0.00773  -0.00773  -0.96427
   Z17       -1.68731  -0.00549   0.00000  -0.01296  -0.01296  -1.70027
   X18       -1.13364  -0.00792   0.00000  -0.01869  -0.01869  -1.15233
   Y18       -2.89941  -0.00086   0.00000   0.00723   0.00723  -2.89218
   Z18       -2.09035  -0.00399   0.00000  -0.00828  -0.00828  -2.09863
   X19       -0.54212  -0.00159   0.00000  -0.01757  -0.01757  -0.55969
   Y19       -4.77063   0.00639   0.00000   0.02771   0.02771  -4.74292
   Z19       -1.47272  -0.00150   0.00000  -0.00619  -0.00619  -1.47891
   X20       -3.34826   0.00353   0.00000  -0.00544  -0.00544  -3.35370
   Y20       -2.52063  -0.00218   0.00000   0.00544   0.00544  -2.51520
   Z20       -3.24259   0.00252   0.00000   0.00120   0.00120  -3.24139
   X21       -4.58747   0.00327   0.00000   0.00033   0.00033  -4.58715
   Y21       -4.14093   0.00529   0.00000   0.02249   0.02249  -4.11844
   Z21       -3.53136   0.00113   0.00000   0.01111   0.01111  -3.52025
   X22       -4.15289  -0.01131   0.00000  -0.00074  -0.00074  -4.15363
   Y22        0.03658   0.00515   0.00000  -0.01055  -0.01055   0.02603
   Z22       -4.21438   0.00631   0.00000  -0.00363  -0.00363  -4.21801
   X23       -4.86525   0.00006   0.00000  -0.00774  -0.00774  -4.87299
   Y23       -0.18614   0.00060   0.00000  -0.00648  -0.00648  -0.19262
   Z23       -6.16453   0.00607   0.00000   0.01674   0.01674  -6.14779
   X24       -5.76698   0.01325   0.00000   0.02538   0.02538  -5.74160
   Y24        0.88110  -0.01217   0.00000  -0.07466  -0.07466   0.80644
   Z24       -3.07736  -0.01197   0.00000  -0.04229  -0.04229  -3.11966
   X25       -1.96470   0.00149   0.00000  -0.00042  -0.00042  -1.96512
   Y25        1.86416   0.00073   0.00000  -0.01550  -0.01550   1.84866
   Z25       -4.12378  -0.00113   0.00000  -0.00124  -0.00124  -4.12503
   X26        0.19101  -0.00212   0.00000  -0.01445  -0.01445   0.17656
   Y26        1.33964  -0.00433   0.00000  -0.02530  -0.02530   1.31434
   Z26       -2.88523  -0.00094   0.00000  -0.00314  -0.00314  -2.88837
   X27        1.71475  -0.00492   0.00000  -0.02809  -0.02809   1.68666
   Y27        2.73108  -0.00476   0.00000  -0.03413  -0.03413   2.69695
   Z27       -2.82032   0.00196   0.00000   0.02560   0.02560  -2.79472
   X28       -2.22913   0.01912   0.00000   0.03484   0.03484  -2.19429
   Y28        4.41246  -0.00257   0.00000  -0.01816  -0.01816   4.39430
   Z28       -5.28272   0.01542   0.00000   0.01130   0.01130  -5.27142
   X29       -0.88561  -0.00765   0.00000   0.01916   0.01916  -0.86645
   Y29        6.19674  -0.00485   0.00000  -0.01353  -0.01353   6.18321
   Z29       -4.66963  -0.00553   0.00000  -0.00917  -0.00917  -4.67880
   X30       -4.11843  -0.00910   0.00000   0.02560   0.02560  -4.09283
   Y30        4.68192   0.00231   0.00000   0.01255   0.01255   4.69447
   Z30       -7.00294  -0.01921   0.00000  -0.00098  -0.00098  -7.00392
   X31       -4.05416  -0.00140   0.00000   0.01111   0.01111  -4.04306
   Y31        6.35009  -0.00594   0.00000  -0.00183  -0.00183   6.34826
   Z31       -7.95527   0.00338   0.00000   0.00200   0.00200  -7.95327
   X32       -4.78812   0.00531   0.00000   0.01942   0.01942  -4.76870
   Y32        3.17625   0.00904   0.00000   0.02255   0.02255   3.19880
   Z32       -8.00939   0.00990   0.00000   0.04650   0.04650  -7.96290
   X33        0.98467  -0.00608   0.00000  -0.02515  -0.02515   0.95952
   Y33        3.99008  -0.01277   0.00000  -0.02828  -0.02828   3.96180
   Z33        7.01882  -0.00311   0.00000  -0.02634  -0.02634   6.99248
   X34       -2.04504  -0.00011   0.00000  -0.01424  -0.01424  -2.05929
   Y34        4.21038  -0.01170   0.00000   0.00343   0.00343   4.21382
   Z34        2.77281   0.00531   0.00000   0.01803   0.01803   2.79084
   X35       -3.43136  -0.00918   0.00000  -0.02271  -0.02271  -3.45407
   Y35        5.62705   0.00031   0.00000   0.01406   0.01406   5.64111
   Z35        0.81056  -0.00782   0.00000   0.03085   0.03085   0.84142
   X36       -7.31202  -0.00236   0.00000   0.01168   0.01168  -7.30035
   Y36        6.36879   0.00167   0.00000  -0.00936  -0.00936   6.35944
   Z36       -1.76015  -0.00491   0.00000  -0.00472  -0.00472  -1.76488
   X37       -5.69018   0.00826   0.00000  -0.00962  -0.00962  -5.69979
   Y37        4.83807   0.00496   0.00000   0.03457   0.03457   4.87264
   Z37       -0.03296   0.01444   0.00000   0.05280   0.05280   0.01984
   X38       -2.17155   0.00096   0.00000  -0.00110  -0.00110  -2.17265
   Y38        1.93636   0.00989   0.00000   0.00672   0.00672   1.94308
   Z38        3.11865  -0.00454   0.00000  -0.02496  -0.02496   3.09368
   X39       -0.25533   0.00588   0.00000   0.02670   0.02670  -0.22863
   Y39        6.21691   0.00411   0.00000   0.00087   0.00087   6.21778
   Z39        4.74254   0.00263   0.00000  -0.00950  -0.00950   4.73304
   X40       -0.60348   0.00549   0.00000  -0.00231  -0.00231  -0.60578
   Y40        3.09280   0.00243   0.00000  -0.02075  -0.02075   3.07205
   Z40        8.00939  -0.00309   0.00000  -0.02501  -0.02501   7.98438
   X41        2.07786  -0.00213   0.00000   0.01039   0.01039   2.08825
   Y41        2.51963   0.00559   0.00000   0.00061   0.00061   2.52024
   Z41        6.04382   0.00461   0.00000   0.01412   0.01412   6.05793
   X42       -7.92522  -0.00022   0.00000   0.01738   0.01738  -7.90784
   Y42        5.25380   0.00085   0.00000  -0.02967  -0.02967   5.22413
   Z42       -3.39458   0.00309   0.00000   0.01729   0.01729  -3.37729
   X43       -6.27914  -0.00266   0.00000   0.00842   0.00842  -6.27072
   Y43        8.01373  -0.00391   0.00000  -0.02335  -0.02335   7.99038
   Z43       -2.49075   0.00307   0.00000   0.00012   0.00012  -2.49063
   X44       -9.02753   0.00638   0.00000   0.02552   0.02552  -9.00201
   Y44        7.01835  -0.00244   0.00000  -0.00306  -0.00306   7.01529
   Z44       -0.76528  -0.00316   0.00000  -0.02966  -0.02966  -0.79494
   X45       -6.46139   0.00304   0.00000   0.00954   0.00954  -6.45185
   Y45        3.08704   0.00518   0.00000   0.03141   0.03141   3.11844
   Z45        0.76744  -0.00431   0.00000   0.01286   0.01286   0.78030
   X46       -2.58312  -0.00377   0.00000  -0.02511  -0.02511  -2.60823
   Y46        7.38923  -0.00586   0.00000  -0.00740  -0.00740   7.38182
   Z46        0.13164   0.00319   0.00000   0.03302   0.03302   0.16466
   X47        4.75737   0.00127   0.00000  -0.00708  -0.00708   4.75029
   Y47       -8.17607  -0.00453   0.00000  -0.02143  -0.02143  -8.19750
   Z47       -0.68419  -0.00099   0.00000  -0.01738  -0.01738  -0.70156
   X48        2.18193  -0.00192   0.00000  -0.04499  -0.04499   2.13694
   Y48        4.96202   0.00326   0.00000   0.02897   0.02897   4.99099
   Z48        8.38435  -0.00450   0.00000  -0.05550  -0.05550   8.32886
         Item               Value     Threshold  Converged?
 Maximum Force            0.024909     0.000450     NO 
 RMS     Force            0.006452     0.000300     NO 
 Maximum Displacement     0.099888     0.001800     NO 
 RMS     Displacement     0.025010     0.001200     NO 
 Predicted change in Energy=-6.907976D-03
 GradGradGradGradGradGradGradGradGradGradGradGradGradGradGradGradGradGrad

 Leave Link  103 at Sun Feb 19 04:10:26 2023, MaxMem=  2684354560 cpu:               1.3 elap:               0.1
 (Enter /storage/apps/GAUSSIAN/G16_RevA03/g16/l9999.exe)

 Test job not archived.
 1\1\GINC-T065\Force\RM062X\def2TZVP\C16H24N2O5S1\LV87696\19-Feb-2023\0
 \\#P M062X/Def2TZVP scf=(direct,conver=8) EmpiricalDispersion=GD3 NoSy
 mm Force pop=(NBORead) Charge Prop=(Field,Read)\\Gaussian run using SA
 NDER external interface, route from template gau_job.tpl\\0,1\C,3.4113
 976164,-3.8334963512,-0.7440161789\H,3.4701048574,-3.9619397818,-1.833
 4847117\H,4.3168770408,-4.2406818868,-0.2714646594\C,1.5897103842,-1.5
 503153167,0.9898256276\H,0.9701594391,-2.4596549829,0.8705891682\O,1.1
 198612268,-0.7800941941,2.0555678166\H,0.5313930326,-0.0880911049,1.70
 64041319\C,3.0463117781,-2.0089278171,1.076505158\H,3.1677652262,-2.89
 93084333,1.7205838159\O,3.8358751883,-0.9488419288,1.5381001996\H,4.77
 71650708,-1.1332149784,1.3004692319\C,1.6051477214,-0.8226483152,-0.35
 23666984\H,2.1470098422,0.1259934526,-0.2094197992\C,3.3319874416,-2.3
 481902664,-0.4162050178\H,4.3038802033,-1.907151686,-0.6878469007\O,2.
 3115061393,-1.7168912607,-1.1805664137\N,0.3246549222,-0.5061796539,-0
 .8928877843\C,-0.5998956803,-1.5342991314,-1.1061661197\H,-0.286878981
 2,-2.5245085977,-0.7793285617\C,-1.7718223492,-1.3338613744,-1.7159057
 724\H,-2.4275857693,-2.1912860697,-1.8687138617\C,-2.1976132632,0.0193
 597214,-2.2301533872\H,-2.5745779349,-0.0985002211,-3.2621307919\H,-3.
 0517530223,0.4662554775,-1.6284697802\C,-1.0396761002,0.9864733433,-2.
 1822126863\C,0.1010796929,0.7089056402,-1.5267965437\H,0.9074080566,1.
 445225351,-1.4924469633\C,-1.1796053337,2.3349717533,-2.7954948225\O,-
 0.4686449699,3.2791722684,-2.4710625857\N,-2.1793818865,2.4775655586,-
 3.7057961113\H,-2.1453708335,3.3603220249,-4.2097472212\H,-2.533765824
 4,1.6808002534,-4.2383873312\C,0.5210654626,2.1114576515,3.7141991497\
 C,-1.0821906365,2.2280392063,1.4673062747\C,-1.8157980901,2.97770798,0
 .4289323809\C,-3.8693548167,3.3702202034,-0.9314337797\C,-3.0111116657
 ,2.5601962478,-0.0174420178\O,-1.1491339306,1.0246766688,1.6503171098\
 S,-0.135113075,3.2898491561,2.5096458893\H,-0.3193464237,1.6366380451,
 4.2383873312\H,1.0995586845,1.3333331333,3.1982498214\H,-4.1938433733,
 2.7801892315,-1.7963325346\H,-3.3227762795,4.2406818868,-1.3180471387\
 H,-4.7771650708,3.7139520781,-0.4049703911\H,-3.4192212662,1.633588822
 ,0.4061112842\H,-1.3669272755,3.9102100067,0.069660254\H,2.5174934414,
 -4.3265897445,-0.3620551451\H,1.1546267256,2.6257895626,4.4368074885\\
 Version=ES64L-G16RevA.03\HF=-1507.9068462\RMSD=9.431e-09\RMSF=6.452e-0
 3\Dipole=-0.1690192,-0.9585846,-0.8189886\Quadrupole=10.3945846,-7.208
 9216,-3.185663,-10.065248,9.7814091,0.4419766\PG=C01 [X(C16H24N2O5S1)]
 \\@


 Everywhere is walking distance if you have the time.
                                    -- Steven Wright
 Job cpu time:       0 days  2 hours 45 minutes 37.9 seconds.
 Elapsed time:       0 days  0 hours 10 minutes 22.2 seconds.
 File lengths (MBytes):  RWF=    435 Int=      0 D2E=      0 Chk=     48 Scr=      1
 Normal termination of Gaussian 16 at Sun Feb 19 04:10:26 2023.
