 Entering Gaussian System, Link 0=g16
 Initial command:
 /opt/gaussian/g16/l1.exe "/opt/gaussian/scratch16/Gau-2689749.inp" -scrdir="/opt/gaussian/scratch16/"
 Entering Link 1 = /opt/gaussian/g16/l1.exe PID=   2689751.
  
 Copyright (c) 1988,1990,1992,1993,1995,1998,2003,2009,2016,
            Gaussian, Inc.  All Rights Reserved.
  
 This is part of the Gaussian(R) 16 program.  It is based on
 the Gaussian(R) 09 system (copyright 2009, Gaussian, Inc.),
 the Gaussian(R) 03 system (copyright 2003, Gaussian, Inc.),
 the Gaussian(R) 98 system (copyright 1998, Gaussian, Inc.),
 the Gaussian(R) 94 system (copyright 1995, Gaussian, Inc.),
 the Gaussian 92(TM) system (copyright 1992, Gaussian, Inc.),
 the Gaussian 90(TM) system (copyright 1990, Gaussian, Inc.),
 the Gaussian 88(TM) system (copyright 1988, Gaussian, Inc.),
 the Gaussian 86(TM) system (copyright 1986, Carnegie Mellon
 University), and the Gaussian 82(TM) system (copyright 1983,
 Carnegie Mellon University). Gaussian is a federally registered
 trademark of Gaussian, Inc.
  
 This software contains proprietary and confidential information,
 including trade secrets, belonging to Gaussian, Inc.
  
 This software is provided under written license and may be
 used, copied, transmitted, or stored only in accord with that
 written license.
  
 The following legend is applicable only to US Government
 contracts under FAR:
  
                    RESTRICTED RIGHTS LEGEND
  
 Use, reproduction and disclosure by the US Government is
 subject to restrictions as set forth in subparagraphs (a)
 and (c) of the Commercial Computer Software - Restricted
 Rights clause in FAR 52.227-19.
  
 Gaussian, Inc.
 340 Quinnipiac St., Bldg. 40, Wallingford CT 06492
  
  
 ---------------------------------------------------------------
 Warning -- This program may not be used in any manner that
 competes with the business of Gaussian, Inc. or will provide
 assistance to any competitor of Gaussian, Inc.  The licensee
 of this program is prohibited from giving any competitor of
 Gaussian, Inc. access to this program.  By using this program,
 the user acknowledges that Gaussian, Inc. is engaged in the
 business of creating and licensing software in the field of
 computational chemistry and represents and warrants to the
 licensee that it is not a competitor of Gaussian, Inc. and that
 it will not use this program in any manner prohibited above.
 ---------------------------------------------------------------
  

 Cite this work as:
 Gaussian 16, Revision A.03,
 M. J. Frisch, G. W. Trucks, H. B. Schlegel, G. E. Scuseria, 
 M. A. Robb, J. R. Cheeseman, G. Scalmani, V. Barone, 
 G. A. Petersson, H. Nakatsuji, X. Li, M. Caricato, A. V. Marenich, 
 J. Bloino, B. G. Janesko, R. Gomperts, B. Mennucci, H. P. Hratchian, 
 J. V. Ortiz, A. F. Izmaylov, J. L. Sonnenberg, D. Williams-Young, 
 F. Ding, F. Lipparini, F. Egidi, J. Goings, B. Peng, A. Petrone, 
 T. Henderson, D. Ranasinghe, V. G. Zakrzewski, J. Gao, N. Rega, 
 G. Zheng, W. Liang, M. Hada, M. Ehara, K. Toyota, R. Fukuda, 
 J. Hasegawa, M. Ishida, T. Nakajima, Y. Honda, O. Kitao, H. Nakai, 
 T. Vreven, K. Throssell, J. A. Montgomery, Jr., J. E. Peralta, 
 F. Ogliaro, M. J. Bearpark, J. J. Heyd, E. N. Brothers, K. N. Kudin, 
 V. N. Staroverov, T. A. Keith, R. Kobayashi, J. Normand, 
 K. Raghavachari, A. P. Rendell, J. C. Burant, S. S. Iyengar, 
 J. Tomasi, M. Cossi, J. M. Millam, M. Klene, C. Adamo, R. Cammi, 
 J. W. Ochterski, R. L. Martin, K. Morokuma, O. Farkas, 
 J. B. Foresman, and D. J. Fox, Gaussian, Inc., Wallingford CT, 2016.
 
 ******************************************
 Gaussian 16:  ES64L-G16RevA.03 25-Dec-2016
                 8-Mar-2023 
 ******************************************
 %chk=9.chk
 %NProcShared=16
 Will use up to   16 processors via shared memory.
 %mem=20GB
 ----------------------------------------------------------------------
 #P M062X/Def2TZVP scf=(direct,conver=8) EmpiricalDispersion=GD3 NoSymm
  Force pop=(NBORead) Charge Prop=(Field,Read)
 ----------------------------------------------------------------------
 1/10=7,18=10,28=-2,30=1,38=1,125=101/1,3;
 2/12=2,15=1,17=6,18=5,29=2,40=1/2;
 3/5=44,7=101,11=2,25=1,30=1,71=1,74=-55,124=31/1,2,3;
 4//1;
 5/5=2,6=8,38=5/2;
 6/7=2,8=2,9=2,10=2,14=2,15=1,28=1,40=2/1,2,7;
 7/7=1,16=-2,29=1,30=1/1,2,3,16;
 1/10=7,18=10,28=-2,30=1/3;
 99/12=1/99;
 Leave Link    1 at Wed Mar  8 14:22:35 2023, MaxMem=  2684354560 cpu:               1.0 elap:               0.1
 (Enter /opt/gaussian/g16/l101.exe)
 ----------------------------------------------------------------------
 Gaussian run using SANDER external interface, route from template gau_
 job.tpl
 ----------------------------------------------------------------------
 Symbolic Z-matrix:
 Charge =  0 Multiplicity = 1
 C                     3.45337  -3.55561  -0.83556 
 H                     3.41601  -3.63323  -1.93032 
 H                     4.41333  -3.93251  -0.45394 
 C                     1.60942  -1.20984   0.98502 
 H                     0.88208  -2.04993   1.00652 
 O                     1.3107   -0.36602   2.0781 
 H                     0.41373   0.01731   2.04459 
 C                     3.08349  -1.70856   1.02989 
 H                     3.26646  -2.54455   1.7361 
 O                     3.88541  -0.60998   1.44443 
 H                     4.83632  -0.78365   1.37177 
 C                     1.62202  -0.45556  -0.3671 
 H                     2.22971   0.46675  -0.28418 
 C                     3.39623  -2.04481  -0.47633 
 H                     4.31789  -1.53484  -0.82557 
 O                     2.31631  -1.39819  -1.20831 
 N                     0.3565   -0.12303  -0.93146 
 C                    -0.54442  -1.15804  -1.27862 
 H                    -0.12821  -2.15204  -1.13124 
 C                    -1.7317   -0.88622  -1.78088 
 H                    -2.38288  -1.70361  -2.08674 
 C                    -2.22603   0.54325  -1.98446 
 H                    -2.83448   0.62241  -2.90116 
 H                    -2.85732   0.88591  -1.09243 
 C                    -1.00731   1.48758  -2.03327 
 C                     0.1575    1.14734  -1.4815 
 H                     1.03737   1.79143  -1.47811 
 C                    -1.20829   2.86102  -2.55914 
 O                    -0.81756   3.85034  -1.99536 
 N                    -2.02486   3.00401  -3.65545 
 H                    -1.98503   3.93251  -4.04501 
 H                    -2.02424   2.24315  -4.31368 
 C                     0.94087   2.16242   3.78958 
 C                    -0.92932   2.14434   1.75532 
 C                    -1.84754   2.77128   0.81246 
 C                    -4.06713   3.05724  -0.32998 
 C                    -3.06591   2.29203   0.5181 
 O                    -0.97852   0.95791   2.1076 
 S                     0.21368   3.2079    2.47297 
 H                     0.10467   1.67988   4.31368 
 H                     1.57671   1.40102   3.31553 
 H                    -4.83632   2.37937  -0.71606 
 H                    -3.54893   3.57228  -1.14907 
 H                    -4.55817   3.81689   0.29804 
 H                    -3.43154   1.39643   1.0404 
 H                    -1.47982   3.69751   0.35775 
 H                     2.61422  -4.08522  -0.38452 
 H                     1.53067   2.76522   4.48014 
 
 ITRead=  0  0  0  0  0  0  0  0  0  0  0  0  0  0  0  0  0  0  0  0
 ITRead=  0  0  0  0  0  0  0  0  0  0  0  0  0  0  0  0  0  0  0  0
 ITRead=  0  0  0  0  0  0  0  0
 MicOpt= -1 -1 -1 -1 -1 -1 -1 -1 -1 -1 -1 -1 -1 -1 -1 -1 -1 -1 -1 -1
 MicOpt= -1 -1 -1 -1 -1 -1 -1 -1 -1 -1 -1 -1 -1 -1 -1 -1 -1 -1 -1 -1
 MicOpt= -1 -1 -1 -1 -1 -1 -1 -1
 NAtoms=     48 NQM=       48 NQMF=       0 NMMI=      0 NMMIF=      0
                NMic=       0 NMicF=      0.
                    Isotopes and Nuclear Properties:
 (Nuclear quadrupole moments (NQMom) in fm**2, nuclear magnetic moments (NMagM)
  in nuclear magnetons)

  Atom         1           2           3           4           5           6           7           8           9          10
 IAtWgt=          12           1           1          12           1          16           1          12           1          16
 AtmWgt=  12.0000000   1.0078250   1.0078250  12.0000000   1.0078250  15.9949146   1.0078250  12.0000000   1.0078250  15.9949146
 NucSpn=           0           1           1           0           1           0           1           0           1           0
 AtZEff=  -0.0000000  -0.0000000  -0.0000000  -0.0000000  -0.0000000  -0.0000000  -0.0000000  -0.0000000  -0.0000000  -0.0000000
 NQMom=    0.0000000   0.0000000   0.0000000   0.0000000   0.0000000   0.0000000   0.0000000   0.0000000   0.0000000   0.0000000
 NMagM=    0.0000000   2.7928460   2.7928460   0.0000000   2.7928460   0.0000000   2.7928460   0.0000000   2.7928460   0.0000000
 AtZNuc=   6.0000000   1.0000000   1.0000000   6.0000000   1.0000000   8.0000000   1.0000000   6.0000000   1.0000000   8.0000000

  Atom        11          12          13          14          15          16          17          18          19          20
 IAtWgt=           1          12           1          12           1          16          14          12           1          12
 AtmWgt=   1.0078250  12.0000000   1.0078250  12.0000000   1.0078250  15.9949146  14.0030740  12.0000000   1.0078250  12.0000000
 NucSpn=           1           0           1           0           1           0           2           0           1           0
 AtZEff=  -0.0000000  -0.0000000  -0.0000000  -0.0000000  -0.0000000  -0.0000000  -0.0000000  -0.0000000  -0.0000000  -0.0000000
 NQMom=    0.0000000   0.0000000   0.0000000   0.0000000   0.0000000   0.0000000   2.0440000   0.0000000   0.0000000   0.0000000
 NMagM=    2.7928460   0.0000000   2.7928460   0.0000000   2.7928460   0.0000000   0.4037610   0.0000000   2.7928460   0.0000000
 AtZNuc=   1.0000000   6.0000000   1.0000000   6.0000000   1.0000000   8.0000000   7.0000000   6.0000000   1.0000000   6.0000000

  Atom        21          22          23          24          25          26          27          28          29          30
 IAtWgt=           1          12           1           1          12          12           1          12          16          14
 AtmWgt=   1.0078250  12.0000000   1.0078250   1.0078250  12.0000000  12.0000000   1.0078250  12.0000000  15.9949146  14.0030740
 NucSpn=           1           0           1           1           0           0           1           0           0           2
 AtZEff=  -0.0000000  -0.0000000  -0.0000000  -0.0000000  -0.0000000  -0.0000000  -0.0000000  -0.0000000  -0.0000000  -0.0000000
 NQMom=    0.0000000   0.0000000   0.0000000   0.0000000   0.0000000   0.0000000   0.0000000   0.0000000   0.0000000   2.0440000
 NMagM=    2.7928460   0.0000000   2.7928460   2.7928460   0.0000000   0.0000000   2.7928460   0.0000000   0.0000000   0.4037610
 AtZNuc=   1.0000000   6.0000000   1.0000000   1.0000000   6.0000000   6.0000000   1.0000000   6.0000000   8.0000000   7.0000000

  Atom        31          32          33          34          35          36          37          38          39          40
 IAtWgt=           1           1          12          12          12          12          12          16          32           1
 AtmWgt=   1.0078250   1.0078250  12.0000000  12.0000000  12.0000000  12.0000000  12.0000000  15.9949146  31.9720718   1.0078250
 NucSpn=           1           1           0           0           0           0           0           0           0           1
 AtZEff=  -0.0000000  -0.0000000  -0.0000000  -0.0000000  -0.0000000  -0.0000000  -0.0000000  -0.0000000  -0.0000000  -0.0000000
 NQMom=    0.0000000   0.0000000   0.0000000   0.0000000   0.0000000   0.0000000   0.0000000   0.0000000   0.0000000   0.0000000
 NMagM=    2.7928460   2.7928460   0.0000000   0.0000000   0.0000000   0.0000000   0.0000000   0.0000000   0.0000000   2.7928460
 AtZNuc=   1.0000000   1.0000000   6.0000000   6.0000000   6.0000000   6.0000000   6.0000000   8.0000000  16.0000000   1.0000000

  Atom        41          42          43          44          45          46          47          48
 IAtWgt=           1           1           1           1           1           1           1           1
 AtmWgt=   1.0078250   1.0078250   1.0078250   1.0078250   1.0078250   1.0078250   1.0078250   1.0078250
 NucSpn=           1           1           1           1           1           1           1           1
 AtZEff=  -0.0000000  -0.0000000  -0.0000000  -0.0000000  -0.0000000  -0.0000000  -0.0000000  -0.0000000
 NQMom=    0.0000000   0.0000000   0.0000000   0.0000000   0.0000000   0.0000000   0.0000000   0.0000000
 NMagM=    2.7928460   2.7928460   2.7928460   2.7928460   2.7928460   2.7928460   2.7928460   2.7928460
 AtZNuc=   1.0000000   1.0000000   1.0000000   1.0000000   1.0000000   1.0000000   1.0000000   1.0000000
 Background charge distribution read from input stream:
 Leave Link  101 at Wed Mar  8 14:22:35 2023, MaxMem=  2684354560 cpu:               4.3 elap:               0.3
 (Enter /opt/gaussian/g16/l103.exe)

 GradGradGradGradGradGradGradGradGradGradGradGradGradGradGradGradGradGrad
 Berny optimization.
 Initialization pass.
 Trust Radius=3.00D-01 FncErr=1.00D-07 GrdErr=1.00D-07 EigMax=2.50D+02 EigMin=1.00D-04
 Number of steps in this run=      2 maximum allowed number of steps=      2.
 GradGradGradGradGradGradGradGradGradGradGradGradGradGradGradGradGradGrad

 Leave Link  103 at Wed Mar  8 14:22:35 2023, MaxMem=  2684354560 cpu:               0.4 elap:               0.0
 (Enter /opt/gaussian/g16/l202.exe)
 ---------------------------------------------------------------------------------------------------
                            Z-MATRIX (ANGSTROMS AND DEGREES)
   CD    Cent   Atom    N1       Length/X        N2       Alpha/Y        N3        Beta/Z          J
 ---------------------------------------------------------------------------------------------------
      1      1  C        0   3.453370         -3.555608         -0.835562
      2      2  H        0   3.416011         -3.633229         -1.930317
      3      3  H        0   4.413327         -3.932510         -0.453938
      4      4  C        0   1.609424         -1.209838          0.985025
      5      5  H        0   0.882083         -2.049928          1.006516
      6      6  O        0   1.310699         -0.366016          2.078100
      7      7  H        0   0.413732          0.017315          2.044592
      8      8  C        0   3.083491         -1.708564          1.029885
      9      9  H        0   3.266460         -2.544546          1.736103
     10     10  O        0   3.885407         -0.609980          1.444435
     11     11  H        0   4.836318         -0.783649          1.371771
     12     12  C        0   1.622024         -0.455562         -0.367103
     13     13  H        0   2.229711          0.466749         -0.284183
     14     14  C        0   3.396232         -2.044806         -0.476335
     15     15  H        0   4.317888         -1.534841         -0.825572
     16     16  O        0   2.316305         -1.398187         -1.208315
     17     17  N        0   0.356501         -0.123029         -0.931461
     18     18  C        0  -0.544420         -1.158044         -1.278620
     19     19  H        0  -0.128212         -2.152039         -1.131241
     20     20  C        0  -1.731702         -0.886215         -1.780882
     21     21  H        0  -2.382885         -1.703610         -2.086743
     22     22  C        0  -2.226032          0.543251         -1.984460
     23     23  H        0  -2.834481          0.622410         -2.901160
     24     24  H        0  -2.857318          0.885909         -1.092433
     25     25  C        0  -1.007308          1.487576         -2.033272
     26     26  C        0   0.157503          1.147336         -1.481496
     27     27  H        0   1.037374          1.791433         -1.478111
     28     28  C        0  -1.208294          2.861017         -2.559137
     29     29  O        0  -0.817556          3.850342         -1.995364
     30     30  N        0  -2.024855          3.004010         -3.655447
     31     31  H        0  -1.985031          3.932510         -4.045013
     32     32  H        0  -2.024240          2.243147         -4.313682
     33     33  C        0   0.940870          2.162420          3.789580
     34     34  C        0  -0.929321          2.144343          1.755323
     35     35  C        0  -1.847542          2.771282          0.812463
     36     36  C        0  -4.067129          3.057238         -0.329979
     37     37  C        0  -3.065911          2.292033          0.518096
     38     38  O        0  -0.978523          0.957913          2.107605
     39     39  S        0   0.213679          3.207896          2.472969
     40     40  H        0   0.104674          1.679879          4.313682
     41     41  H        0   1.576711          1.401017          3.315535
     42     42  H        0  -4.836318          2.379371         -0.716059
     43     43  H        0  -3.548929          3.572282         -1.149066
     44     44  H        0  -4.558168          3.816886          0.298043
     45     45  H        0  -3.431540          1.396431          1.040401
     46     46  H        0  -1.479818          3.697505          0.357749
     47     47  H        0   2.614220         -4.085221         -0.384522
     48     48  H        0   1.530666          2.765218          4.480141
 ---------------------------------------------------------------------------------------------------
                         Z-Matrix orientation:                         
 ---------------------------------------------------------------------
 Center     Atomic      Atomic             Coordinates (Angstroms)
 Number     Number       Type             X           Y           Z
 ---------------------------------------------------------------------
      1          6           0        3.453370   -3.555608   -0.835562
      2          1           0        3.416011   -3.633229   -1.930317
      3          1           0        4.413327   -3.932510   -0.453938
      4          6           0        1.609424   -1.209838    0.985025
      5          1           0        0.882083   -2.049928    1.006516
      6          8           0        1.310699   -0.366016    2.078100
      7          1           0        0.413732    0.017315    2.044592
      8          6           0        3.083491   -1.708564    1.029885
      9          1           0        3.266460   -2.544546    1.736103
     10          8           0        3.885407   -0.609980    1.444435
     11          1           0        4.836318   -0.783649    1.371771
     12          6           0        1.622024   -0.455562   -0.367103
     13          1           0        2.229711    0.466749   -0.284183
     14          6           0        3.396232   -2.044806   -0.476335
     15          1           0        4.317888   -1.534841   -0.825572
     16          8           0        2.316305   -1.398187   -1.208315
     17          7           0        0.356501   -0.123029   -0.931461
     18          6           0       -0.544420   -1.158044   -1.278620
     19          1           0       -0.128212   -2.152039   -1.131241
     20          6           0       -1.731702   -0.886215   -1.780882
     21          1           0       -2.382885   -1.703610   -2.086743
     22          6           0       -2.226032    0.543251   -1.984460
     23          1           0       -2.834481    0.622410   -2.901160
     24          1           0       -2.857318    0.885909   -1.092433
     25          6           0       -1.007308    1.487576   -2.033272
     26          6           0        0.157503    1.147336   -1.481496
     27          1           0        1.037374    1.791433   -1.478111
     28          6           0       -1.208294    2.861017   -2.559137
     29          8           0       -0.817556    3.850342   -1.995364
     30          7           0       -2.024855    3.004010   -3.655447
     31          1           0       -1.985031    3.932510   -4.045013
     32          1           0       -2.024240    2.243147   -4.313682
     33          6           0        0.940870    2.162420    3.789580
     34          6           0       -0.929321    2.144343    1.755323
     35          6           0       -1.847542    2.771282    0.812463
     36          6           0       -4.067129    3.057238   -0.329979
     37          6           0       -3.065911    2.292033    0.518096
     38          8           0       -0.978523    0.957913    2.107605
     39         16           0        0.213679    3.207896    2.472969
     40          1           0        0.104674    1.679879    4.313682
     41          1           0        1.576711    1.401017    3.315535
     42          1           0       -4.836318    2.379371   -0.716059
     43          1           0       -3.548929    3.572282   -1.149066
     44          1           0       -4.558168    3.816886    0.298043
     45          1           0       -3.431540    1.396431    1.040401
     46          1           0       -1.479818    3.697505    0.357749
     47          1           0        2.614220   -4.085221   -0.384522
     48          1           0        1.530666    2.765218    4.480141
 ---------------------------------------------------------------------
                    Distance matrix (angstroms):
                    1          2          3          4          5
     1  C    0.000000
     2  H    1.098139   0.000000
     3  H    1.099640   1.806628   0.000000
     4  C    3.495327   4.199500   4.164784   0.000000
     5  H    3.503119   4.189585   4.259897   1.111413   0.000000
     6  O    4.822236   5.583406   5.362592   1.412829   2.041461
     7  H    5.504586   6.175764   6.151465   2.014514   2.360180
     8  C    2.651089   3.546505   2.985988   1.556797   2.227841
     9  H    2.769592   3.827562   2.835141   2.256398   2.542085
    10  O    3.749902   4.555142   3.862864   2.398122   3.359343
    11  H    3.803764   4.587065   3.664350   3.277813   4.168076
    12  C    3.630918   3.969835   4.459605   1.548335   2.230772
    13  H    4.240368   4.574591   4.914313   2.192394   3.132998
    14  C    1.553973   2.153495   2.144390   2.454674   2.918873
    15  H    2.197951   2.537139   2.428175   3.274090   3.927673
    16  O    2.467048   2.593463   3.374815   2.312119   2.717947
    17  N    4.624109   4.762333   5.585517   2.534538   2.782971
    18  C    4.682621   4.715535   5.740820   3.125030   2.837642
    19  H    3.858129   3.923514   4.924874   2.895807   2.366670
    20  C    5.907982   5.836726   6.985848   4.349493   3.994457
    21  H    6.249578   6.113517   7.336385   5.061432   4.510898
    22  C    7.097621   7.019870   8.152056   5.157701   5.032980
    23  H    7.826851   7.623755   8.903196   6.181250   6.018652
    24  H    7.721258   7.776845   8.745691   5.353482   5.196907
    25  C    6.838557   6.767496   7.826552   4.820109   5.032301
    26  C    5.779070   5.802854   6.706172   3.707839   4.115546
    27  H    5.902605   5.940485   6.723801   3.924526   4.577504
    28  C    8.116335   7.997177   9.065676   6.088717   6.418795
    29  O    8.627517   8.598323   9.503206   6.354398   6.834709
    30  N    8.999516   8.753973   9.990754   7.245584   7.465017
    31  H    9.795340   9.533289  10.756084   8.041463   8.338336
    32  H    8.702132   8.355152   9.720012   7.294033   7.428440
    33  C    7.771772   8.510763   8.198388   4.436735   5.049037
    34  C    7.642650   8.114567   8.387661   4.276578   4.629666
    35  C    8.416958   8.731872   9.259755   5.275387   5.543697
    36  C   10.027126  10.164685  10.990453   7.222217   7.236301
    37  C    8.861621   9.116950   9.778997   5.860024   5.888789
    38  O    6.976803   7.529630   7.716850   3.557640   3.704235
    39  S    8.196766   8.743275   8.785740   4.866052   5.499270
    40  H    8.070861   8.842036   8.531916   4.657757   5.045114
    41  H    6.732130   7.499707   7.120521   3.499844   4.209881
    42  H   10.195939  10.282350  11.201092   7.571241   7.435460
    43  H    9.996864  10.051872  10.963696   7.350621   7.475938
    44  H   10.946390  11.138103  11.878818   7.986181   8.032295
    45  H    8.685846   9.000645   9.600656   5.675123   5.521402
    46  H    8.852569   9.107362   9.674974   5.832573   6.247597
    47  H    1.090000   1.799069   1.806910   3.339625   3.012922
    48  H    8.479760   9.251412   8.804228   5.293686   5.972635
                    6          7          8          9         10
     6  O    0.000000
     7  H    0.976020   0.000000
     8  C    2.458451   3.337051   0.000000
     9  H    2.947534   3.846603   1.109543   0.000000
    10  O    2.662738   3.578578   1.421903   2.052002   0.000000
    11  H    3.619849   4.544613   2.011158   2.387038   0.969367
    12  C    2.466568   2.738586   2.378545   3.389910   2.903174
    13  H    2.668045   2.987134   2.680990   3.771512   2.624652
    14  C    3.700395   4.416189   1.574663   2.271885   2.446911
    15  H    4.340581   5.088169   2.235315   2.947402   2.489043
    16  O    3.588474   4.025523   2.386304   3.299474   3.181263
    17  N    3.166542   2.979910   3.714468   4.631144   4.281960
    18  C    3.916164   3.652843   4.335206   5.053093   5.228649
    19  H    3.944643   3.884034   3.896431   4.460887   5.012104
    20  C    4.941513   4.478114   5.635846   6.332524   6.483124
    21  H    5.725176   5.277365   6.292429   6.872876   7.277138
    22  C    5.462565   4.845433   6.507533   7.317413   7.101898
    23  H    6.553818   5.947898   7.477229   8.291881   8.096905
    24  H    5.384418   4.614667   6.821198   7.567647   7.357834
    25  C    5.070734   4.561798   6.027677   6.980780   6.358683
    26  C    4.036189   3.711590   4.798397   5.800736   5.054355
    27  H    4.168444   3.993227   4.767245   5.839581   4.734908
    28  C    6.185712   5.649065   7.223681   8.227552   7.349980
    29  O    6.237007   5.703457   7.434497   8.455627   7.337885
    30  N    7.440199   6.881679   8.381879   9.373009   8.602379
    31  H    8.175064   7.626671   9.125033  10.146512   9.232026
    32  H    7.667100   7.164195   8.382044   9.354860   8.730417
    33  C    3.075537   2.815019   5.214524   5.637434   4.675062
    34  C    3.379908   2.532137   5.610153   6.292108   5.555588
    35  C    4.628062   3.770389   6.665687   7.433986   6.685733
    36  C    6.814583   5.912515   8.700200   9.456754   8.935316
    37  C    5.352901   4.428594   7.354037   8.060704   7.589507
    38  O    2.644654   1.681389   4.977102   5.515896   5.153242
    39  S    3.759285   3.225421   5.872810   6.553856   5.395892
    40  H    3.261596   2.829912   5.580163   5.872527   5.269723
    41  H    2.173572   2.209626   4.142955   4.573545   3.588203
    42  H    7.289053   6.384632   9.082011   9.793521   9.469554
    43  H    7.038521   6.208053   8.753523   9.601526   8.915544
    44  H    7.423535   6.496689   9.458391  10.186296   9.602360
    45  H    5.164481   4.206718   7.217115   7.802468   7.597805
    46  H    5.220996   4.469315   7.106416   7.961797   6.965699
    47  H    4.647166   5.251051   2.805220   2.701138   4.127747
    48  H    3.952571   3.838022   5.859203   6.223851   5.113930
                   11         12         13         14         15
    11  H    0.000000
    12  C    3.669197   0.000000
    13  H    3.331678   1.107618   0.000000
    14  C    2.660801   2.384416   2.775897   0.000000
    15  H    2.379364   2.939850   2.942779   1.109721   0.000000
    16  O    3.658547   1.441599   2.083148   1.456074   2.042425
    17  N    5.080360   1.425000   2.067782   3.624959   4.206781
    18  C    6.009749   2.453125   3.365213   4.118100   4.897884
    19  H    5.725742   2.554460   3.624274   3.586378   4.499130
    20  C    7.286194   3.664930   4.445606   5.416630   6.158804
    21  H    8.057577   4.533661   5.407007   6.008995   6.820512
    22  C    7.931062   4.291970   4.769742   6.370427   6.963072
    23  H    8.892474   5.238693   5.702529   7.198305   7.753591
    24  H    8.249349   4.731824   5.167865   6.933654   7.577257
    25  C    7.134476   3.669509   3.818337   5.856018   6.241094
    26  C    5.810434   2.440487   2.488132   4.657197   4.993306
    27  H    5.402300   2.573935   2.145208   4.613512   4.717168
    28  C    8.079168   4.880104   4.767369   7.043211   7.271004
    29  O    8.048464   5.209952   4.864430   7.403799   7.532689
    30  N    9.311014   6.006794   5.992032   8.061358   8.296972
    31  H    9.905277   6.767056   6.627170   8.798964   8.943350
    32  H    9.410268   6.012800   6.122790   7.905270   8.164723
    33  C    5.449738   4.959416   4.596951   6.475151   6.809817
    34  C    6.477873   4.215870   4.117449   6.421812   6.908734
    35  C    7.591070   4.882805   4.810145   7.235528   7.696647
    36  C    9.844782   6.686375   6.809033   9.041794   9.572947
    37  C    8.522547   5.505415   5.658527   7.845786   8.424422
    38  O    6.114480   3.858100   4.031707   5.901826   6.547466
    39  S    6.205954   4.844623   4.379516   6.813070   7.086498
    40  H    6.091984   5.363973   5.208439   6.903035   7.382244
    41  H    4.379043   4.124410   3.775875   5.437152   5.769061
    42  H   10.388629   7.061784   7.333035   9.349101   9.956532
    43  H    9.779628   6.601042   6.617026   8.957651   9.384783
    44  H   10.515426   7.542613   7.591950   9.911184  10.425347
    45  H    8.556871   5.563224   5.888005   7.794939   8.492811
    46  H    7.810414   5.234005   4.960894   7.579294   7.898803
    47  H    4.350019   3.762868   4.569283   2.187068   3.098620
    48  H    5.760534   5.820442   5.335767   7.154252   7.376293
                   16         17         18         19         20
    16  O    0.000000
    17  N    2.354466   0.000000
    18  C    2.871648   1.415427   0.000000
    19  H    2.559276   2.095648   1.087647   0.000000
    20  C    4.120232   2.380034   1.317496   2.143717   0.000000
    21  H    4.790335   3.367068   2.081023   2.489503   1.088910
    22  C    5.000441   2.867441   2.494079   3.520429   1.526165
    23  H    5.786116   3.823318   3.323707   4.260760   2.178783
    24  H    5.656580   3.372314   3.092232   4.083951   2.209388
    25  C    4.478236   2.380760   2.789816   3.851399   2.494661
    26  C    3.348842   1.398559   2.418394   3.330193   2.791784
    27  H    3.447047   2.104182   3.352802   4.126727   3.863839
    28  C    5.691075   3.741984   4.270047   5.323175   3.862821
    29  O    6.163408   4.277614   5.066780   6.103318   4.828731
    30  N    6.649321   4.782190   5.016342   6.045967   4.328255
    31  H    7.413817   5.623556   5.970094   6.997112   5.330157
    32  H    6.460879   4.765097   4.792658   5.748088   4.036529
    33  C    6.288776   5.277593   6.238446   6.631136   6.889620
    34  C    5.645065   3.743411   4.500968   5.237645   4.725764
    35  C    6.229417   4.034367   4.637925   5.565355   4.485103
    36  C    7.833934   5.481276   5.574764   6.579792   4.807303
    37  C    6.750295   4.432454   4.635637   5.576752   4.143269
    38  O    5.234733   3.490938   4.016495   4.570006   4.369029
    39  S    6.260104   4.765040   5.806080   6.468085   6.216229
    40  H    6.697631   5.552064   6.304678   6.662208   6.863004
    41  H    5.371011   4.674249   5.670471   5.941783   6.492341
    42  H    8.103844   5.768343   5.590184   6.547695   4.629961
    43  H    7.688306   5.380991   5.605340   6.668544   4.855894
    44  H    8.759251   6.417833   6.583765   7.569374   5.867708
    45  H    6.775275   4.532798   4.498740   5.312217   4.007438
    46  H    6.544401   4.430645   5.208553   6.185556   5.064354
    47  H    2.826223   4.592972   4.398270   3.437399   5.574091
    48  H    7.092933   6.245484   7.270577   7.643226   7.948359
                   21         22         23         24         25
    21  H    0.000000
    22  C    2.254650   0.000000
    23  H    2.505510   1.103094   0.000000
    24  H    2.814133   1.145272   1.827963   0.000000
    25  C    3.475448   1.542537   2.200069   2.160953   0.000000
    26  C    3.866236   2.509807   3.353052   3.051042   1.333044
    27  H    4.927873   3.530463   4.287534   4.017132   2.140388
    28  C    4.736943   2.595782   2.787978   2.961680   1.484341
    29  O    5.771047   3.594548   3.912544   3.709957   2.370676
    30  N    4.975008   2.981276   2.626111   3.427592   2.442626
    31  H    5.979879   3.973794   3.603710   4.331327   3.313720
    32  H    4.545852   2.890613   2.297498   3.593405   2.608698
    33  C    7.779762   6.781630   7.835235   6.315834   6.177088
    34  C    5.628593   4.269769   5.256306   3.662041   3.845891
    35  C    5.358792   3.595852   4.402579   2.864073   3.232971
    36  C    5.346828   3.528041   3.749505   2.599933   3.837649
    37  C    4.818389   3.166452   3.812154   2.148139   3.375571
    38  O    5.162218   4.298048   5.352090   3.711509   4.174714
    39  S    7.187212   5.737700   6.697558   5.247356   4.975593
    40  H    7.655154   6.811072   7.861986   6.215293   6.446496
    41  H    7.382528   6.579252   7.662385   6.273447   5.940908
    42  H    4.956697   3.434206   3.445132   2.507694   4.146284
    43  H    5.483971   3.409248   3.504571   2.774552   3.404065
    44  H    6.394915   4.622268   4.838458   3.662914   4.844514
    45  H    4.526474   3.366147   4.060972   2.267013   3.915696
    46  H    5.996925   3.999012   4.681005   3.450451   3.289990
    47  H    5.791432   6.885535   7.627817   7.426371   6.847621
    48  H    8.854957   7.800063   8.839103   7.337560   7.106211
                   26         27         28         29         30
    26  C    0.000000
    27  H    1.090434   0.000000
    28  C    2.442010   2.712131   0.000000
    29  O    2.919083   2.819118   1.203861   0.000000
    30  N    3.596664   3.948213   1.374451   2.220298   0.000000
    31  H    4.349628   4.506454   1.989785   2.360256   1.007700
    32  H    3.739262   4.197379   2.031246   3.068185   1.006075
    33  C    5.424786   5.281620   6.738928   6.277478   8.058053
    34  C    3.556994   3.800991   4.382466   4.121963   5.587097
    35  C    3.452485   3.811768   3.432838   3.179487   4.477479
    36  C    4.777158   5.382975   3.630508   3.736609   3.902878
    37  C    3.962209   4.590468   3.639210   3.714958   4.359951
    38  O    3.769361   4.197137   5.045104   5.022590   6.204360
    39  S    4.459469   4.277368   5.240651   4.630571   6.527640
    40  H    5.819836   5.867473   7.096099   6.735391   8.354354
    41  H    5.008993   4.839664   6.663304   6.319602   8.008462
    42  H    5.200198   5.952030   4.097741   4.466635   4.115155
    43  H    4.441679   4.930910   2.823610   2.872966   2.987922
    44  H    5.703579   6.210256   4.505421   4.387826   4.765345
    45  H    4.393546   5.144913   4.477109   4.697921   5.158882
    46  H    3.544997   3.652362   3.046582   2.449304   4.108983
    47  H    5.883745   6.182025   8.221361   8.794604   9.081694
    48  H    6.328052   6.057422   7.553973   6.973078   8.881809
                   31         32         33         34         35
    31  H    0.000000
    32  H    1.711043   0.000000
    33  C    8.548389   8.629093   0.000000
    34  C    6.160841   6.167774   2.763357   0.000000
    35  C    4.996241   5.156308   4.124218   1.457795   0.000000
    36  C    4.347725   4.550388   6.546107   3.876558   2.512670
    37  C    4.968041   4.943030   5.174331   2.473370   1.341923
    38  O    6.907676   6.631612   2.822046   1.238604   2.391838
    39  S    6.916899   7.210940   1.831745   1.718316   2.682637
    40  H    8.905560   8.903986   1.098523   2.798227   4.154617
    41  H    8.559914   8.478266   1.099431   3.044174   4.457410
    42  H    4.650163   4.568286   7.329648   4.628995   3.379757
    43  H    3.310899   3.755805   6.821747   4.163752   2.717336
    44  H    5.049409   5.492308   6.720678   4.253187   2.950493
    45  H    5.863917   5.600324   5.221368   2.707690   2.109792
    46  H    4.437880   4.922786   4.471429   2.160688   1.095388
    47  H    9.941645   8.775070   7.697807   7.479511   8.267510
    48  H    9.295211   9.499539   1.090000   3.723124   4.986400
                   36         37         38         39         40
    36  C    0.000000
    37  C    1.518949   0.000000
    38  O    4.459648   2.943400   0.000000
    39  S    5.119036   3.926327   2.572404   0.000000
    40  H    6.392546   4.983354   2.561509   2.394774   0.000000
    41  H    6.919955   5.493043   2.860885   2.415075   1.800266
    42  H    1.095543   2.159886   4.987604   6.029828   7.085265
    43  H    1.097591   2.156797   4.903857   5.235373   6.838978
    44  H    1.101179   2.144861   4.925657   5.279365   6.514158
    45  H    2.245037   1.099359   2.710814   4.315238   4.826957
    46  H    2.752651   2.125266   3.289173   2.753508   4.714959
    47  H    9.780496   8.587664   6.674706   8.192521   7.849033
    48  H    7.386327   6.086890   3.897603   2.441138   1.799757
                   41         42         43         44         45
    41  H    0.000000
    42  H    7.637923   0.000000
    43  H    7.135772   1.807735   0.000000
    44  H    7.251099   1.781072   1.781156   0.000000
    45  H    5.500803   2.454531   3.088993   2.771099   0.000000
    46  H    4.833708   3.762530   2.562692   3.081243   3.093570
    47  H    6.698182   9.869720   9.859325  10.693565   8.284330
    48  H    1.794289   8.227263   7.625064   7.461223   6.191032
                   46         47         48
    46  H    0.000000
    47  H    8.825131   0.000000
    48  H    5.189055   8.471573   0.000000
 Symmetry turned off by external request.
 Stoichiometry    C16H24N2O5S
 Framework group  C1[X(C16H24N2O5S)]
 Deg. of freedom   138
 Full point group                 C1      NOp   1
 Rotational constants (GHZ):           0.2893112           0.1680559           0.1260516
 Leave Link  202 at Wed Mar  8 14:22:35 2023, MaxMem=  2684354560 cpu:               0.9 elap:               0.1
 (Enter /opt/gaussian/g16/l301.exe)
 Standard basis: def2TZVP (5D, 7F)
 Ernie: Thresh=  0.10000D-02 Tol=  0.10000D-05 Strict=F.
   894 basis functions,  1434 primitive gaussians,  1014 cartesian basis functions
    95 alpha electrons       95 beta electrons
       nuclear repulsion energy      2430.8853840920 Hartrees.
 IExCor= 4336 DFT=T Ex+Corr=M062X ExCW=0 ScaHFX=  0.540000
 ScaDFX=  1.000000  1.000000  1.000000  1.000000 ScalE2=  1.000000  1.000000
 IRadAn=      5 IRanWt=     -1 IRanGd=            0 ICorTp=0 IEmpDi=131
 NAtoms=   48 NActive=   48 NUniq=   48 SFac= 1.00D+00 NAtFMM=   60 NAOKFM=F Big=F
 Integral buffers will be    131072 words long.
 Raffenetti 2 integral format.
 Two-electron integral symmetry is turned off.
 R6Disp:  Grimme-D3 Dispersion energy=       -0.0042125743 Hartrees.
 Nuclear repulsion after empirical dispersion term =     2430.8811715177 Hartrees.
 Leave Link  301 at Wed Mar  8 14:22:36 2023, MaxMem=  2684354560 cpu:               1.4 elap:               0.1
 (Enter /opt/gaussian/g16/l302.exe)
 NPDir=0 NMtPBC=     1 NCelOv=     1 NCel=       1 NClECP=     1 NCelD=      1
         NCelK=      1 NCelE2=     1 NClLst=     1 CellRange=     0.0.
 One-electron integrals computed using PRISM.
   1 Symmetry operations used in ECPInt.
 ECPInt:  NShTT=   65703 NPrTT=  200010 LenC2=   56048 LenP2D=  118539.
 LDataN:  DoStor=T MaxTD1= 6 Len=  172
 NBasis=   894 RedAO= T EigKep=  3.19D-05  NBF=   894
 NBsUse=   894 1.00D-06 EigRej= -1.00D+00 NBFU=   894
 Precomputing XC quadrature grid using
 IXCGrd= 4 IRadAn=           5 IRanWt=          -1 IRanGd=           0 AccXCQ= 0.00D+00.
 Generated NRdTot=       0 NPtTot=           0 NUsed=           0 NTot=          32
 NSgBfM=   998   998   998   998   998 MxSgAt=    48 MxSgA2=    48.
 Leave Link  302 at Wed Mar  8 14:22:38 2023, MaxMem=  2684354560 cpu:              37.8 elap:               2.4
 (Enter /opt/gaussian/g16/l303.exe)
 DipDrv:  MaxL=1.
 Leave Link  303 at Wed Mar  8 14:22:38 2023, MaxMem=  2684354560 cpu:               4.6 elap:               0.3
 (Enter /opt/gaussian/g16/l401.exe)
 ExpMin= 9.52D-02 ExpMax= 6.07D+04 ExpMxC= 2.07D+03 IAcc=3 IRadAn=         5 AccDes= 0.00D+00
 Harris functional with IExCor= 1009 and IRadAn=       5 diagonalized for initial guess.
 HarFok:  IExCor= 1009 AccDes= 0.00D+00 IRadAn=         5 IDoV= 1 UseB2=F ITyADJ=14
 ICtDFT=  3500011 ScaDFX=  1.000000  1.000000  1.000000  1.000000
 FoFCou: FMM=F IPFlag=           0 FMFlag=      100000 FMFlg1=           0
         NFxFlg=           0 DoJE=T BraDBF=F KetDBF=T FulRan=T
         wScrn=  0.000000 ICntrl=       500 IOpCl=  0 I1Cent=   200000004 NGrid=           0
         NMat0=    1 NMatS0=      1 NMatT0=    0 NMatD0=    1 NMtDS0=    0 NMtDT0=    0
 Symmetry not used in FoFCou.
 Harris En= -1507.20794404141    
 JPrj=0 DoOrth=F DoCkMO=F.
 Leave Link  401 at Wed Mar  8 14:22:48 2023, MaxMem=  2684354560 cpu:             144.3 elap:               9.2
 (Enter /opt/gaussian/g16/l502.exe)
 Two-electron integral symmetry not used.
 Closed shell SCF:
 Using DIIS extrapolation, IDIIS=  1040.
 NGot=  2684354560 LenX=  2682275214 LenY=  2681246004
 Requested convergence on RMS density matrix=1.00D-08 within 128 cycles.
 Requested convergence on MAX density matrix=1.00D-06.
 Requested convergence on             energy=1.00D-06.
 No special actions if energy rises.
 Fock matrices will be formed incrementally for  20 cycles.
 Integral accuracy reduced to 1.0D-05 until final iterations.

 Cycle   1  Pass 0  IDiag  1:
 FoFJK:  IHMeth= 1 ICntrl=       0 DoSepK=F KAlg= 0 I1Cent=           0 FoldK=F
 IRaf= 780000000 NMat=       1 IRICut=       1 DoRegI=T DoRafI=F ISym2E= 0 IDoP0=0 IntGTp=1.
 FoFCou: FMM=F IPFlag=           0 FMFlag=      100000 FMFlg1=           0
         NFxFlg=           0 DoJE=F BraDBF=F KetDBF=F FulRan=T
         wScrn=  0.000000 ICntrl=         0 IOpCl=  0 I1Cent=           0 NGrid=           0
         NMat0=    1 NMatS0=      1 NMatT0=    0 NMatD0=    1 NMtDS0=    0 NMtDT0=    0
 Symmetry not used in FoFCou.
 E= -1507.14923898016    
 DIIS: error= 1.70D-02 at cycle   1 NSaved=   1.
 NSaved= 1 IEnMin= 1 EnMin= -1507.14923898016     IErMin= 1 ErrMin= 1.70D-02
 ErrMax= 1.70D-02  0.00D+00 EMaxC= 1.00D-01 BMatC= 9.96D-01 BMatP= 9.96D-01
 IDIUse=3 WtCom= 8.30D-01 WtEn= 1.70D-01
 Coeff-Com:  0.100D+01
 Coeff-En:   0.100D+01
 Coeff:      0.100D+01
 Gap=     0.306 Goal=   None    Shift=    0.000
 GapD=    0.306 DampG=1.000 DampE=0.500 DampFc=0.5000 IDamp=-1.
 Damping current iteration by 5.00D-01
 RMSDP=3.73D-03 MaxDP=1.04D+00              OVMax= 2.41D-01

 Cycle   2  Pass 0  IDiag  1:
 RMSU=  1.86D-03    CP:  1.01D+00
 E= -1507.48248883721     Delta-E=       -0.333249857054 Rises=F Damp=T
 DIIS: error= 4.53D-03 at cycle   2 NSaved=   2.
 NSaved= 2 IEnMin= 2 EnMin= -1507.48248883721     IErMin= 2 ErrMin= 4.53D-03
 ErrMax= 4.53D-03  0.00D+00 EMaxC= 1.00D-01 BMatC= 8.95D-02 BMatP= 9.96D-01
 IDIUse=3 WtCom= 9.55D-01 WtEn= 4.53D-02
 Coeff-Com:  0.356D-02 0.996D+00
 Coeff-En:   0.550D-01 0.945D+00
 Coeff:      0.589D-02 0.994D+00
 Gap=     0.345 Goal=   None    Shift=    0.000
 RMSDP=1.16D-03 MaxDP=3.03D-01 DE=-3.33D-01 OVMax= 1.83D-01

 Cycle   3  Pass 0  IDiag  1:
 RMSU=  9.30D-04    CP:  9.96D-01  6.35D-01
 E= -1507.84451308686     Delta-E=       -0.362024249644 Rises=F Damp=F
 DIIS: error= 5.31D-03 at cycle   3 NSaved=   3.
 NSaved= 3 IEnMin= 3 EnMin= -1507.84451308686     IErMin= 2 ErrMin= 4.53D-03
 ErrMax= 5.31D-03  0.00D+00 EMaxC= 1.00D-01 BMatC= 5.58D-02 BMatP= 8.95D-02
 IDIUse=3 WtCom= 9.47D-01 WtEn= 5.31D-02
 Coeff-Com: -0.766D-01 0.458D+00 0.619D+00
 Coeff-En:   0.000D+00 0.000D+00 0.100D+01
 Coeff:     -0.725D-01 0.433D+00 0.639D+00
 Gap=     0.222 Goal=   None    Shift=    0.000
 RMSDP=3.40D-04 MaxDP=3.02D-02 DE=-3.62D-01 OVMax= 7.23D-02

 Cycle   4  Pass 0  IDiag  1:
 RMSU=  3.04D-04    CP:  9.99D-01  7.07D-01  9.29D-01
 E= -1507.88055595536     Delta-E=       -0.036042868498 Rises=F Damp=F
 DIIS: error= 2.28D-03 at cycle   4 NSaved=   4.
 NSaved= 4 IEnMin= 4 EnMin= -1507.88055595536     IErMin= 4 ErrMin= 2.28D-03
 ErrMax= 2.28D-03  0.00D+00 EMaxC= 1.00D-01 BMatC= 1.14D-02 BMatP= 5.58D-02
 IDIUse=3 WtCom= 9.77D-01 WtEn= 2.28D-02
 Coeff-Com: -0.355D-01 0.970D-01 0.348D+00 0.591D+00
 Coeff-En:   0.000D+00 0.000D+00 0.143D+00 0.857D+00
 Coeff:     -0.346D-01 0.948D-01 0.343D+00 0.597D+00
 Gap=     0.222 Goal=   None    Shift=    0.000
 RMSDP=1.14D-04 MaxDP=1.08D-02 DE=-3.60D-02 OVMax= 1.95D-02

 Cycle   5  Pass 0  IDiag  1:
 RMSU=  7.35D-05    CP:  9.98D-01  7.05D-01  9.58D-01  7.29D-01
 E= -1507.88896210732     Delta-E=       -0.008406151963 Rises=F Damp=F
 DIIS: error= 4.00D-04 at cycle   5 NSaved=   5.
 NSaved= 5 IEnMin= 5 EnMin= -1507.88896210732     IErMin= 5 ErrMin= 4.00D-04
 ErrMax= 4.00D-04  0.00D+00 EMaxC= 1.00D-01 BMatC= 4.83D-04 BMatP= 1.14D-02
 IDIUse=3 WtCom= 9.96D-01 WtEn= 4.00D-03
 Coeff-Com: -0.101D-01 0.165D-01 0.121D+00 0.271D+00 0.601D+00
 Coeff-En:   0.000D+00 0.000D+00 0.000D+00 0.000D+00 0.100D+01
 Coeff:     -0.100D-01 0.165D-01 0.121D+00 0.270D+00 0.603D+00
 Gap=     0.222 Goal=   None    Shift=    0.000
 RMSDP=4.41D-05 MaxDP=1.00D-02 DE=-8.41D-03 OVMax= 4.50D-03

 Cycle   6  Pass 0  IDiag  1:
 RMSU=  2.99D-05    CP:  9.97D-01  6.90D-01  9.69D-01  7.54D-01  8.68D-01
 E= -1507.88934246992     Delta-E=       -0.000380362604 Rises=F Damp=F
 DIIS: error= 1.33D-04 at cycle   6 NSaved=   6.
 NSaved= 6 IEnMin= 6 EnMin= -1507.88934246992     IErMin= 6 ErrMin= 1.33D-04
 ErrMax= 1.33D-04  0.00D+00 EMaxC= 1.00D-01 BMatC= 5.38D-05 BMatP= 4.83D-04
 IDIUse=3 WtCom= 9.99D-01 WtEn= 1.33D-03
 Coeff-Com:  0.554D-03-0.533D-02 0.956D-02 0.382D-01 0.258D+00 0.699D+00
 Coeff-En:   0.000D+00 0.000D+00 0.000D+00 0.000D+00 0.000D+00 0.100D+01
 Coeff:      0.553D-03-0.532D-02 0.955D-02 0.382D-01 0.258D+00 0.699D+00
 Gap=     0.223 Goal=   None    Shift=    0.000
 RMSDP=1.72D-05 MaxDP=9.98D-04 DE=-3.80D-04 OVMax= 2.25D-03

 Cycle   7  Pass 0  IDiag  1:
 RMSU=  1.56D-05    CP:  9.97D-01  6.89D-01  9.74D-01  7.60D-01  9.36D-01
                    CP:  1.00D+00
 E= -1507.88941204487     Delta-E=       -0.000069574947 Rises=F Damp=F
 DIIS: error= 6.24D-05 at cycle   7 NSaved=   7.
 NSaved= 7 IEnMin= 7 EnMin= -1507.88941204487     IErMin= 7 ErrMin= 6.24D-05
 ErrMax= 6.24D-05  0.00D+00 EMaxC= 1.00D-01 BMatC= 8.25D-06 BMatP= 5.38D-05
 IDIUse=1 WtCom= 1.00D+00 WtEn= 0.00D+00
 Coeff-Com:  0.184D-02-0.490D-02-0.127D-01-0.263D-01 0.724D-02 0.272D+00
 Coeff-Com:  0.763D+00
 Coeff:      0.184D-02-0.490D-02-0.127D-01-0.263D-01 0.724D-02 0.272D+00
 Coeff:      0.763D+00
 Gap=     0.223 Goal=   None    Shift=    0.000
 RMSDP=1.45D-05 MaxDP=3.36D-03 DE=-6.96D-05 OVMax= 2.05D-03

 Cycle   8  Pass 0  IDiag  1:
 RMSU=  9.84D-06    CP:  9.97D-01  6.86D-01  9.76D-01  7.68D-01  9.94D-01
                    CP:  1.17D+00  1.22D+00
 E= -1507.88942690285     Delta-E=       -0.000014857984 Rises=F Damp=F
 DIIS: error= 3.14D-05 at cycle   8 NSaved=   8.
 NSaved= 8 IEnMin= 8 EnMin= -1507.88942690285     IErMin= 8 ErrMin= 3.14D-05
 ErrMax= 3.14D-05  0.00D+00 EMaxC= 1.00D-01 BMatC= 2.01D-06 BMatP= 8.25D-06
 IDIUse=1 WtCom= 1.00D+00 WtEn= 0.00D+00
 Coeff-Com:  0.854D-03-0.151D-02-0.723D-02-0.208D-01-0.416D-01 0.204D-02
 Coeff-Com:  0.365D+00 0.704D+00
 Coeff:      0.854D-03-0.151D-02-0.723D-02-0.208D-01-0.416D-01 0.204D-02
 Coeff:      0.365D+00 0.704D+00
 Gap=     0.223 Goal=   None    Shift=    0.000
 RMSDP=1.14D-05 MaxDP=1.29D-03 DE=-1.49D-05 OVMax= 6.06D-04

 Cycle   9  Pass 0  IDiag  1:
 RMSU=  7.24D-06    CP:  9.97D-01  6.85D-01  9.78D-01  7.67D-01  1.03D+00
                    CP:  1.24D+00  1.62D+00  1.50D+00
 E= -1507.88942137570     Delta-E=        0.000005527159 Rises=F Damp=F
 DIIS: error= 1.52D-05 at cycle   9 NSaved=   9.
 NSaved= 9 IEnMin= 8 EnMin= -1507.88942690285     IErMin= 9 ErrMin= 1.52D-05
 ErrMax= 1.52D-05  0.00D+00 EMaxC= 1.00D-01 BMatC= 2.85D-07 BMatP= 2.01D-06
 IDIUse=1 WtCom= 1.00D+00 WtEn= 0.00D+00
 Coeff-Com:  0.123D-03-0.532D-04-0.892D-03-0.522D-02-0.161D-01-0.337D-01
 Coeff-Com:  0.515D-01 0.271D+00 0.733D+00
 Coeff:      0.123D-03-0.532D-04-0.892D-03-0.522D-02-0.161D-01-0.337D-01
 Coeff:      0.515D-01 0.271D+00 0.733D+00
 Gap=     0.223 Goal=   None    Shift=    0.000
 RMSDP=1.41D-05 MaxDP=1.62D-03 DE= 5.53D-06 OVMax= 2.31D-04

 Cycle  10  Pass 0  IDiag  1:
 RMSU=  4.38D-06    CP:  9.97D-01  6.85D-01  9.80D-01  7.68D-01  1.06D+00
                    CP:  1.31D+00  2.01D+00  2.33D+00  2.12D+00
 E= -1507.88941050008     Delta-E=        0.000010875617 Rises=F Damp=F
 DIIS: error= 2.18D-05 at cycle  10 NSaved=  10.
 NSaved=10 IEnMin= 8 EnMin= -1507.88942690285     IErMin= 9 ErrMin= 1.52D-05
 ErrMax= 2.18D-05  0.00D+00 EMaxC= 1.00D-01 BMatC= 2.10D-07 BMatP= 2.85D-07
 IDIUse=1 WtCom= 1.00D+00 WtEn= 0.00D+00
 Coeff-Com:  0.854D-04-0.244D-04-0.545D-03-0.380D-02-0.119D-01-0.269D-01
 Coeff-Com:  0.349D-01 0.201D+00 0.582D+00 0.225D+00
 Coeff:      0.854D-04-0.244D-04-0.545D-03-0.380D-02-0.119D-01-0.269D-01
 Coeff:      0.349D-01 0.201D+00 0.582D+00 0.225D+00
 Gap=     0.223 Goal=   None    Shift=    0.000
 RMSDP=6.16D-06 MaxDP=7.40D-04 DE= 1.09D-05 OVMax= 2.13D-05

 Initial convergence to 1.0D-05 achieved.  Increase integral accuracy.
 Cycle  11  Pass 1  IDiag  1:
 E= -1507.88938240194     Delta-E=        0.000028098144 Rises=F Damp=F
 DIIS: error= 3.42D-04 at cycle   1 NSaved=   1.
 NSaved= 1 IEnMin= 1 EnMin= -1507.88938240194     IErMin= 1 ErrMin= 3.42D-04
 ErrMax= 3.42D-04  0.00D+00 EMaxC= 1.00D-01 BMatC= 8.12D-05 BMatP= 8.12D-05
 IDIUse=3 WtCom= 9.97D-01 WtEn= 3.42D-03
 Coeff-Com:  0.100D+01
 Coeff-En:   0.100D+01
 Coeff:      0.100D+01
 Gap=     0.223 Goal=   None    Shift=    0.000
 RMSDP=6.16D-06 MaxDP=7.40D-04 DE= 2.81D-05 OVMax= 7.98D-04

 Cycle  12  Pass 1  IDiag  1:
 RMSU=  4.14D-04    CP:  9.96D-01
 E= -1507.88943409829     Delta-E=       -0.000051696353 Rises=F Damp=F
 DIIS: error= 7.69D-06 at cycle   2 NSaved=   2.
 NSaved= 2 IEnMin= 2 EnMin= -1507.88943409829     IErMin= 2 ErrMin= 7.69D-06
 ErrMax= 7.69D-06  0.00D+00 EMaxC= 1.00D-01 BMatC= 7.39D-08 BMatP= 8.12D-05
 IDIUse=1 WtCom= 1.00D+00 WtEn= 0.00D+00
 Coeff-Com: -0.164D-01 0.102D+01
 Coeff:     -0.164D-01 0.102D+01
 Gap=     0.223 Goal=   None    Shift=    0.000
 RMSDP=1.48D-05 MaxDP=1.17D-03 DE=-5.17D-05 OVMax= 6.29D-05

 Cycle  13  Pass 1  IDiag  1:
 RMSU=  4.72D-06    CP:  9.96D-01  1.03D+00
 E= -1507.88943415780     Delta-E=       -0.000000059515 Rises=F Damp=F
 DIIS: error= 2.97D-06 at cycle   3 NSaved=   3.
 NSaved= 3 IEnMin= 3 EnMin= -1507.88943415780     IErMin= 3 ErrMin= 2.97D-06
 ErrMax= 2.97D-06  0.00D+00 EMaxC= 1.00D-01 BMatC= 4.25D-08 BMatP= 7.39D-08
 IDIUse=1 WtCom= 1.00D+00 WtEn= 0.00D+00
 Coeff-Com: -0.817D-02 0.475D+00 0.533D+00
 Coeff:     -0.817D-02 0.475D+00 0.533D+00
 Gap=     0.223 Goal=   None    Shift=    0.000
 RMSDP=4.06D-07 MaxDP=3.82D-05 DE=-5.95D-08 OVMax= 2.81D-05

 Cycle  14  Pass 1  IDiag  1:
 RMSU=  3.31D-07    CP:  9.96D-01  1.03D+00  1.02D+00
 E= -1507.88943418711     Delta-E=       -0.000000029305 Rises=F Damp=F
 DIIS: error= 1.20D-06 at cycle   4 NSaved=   4.
 NSaved= 4 IEnMin= 4 EnMin= -1507.88943418711     IErMin= 4 ErrMin= 1.20D-06
 ErrMax= 1.20D-06  0.00D+00 EMaxC= 1.00D-01 BMatC= 4.28D-09 BMatP= 4.25D-08
 IDIUse=1 WtCom= 1.00D+00 WtEn= 0.00D+00
 Coeff-Com: -0.966D-03 0.465D-01 0.238D+00 0.716D+00
 Coeff:     -0.966D-03 0.465D-01 0.238D+00 0.716D+00
 Gap=     0.223 Goal=   None    Shift=    0.000
 RMSDP=2.71D-07 MaxDP=2.55D-05 DE=-2.93D-08 OVMax= 1.61D-05

 Cycle  15  Pass 1  IDiag  1:
 RMSU=  1.49D-07    CP:  9.96D-01  1.03D+00  1.05D+00  9.39D-01
 E= -1507.88943419004     Delta-E=       -0.000000002933 Rises=F Damp=F
 DIIS: error= 9.19D-07 at cycle   5 NSaved=   5.
 NSaved= 5 IEnMin= 5 EnMin= -1507.88943419004     IErMin= 5 ErrMin= 9.19D-07
 ErrMax= 9.19D-07  0.00D+00 EMaxC= 1.00D-01 BMatC= 8.38D-10 BMatP= 4.28D-09
 IDIUse=1 WtCom= 1.00D+00 WtEn= 0.00D+00
 Coeff-Com:  0.347D-03-0.257D-01 0.715D-01 0.399D+00 0.555D+00
 Coeff:      0.347D-03-0.257D-01 0.715D-01 0.399D+00 0.555D+00
 Gap=     0.223 Goal=   None    Shift=    0.000
 RMSDP=6.97D-08 MaxDP=5.12D-06 DE=-2.93D-09 OVMax= 4.98D-06

 Cycle  16  Pass 1  IDiag  1:
 RMSU=  4.44D-08    CP:  9.96D-01  1.04D+00  1.06D+00  9.84D-01  1.08D+00
 E= -1507.88943419081     Delta-E=       -0.000000000768 Rises=F Damp=F
 DIIS: error= 1.00D-07 at cycle   6 NSaved=   6.
 NSaved= 6 IEnMin= 6 EnMin= -1507.88943419081     IErMin= 6 ErrMin= 1.00D-07
 ErrMax= 1.00D-07  0.00D+00 EMaxC= 1.00D-01 BMatC= 2.50D-11 BMatP= 8.38D-10
 IDIUse=1 WtCom= 1.00D+00 WtEn= 0.00D+00
 Coeff-Com:  0.194D-03-0.126D-01 0.737D-02 0.922D-01 0.187D+00 0.726D+00
 Coeff:      0.194D-03-0.126D-01 0.737D-02 0.922D-01 0.187D+00 0.726D+00
 Gap=     0.223 Goal=   None    Shift=    0.000
 RMSDP=1.70D-08 MaxDP=1.96D-06 DE=-7.68D-10 OVMax= 1.71D-06

 Cycle  17  Pass 1  IDiag  1:
 RMSU=  1.10D-08    CP:  9.96D-01  1.04D+00  1.06D+00  1.00D+00  1.16D+00
                    CP:  1.04D+00
 E= -1507.88943419085     Delta-E=       -0.000000000044 Rises=F Damp=F
 DIIS: error= 4.36D-08 at cycle   7 NSaved=   7.
 NSaved= 7 IEnMin= 7 EnMin= -1507.88943419085     IErMin= 7 ErrMin= 4.36D-08
 ErrMax= 4.36D-08  0.00D+00 EMaxC= 1.00D-01 BMatC= 5.28D-12 BMatP= 2.50D-11
 IDIUse=1 WtCom= 1.00D+00 WtEn= 0.00D+00
 Coeff-Com:  0.325D-05 0.412D-03-0.111D-01-0.410D-01-0.431D-01 0.287D+00
 Coeff-Com:  0.808D+00
 Coeff:      0.325D-05 0.412D-03-0.111D-01-0.410D-01-0.431D-01 0.287D+00
 Coeff:      0.808D+00
 Gap=     0.223 Goal=   None    Shift=    0.000
 RMSDP=8.78D-09 MaxDP=9.70D-07 DE=-4.41D-11 OVMax= 9.47D-07

 SCF Done:  E(RM062X) =  -1507.88943419     A.U. after   17 cycles
            NFock= 17  Conv=0.88D-08     -V/T= 2.0042
 KE= 1.501569992004D+03 PE=-8.400964603471D+03 EE= 2.960624005758D+03
 Leave Link  502 at Wed Mar  8 14:40:03 2023, MaxMem=  2684354560 cpu:           16465.1 elap:            1035.3
 (Enter /opt/gaussian/g16/l601.exe)
 Copying SCF densities to generalized density rwf, IOpCl= 0 IROHF=0.

 **********************************************************************

            Population analysis using the SCF density.

 **********************************************************************

 Alpha  occ. eigenvalues --  -89.91027 -19.62741 -19.62579 -19.61552 -19.59992
 Alpha  occ. eigenvalues --  -19.59144 -14.78539 -14.76207 -10.64802 -10.64121
 Alpha  occ. eigenvalues --  -10.62445 -10.60208 -10.60117 -10.59520 -10.58492
 Alpha  occ. eigenvalues --  -10.57118 -10.56276 -10.55652 -10.55581 -10.54175
 Alpha  occ. eigenvalues --  -10.54080 -10.53981 -10.53977 -10.53400  -8.26979
 Alpha  occ. eigenvalues --   -6.18909  -6.18685  -6.18510  -1.17300  -1.17093
 Alpha  occ. eigenvalues --   -1.16311  -1.14246  -1.11928  -1.07047  -1.01154
 Alpha  occ. eigenvalues --   -0.91448  -0.90884  -0.88474  -0.87229  -0.86714
 Alpha  occ. eigenvalues --   -0.84610  -0.81297  -0.78128  -0.75284  -0.74642
 Alpha  occ. eigenvalues --   -0.72559  -0.69529  -0.67442  -0.66432  -0.65630
 Alpha  occ. eigenvalues --   -0.62514  -0.62274  -0.60999  -0.59826  -0.58116
 Alpha  occ. eigenvalues --   -0.57380  -0.55543  -0.55396  -0.54593  -0.53841
 Alpha  occ. eigenvalues --   -0.52832  -0.52520  -0.51644  -0.50653  -0.50404
 Alpha  occ. eigenvalues --   -0.49900  -0.49592  -0.48896  -0.48244  -0.47945
 Alpha  occ. eigenvalues --   -0.47928  -0.47570  -0.46873  -0.46349  -0.45895
 Alpha  occ. eigenvalues --   -0.44959  -0.44304  -0.43683  -0.43266  -0.42465
 Alpha  occ. eigenvalues --   -0.42110  -0.41139  -0.40728  -0.39566  -0.37158
 Alpha  occ. eigenvalues --   -0.35290  -0.35075  -0.34610  -0.34151  -0.33018
 Alpha  occ. eigenvalues --   -0.32531  -0.32344  -0.31652  -0.29910  -0.24848
 Alpha virt. eigenvalues --   -0.02515   0.01578   0.05293   0.05530   0.05762
 Alpha virt. eigenvalues --    0.06546   0.06826   0.07436   0.08237   0.08746
 Alpha virt. eigenvalues --    0.09378   0.09536   0.10078   0.10931   0.11484
 Alpha virt. eigenvalues --    0.11799   0.12005   0.12627   0.13114   0.13247
 Alpha virt. eigenvalues --    0.13689   0.14602   0.14712   0.14926   0.15255
 Alpha virt. eigenvalues --    0.15674   0.15965   0.16359   0.17154   0.17525
 Alpha virt. eigenvalues --    0.18020   0.18809   0.19019   0.19469   0.19934
 Alpha virt. eigenvalues --    0.20217   0.21185   0.21411   0.21543   0.21828
 Alpha virt. eigenvalues --    0.23013   0.23565   0.23822   0.23876   0.24435
 Alpha virt. eigenvalues --    0.25028   0.25193   0.25475   0.25912   0.26267
 Alpha virt. eigenvalues --    0.26921   0.27376   0.27667   0.28363   0.29152
 Alpha virt. eigenvalues --    0.29833   0.30277   0.30375   0.30803   0.31023
 Alpha virt. eigenvalues --    0.31801   0.32221   0.32859   0.33030   0.33574
 Alpha virt. eigenvalues --    0.34009   0.34244   0.34979   0.35565   0.36279
 Alpha virt. eigenvalues --    0.36387   0.37302   0.37604   0.37990   0.38335
 Alpha virt. eigenvalues --    0.38979   0.39254   0.39995   0.40414   0.40658
 Alpha virt. eigenvalues --    0.40902   0.41207   0.41803   0.42315   0.42384
 Alpha virt. eigenvalues --    0.42884   0.43015   0.43372   0.43839   0.44027
 Alpha virt. eigenvalues --    0.44415   0.44586   0.44874   0.45297   0.45699
 Alpha virt. eigenvalues --    0.45805   0.46083   0.46922   0.47338   0.47607
 Alpha virt. eigenvalues --    0.47887   0.48270   0.48817   0.49188   0.49266
 Alpha virt. eigenvalues --    0.49622   0.49823   0.50249   0.50600   0.50636
 Alpha virt. eigenvalues --    0.51038   0.51413   0.51595   0.52021   0.52244
 Alpha virt. eigenvalues --    0.52770   0.53209   0.53672   0.53937   0.54176
 Alpha virt. eigenvalues --    0.55037   0.55233   0.55648   0.56229   0.56743
 Alpha virt. eigenvalues --    0.57200   0.58358   0.58482   0.58920   0.59089
 Alpha virt. eigenvalues --    0.60090   0.60138   0.60325   0.61385   0.61457
 Alpha virt. eigenvalues --    0.61940   0.63004   0.63149   0.63274   0.64090
 Alpha virt. eigenvalues --    0.65182   0.65806   0.66179   0.66773   0.67256
 Alpha virt. eigenvalues --    0.68748   0.68979   0.69313   0.69569   0.70525
 Alpha virt. eigenvalues --    0.71131   0.72280   0.72379   0.72860   0.73274
 Alpha virt. eigenvalues --    0.74152   0.75139   0.75580   0.75962   0.77263
 Alpha virt. eigenvalues --    0.78351   0.78753   0.79177   0.79979   0.80550
 Alpha virt. eigenvalues --    0.81410   0.81768   0.82294   0.82795   0.83624
 Alpha virt. eigenvalues --    0.84523   0.85008   0.85867   0.86655   0.87329
 Alpha virt. eigenvalues --    0.88530   0.88756   0.89156   0.89888   0.90684
 Alpha virt. eigenvalues --    0.91678   0.92303   0.92913   0.93162   0.94103
 Alpha virt. eigenvalues --    0.94528   0.95101   0.95813   0.96381   0.96759
 Alpha virt. eigenvalues --    0.97093   0.98027   0.98545   0.98986   0.99426
 Alpha virt. eigenvalues --    1.00495   1.01357   1.02127   1.02947   1.03372
 Alpha virt. eigenvalues --    1.04255   1.04657   1.04926   1.05523   1.06530
 Alpha virt. eigenvalues --    1.07027   1.07789   1.08727   1.09010   1.09468
 Alpha virt. eigenvalues --    1.09970   1.10941   1.11657   1.12272   1.12792
 Alpha virt. eigenvalues --    1.13925   1.14136   1.14503   1.14992   1.15750
 Alpha virt. eigenvalues --    1.16347   1.16742   1.18055   1.18263   1.19180
 Alpha virt. eigenvalues --    1.20347   1.21240   1.22101   1.22651   1.22923
 Alpha virt. eigenvalues --    1.24015   1.25174   1.26007   1.26649   1.27337
 Alpha virt. eigenvalues --    1.27710   1.29090   1.30154   1.31695   1.32199
 Alpha virt. eigenvalues --    1.32799   1.33794   1.33858   1.34082   1.34744
 Alpha virt. eigenvalues --    1.35677   1.36211   1.38079   1.39272   1.40028
 Alpha virt. eigenvalues --    1.40973   1.41770   1.42375   1.43054   1.43997
 Alpha virt. eigenvalues --    1.45811   1.46541   1.46821   1.49376   1.49676
 Alpha virt. eigenvalues --    1.49975   1.50778   1.51586   1.53188   1.53283
 Alpha virt. eigenvalues --    1.53591   1.53881   1.54784   1.55218   1.55853
 Alpha virt. eigenvalues --    1.56209   1.56355   1.56970   1.57454   1.57593
 Alpha virt. eigenvalues --    1.58008   1.58437   1.58897   1.59773   1.60285
 Alpha virt. eigenvalues --    1.61434   1.61579   1.62133   1.62258   1.62687
 Alpha virt. eigenvalues --    1.63195   1.64155   1.64338   1.64858   1.65232
 Alpha virt. eigenvalues --    1.66319   1.66839   1.67071   1.67500   1.67686
 Alpha virt. eigenvalues --    1.68250   1.68430   1.69581   1.70133   1.70996
 Alpha virt. eigenvalues --    1.71493   1.72363   1.72648   1.73178   1.73809
 Alpha virt. eigenvalues --    1.74405   1.75364   1.76627   1.76937   1.77400
 Alpha virt. eigenvalues --    1.77857   1.78451   1.79092   1.79892   1.80547
 Alpha virt. eigenvalues --    1.80863   1.81726   1.82000   1.82870   1.83344
 Alpha virt. eigenvalues --    1.84658   1.85853   1.86763   1.87107   1.87991
 Alpha virt. eigenvalues --    1.88298   1.88662   1.88898   1.90020   1.91003
 Alpha virt. eigenvalues --    1.91941   1.92230   1.93037   1.93711   1.94561
 Alpha virt. eigenvalues --    1.95103   1.95156   1.96870   1.97558   1.97944
 Alpha virt. eigenvalues --    1.98607   1.99306   1.99578   2.00225   2.00695
 Alpha virt. eigenvalues --    2.01138   2.02070   2.02812   2.03385   2.04391
 Alpha virt. eigenvalues --    2.05215   2.05702   2.06279   2.07363   2.08347
 Alpha virt. eigenvalues --    2.09209   2.10208   2.10486   2.10889   2.11887
 Alpha virt. eigenvalues --    2.12335   2.13025   2.13705   2.14712   2.15135
 Alpha virt. eigenvalues --    2.16523   2.16859   2.18068   2.18612   2.18867
 Alpha virt. eigenvalues --    2.19601   2.19997   2.20680   2.20822   2.21208
 Alpha virt. eigenvalues --    2.22652   2.23034   2.23964   2.24702   2.25924
 Alpha virt. eigenvalues --    2.26184   2.27162   2.27986   2.28809   2.29350
 Alpha virt. eigenvalues --    2.29502   2.30254   2.31002   2.31754   2.32112
 Alpha virt. eigenvalues --    2.32505   2.33300   2.33886   2.34369   2.34900
 Alpha virt. eigenvalues --    2.35361   2.35876   2.36711   2.37478   2.38125
 Alpha virt. eigenvalues --    2.39087   2.39455   2.40275   2.41000   2.42807
 Alpha virt. eigenvalues --    2.43193   2.43982   2.45167   2.45737   2.46851
 Alpha virt. eigenvalues --    2.47279   2.47692   2.48743   2.48895   2.50281
 Alpha virt. eigenvalues --    2.50527   2.51084   2.52107   2.52541   2.53665
 Alpha virt. eigenvalues --    2.54877   2.55936   2.56150   2.56901   2.57530
 Alpha virt. eigenvalues --    2.57998   2.58267   2.59020   2.59491   2.60384
 Alpha virt. eigenvalues --    2.60478   2.61036   2.61912   2.62591   2.62851
 Alpha virt. eigenvalues --    2.63079   2.64322   2.64990   2.65825   2.66538
 Alpha virt. eigenvalues --    2.66902   2.67831   2.68305   2.68530   2.69188
 Alpha virt. eigenvalues --    2.69652   2.70929   2.71492   2.71804   2.73104
 Alpha virt. eigenvalues --    2.74223   2.74535   2.75230   2.76225   2.77057
 Alpha virt. eigenvalues --    2.77883   2.78829   2.79626   2.80524   2.80983
 Alpha virt. eigenvalues --    2.81390   2.81567   2.83276   2.83909   2.84680
 Alpha virt. eigenvalues --    2.85162   2.86054   2.87553   2.88091   2.88706
 Alpha virt. eigenvalues --    2.89652   2.90889   2.91246   2.92236   2.92881
 Alpha virt. eigenvalues --    2.93732   2.94114   2.94761   2.96592   2.97652
 Alpha virt. eigenvalues --    2.98087   2.98243   2.99225   2.99669   3.00358
 Alpha virt. eigenvalues --    3.01180   3.01978   3.02407   3.03070   3.03314
 Alpha virt. eigenvalues --    3.03575   3.04954   3.05446   3.05533   3.06821
 Alpha virt. eigenvalues --    3.07283   3.07789   3.07964   3.09234   3.09660
 Alpha virt. eigenvalues --    3.09938   3.10163   3.10541   3.12251   3.12425
 Alpha virt. eigenvalues --    3.12865   3.13135   3.13446   3.14544   3.15589
 Alpha virt. eigenvalues --    3.16324   3.16450   3.17215   3.17941   3.18925
 Alpha virt. eigenvalues --    3.19388   3.20284   3.20994   3.21316   3.21739
 Alpha virt. eigenvalues --    3.22190   3.22742   3.23454   3.23540   3.24386
 Alpha virt. eigenvalues --    3.24646   3.25480   3.26207   3.26629   3.27578
 Alpha virt. eigenvalues --    3.27897   3.28573   3.29462   3.29816   3.30794
 Alpha virt. eigenvalues --    3.31025   3.31908   3.32044   3.32363   3.32601
 Alpha virt. eigenvalues --    3.33425   3.33744   3.34235   3.34922   3.35732
 Alpha virt. eigenvalues --    3.36580   3.37168   3.37405   3.37762   3.38558
 Alpha virt. eigenvalues --    3.39241   3.39531   3.40677   3.41095   3.41872
 Alpha virt. eigenvalues --    3.42152   3.42765   3.43502   3.43988   3.45272
 Alpha virt. eigenvalues --    3.45568   3.45983   3.46498   3.47918   3.48769
 Alpha virt. eigenvalues --    3.49066   3.49768   3.50404   3.50569   3.52359
 Alpha virt. eigenvalues --    3.52963   3.53113   3.54228   3.54756   3.55571
 Alpha virt. eigenvalues --    3.56418   3.57114   3.57488   3.58192   3.58485
 Alpha virt. eigenvalues --    3.59346   3.60913   3.61309   3.62106   3.63204
 Alpha virt. eigenvalues --    3.63892   3.64795   3.65813   3.66890   3.67949
 Alpha virt. eigenvalues --    3.68531   3.68961   3.69735   3.70663   3.71942
 Alpha virt. eigenvalues --    3.73666   3.74547   3.75039   3.75772   3.76092
 Alpha virt. eigenvalues --    3.77397   3.77632   3.78720   3.79723   3.81166
 Alpha virt. eigenvalues --    3.81432   3.82149   3.83977   3.86496   3.87085
 Alpha virt. eigenvalues --    3.88449   3.89457   3.90034   3.91938   3.92003
 Alpha virt. eigenvalues --    3.92270   3.93697   3.95529   3.97171   3.98793
 Alpha virt. eigenvalues --    3.98945   4.00132   4.00463   4.01693   4.04306
 Alpha virt. eigenvalues --    4.05386   4.06076   4.06382   4.07595   4.09327
 Alpha virt. eigenvalues --    4.10716   4.12073   4.13226   4.14080   4.14886
 Alpha virt. eigenvalues --    4.17014   4.18184   4.19668   4.20584   4.23084
 Alpha virt. eigenvalues --    4.23833   4.25777   4.26260   4.27492   4.28086
 Alpha virt. eigenvalues --    4.30882   4.31454   4.33615   4.34991   4.36780
 Alpha virt. eigenvalues --    4.37794   4.39212   4.39598   4.40142   4.42277
 Alpha virt. eigenvalues --    4.43046   4.44250   4.45434   4.47513   4.47713
 Alpha virt. eigenvalues --    4.49690   4.50871   4.51533   4.53853   4.54504
 Alpha virt. eigenvalues --    4.58644   4.62752   4.65558   4.66408   4.67443
 Alpha virt. eigenvalues --    4.68613   4.71012   4.71576   4.72833   4.73878
 Alpha virt. eigenvalues --    4.75864   4.76302   4.78027   4.78873   4.79348
 Alpha virt. eigenvalues --    4.81513   4.85781   4.86923   4.88618   4.91508
 Alpha virt. eigenvalues --    4.93364   4.93623   4.95396   4.96206   4.97559
 Alpha virt. eigenvalues --    4.98579   4.98924   5.00171   5.03843   5.05557
 Alpha virt. eigenvalues --    5.08120   5.09512   5.12667   5.16316   5.19873
 Alpha virt. eigenvalues --    5.22049   5.23130   5.24272   5.26139   5.28367
 Alpha virt. eigenvalues --    5.28699   5.30386   5.32685   5.33529   5.35010
 Alpha virt. eigenvalues --    5.37924   5.40670   5.41865   5.42700   5.44937
 Alpha virt. eigenvalues --    5.48187   5.51797   5.53638   5.55113   5.58572
 Alpha virt. eigenvalues --    5.61528   5.67509   5.72066   5.73675   5.76213
 Alpha virt. eigenvalues --    5.79167   5.80069   5.82637   5.83551   5.84686
 Alpha virt. eigenvalues --    5.85790   5.87523   5.88793   5.90154   5.94193
 Alpha virt. eigenvalues --    5.95292   5.97162   6.04153   6.17221   6.21293
 Alpha virt. eigenvalues --    6.22094   6.23218   6.29679   6.32799   6.37243
 Alpha virt. eigenvalues --    6.37787   6.47728   6.50497   6.52521   6.52568
 Alpha virt. eigenvalues --    6.59635   6.61240   6.68383   6.71926   6.73714
 Alpha virt. eigenvalues --    6.75428   6.80870   6.85024   6.87142   6.88033
 Alpha virt. eigenvalues --    6.90538   6.92428   6.99694   7.07323   7.08292
 Alpha virt. eigenvalues --    7.08521   7.11194   7.12665   7.18432   7.25245
 Alpha virt. eigenvalues --    7.30068   7.35368   8.99968   9.40261   9.53337
 Alpha virt. eigenvalues --   20.04267  22.28542  22.39656  22.43467  22.45400
 Alpha virt. eigenvalues --   22.53877  22.56799  22.62164  22.65566  22.73069
 Alpha virt. eigenvalues --   22.77012  22.92662  22.94927  23.01212  23.05529
 Alpha virt. eigenvalues --   23.19929  23.45952  32.13238  33.13824  44.14916
 Alpha virt. eigenvalues --   44.18915  44.22826  44.28915  44.51285
          Condensed to atoms (all electrons):
               1          2          3          4          5          6
     1  C    5.112481   0.416441   0.407142  -0.011726   0.000445  -0.000179
     2  H    0.416441   0.511519  -0.020752  -0.001084   0.000220  -0.000005
     3  H    0.407142  -0.020752   0.542505   0.001681  -0.000049  -0.000001
     4  C   -0.011726  -0.001084   0.001681   5.311439   0.460425   0.252238
     5  H    0.000445   0.000220  -0.000049   0.460425   0.533618  -0.036632
     6  O   -0.000179  -0.000005  -0.000001   0.252238  -0.036632   8.117915
     7  H   -0.000048  -0.000002   0.000003  -0.026510  -0.012111   0.287317
     8  C   -0.009796   0.012148  -0.007569   0.019759  -0.052808  -0.042299
     9  H    0.011116  -0.000031  -0.001027  -0.096713   0.003036   0.003441
    10  O    0.008869  -0.000408   0.000118  -0.040890   0.001448  -0.005818
    11  H   -0.000670  -0.000103   0.000311   0.012994  -0.000613  -0.000317
    12  C   -0.001197   0.000347   0.000111   0.097744  -0.058059  -0.032725
    13  H    0.000198   0.000022   0.000095  -0.095163   0.005148   0.007737
    14  C    0.189908  -0.047853  -0.038401   0.078851   0.007164   0.005748
    15  H   -0.062602  -0.005137  -0.002865  -0.008927   0.000008   0.000075
    16  O   -0.035955   0.001851   0.005222  -0.073199  -0.000912   0.006799
    17  N   -0.000225  -0.000103  -0.000030   0.016166  -0.010645  -0.001081
    18  C   -0.000503   0.000140  -0.000028  -0.005434   0.001089   0.001596
    19  H   -0.000748  -0.000148   0.000106  -0.016719  -0.002985   0.001012
    20  C    0.000038   0.000002  -0.000002   0.005229   0.004530  -0.001080
    21  H    0.000007   0.000001  -0.000000   0.000052   0.000059  -0.000008
    22  C   -0.000011  -0.000000   0.000000  -0.000256  -0.000221   0.000078
    23  H   -0.000000   0.000000  -0.000000   0.000007   0.000004   0.000000
    24  H    0.000000  -0.000000   0.000000   0.000006  -0.000058   0.000008
    25  C   -0.000064  -0.000004   0.000001  -0.004631  -0.000167  -0.000319
    26  C   -0.000325   0.000044  -0.000005   0.013547  -0.000705  -0.007115
    27  H   -0.000017   0.000001  -0.000000   0.000556  -0.000124  -0.000094
    28  C    0.000000   0.000000  -0.000000   0.000059   0.000004  -0.000026
    29  O    0.000000  -0.000000  -0.000000   0.000005   0.000000   0.000000
    30  N   -0.000000   0.000000   0.000000   0.000001   0.000000  -0.000000
    31  H   -0.000000   0.000000  -0.000000  -0.000000   0.000000  -0.000000
    32  H    0.000000   0.000000  -0.000000   0.000000   0.000000   0.000000
    33  C    0.000002  -0.000000  -0.000000   0.000634  -0.000383  -0.018581
    34  C    0.000001  -0.000000  -0.000000  -0.000345   0.000265   0.011191
    35  C   -0.000000   0.000000   0.000000  -0.000246   0.000153   0.001129
    36  C   -0.000000   0.000000   0.000000  -0.000001   0.000001   0.000002
    37  C   -0.000000   0.000000  -0.000000   0.000181  -0.000007  -0.000033
    38  O   -0.000000   0.000000  -0.000000   0.005194   0.000106  -0.041250
    39  S    0.000000  -0.000000  -0.000000  -0.000155   0.000017   0.000697
    40  H   -0.000000   0.000000  -0.000000   0.000137   0.000027  -0.000091
    41  H   -0.000007   0.000000  -0.000000  -0.000178   0.000514   0.010762
    42  H    0.000000   0.000000  -0.000000   0.000000  -0.000000  -0.000000
    43  H    0.000000   0.000000  -0.000000   0.000000  -0.000000  -0.000000
    44  H    0.000000  -0.000000  -0.000000   0.000000  -0.000000   0.000000
    45  H   -0.000000   0.000000   0.000000   0.000009   0.000004   0.000015
    46  H    0.000000  -0.000000   0.000000  -0.000015   0.000000   0.000025
    47  H    0.384484  -0.023079  -0.024693   0.000717  -0.000105  -0.000002
    48  H    0.000000   0.000000  -0.000000  -0.000018   0.000006   0.000778
               7          8          9         10         11         12
     1  C   -0.000048  -0.009796   0.011116   0.008869  -0.000670  -0.001197
     2  H   -0.000002   0.012148  -0.000031  -0.000408  -0.000103   0.000347
     3  H    0.000003  -0.007569  -0.001027   0.000118   0.000311   0.000111
     4  C   -0.026510   0.019759  -0.096713  -0.040890   0.012994   0.097744
     5  H   -0.012111  -0.052808   0.003036   0.001448  -0.000613  -0.058059
     6  O    0.287317  -0.042299   0.003441  -0.005818  -0.000317  -0.032725
     7  H    0.348293   0.010039  -0.000298  -0.000448   0.000127   0.002381
     8  C    0.010039   5.318972   0.489731   0.277065  -0.039362  -0.035313
     9  H   -0.000298   0.489731   0.583078  -0.059425  -0.005227   0.012544
    10  O   -0.000448   0.277065  -0.059425   8.038468   0.292843  -0.023501
    11  H    0.000127  -0.039362  -0.005227   0.292843   0.426782  -0.002914
    12  C    0.002381  -0.035313   0.012544  -0.023501  -0.002914   5.486509
    13  H   -0.001112   0.023123   0.002745   0.017324  -0.001035   0.451431
    14  C   -0.000952   0.152184  -0.101810  -0.051695   0.000265  -0.066512
    15  H    0.000049  -0.024648   0.008944  -0.004836   0.002890  -0.003743
    16  O   -0.000136  -0.047176   0.004490   0.008969   0.000172   0.228273
    17  N    0.003104  -0.003800  -0.000809  -0.000291  -0.000001   0.166311
    18  C    0.000585  -0.003070  -0.000246  -0.000297   0.000007  -0.076256
    19  H    0.000283   0.001585   0.000054  -0.000012   0.000005   0.018243
    20  C   -0.001094  -0.000747   0.000020   0.000008  -0.000001   0.013601
    21  H   -0.000009   0.000003   0.000000   0.000000  -0.000000   0.000108
    22  C    0.000243   0.000028  -0.000002  -0.000002   0.000000  -0.008514
    23  H   -0.000001   0.000000   0.000000   0.000000  -0.000000   0.000168
    24  H    0.000049   0.000006  -0.000000   0.000000   0.000000  -0.000087
    25  C    0.000510  -0.000490  -0.000002  -0.000054  -0.000000  -0.017715
    26  C    0.000528  -0.003924  -0.000075  -0.000639  -0.000053  -0.060020
    27  H    0.000083   0.000023  -0.000012  -0.000185   0.000009  -0.002509
    28  C    0.000048  -0.000010  -0.000000  -0.000000  -0.000000  -0.002052
    29  O    0.000010   0.000000   0.000000  -0.000000   0.000000   0.000312
    30  N    0.000000  -0.000000  -0.000000  -0.000000  -0.000000  -0.000007
    31  H   -0.000000  -0.000000   0.000000  -0.000000  -0.000000  -0.000005
    32  H   -0.000000  -0.000000  -0.000000   0.000000  -0.000000  -0.000008
    33  C    0.001172   0.000718   0.000019  -0.001147   0.000076  -0.000365
    34  C   -0.008235  -0.000098  -0.000023   0.000026   0.000001   0.000060
    35  C   -0.000554  -0.000078  -0.000001   0.000001  -0.000000   0.000714
    36  C   -0.000012  -0.000000  -0.000000   0.000000  -0.000000   0.000041
    37  C    0.000081   0.000002   0.000000  -0.000000  -0.000000  -0.000823
    38  O    0.030425  -0.000454   0.000005  -0.000000  -0.000001   0.000628
    39  S    0.001047  -0.000009   0.000001   0.000010  -0.000003  -0.000722
    40  H   -0.001836  -0.000016   0.000002   0.000024  -0.000001   0.000023
    41  H   -0.008950  -0.001039   0.000007   0.003394  -0.000231   0.000084
    42  H   -0.000000   0.000000  -0.000000  -0.000000  -0.000000   0.000000
    43  H    0.000001   0.000000  -0.000000   0.000000   0.000000   0.000003
    44  H    0.000000   0.000000  -0.000000   0.000000   0.000000  -0.000000
    45  H    0.000023   0.000000   0.000000  -0.000000  -0.000000  -0.000027
    46  H   -0.000081   0.000000  -0.000000   0.000000   0.000000   0.000075
    47  H    0.000008  -0.009333   0.000749   0.000171   0.000096  -0.000827
    48  H    0.000304  -0.000031   0.000001   0.000004  -0.000003   0.000015
              13         14         15         16         17         18
     1  C    0.000198   0.189908  -0.062602  -0.035955  -0.000225  -0.000503
     2  H    0.000022  -0.047853  -0.005137   0.001851  -0.000103   0.000140
     3  H    0.000095  -0.038401  -0.002865   0.005222  -0.000030  -0.000028
     4  C   -0.095163   0.078851  -0.008927  -0.073199   0.016166  -0.005434
     5  H    0.005148   0.007164   0.000008  -0.000912  -0.010645   0.001089
     6  O    0.007737   0.005748   0.000075   0.006799  -0.001081   0.001596
     7  H   -0.001112  -0.000952   0.000049  -0.000136   0.003104   0.000585
     8  C    0.023123   0.152184  -0.024648  -0.047176  -0.003800  -0.003070
     9  H    0.002745  -0.101810   0.008944   0.004490  -0.000809  -0.000246
    10  O    0.017324  -0.051695  -0.004836   0.008969  -0.000291  -0.000297
    11  H   -0.001035   0.000265   0.002890   0.000172  -0.000001   0.000007
    12  C    0.451431  -0.066512  -0.003743   0.228273   0.166311  -0.076256
    13  H    0.520657  -0.013694   0.006225  -0.033866  -0.063254   0.011371
    14  C   -0.013694   5.255955   0.405068   0.208929   0.015157  -0.000152
    15  H    0.006225   0.405068   0.605340  -0.038805  -0.001447   0.000056
    16  O   -0.033866   0.208929  -0.038805   8.133478  -0.077239   0.002828
    17  N   -0.063254   0.015157  -0.001447  -0.077239   6.590532   0.317848
    18  C    0.011371  -0.000152   0.000056   0.002828   0.317848   5.014880
    19  H    0.001520  -0.003865   0.000309   0.017493  -0.050995   0.406690
    20  C   -0.000429   0.000387   0.000009  -0.000455  -0.089281   0.536187
    21  H    0.000008  -0.000002  -0.000000  -0.000081   0.004444  -0.030692
    22  C    0.000078  -0.000050   0.000001   0.000556  -0.000159  -0.017012
    23  H   -0.000003  -0.000000   0.000000  -0.000006  -0.001264   0.003669
    24  H   -0.000019   0.000002   0.000000   0.000031   0.008363   0.002600
    25  C    0.008829   0.000026   0.000026  -0.001614  -0.066926   0.044351
    26  C   -0.019052   0.000171  -0.000445   0.000963   0.302849  -0.150263
    27  H   -0.000590   0.000009  -0.000029   0.001143  -0.036523   0.007171
    28  C   -0.000024  -0.000002  -0.000001   0.000025   0.002862   0.000984
    29  O   -0.000033  -0.000000   0.000000  -0.000000  -0.000568   0.000230
    30  N   -0.000000   0.000000  -0.000000  -0.000000  -0.000497  -0.000044
    31  H    0.000000  -0.000000  -0.000000   0.000000   0.000029  -0.000003
    32  H    0.000001   0.000000  -0.000000   0.000000   0.000037   0.000075
    33  C   -0.000374  -0.000078   0.000000   0.000001   0.000104  -0.000006
    34  C    0.000280   0.000072  -0.000001   0.000107   0.007907  -0.001852
    35  C    0.000050   0.000004   0.000000  -0.000011  -0.005103  -0.000001
    36  C    0.000003   0.000000   0.000000  -0.000000  -0.000180   0.000108
    37  C   -0.000036  -0.000001  -0.000000  -0.000001  -0.000251   0.001004
    38  O   -0.000474   0.000039  -0.000000   0.000003  -0.001477   0.001821
    39  S    0.001322  -0.000007   0.000001   0.000000  -0.000131   0.000191
    40  H    0.000032   0.000001  -0.000000  -0.000000  -0.000010  -0.000005
    41  H    0.000301   0.000156  -0.000001  -0.000005  -0.000011   0.000044
    42  H    0.000000  -0.000000  -0.000000   0.000000   0.000012   0.000060
    43  H   -0.000000   0.000000  -0.000000   0.000000   0.000039  -0.000042
    44  H   -0.000000  -0.000000   0.000000   0.000000   0.000003  -0.000001
    45  H    0.000002  -0.000000   0.000000  -0.000000  -0.000289   0.000436
    46  H    0.000011   0.000000   0.000000   0.000000   0.000272  -0.000011
    47  H    0.000053  -0.014977   0.007938   0.001178  -0.000234  -0.000078
    48  H    0.000010   0.000001   0.000000  -0.000000  -0.000005  -0.000001
              19         20         21         22         23         24
     1  C   -0.000748   0.000038   0.000007  -0.000011  -0.000000   0.000000
[...]
      5        1           0.011074943    0.003677756   -0.010271378
      6        8           0.016362082   -0.009894447   -0.005175445
      7        1          -0.001331950   -0.004759240   -0.004522953
      8        6           0.014281730    0.000408643   -0.002498575
      9        1          -0.007270797    0.003170481   -0.010821947
     10        8          -0.001355961    0.006875949    0.002194322
     11        1          -0.011131693   -0.005812732   -0.001781363
     12        6           0.016750053   -0.017968320   -0.001523061
     13        1          -0.008007643   -0.006502688    0.004652215
     14        6          -0.020167339    0.001628710   -0.002314633
     15        1          -0.004495165   -0.006704104    0.010473885
     16        8           0.001734192   -0.004709013   -0.000073613
     17        7          -0.001021976    0.005167596   -0.006331117
     18        6           0.019727617    0.008683618    0.010915470
     19        1          -0.005184341    0.003273736   -0.001452304
     20        6          -0.020275599    0.005427671   -0.011155825
     21        1           0.003466015    0.003176361    0.001975419
     22        6           0.008925402    0.003753739    0.016341778
     23        1           0.002763634   -0.000140679    0.008958061
     24        1           0.010778770   -0.012441838   -0.025581662
     25        6          -0.018602933   -0.004228538   -0.007448214
     26        6           0.005397608   -0.017648999    0.005827462
     27        1          -0.007260203    0.000237899    0.002237679
     28        6          -0.011224249   -0.007401777    0.001635706
     29        8           0.016296440    0.016706727    0.010902948
     30        7           0.002854829   -0.008456621   -0.003736430
     31        1          -0.001661033    0.000494225   -0.001874189
     32        1          -0.002924922   -0.000273144   -0.003109073
     33        6          -0.006364906   -0.010030853   -0.010329361
     34        6          -0.005673580   -0.041295154    0.017006837
     35        6          -0.005990530    0.007956926   -0.013543725
     36        6           0.008298754   -0.004829681    0.004916192
     37        6          -0.002611594    0.010086796    0.015029856
     38        8          -0.010586537    0.018926493   -0.011756330
     39       16           0.017679717    0.016703335    0.011681763
     40        1           0.006619857    0.002187150   -0.002431655
     41        1          -0.004245849    0.004921931    0.005265794
     42        1           0.003169228    0.004665042   -0.001072102
     43        1          -0.004381277   -0.002206439    0.002258594
     44        1           0.001442493   -0.004447348   -0.003799721
     45        1           0.006147637    0.005185786   -0.004790307
     46        1          -0.004771439   -0.004845861    0.001308639
     47        1           0.001178767   -0.001266343   -0.001014978
     48        1          -0.003871820    0.004512015   -0.005094971
 -------------------------------------------------------------------
 Cartesian Forces:  Max     0.041295154 RMS     0.009606239
 Leave Link  716 at Wed Mar  8 14:47:01 2023, MaxMem=  2684354560 cpu:               1.1 elap:               0.1
 (Enter /opt/gaussian/g16/l103.exe)

 GradGradGradGradGradGradGradGradGradGradGradGradGradGradGradGradGradGrad
 Berny optimization.
 Search for a local minimum.
 Step number   1 out of a maximum of    2
 All quantities printed in internal units (Hartrees-Bohrs-Radians)
 Second derivative matrix not updated -- first step.
 ITU=  0
     Eigenvalues ---    0.00026   0.00065   0.00084   0.00097   0.00142
     Eigenvalues ---    0.00190   0.00219   0.00267   0.00312   0.00445
     Eigenvalues ---    0.00477   0.00664   0.00735   0.00837   0.00949
     Eigenvalues ---    0.01029   0.01118   0.01268   0.01329   0.01421
     Eigenvalues ---    0.01577   0.01720   0.01886   0.02301   0.02551
     Eigenvalues ---    0.02846   0.02889   0.03157   0.03279   0.03668
     Eigenvalues ---    0.03983   0.04347   0.04472   0.04830   0.05012
     Eigenvalues ---    0.05069   0.05201   0.05400   0.05621   0.05706
     Eigenvalues ---    0.05808   0.05862   0.05905   0.06293   0.06619
     Eigenvalues ---    0.07009   0.07094   0.07419   0.07598   0.07733
     Eigenvalues ---    0.08475   0.08636   0.09079   0.09523   0.10210
     Eigenvalues ---    0.10529   0.10923   0.11620   0.11921   0.12212
     Eigenvalues ---    0.12808   0.12868   0.13004   0.13125   0.13644
     Eigenvalues ---    0.13794   0.14009   0.14598   0.15502   0.16009
     Eigenvalues ---    0.16404   0.17177   0.17573   0.18427   0.19128
     Eigenvalues ---    0.19493   0.19899   0.21028   0.21213   0.21713
     Eigenvalues ---    0.24243   0.25911   0.26284   0.26756   0.30727
     Eigenvalues ---    0.32073   0.33056   0.34245   0.34684   0.36551
     Eigenvalues ---    0.36824   0.36824   0.36824   0.36824   0.40799
     Eigenvalues ---    0.41698   0.43475   0.46496   0.52202   0.55441
     Eigenvalues ---    0.59372   0.64305   0.66182   0.68894   0.73969
     Eigenvalues ---    0.76199   0.77983   0.82002   0.83986   0.87077
     Eigenvalues ---    0.88257   0.89422   0.89825   0.90409   0.91154
     Eigenvalues ---    0.92400   0.93548   0.94762   0.97860   0.99430
     Eigenvalues ---    1.00217   1.00998   1.03878   1.05909   1.10445
     Eigenvalues ---    1.12596   1.15334   1.21926   1.24738   1.27307
     Eigenvalues ---    1.29675   1.39039   1.47679   1.58198   1.66062
     Eigenvalues ---    1.78834   2.01086   2.35468
 Quadratic step=1.018D+01 exceeds max=3.000D-01 adjusted using Lamda=-9.415D-02.
 Angle between NR and scaled steps=  78.23 degrees.
 Angle between quadratic step and forces=  44.74 degrees.
 Linear search not attempted -- first point.
 Variable       Old X    -DE/DX   Delta X   Delta X   Delta X     New X
                                 (Linear)    (Quad)   (Total)
    X1        6.52592   0.00396   0.00000  -0.01146  -0.01146   6.51447
    Y1       -6.71913   0.02753   0.00000   0.05876   0.05876  -6.66037
    Z1       -1.57898   0.00228   0.00000   0.01602   0.01602  -1.56296
    X2        6.45533   0.00081   0.00000   0.00074   0.00074   6.45606
    Y2       -6.86581  -0.00344   0.00000   0.00400   0.00400  -6.86181
    Z2       -3.64777   0.00664   0.00000   0.03059   0.03059  -3.61718
    X3        8.33998  -0.00711   0.00000  -0.03529  -0.03529   8.30469
    Y3       -7.43137  -0.00327   0.00000   0.00643   0.00643  -7.42494
    Z3       -0.85782  -0.00331   0.00000  -0.00248  -0.00248  -0.86030
    X4        3.04137  -0.00220   0.00000   0.02938   0.02938   3.07075
    Y4       -2.28626   0.01721   0.00000   0.02593   0.02593  -2.26033
    Z4        1.86143   0.01432   0.00000   0.00559   0.00559   1.86702
    X5        1.66689   0.01107   0.00000   0.06597   0.06597   1.73286
    Y5       -3.87380   0.00368   0.00000   0.01416   0.01416  -3.85965
    Z5        1.90204  -0.01027   0.00000  -0.05445  -0.05445   1.84759
    X6        2.47686   0.01636   0.00000   0.05308   0.05308   2.52994
    Y6       -0.69167  -0.00989   0.00000  -0.01067  -0.01067  -0.70234
    Z6        3.92704  -0.00518   0.00000   0.00181   0.00181   3.92885
    X7        0.78184  -0.00133   0.00000   0.03013   0.03013   0.81197
    Y7        0.03272  -0.00476   0.00000  -0.04717  -0.04717  -0.01445
    Z7        3.86372  -0.00452   0.00000  -0.02011  -0.02011   3.84361
    X8        5.82695   0.01428   0.00000   0.00932   0.00932   5.83627
    Y8       -3.22872   0.00041   0.00000   0.02443   0.02443  -3.20429
    Z8        1.94620  -0.00250   0.00000  -0.01222  -0.01222   1.93398
    X9        6.17271  -0.00727   0.00000  -0.03763  -0.03763   6.13509
    Y9       -4.80849   0.00317   0.00000   0.00561   0.00561  -4.80289
    Z9        3.28076  -0.01082   0.00000  -0.05291  -0.05291   3.22785
   X10        7.34236  -0.00136   0.00000  -0.02162  -0.02162   7.32073
   Y10       -1.15270   0.00688   0.00000   0.03065   0.03065  -1.12205
   Z10        2.72959   0.00219   0.00000   0.00666   0.00666   2.73625
   X11        9.13932  -0.01113   0.00000  -0.04553  -0.04553   9.09379
   Y11       -1.48088  -0.00581   0.00000  -0.03011  -0.03011  -1.51099
   Z11        2.59227  -0.00178   0.00000  -0.00689  -0.00689   2.58538
   X12        3.06518   0.01675   0.00000   0.02183   0.02183   3.08702
   Y12       -0.86089  -0.01797   0.00000  -0.03483  -0.03483  -0.89572
   Z12       -0.69372  -0.00152   0.00000  -0.01045  -0.01045  -0.70417
   X13        4.21354  -0.00801   0.00000  -0.02297  -0.02297   4.19058
   Y13        0.88203  -0.00650   0.00000  -0.02950  -0.02950   0.85253
   Z13       -0.53703   0.00465   0.00000   0.02229   0.02229  -0.51474
   X14        6.41795  -0.02017   0.00000  -0.04727  -0.04727   6.37068
   Y14       -3.86412   0.00163   0.00000   0.01570   0.01570  -3.84843
   Z14       -0.90014  -0.00231   0.00000   0.00443   0.00443  -0.89571
   X15        8.15962  -0.00450   0.00000  -0.02389  -0.02389   8.13574
   Y15       -2.90043  -0.00670   0.00000  -0.02374  -0.02374  -2.92417
   Z15       -1.56010   0.01047   0.00000   0.06102   0.06102  -1.49909
   X16        4.37718   0.00173   0.00000  -0.01088  -0.01088   4.36630
   Y16       -2.64219  -0.00471   0.00000  -0.02175  -0.02175  -2.66394
   Z16       -2.28338  -0.00007   0.00000  -0.02208  -0.02208  -2.30547
   X17        0.67369  -0.00102   0.00000   0.01672   0.01672   0.69041
   Y17       -0.23249   0.00517   0.00000  -0.00842  -0.00842  -0.24091
   Z17       -1.76021  -0.00633   0.00000  -0.00597  -0.00597  -1.76617
   X18       -1.02881   0.01973   0.00000   0.00923   0.00923  -1.01958
   Y18       -2.18839   0.00868   0.00000   0.01977   0.01977  -2.16862
   Z18       -2.41624   0.01092   0.00000   0.01025   0.01025  -2.40599
   X19       -0.24229  -0.00518   0.00000  -0.02311  -0.02311  -0.26539
   Y19       -4.06676   0.00327   0.00000   0.01566   0.01566  -4.05110
   Z19       -2.13774  -0.00145   0.00000   0.00279   0.00279  -2.13495
   X20       -3.27244  -0.02028   0.00000  -0.00482  -0.00482  -3.27727
   Y20       -1.67470   0.00543   0.00000   0.01187   0.01187  -1.66283
   Z20       -3.36538  -0.01116   0.00000  -0.01289  -0.01289  -3.37827
   X21       -4.50300   0.00347   0.00000   0.00529   0.00529  -4.49771
   Y21       -3.21936   0.00318   0.00000   0.01352   0.01352  -3.20583
   Z21       -3.94337   0.00198   0.00000   0.00299   0.00299  -3.94038
   X22       -4.20659   0.00893   0.00000   0.02436   0.02436  -4.18224
   Y22        1.02660   0.00375   0.00000  -0.00937  -0.00937   1.01723
   Z22       -3.75008   0.01634   0.00000   0.00150   0.00150  -3.74858
   X23       -5.35639   0.00276   0.00000   0.01540   0.01540  -5.34099
   Y23        1.17618  -0.00014   0.00000  -0.00033  -0.00033   1.17585
   Z23       -5.48240   0.00896   0.00000   0.03002   0.03002  -5.45238
   X24       -5.39955   0.01078   0.00000   0.02191   0.02191  -5.37764
   Y24        1.67412  -0.01244   0.00000  -0.05253  -0.05253   1.62159
   Z24       -2.06440  -0.02558   0.00000  -0.07643  -0.07643  -2.14083
   X25       -1.90354  -0.01860   0.00000  -0.02285  -0.02285  -1.92639
   Y25        2.81111  -0.00423   0.00000  -0.01590  -0.01590   2.79521
   Z25       -3.84233  -0.00745   0.00000  -0.00176  -0.00176  -3.84409
   X26        0.29764   0.00540   0.00000  -0.01188  -0.01188   0.28575
   Y26        2.16815  -0.01765   0.00000  -0.03037  -0.03037   2.13778
   Z26       -2.79962   0.00583   0.00000   0.00076   0.00076  -2.79886
   X27        1.96035  -0.00726   0.00000  -0.04374  -0.04374   1.91661
   Y27        3.38532   0.00024   0.00000   0.00222   0.00222   3.38754
   Z27       -2.79323   0.00224   0.00000   0.02171   0.02171  -2.77151
   X28       -2.28334  -0.01122   0.00000  -0.02542  -0.02542  -2.30877
   Y28        5.40654  -0.00740   0.00000   0.00374   0.00374   5.41028
   Z28       -4.83607   0.00164   0.00000   0.03091   0.03091  -4.80515
   X29       -1.54496   0.01630   0.00000   0.06262   0.06262  -1.48234
   Y29        7.27609   0.01671   0.00000   0.00516   0.00516   7.28125
   Z29       -3.77069   0.01090   0.00000   0.00988   0.00988  -3.76081
   X30       -3.82642   0.00285   0.00000   0.00899   0.00899  -3.81743
   Y30        5.67676  -0.00846   0.00000  -0.01494  -0.01494   5.66182
   Z30       -6.90779  -0.00374   0.00000  -0.00845  -0.00845  -6.91624
   X31       -3.75116  -0.00166   0.00000  -0.00687  -0.00687  -3.75803
   Y31        7.43137   0.00049   0.00000  -0.00975  -0.00975   7.42162
   Z31       -7.64397  -0.00187   0.00000  -0.00899  -0.00899  -7.65296
   X32       -3.82526  -0.00292   0.00000  -0.01278  -0.01278  -3.83804
   Y32        4.23893  -0.00027   0.00000  -0.00972  -0.00972   4.22922
   Z32       -8.15168  -0.00311   0.00000  -0.01463  -0.01463  -8.16631
   X33        1.77799  -0.00636   0.00000  -0.01044  -0.01044   1.76755
   Y33        4.08638  -0.01003   0.00000  -0.01386  -0.01386   4.07252
   Z33        7.16127  -0.01033   0.00000  -0.02744  -0.02744   7.13383
   X34       -1.75616  -0.00567   0.00000  -0.02160  -0.02160  -1.77776
   Y34        4.05222  -0.04130   0.00000  -0.02587  -0.02587   4.02635
   Z34        3.31708   0.01701   0.00000   0.02614   0.02614   3.34322
   X35       -3.49135  -0.00599   0.00000  -0.00165  -0.00165  -3.49300
   Y35        5.23696   0.00796   0.00000   0.01173   0.01173   5.24869
   Z35        1.53533  -0.01354   0.00000  -0.00162  -0.00162   1.53372
   X36       -7.68576   0.00830   0.00000   0.02041   0.02041  -7.66535
   Y36        5.77734  -0.00483   0.00000  -0.01246  -0.01246   5.76488
   Z36       -0.62357   0.00492   0.00000   0.01158   0.01158  -0.61199
   X37       -5.79373  -0.00261   0.00000  -0.00575  -0.00575  -5.79948
   Y37        4.33131   0.01009   0.00000   0.03655   0.03655   4.36787
   Z37        0.97906   0.01503   0.00000   0.04664   0.04664   1.02570
   X38       -1.84914  -0.01059   0.00000  -0.08115  -0.08115  -1.93029
   Y38        1.81019   0.01893   0.00000  -0.01257  -0.01257   1.79762
   Z38        3.98280  -0.01176   0.00000  -0.02315  -0.02315   3.95964
   X39        0.40379   0.01768   0.00000   0.02995   0.02995   0.43375
   Y39        6.06205   0.01670   0.00000   0.01151   0.01151   6.07355
   Z39        4.67323   0.01168   0.00000   0.00763   0.00763   4.68086
   X40        0.19780   0.00662   0.00000   0.01580   0.01580   0.21361
   Y40        3.17451   0.00219   0.00000  -0.00278  -0.00278   3.17173
   Z40        8.15168  -0.00243   0.00000  -0.01153  -0.01153   8.14015
   X41        2.97955  -0.00425   0.00000  -0.00209  -0.00209   2.97746
   Y41        2.64754   0.00492   0.00000   0.00076   0.00076   2.64830
   Z41        6.26545   0.00527   0.00000   0.01027   0.01027   6.27573
   X42       -9.13932   0.00317   0.00000   0.02659   0.02659  -9.11272
   Y42        4.49636   0.00467   0.00000   0.00434   0.00434   4.50070
   Z42       -1.35315  -0.00107   0.00000  -0.00556  -0.00556  -1.35871
   X43       -6.70650  -0.00438   0.00000  -0.00179  -0.00179  -6.70830
   Y43        6.75064  -0.00221   0.00000  -0.01430  -0.01430   6.73634
   Z43       -2.17142   0.00226   0.00000   0.00937   0.00937  -2.16205
   X44       -8.61369   0.00144   0.00000   0.00282   0.00282  -8.61086
   Y44        7.21287  -0.00445   0.00000  -0.01845  -0.01845   7.19442
   Z44        0.56322  -0.00380   0.00000  -0.01692  -0.01692   0.54630
   X45       -6.48467   0.00615   0.00000   0.03125   0.03125  -6.45342
   Y45        2.63887   0.00519   0.00000   0.01858   0.01858   2.65745
   Z45        1.96607  -0.00479   0.00000   0.00318   0.00318   1.96925
   X46       -2.79645  -0.00477   0.00000  -0.00918  -0.00918  -2.80563
   Y46        6.98727  -0.00485   0.00000  -0.00799  -0.00799   6.97929
   Z46        0.67605   0.00131   0.00000  -0.00763  -0.00763   0.66842
   X47        4.94016   0.00118   0.00000   0.00249   0.00249   4.94265
   Y47       -7.71995  -0.00127   0.00000   0.01844   0.01844  -7.70151
   Z47       -0.72664  -0.00101   0.00000  -0.00248  -0.00248  -0.72912
   X48        2.89254  -0.00387   0.00000  -0.02811  -0.02811   2.86443
   Y48        5.22550   0.00451   0.00000   0.02318   0.02318   5.24869
   Z48        8.46624  -0.00509   0.00000  -0.04375  -0.04375   8.42249
         Item               Value     Threshold  Converged?
 Maximum Force            0.041295     0.000450     NO 
 RMS     Force            0.009606     0.000300     NO 
 Maximum Displacement     0.081146     0.001800     NO 
 RMS     Displacement     0.025063     0.001200     NO 
 Predicted change in Energy=-1.657158D-02
 GradGradGradGradGradGradGradGradGradGradGradGradGradGradGradGradGradGrad

 Leave Link  103 at Wed Mar  8 14:47:01 2023, MaxMem=  2684354560 cpu:               3.3 elap:               0.2
 (Enter /opt/gaussian/g16/l9999.exe)

 Test job not archived.
 1\1\GINC-JULIO-SYS\Force\RM062X\def2TZVP\C16H24N2O5S1\JVELAZQUEZ\08-Ma
 r-2023\0\\#P M062X/Def2TZVP scf=(direct,conver=8) EmpiricalDispersion=
 GD3 NoSymm Force pop=(NBORead) Charge Prop=(Field,Read)\\Gaussian run 
 using SANDER external interface, route from template gau_job.tpl\\0,1\
 C,3.453369698,-3.5556080379,-0.8355617992\H,3.4160112196,-3.6332287114
 ,-1.930317034\H,4.4133265482,-3.9325098552,-0.4539375837\C,1.609423715
 8,-1.2098383886,0.9850248614\H,0.8820825002,-2.049928225,1.0065160422\
 O,1.310698709,-0.3660162489,2.0780998634\H,0.4137315964,0.0173148898,2
 .0445923058\C,3.0834914283,-1.7085642706,1.0298852433\H,3.2664595922,-
 2.5445458465,1.7361027954\O,3.8854072672,-0.6099800521,1.444434991\H,4
 .8363181159,-0.7836489952,1.3717711789\C,1.6220240815,-0.4555623605,-0
 .3671025861\H,2.2297113117,0.4667494243,-0.2841833367\C,3.3962319693,-
 2.0448060782,-0.4763346886\H,4.3178875996,-1.534841039,-0.8255715983\O
 ,2.3163052902,-1.3981874341,-1.2083148686\N,0.3565013434,-0.1230293805
 ,-0.9314605507\C,-0.544420301,-1.158043559,-1.2786195797\H,-0.12821171
 23,-2.1520389379,-1.1312412389\C,-1.7317021074,-0.8862153146,-1.780881
 7454\H,-2.3828848612,-1.7036096977,-2.0867433933\C,-2.2260321779,0.543
 2510118,-1.9844595141\H,-2.8344805285,0.6224100083,-2.9011603662\H,-2.
 8573179006,0.885908746,-1.0924332499\C,-1.0073080458,1.4875764365,-2.0
 332723828\C,0.1575029597,1.1473355566,-1.4814962152\H,1.037374337,1.79
 14328414,-1.4781110594\C,-1.2082941146,2.8610165982,-2.559136943\O,-0.
 817556022,3.8503423378,-1.9953644567\N,-2.0248552903,3.0040102446,-3.6
 554466767\H,-1.9850309859,3.9325098552,-4.045013061\H,-2.0242401903,2.
 2431472105,-4.3136822279\C,0.9408696166,2.162419766,3.7895798895\C,-0.
 9293207529,2.1443434312,1.7553227449\C,-1.8475415069,2.7712822267,0.81
 2463137\C,-4.067128977,3.057237949,-0.3299785556\C,-3.0659113287,2.292
 0329565,0.5180960922\O,-0.9785232221,0.9579132961,2.1076047089\S,0.213
 6789209,3.2078963117,2.4729693681\H,0.1046736016,1.6798787571,4.313682
 2279\H,1.576711445,1.4010165748,3.3155349255\H,-4.8363181159,2.3793707
 304,-0.716058542\H,-3.5489289077,3.5722824025,-1.1490658722\H,-4.55816
 80536,3.816885889,0.2980425181\H,-3.4315400884,1.3964312512,1.04040131
 66\H,-1.4798178037,3.6975053563,0.3577485677\H,2.6142195121,-4.0852207
 707,-0.3845215364\H,1.5306658592,2.765218115,4.4801409242\\Version=ES6
 4L-G16RevA.03\HF=-1507.8894342\RMSD=8.780e-09\RMSF=9.606e-03\Dipole=0.
 0441138,-0.9116313,-0.8126273\Quadrupole=9.7180061,-8.9053807,-0.81262
 53,-7.5492154,6.7351565,-1.6396442\PG=C01 [X(C16H24N2O5S1)]\\@


 TWO ROADS DIVERGED IN A WOOD, AND I--
 I TOOK THE ONE LESS TRAVELED BY,
 AND THAT HAS MADE ALL THE DIFFERENCE.

                       -- ROBERT FROST
 Job cpu time:       0 days  6 hours 27 minutes 46.9 seconds.
 Elapsed time:       0 days  0 hours 24 minutes 23.7 seconds.
 File lengths (MBytes):  RWF=    435 Int=      0 D2E=      0 Chk=     48 Scr=      1
 Normal termination of Gaussian 16 at Wed Mar  8 14:47:01 2023.
