 Entering Gaussian System, Link 0=g16
 Initial command:
 /opt/gaussian/g16/l1.exe "/opt/gaussian/scratch16/Gau-2690423.inp" -scrdir="/opt/gaussian/scratch16/"
 Entering Link 1 = /opt/gaussian/g16/l1.exe PID=   2690425.
  
 Copyright (c) 1988,1990,1992,1993,1995,1998,2003,2009,2016,
            Gaussian, Inc.  All Rights Reserved.
  
 This is part of the Gaussian(R) 16 program.  It is based on
 the Gaussian(R) 09 system (copyright 2009, Gaussian, Inc.),
 the Gaussian(R) 03 system (copyright 2003, Gaussian, Inc.),
 the Gaussian(R) 98 system (copyright 1998, Gaussian, Inc.),
 the Gaussian(R) 94 system (copyright 1995, Gaussian, Inc.),
 the Gaussian 92(TM) system (copyright 1992, Gaussian, Inc.),
 the Gaussian 90(TM) system (copyright 1990, Gaussian, Inc.),
 the Gaussian 88(TM) system (copyright 1988, Gaussian, Inc.),
 the Gaussian 86(TM) system (copyright 1986, Carnegie Mellon
 University), and the Gaussian 82(TM) system (copyright 1983,
 Carnegie Mellon University). Gaussian is a federally registered
 trademark of Gaussian, Inc.
  
 This software contains proprietary and confidential information,
 including trade secrets, belonging to Gaussian, Inc.
  
 This software is provided under written license and may be
 used, copied, transmitted, or stored only in accord with that
 written license.
  
 The following legend is applicable only to US Government
 contracts under FAR:
  
                    RESTRICTED RIGHTS LEGEND
  
 Use, reproduction and disclosure by the US Government is
 subject to restrictions as set forth in subparagraphs (a)
 and (c) of the Commercial Computer Software - Restricted
 Rights clause in FAR 52.227-19.
  
 Gaussian, Inc.
 340 Quinnipiac St., Bldg. 40, Wallingford CT 06492
  
  
 ---------------------------------------------------------------
 Warning -- This program may not be used in any manner that
 competes with the business of Gaussian, Inc. or will provide
 assistance to any competitor of Gaussian, Inc.  The licensee
 of this program is prohibited from giving any competitor of
 Gaussian, Inc. access to this program.  By using this program,
 the user acknowledges that Gaussian, Inc. is engaged in the
 business of creating and licensing software in the field of
 computational chemistry and represents and warrants to the
 licensee that it is not a competitor of Gaussian, Inc. and that
 it will not use this program in any manner prohibited above.
 ---------------------------------------------------------------
  

 Cite this work as:
 Gaussian 16, Revision A.03,
 M. J. Frisch, G. W. Trucks, H. B. Schlegel, G. E. Scuseria, 
 M. A. Robb, J. R. Cheeseman, G. Scalmani, V. Barone, 
 G. A. Petersson, H. Nakatsuji, X. Li, M. Caricato, A. V. Marenich, 
 J. Bloino, B. G. Janesko, R. Gomperts, B. Mennucci, H. P. Hratchian, 
 J. V. Ortiz, A. F. Izmaylov, J. L. Sonnenberg, D. Williams-Young, 
 F. Ding, F. Lipparini, F. Egidi, J. Goings, B. Peng, A. Petrone, 
 T. Henderson, D. Ranasinghe, V. G. Zakrzewski, J. Gao, N. Rega, 
 G. Zheng, W. Liang, M. Hada, M. Ehara, K. Toyota, R. Fukuda, 
 J. Hasegawa, M. Ishida, T. Nakajima, Y. Honda, O. Kitao, H. Nakai, 
 T. Vreven, K. Throssell, J. A. Montgomery, Jr., J. E. Peralta, 
 F. Ogliaro, M. J. Bearpark, J. J. Heyd, E. N. Brothers, K. N. Kudin, 
 V. N. Staroverov, T. A. Keith, R. Kobayashi, J. Normand, 
 K. Raghavachari, A. P. Rendell, J. C. Burant, S. S. Iyengar, 
 J. Tomasi, M. Cossi, J. M. Millam, M. Klene, C. Adamo, R. Cammi, 
 J. W. Ochterski, R. L. Martin, K. Morokuma, O. Farkas, 
 J. B. Foresman, and D. J. Fox, Gaussian, Inc., Wallingford CT, 2016.
 
 ******************************************
 Gaussian 16:  ES64L-G16RevA.03 25-Dec-2016
                 8-Mar-2023 
 ******************************************
 %chk=10.chk
 %NProcShared=16
 Will use up to   16 processors via shared memory.
 %mem=20GB
 ----------------------------------------------------------------------
 #P M062X/Def2TZVP scf=(direct,conver=8) EmpiricalDispersion=GD3 NoSymm
  Force pop=(NBORead) Charge Prop=(Field,Read)
 ----------------------------------------------------------------------
 1/10=7,18=10,28=-2,30=1,38=1,125=101/1,3;
 2/12=2,15=1,17=6,18=5,29=2,40=1/2;
 3/5=44,7=101,11=2,25=1,30=1,71=1,74=-55,124=31/1,2,3;
 4//1;
 5/5=2,6=8,38=5/2;
 6/7=2,8=2,9=2,10=2,14=2,15=1,28=1,40=2/1,2,7;
 7/7=1,16=-2,29=1,30=1/1,2,3,16;
 1/10=7,18=10,28=-2,30=1/3;
 99/12=1/99;
 Leave Link    1 at Wed Mar  8 14:24:10 2023, MaxMem=  2684354560 cpu:               0.9 elap:               0.1
 (Enter /opt/gaussian/g16/l101.exe)
 ----------------------------------------------------------------------
 Gaussian run using SANDER external interface, route from template gau_
 job.tpl
 ----------------------------------------------------------------------
 Symbolic Z-matrix:
 Charge =  0 Multiplicity = 1
 C                     3.45799  -3.56065  -0.83317 
 H                     3.42201  -3.64008  -1.92788 
 H                     4.41739  -3.9367   -0.44929 
 C                     1.61418  -1.2085    0.98179 
 H                     0.88538  -2.04707   1.0007 
 O                     1.3164   -0.36673   2.07589 
 H                     0.4164    0.01059   2.04643 
 C                     3.08668  -1.71173   1.0295 
 H                     3.2661   -2.54801   1.73701 
 O                     3.88982  -0.61456   1.44488 
 H                     4.8403   -0.78968   1.37362 
 C                     1.63004  -0.45324  -0.371 
 H                     2.24604   0.46332  -0.28729 
 C                     3.40066  -2.0492   -0.47588 
 H                     4.32252  -1.53969  -0.82553 
 O                     2.32142  -1.40288  -1.20978 
 N                     0.36964  -0.11405  -0.93753 
 C                    -0.54917  -1.13627  -1.25864 
 H                    -0.14753  -2.13413  -1.10443 
 C                    -1.74024  -0.85563  -1.74796 
 H                    -2.40741  -1.66851  -2.03261 
 C                    -2.21678   0.57715  -1.95861 
 H                    -2.83832   0.65523  -2.86414 
 H                    -2.83048   0.94203  -1.05428 
 C                    -0.98895   1.50545  -2.03281 
 C                     0.17905   1.15258  -1.49554 
 H                     1.06691   1.78287  -1.51315 
 C                    -1.19282   2.87644  -2.56725 
 O                    -0.81498   3.86884  -1.99949 
 N                    -1.99902   3.00924  -3.66914 
 H                    -1.97342   3.9367   -4.0615 
 H                    -2.00007   2.24212  -4.31958 
 C                     0.93763   2.15099   3.79337 
 C                    -0.92819   2.12408   1.75341 
 C                    -1.84437   2.74526   0.8096 
 C                    -4.06583   3.03062  -0.32995 
 C                    -3.05978   2.25852   0.50697 
 O                    -0.97881   0.93904   2.11394 
 S                     0.22158   3.18869   2.46427 
 H                     0.09668   1.67873   4.31958 
 H                     1.57106   1.38134   3.32934 
 H                    -4.8403    2.35686  -0.71301 
 H                    -3.55161   3.55427  -1.14663 
 H                    -4.5511    3.78619   0.30674 
 H                    -3.42394   1.36418   1.03322 
 H                    -1.48086   3.67689   0.36314 
 H                     2.61832  -4.08949  -0.38218 
 H                     1.5283    2.7579    4.47957 
 
 ITRead=  0  0  0  0  0  0  0  0  0  0  0  0  0  0  0  0  0  0  0  0
 ITRead=  0  0  0  0  0  0  0  0  0  0  0  0  0  0  0  0  0  0  0  0
 ITRead=  0  0  0  0  0  0  0  0
 MicOpt= -1 -1 -1 -1 -1 -1 -1 -1 -1 -1 -1 -1 -1 -1 -1 -1 -1 -1 -1 -1
 MicOpt= -1 -1 -1 -1 -1 -1 -1 -1 -1 -1 -1 -1 -1 -1 -1 -1 -1 -1 -1 -1
 MicOpt= -1 -1 -1 -1 -1 -1 -1 -1
 NAtoms=     48 NQM=       48 NQMF=       0 NMMI=      0 NMMIF=      0
                NMic=       0 NMicF=      0.
                    Isotopes and Nuclear Properties:
 (Nuclear quadrupole moments (NQMom) in fm**2, nuclear magnetic moments (NMagM)
  in nuclear magnetons)

  Atom         1           2           3           4           5           6           7           8           9          10
 IAtWgt=          12           1           1          12           1          16           1          12           1          16
 AtmWgt=  12.0000000   1.0078250   1.0078250  12.0000000   1.0078250  15.9949146   1.0078250  12.0000000   1.0078250  15.9949146
 NucSpn=           0           1           1           0           1           0           1           0           1           0
 AtZEff=  -0.0000000  -0.0000000  -0.0000000  -0.0000000  -0.0000000  -0.0000000  -0.0000000  -0.0000000  -0.0000000  -0.0000000
 NQMom=    0.0000000   0.0000000   0.0000000   0.0000000   0.0000000   0.0000000   0.0000000   0.0000000   0.0000000   0.0000000
 NMagM=    0.0000000   2.7928460   2.7928460   0.0000000   2.7928460   0.0000000   2.7928460   0.0000000   2.7928460   0.0000000
 AtZNuc=   6.0000000   1.0000000   1.0000000   6.0000000   1.0000000   8.0000000   1.0000000   6.0000000   1.0000000   8.0000000

  Atom        11          12          13          14          15          16          17          18          19          20
 IAtWgt=           1          12           1          12           1          16          14          12           1          12
 AtmWgt=   1.0078250  12.0000000   1.0078250  12.0000000   1.0078250  15.9949146  14.0030740  12.0000000   1.0078250  12.0000000
 NucSpn=           1           0           1           0           1           0           2           0           1           0
 AtZEff=  -0.0000000  -0.0000000  -0.0000000  -0.0000000  -0.0000000  -0.0000000  -0.0000000  -0.0000000  -0.0000000  -0.0000000
 NQMom=    0.0000000   0.0000000   0.0000000   0.0000000   0.0000000   0.0000000   2.0440000   0.0000000   0.0000000   0.0000000
 NMagM=    2.7928460   0.0000000   2.7928460   0.0000000   2.7928460   0.0000000   0.4037610   0.0000000   2.7928460   0.0000000
 AtZNuc=   1.0000000   6.0000000   1.0000000   6.0000000   1.0000000   8.0000000   7.0000000   6.0000000   1.0000000   6.0000000

  Atom        21          22          23          24          25          26          27          28          29          30
 IAtWgt=           1          12           1           1          12          12           1          12          16          14
 AtmWgt=   1.0078250  12.0000000   1.0078250   1.0078250  12.0000000  12.0000000   1.0078250  12.0000000  15.9949146  14.0030740
 NucSpn=           1           0           1           1           0           0           1           0           0           2
 AtZEff=  -0.0000000  -0.0000000  -0.0000000  -0.0000000  -0.0000000  -0.0000000  -0.0000000  -0.0000000  -0.0000000  -0.0000000
 NQMom=    0.0000000   0.0000000   0.0000000   0.0000000   0.0000000   0.0000000   0.0000000   0.0000000   0.0000000   2.0440000
 NMagM=    2.7928460   0.0000000   2.7928460   2.7928460   0.0000000   0.0000000   2.7928460   0.0000000   0.0000000   0.4037610
 AtZNuc=   1.0000000   6.0000000   1.0000000   1.0000000   6.0000000   6.0000000   1.0000000   6.0000000   8.0000000   7.0000000

  Atom        31          32          33          34          35          36          37          38          39          40
 IAtWgt=           1           1          12          12          12          12          12          16          32           1
 AtmWgt=   1.0078250   1.0078250  12.0000000  12.0000000  12.0000000  12.0000000  12.0000000  15.9949146  31.9720718   1.0078250
 NucSpn=           1           1           0           0           0           0           0           0           0           1
 AtZEff=  -0.0000000  -0.0000000  -0.0000000  -0.0000000  -0.0000000  -0.0000000  -0.0000000  -0.0000000  -0.0000000  -0.0000000
 NQMom=    0.0000000   0.0000000   0.0000000   0.0000000   0.0000000   0.0000000   0.0000000   0.0000000   0.0000000   0.0000000
 NMagM=    2.7928460   2.7928460   0.0000000   0.0000000   0.0000000   0.0000000   0.0000000   0.0000000   0.0000000   2.7928460
 AtZNuc=   1.0000000   1.0000000   6.0000000   6.0000000   6.0000000   6.0000000   6.0000000   8.0000000  16.0000000   1.0000000

  Atom        41          42          43          44          45          46          47          48
 IAtWgt=           1           1           1           1           1           1           1           1
 AtmWgt=   1.0078250   1.0078250   1.0078250   1.0078250   1.0078250   1.0078250   1.0078250   1.0078250
 NucSpn=           1           1           1           1           1           1           1           1
 AtZEff=  -0.0000000  -0.0000000  -0.0000000  -0.0000000  -0.0000000  -0.0000000  -0.0000000  -0.0000000
 NQMom=    0.0000000   0.0000000   0.0000000   0.0000000   0.0000000   0.0000000   0.0000000   0.0000000
 NMagM=    2.7928460   2.7928460   2.7928460   2.7928460   2.7928460   2.7928460   2.7928460   2.7928460
 AtZNuc=   1.0000000   1.0000000   1.0000000   1.0000000   1.0000000   1.0000000   1.0000000   1.0000000
 Background charge distribution read from input stream:
 Leave Link  101 at Wed Mar  8 14:24:10 2023, MaxMem=  2684354560 cpu:               3.5 elap:               0.2
 (Enter /opt/gaussian/g16/l103.exe)

 GradGradGradGradGradGradGradGradGradGradGradGradGradGradGradGradGradGrad
 Berny optimization.
 Initialization pass.
 Trust Radius=3.00D-01 FncErr=1.00D-07 GrdErr=1.00D-07 EigMax=2.50D+02 EigMin=1.00D-04
 Number of steps in this run=      2 maximum allowed number of steps=      2.
 GradGradGradGradGradGradGradGradGradGradGradGradGradGradGradGradGradGrad

 Leave Link  103 at Wed Mar  8 14:24:10 2023, MaxMem=  2684354560 cpu:               0.4 elap:               0.0
 (Enter /opt/gaussian/g16/l202.exe)
 ---------------------------------------------------------------------------------------------------
                            Z-MATRIX (ANGSTROMS AND DEGREES)
   CD    Cent   Atom    N1       Length/X        N2       Alpha/Y        N3        Beta/Z          J
 ---------------------------------------------------------------------------------------------------
      1      1  C        0   3.457988         -3.560654         -0.833174
      2      2  H        0   3.422006         -3.640078         -1.927882
      3      3  H        0   4.417392         -3.936704         -0.449288
      4      4  C        0   1.614184         -1.208505          0.981793
      5      5  H        0   0.885376         -2.047070          1.000699
      6      6  O        0   1.316396         -0.366725          2.075891
      7      7  H        0   0.416400          0.010592          2.046433
      8      8  C        0   3.086678         -1.711728          1.029503
      9      9  H        0   3.266099         -2.548011          1.737007
     10     10  O        0   3.889819         -0.614561          1.444881
     11     11  H        0   4.840304         -0.789685          1.373617
     12     12  C        0   1.630045         -0.453239         -0.371005
     13     13  H        0   2.246044          0.463315         -0.287292
     14     14  C        0   3.400662         -2.049202         -0.475884
     15     15  H        0   4.322518         -1.539692         -0.825531
     16     16  O        0   2.321422         -1.402881         -1.209778
     17     17  N        0   0.369638         -0.114048         -0.937534
     18     18  C        0  -0.549175         -1.136272         -1.258639
     19     19  H        0  -0.147525         -2.134126         -1.104434
     20     20  C        0  -1.740243         -0.855634         -1.747958
     21     21  H        0  -2.407413         -1.668506         -2.032605
     22     22  C        0  -2.216783          0.577150         -1.958613
     23     23  H        0  -2.838325          0.655232         -2.864144
     24     24  H        0  -2.830480          0.942027         -1.054282
     25     25  C        0  -0.988951          1.505451         -2.032808
     26     26  C        0   0.179047          1.152578         -1.495542
     27     27  H        0   1.066915          1.782874         -1.513154
     28     28  C        0  -1.192823          2.876437         -2.567248
     29     29  O        0  -0.814985          3.868836         -1.999487
     30     30  N        0  -1.999024          3.009239         -3.669138
     31     31  H        0  -1.973418          3.936704         -4.061503
     32     32  H        0  -2.000073          2.242120         -4.319582
     33     33  C        0   0.937633          2.150990          3.793372
     34     34  C        0  -0.928186          2.124076          1.753412
     35     35  C        0  -1.844370          2.745261          0.809604
     36     36  C        0  -4.065826          3.030622         -0.329948
     37     37  C        0  -3.059780          2.258524          0.506971
     38     38  O        0  -0.978806          0.939041          2.113943
     39     39  S        0   0.221577          3.188692          2.464272
     40     40  H        0   0.096678          1.678732          4.319582
     41     41  H        0   1.571064          1.381342          3.329345
     42     42  H        0  -4.840304          2.356865         -0.713014
     43     43  H        0  -3.551615          3.554270         -1.146633
     44     44  H        0  -4.551099          3.786189          0.306738
     45     45  H        0  -3.423941          1.364179          1.033221
     46     46  H        0  -1.480864          3.676888          0.363137
     47     47  H        0   2.618321         -4.089485         -0.382178
     48     48  H        0   1.528301          2.757903          4.479570
 ---------------------------------------------------------------------------------------------------
                         Z-Matrix orientation:                         
 ---------------------------------------------------------------------
 Center     Atomic      Atomic             Coordinates (Angstroms)
 Number     Number       Type             X           Y           Z
 ---------------------------------------------------------------------
      1          6           0        3.457988   -3.560654   -0.833174
      2          1           0        3.422006   -3.640078   -1.927882
      3          1           0        4.417392   -3.936704   -0.449288
      4          6           0        1.614184   -1.208505    0.981793
      5          1           0        0.885376   -2.047070    1.000699
      6          8           0        1.316396   -0.366725    2.075891
      7          1           0        0.416400    0.010592    2.046433
      8          6           0        3.086678   -1.711728    1.029503
      9          1           0        3.266099   -2.548011    1.737007
     10          8           0        3.889819   -0.614561    1.444881
     11          1           0        4.840304   -0.789685    1.373617
     12          6           0        1.630045   -0.453239   -0.371005
     13          1           0        2.246044    0.463315   -0.287292
     14          6           0        3.400662   -2.049202   -0.475884
     15          1           0        4.322518   -1.539692   -0.825531
     16          8           0        2.321422   -1.402881   -1.209778
     17          7           0        0.369638   -0.114048   -0.937534
     18          6           0       -0.549175   -1.136272   -1.258639
     19          1           0       -0.147525   -2.134126   -1.104434
     20          6           0       -1.740243   -0.855634   -1.747958
     21          1           0       -2.407413   -1.668506   -2.032605
     22          6           0       -2.216783    0.577150   -1.958613
     23          1           0       -2.838325    0.655232   -2.864144
     24          1           0       -2.830480    0.942027   -1.054282
     25          6           0       -0.988951    1.505451   -2.032808
     26          6           0        0.179047    1.152578   -1.495542
     27          1           0        1.066915    1.782874   -1.513154
     28          6           0       -1.192823    2.876437   -2.567248
     29          8           0       -0.814985    3.868836   -1.999487
     30          7           0       -1.999024    3.009239   -3.669138
     31          1           0       -1.973418    3.936704   -4.061503
     32          1           0       -2.000073    2.242120   -4.319582
     33          6           0        0.937633    2.150990    3.793372
     34          6           0       -0.928186    2.124076    1.753412
     35          6           0       -1.844370    2.745261    0.809604
     36          6           0       -4.065826    3.030622   -0.329948
     37          6           0       -3.059780    2.258524    0.506971
     38          8           0       -0.978806    0.939041    2.113943
     39         16           0        0.221577    3.188692    2.464272
     40          1           0        0.096678    1.678732    4.319582
     41          1           0        1.571064    1.381342    3.329345
     42          1           0       -4.840304    2.356865   -0.713014
     43          1           0       -3.551615    3.554270   -1.146633
     44          1           0       -4.551099    3.786189    0.306738
     45          1           0       -3.423941    1.364179    1.033221
     46          1           0       -1.480864    3.676888    0.363137
     47          1           0        2.618321   -4.089485   -0.382178
     48          1           0        1.528301    2.757903    4.479570
 ---------------------------------------------------------------------
                    Distance matrix (angstroms):
                    1          2          3          4          5
     1  C    0.000000
     2  H    1.098175   0.000000
     3  H    1.099654   1.806937   0.000000
     4  C    3.496616   4.200831   4.165217   0.000000
     5  H    3.503193   4.189124   4.260084   1.111175   0.000000
     6  O    4.821851   5.583783   5.360732   1.412204   2.040924
     7  H    5.504289   6.177074   6.149610   2.013540   2.355307
     8  C    2.650653   3.546421   2.984651   1.556839   2.226885
     9  H    2.769134   3.827314   2.834401   2.256867   2.541837
    10  O    3.749063   4.555011   3.860419   2.397026   3.357984
    11  H    3.802498   4.586524   3.661361   3.276703   4.166718
    12  C    3.634694   3.973781   4.462058   1.549432   2.230784
    13  H    4.237821   4.572993   4.909294   2.191987   3.132470
    14  C    1.554165   2.153983   2.144088   2.454200   2.916671
    15  H    2.198125   2.537266   2.428214   3.272793   3.925111
    16  O    2.467710   2.594611   3.375158   2.311051   2.713562
    17  N    4.629026   4.767665   5.588863   2.535853   2.785553
    18  C    4.702765   4.742068   5.758841   3.115266   2.827030
    19  H    3.886939   3.960747   4.951462   2.883183   2.346498
    20  C    5.930900   5.868077   7.006854   4.339152   3.983530
    21  H    6.278678   6.154689   7.364074   5.046925   4.492962
    22  C    7.112739   7.041442   8.164877   5.148871   5.026674
    23  H    7.844876   7.649707   8.919800   6.171676   6.008776
    24  H    7.737432   7.800798   8.757836   5.340921   5.192806
    25  C    6.846883   6.778202   7.832824   4.819719   5.033455
    26  C    5.779683   5.802866   6.705148   3.711000   4.119207
    27  H    5.893462   5.926792   6.713500   3.933524   4.584853
    28  C    8.128542   8.010644   9.076297   6.096043   6.425736
    29  O    8.649619   8.622124   9.524040   6.369324   6.847648
    30  N    8.999175   8.754025   9.989192   7.244018   7.462801
    31  H    9.804726   9.543091  10.764809   8.048534   8.342910
    32  H    8.695841   8.349816   9.712924   7.285208   7.418110
    33  C    7.770456   8.511247   8.195663   4.432708   5.042366
    34  C    7.631848   8.105651   8.376165   4.262058   4.610210
    35  C    8.401088   8.717861   9.243545   5.255807   5.518556
    36  C   10.015285  10.154766  10.978291   7.207870   7.215814
    37  C    8.839690   9.095910   9.757222   5.838809   5.860559
    38  O    6.972653   7.528070   7.711160   3.552086   3.692065
    39  S    8.179314   8.727306   8.767267   4.844836   5.476849
    40  H    8.080870   8.853155   8.540714   4.666883   5.051596
    41  H    6.731297   7.501938   7.117672   3.495735   4.200805
    42  H   10.192797  10.281293  11.197477   7.566019   7.423938
    43  H    9.992744  10.049895  10.959290   7.341642   7.461429
    44  H   10.927990  11.122651  11.859531   7.963252   8.003983
    45  H    8.665930   8.982077   9.580380   5.657212   5.496170
    46  H    8.843384   9.100819   9.665208   5.816281   6.226497
    47  H    1.090000   1.799188   1.806793   3.341969   3.014451
    48  H    8.477800   9.250715   8.801036   5.289065   5.966880
                    6          7          8          9         10
     6  O    0.000000
     7  H    0.976335   0.000000
     8  C    2.457205   3.336303   0.000000
     9  H    2.945198   3.842262   1.110011   0.000000
    10  O    2.661222   3.580129   1.421741   2.052460   0.000000
    11  H    3.618011   4.545772   2.010915   2.387861   0.969106
    12  C    2.468432   2.744463   2.380545   3.392411   2.903454
    13  H    2.671674   2.999804   2.677952   3.769136   2.619969
    14  C    3.699520   4.417087   1.574378   2.272401   2.446795
    15  H    4.339455   5.090119   2.235631   2.949462   2.489551
    16  O    3.588776   4.028639   2.386500   3.299588   3.182536
    17  N    3.168742   2.986935   3.715390   4.633231   4.279964
    18  C    3.897646   3.629206   4.334302   5.052051   5.223588
    19  H    3.921892   3.853024   3.897715   4.460709   5.010812
    20  C    4.919745   4.449591   5.634390   6.330291   6.476877
    21  H    5.695712   5.237542   6.289946   6.868206   7.270409
    22  C    5.445317   4.826494   6.503422   7.313429   7.091865
    23  H    6.535292   5.926429   7.474533   8.288266   8.089993
    24  H    5.357929   4.585220   6.811559   7.559097   7.336976
    25  C    5.069623   4.566160   6.028162   6.981942   6.355405
    26  C    4.044376   3.729082   4.799418   5.802898   5.053583
    27  H    4.190974   4.029244   4.770407   5.844358   4.739879
    28  C    6.194596   5.664690   7.232013   8.236094   7.356460
    29  O    6.252317   5.724668   7.452546   8.473049   7.355250
    30  N    7.442748   6.891582   8.380281   9.371817   8.600209
    31  H    8.185963   7.644113   9.133876  10.155136   9.241852
    32  H    7.662057   7.165557   8.373808   9.346668   8.722413
    33  C    3.071171   2.811544   5.213248   5.633027   4.677509
    34  C    3.368417   2.522020   5.599694   6.278590   5.550541
    35  C    4.612850   3.757558   6.650439   7.415908   6.676295
    36  C    6.804289   5.904077   8.688861   9.441959   8.929148
    37  C    5.338948   4.416670   7.335863   8.039435   7.578339
    38  O    2.640914   1.677252   4.973002   5.506435   5.154109
    39  S    3.740383   3.211365   5.855039   6.535120   5.381440
    40  H    3.271966   2.837625   5.591059   5.880499   5.283088
    41  H    2.166043   2.204102   4.141671   4.566015   3.593252
    42  H    7.287036   6.383767   9.078924   9.786428   9.471058
    43  H    7.032524   6.204713   8.748327   9.593458   8.914597
    44  H    7.402979   6.477477   9.438491  10.162497   9.587026
    45  H    5.153056   4.196071   7.200651   7.781849   7.587882
    46  H    5.206630   4.458119   7.095327   7.947990   6.959235
    47  H    4.647155   5.249500   2.804627   2.699390   4.126736
    48  H    3.947896   3.834605   5.857397   6.220475   5.114648
                   11         12         13         14         15
    11  H    0.000000
    12  C    3.669150   0.000000
    13  H    3.325479   1.107490   0.000000
    14  C    2.660753   2.386039   2.771543   0.000000
    15  H    2.380518   2.938773   2.934874   1.109806   0.000000
    16  O    3.659878   1.443386   2.083112   1.456396   2.042241
    17  N    5.077869   1.422895   2.068106   3.625610   4.203601
    18  C    6.007943   2.450189   3.363843   4.128845   4.907517
    19  H    5.729459   2.554027   3.625409   3.604431   4.518011
    20  C    7.283692   3.662890   4.445633   5.428783   6.170566
    21  H    8.056307   4.531982   5.407906   6.025118   6.838538
    22  C    7.923034   4.287224   4.766875   6.375884   6.966158
    23  H    8.888630   5.235531   5.703315   7.207129   7.762171
    24  H    8.230094   4.723338   5.156407   6.936075   7.574737
    25  C    7.131030   3.668405   3.820741   5.859033   6.240362
    26  C    5.807906   2.438981   2.491471   4.655094   4.986541
    27  H    5.402774   2.573290   2.152747   4.605118   4.702257
    28  C    8.085140   4.886596   4.779871   7.052364   7.277003
    29  O    8.066098   5.225941   4.888669   7.424030   7.551443
    30  N    9.307932   6.003048   5.994932   8.058617   8.291005
    31  H    9.914943   6.773207   6.641759   8.807296   8.949930
    32  H    9.401868   6.002831   6.119887   7.896670   8.153874
    33  C    5.452854   4.960189   4.605648   6.475698   6.812697
    34  C    6.473772   4.207166   4.122903   6.412873   6.902466
    35  C    7.582797   4.867833   4.810607   7.221476   7.685376
    36  C    9.839514   6.676970   6.814146   9.031853   9.565443
    37  C    8.511990   5.488074   5.657331   7.826865   8.408349
    38  O    6.115440   3.862578   4.048691   5.900554   6.548943
    39  S    6.192709   4.825582   4.370040   6.796075   7.070936
    40  H    6.105225   5.375697   5.226882   6.914499   7.395145
    41  H    4.384763   4.130587   3.791890   5.440204   5.776325
    42  H   10.390811   7.062511   7.347318   9.347897   9.957566
    43  H    9.779872   6.596312   6.626108   8.954493   9.383684
    44  H   10.501204   7.525864   7.589170   9.894179  10.410961
    45  H    8.547089   5.551363   5.891013   7.778417   8.479095
    46  H    7.805671   5.222516   4.963864   7.571087   7.893344
    47  H    4.348414   3.768169   4.568981   2.187143   3.098756
    48  H    5.762090   5.818063   5.338844   7.153357   7.377064
                   16         17         18         19         20
    16  O    0.000000
    17  N    2.354712   0.000000
    18  C    2.883365   1.411477   0.000000
    19  H    2.577114   2.091895   1.086652   0.000000
    20  C    4.133551   2.378725   1.317890   2.141358   0.000000
    21  H    4.807233   3.365640   2.082150   2.487046   1.089450
    22  C    5.007653   2.865298   2.491324   3.516030   1.524577
    23  H    5.796184   3.820294   3.320744   4.256465   2.175861
    24  H    5.662585   3.371896   3.092805   4.082092   2.213907
    25  C    4.482672   2.380791   2.787730   3.849207   2.494053
    26  C    3.346910   1.397154   2.413558   3.325964   2.789319
    27  H    3.437275   2.101392   3.346331   4.121262   3.859662
    28  C    5.701335   3.747033   4.269494   5.323365   3.859956
    29  O    6.184795   4.288875   5.066618   6.105913   4.820787
    30  N    6.646917   4.777776   5.009773   6.038207   4.323788
    31  H    7.422207   5.626517   5.968216   6.995221   5.326665
    32  H    6.452305   4.754504   4.784141   5.737650   4.034456
    33  C    6.290976   5.275840   6.208019   6.597597   6.849608
    34  C    5.637364   3.732926   4.454881   5.187388   4.668800
    35  C    6.216013   4.016214   4.584916   5.509196   4.417964
    36  C    7.824768   5.470965   5.531032   6.528976   4.745743
    37  C    6.731304   4.413231   4.576588   5.511191   4.064955
    38  O    5.236719   3.498402   3.983192   4.526957   4.326075
    39  S    6.244241   4.743659   5.758423   6.419057   6.160210
    40  H    6.709669   5.561101   6.281554   6.634567   6.827322
    41  H    5.377599   4.678234   5.646538   5.913582   6.461255
    42  H    8.103874   5.770556   5.559991   6.507255   4.582753
    43  H    7.685694   5.373686   5.570312   6.629287   4.805196
    44  H    8.744016   6.401071   6.534250   7.512189   5.802517
    45  H    6.759945   4.523303   4.446252   5.248104   3.936669
    46  H    6.537240   4.414443   5.163789   6.139987   5.006771
    47  H    2.826820   4.600988   4.418448   3.463379   5.596448
    48  H    7.092944   6.239841   7.239306   7.610614   7.907157
                   21         22         23         24         25
    21  H    0.000000
    22  C    2.254947   0.000000
    23  H    2.505374   1.101089   0.000000
    24  H    2.819749   1.152204   1.832461   0.000000
    25  C    3.476498   1.541045   2.198676   2.160137   0.000000
    26  C    3.864806   2.507101   3.350366   3.048983   1.333189
    27  H    4.924714   3.526312   4.283415   4.013387   2.138594
    28  C    4.734721   2.589528   2.780211   2.951767   1.485528
    29  O    5.761865   3.577975   3.894713   3.677207   2.370013
    30  N    4.972557   2.981337   2.625603   3.435427   2.441147
    31  H    5.976885   3.970891   3.598582   4.329668   3.315987
    32  H    4.548536   2.897113   2.310666   3.611371   2.606604
    33  C    7.727865   6.746306   7.798568   6.257797   6.170317
    34  C    5.559291   4.222866   5.208450   3.591533   3.836906
    35  C    5.279821   3.535877   4.341957   2.774552   3.216858
    36  C    5.266041   3.477217   3.683937   2.532385   3.833150
    37  C    4.721927   3.101091   3.739519   2.055056   3.362429
    38  O    5.102361   4.271917   5.321627   3.669654   4.185268
    39  S    7.122209   5.685742   6.646310   5.171342   4.952010
    40  H    7.604260   6.780953   7.827370   6.163555   6.446819
    41  H    7.340324   6.554160   7.637359   6.227582   5.943211
    42  H    4.885068   3.406136   3.395708   2.481455   4.159288
    43  H    5.419551   3.362192   3.444278   2.711527   3.398560
    44  H    6.310437   4.569330   4.773990   3.591958   4.833646
    45  H    4.430553   3.320801   4.004374   2.210900   3.917865
    46  H    5.930541   3.942142   4.624765   3.363036   3.270730
    47  H    5.817479   6.902236   7.645095   7.446964   6.858593
    48  H    8.802919   7.760899   8.798795   7.274607   7.093396
                   26         27         28         29         30
    26  C    0.000000
    27  H    1.088987   0.000000
    28  C    2.449954   2.722758   0.000000
    29  O    2.936004   2.851194   1.204147   0.000000
    30  N    3.593842   3.943630   1.371772   2.220043   0.000000
    31  H    4.355298   4.514055   1.991555   2.366111   1.007372
    32  H    3.729728   4.182506   2.030933   3.071397   1.005759
    33  C    5.435521   5.320850   6.747044   6.291254   8.065333
    34  C    3.567279   3.842825   4.393652   4.140200   5.597701
    35  C    3.456090   3.846684   3.441635   3.195786   4.489179
    36  C    4.785876   5.413121   3.644644   3.749391   3.927126
    37  C    3.965246   4.619173   3.649406   3.730220   4.373633
    38  O    3.796657   4.248866   5.070785   5.052806   6.226604
    39  S    4.452830   4.302422   5.235859   4.632731   6.525487
    40  H    5.839460   5.913799   7.108146   6.749691   8.365516
    41  H    5.026886   4.885201   6.681631   6.346441   8.023362
    42  H    5.220779   5.988732   4.124591   4.488236   4.151762
    43  H    4.450584   4.960141   2.835754   2.883653   3.011748
    44  H    5.705997   6.235973   4.512810   4.391361   4.787936
    45  H    4.406919   5.179490   4.497576   4.719881   5.181582
    46  H    3.547131   3.687673   3.051368   2.462160   4.119889
    47  H    5.888027   6.178233   8.235498   8.816924   9.083824
    48  H    6.332418   6.089031   7.554880   6.978778   8.882941
                   31         32         33         34         35
    31  H    0.000000
    32  H    1.714331   0.000000
    33  C    8.565165   8.628931   0.000000
    34  C    6.179916   6.167993   2.764678   0.000000
    35  C    5.016361   5.156156   4.122568   1.454660   0.000000
    36  C    4.373061   4.561387   6.542945   3.873887   2.512942
    37  C    4.986725   4.941545   5.176032   2.472930   1.343771
    38  O    6.936236   6.643136   2.821708   1.239699   2.390174
    39  S    6.925551   7.200861   1.831958   1.720664   2.683783
    40  H    8.923358   8.907802   1.098695   2.798912   4.150313
    41  H    8.585910   8.485284   1.099506   3.046551   4.458089
    42  H    4.682659   4.592102   7.330379   4.630563   3.383022
    43  H    3.336679   3.767841   6.821011   4.163903   2.719567
    44  H    5.074310   5.504064   6.704973   4.240398   2.943261
    45  H    5.888813   5.608091   5.221190   2.706457   2.110079
    46  H    4.459546   4.925038   4.465871   2.156280   1.095171
    47  H    9.951945   8.770515   7.694378   7.466378   8.249225
    48  H    9.305995   9.494237   1.090000   3.723977   4.984348
                   36         37         38         39         40
    36  C    0.000000
    37  C    1.519440   0.000000
    38  O    4.458364   2.941743   0.000000
    39  S    5.120007   3.932371   2.573825   0.000000
    40  H    6.385310   4.983512   2.562938   2.395362   0.000000
    41  H    6.919905   5.493629   2.859137   2.415778   1.800785
    42  H    1.095675   2.160624   4.991301   6.034046   7.082421
    43  H    1.097996   2.157606   4.908169   5.235384   6.834266
    44  H    1.100790   2.144268   4.912588   5.271658   6.492005
    45  H    2.246616   1.099730   2.706915   4.320480   4.826372
    46  H    2.753191   2.127305   3.288342   2.747982   4.704756
    47  H    9.766089   8.563214   6.667535   8.174260   7.857325
    48  H    7.382418   6.089451   3.897439   2.440192   1.799931
                   41         42         43         44         45
    41  H    0.000000
    42  H    7.641855   0.000000
    43  H    7.141277   1.811774   0.000000
    44  H    7.238806   1.779467   1.779057   0.000000
    45  H    5.497504   2.457814   3.092663   2.768465   0.000000
    46  H    4.835513   3.766484   2.565629   3.072698   3.094057
    47  H    6.693437   9.863872   9.852893  10.672461   8.261642
    48  H    1.794371   8.226961   7.621936   7.445066   6.192293
                   46         47         48
    46  H    0.000000
    47  H    8.813363   0.000000
    48  H    5.181180   8.468262   0.000000
 Symmetry turned off by external request.
 Stoichiometry    C16H24N2O5S
 Framework group  C1[X(C16H24N2O5S)]
 Deg. of freedom   138
 Full point group                 C1      NOp   1
 Rotational constants (GHZ):           0.2902912           0.1679880           0.1264718
 Leave Link  202 at Wed Mar  8 14:24:10 2023, MaxMem=  2684354560 cpu:               0.1 elap:               0.0
 (Enter /opt/gaussian/g16/l301.exe)
 Standard basis: def2TZVP (5D, 7F)
 Ernie: Thresh=  0.10000D-02 Tol=  0.10000D-05 Strict=F.
   894 basis functions,  1434 primitive gaussians,  1014 cartesian basis functions
    95 alpha electrons       95 beta electrons
       nuclear repulsion energy      2432.8496106581 Hartrees.
 IExCor= 4336 DFT=T Ex+Corr=M062X ExCW=0 ScaHFX=  0.540000
 ScaDFX=  1.000000  1.000000  1.000000  1.000000 ScalE2=  1.000000  1.000000
 IRadAn=      5 IRanWt=     -1 IRanGd=            0 ICorTp=0 IEmpDi=131
 NAtoms=   48 NActive=   48 NUniq=   48 SFac= 1.00D+00 NAtFMM=   60 NAOKFM=F Big=F
 Integral buffers will be    131072 words long.
 Raffenetti 2 integral format.
 Two-electron integral symmetry is turned off.
 R6Disp:  Grimme-D3 Dispersion energy=       -0.0042116628 Hartrees.
 Nuclear repulsion after empirical dispersion term =     2432.8453989953 Hartrees.
 Leave Link  301 at Wed Mar  8 14:24:11 2023, MaxMem=  2684354560 cpu:               0.8 elap:               0.1
 (Enter /opt/gaussian/g16/l302.exe)
 NPDir=0 NMtPBC=     1 NCelOv=     1 NCel=       1 NClECP=     1 NCelD=      1
         NCelK=      1 NCelE2=     1 NClLst=     1 CellRange=     0.0.
 One-electron integrals computed using PRISM.
   1 Symmetry operations used in ECPInt.
 ECPInt:  NShTT=   65703 NPrTT=  200010 LenC2=   56079 LenP2D=  118629.
 LDataN:  DoStor=T MaxTD1= 6 Len=  172
 NBasis=   894 RedAO= T EigKep=  3.13D-05  NBF=   894
 NBsUse=   894 1.00D-06 EigRej= -1.00D+00 NBFU=   894
 Precomputing XC quadrature grid using
 IXCGrd= 4 IRadAn=           5 IRanWt=          -1 IRanGd=           0 AccXCQ= 0.00D+00.
 Generated NRdTot=       0 NPtTot=           0 NUsed=           0 NTot=          32
 NSgBfM=   998   997   997   998   998 MxSgAt=    48 MxSgA2=    48.
 Leave Link  302 at Wed Mar  8 14:24:13 2023, MaxMem=  2684354560 cpu:              36.6 elap:               2.3
 (Enter /opt/gaussian/g16/l303.exe)
 DipDrv:  MaxL=1.
 Leave Link  303 at Wed Mar  8 14:24:13 2023, MaxMem=  2684354560 cpu:               4.8 elap:               0.3
 (Enter /opt/gaussian/g16/l401.exe)
 ExpMin= 9.52D-02 ExpMax= 6.07D+04 ExpMxC= 2.07D+03 IAcc=3 IRadAn=         5 AccDes= 0.00D+00
 Harris functional with IExCor= 1009 and IRadAn=       5 diagonalized for initial guess.
 HarFok:  IExCor= 1009 AccDes= 0.00D+00 IRadAn=         5 IDoV= 1 UseB2=F ITyADJ=14
 ICtDFT=  3500011 ScaDFX=  1.000000  1.000000  1.000000  1.000000
 FoFCou: FMM=F IPFlag=           0 FMFlag=      100000 FMFlg1=           0
         NFxFlg=           0 DoJE=T BraDBF=F KetDBF=T FulRan=T
         wScrn=  0.000000 ICntrl=       500 IOpCl=  0 I1Cent=   200000004 NGrid=           0
         NMat0=    1 NMatS0=      1 NMatT0=    0 NMatD0=    1 NMtDS0=    0 NMtDT0=    0
 Symmetry not used in FoFCou.
 Harris En= -1507.20625486568    
 JPrj=0 DoOrth=F DoCkMO=F.
 Leave Link  401 at Wed Mar  8 14:24:23 2023, MaxMem=  2684354560 cpu:             146.1 elap:               9.2
 (Enter /opt/gaussian/g16/l502.exe)
 Two-electron integral symmetry not used.
 Closed shell SCF:
 Using DIIS extrapolation, IDIIS=  1040.
 NGot=  2684354560 LenX=  2682275214 LenY=  2681246004
 Requested convergence on RMS density matrix=1.00D-08 within 128 cycles.
 Requested convergence on MAX density matrix=1.00D-06.
 Requested convergence on             energy=1.00D-06.
 No special actions if energy rises.
 Fock matrices will be formed incrementally for  20 cycles.
 Integral accuracy reduced to 1.0D-05 until final iterations.

 Cycle   1  Pass 0  IDiag  1:
 FoFJK:  IHMeth= 1 ICntrl=       0 DoSepK=F KAlg= 0 I1Cent=           0 FoldK=F
 IRaf= 780000000 NMat=       1 IRICut=       1 DoRegI=T DoRafI=F ISym2E= 0 IDoP0=0 IntGTp=1.
 FoFCou: FMM=F IPFlag=           0 FMFlag=      100000 FMFlg1=           0
         NFxFlg=           0 DoJE=F BraDBF=F KetDBF=F FulRan=T
         wScrn=  0.000000 ICntrl=         0 IOpCl=  0 I1Cent=           0 NGrid=           0
         NMat0=    1 NMatS0=      1 NMatT0=    0 NMatD0=    1 NMtDS0=    0 NMtDT0=    0
 Symmetry not used in FoFCou.
 E= -1507.14689644206    
 DIIS: error= 1.50D-02 at cycle   1 NSaved=   1.
 NSaved= 1 IEnMin= 1 EnMin= -1507.14689644206     IErMin= 1 ErrMin= 1.50D-02
 ErrMax= 1.50D-02  0.00D+00 EMaxC= 1.00D-01 BMatC= 9.96D-01 BMatP= 9.96D-01
 IDIUse=3 WtCom= 8.50D-01 WtEn= 1.50D-01
 Coeff-Com:  0.100D+01
 Coeff-En:   0.100D+01
 Coeff:      0.100D+01
 Gap=     0.303 Goal=   None    Shift=    0.000
 GapD=    0.303 DampG=1.000 DampE=0.500 DampFc=0.5000 IDamp=-1.
 Damping current iteration by 5.00D-01
 RMSDP=3.73D-03 MaxDP=1.02D+00              OVMax= 2.43D-01

 Cycle   2  Pass 0  IDiag  1:
 RMSU=  1.86D-03    CP:  1.01D+00
 E= -1507.47996447027     Delta-E=       -0.333068028206 Rises=F Damp=T
 DIIS: error= 4.33D-03 at cycle   2 NSaved=   2.
 NSaved= 2 IEnMin= 2 EnMin= -1507.47996447027     IErMin= 2 ErrMin= 4.33D-03
 ErrMax= 4.33D-03  0.00D+00 EMaxC= 1.00D-01 BMatC= 8.97D-02 BMatP= 9.96D-01
 IDIUse=3 WtCom= 9.57D-01 WtEn= 4.33D-02
 Coeff-Com:  0.399D-02 0.996D+00
 Coeff-En:   0.561D-01 0.944D+00
 Coeff:      0.625D-02 0.994D+00
 Gap=     0.345 Goal=   None    Shift=    0.000
 RMSDP=1.16D-03 MaxDP=2.97D-01 DE=-3.33D-01 OVMax= 1.83D-01

 Cycle   3  Pass 0  IDiag  1:
 RMSU=  9.34D-04    CP:  9.96D-01  6.33D-01
 E= -1507.84215508531     Delta-E=       -0.362190615047 Rises=F Damp=F
 DIIS: error= 5.70D-03 at cycle   3 NSaved=   3.
 NSaved= 3 IEnMin= 3 EnMin= -1507.84215508531     IErMin= 2 ErrMin= 4.33D-03
 ErrMax= 5.70D-03  0.00D+00 EMaxC= 1.00D-01 BMatC= 5.60D-02 BMatP= 8.97D-02
 IDIUse=3 WtCom= 9.43D-01 WtEn= 5.70D-02
 Coeff-Com: -0.765D-01 0.458D+00 0.619D+00
 Coeff-En:   0.000D+00 0.000D+00 0.100D+01
 Coeff:     -0.722D-01 0.432D+00 0.641D+00
 Gap=     0.221 Goal=   None    Shift=    0.000
 RMSDP=3.43D-04 MaxDP=3.03D-02 DE=-3.62D-01 OVMax= 7.26D-02

 Cycle   4  Pass 0  IDiag  1:
 RMSU=  3.07D-04    CP:  9.98D-01  7.06D-01  9.28D-01
 E= -1507.87825677281     Delta-E=       -0.036101687499 Rises=F Damp=F
 DIIS: error= 2.25D-03 at cycle   4 NSaved=   4.
 NSaved= 4 IEnMin= 4 EnMin= -1507.87825677281     IErMin= 4 ErrMin= 2.25D-03
 ErrMax= 2.25D-03  0.00D+00 EMaxC= 1.00D-01 BMatC= 1.17D-02 BMatP= 5.60D-02
 IDIUse=3 WtCom= 9.78D-01 WtEn= 2.25D-02
 Coeff-Com: -0.352D-01 0.965D-01 0.349D+00 0.589D+00
 Coeff-En:   0.000D+00 0.000D+00 0.147D+00 0.853D+00
 Coeff:     -0.344D-01 0.944D-01 0.345D+00 0.595D+00
 Gap=     0.221 Goal=   None    Shift=    0.000
 RMSDP=1.15D-04 MaxDP=1.09D-02 DE=-3.61D-02 OVMax= 1.95D-02

 Cycle   5  Pass 0  IDiag  1:
 RMSU=  7.41D-05    CP:  9.98D-01  7.04D-01  9.58D-01  7.28D-01
 E= -1507.88685008305     Delta-E=       -0.008593310235 Rises=F Damp=F
 DIIS: error= 4.25D-04 at cycle   5 NSaved=   5.
 NSaved= 5 IEnMin= 5 EnMin= -1507.88685008305     IErMin= 5 ErrMin= 4.25D-04
 ErrMax= 4.25D-04  0.00D+00 EMaxC= 1.00D-01 BMatC= 4.86D-04 BMatP= 1.17D-02
 IDIUse=3 WtCom= 9.96D-01 WtEn= 4.25D-03
 Coeff-Com: -0.995D-02 0.162D-01 0.122D+00 0.270D+00 0.601D+00
 Coeff-En:   0.000D+00 0.000D+00 0.000D+00 0.000D+00 0.100D+01
 Coeff:     -0.991D-02 0.161D-01 0.122D+00 0.269D+00 0.603D+00
 Gap=     0.221 Goal=   None    Shift=    0.000
 RMSDP=4.40D-05 MaxDP=9.91D-03 DE=-8.59D-03 OVMax= 4.54D-03

 Cycle   6  Pass 0  IDiag  1:
 RMSU=  2.99D-05    CP:  9.97D-01  6.89D-01  9.69D-01  7.52D-01  8.73D-01
 E= -1507.88723449920     Delta-E=       -0.000384416155 Rises=F Damp=F
 DIIS: error= 1.28D-04 at cycle   6 NSaved=   6.
 NSaved= 6 IEnMin= 6 EnMin= -1507.88723449920     IErMin= 6 ErrMin= 1.28D-04
 ErrMax= 1.28D-04  0.00D+00 EMaxC= 1.00D-01 BMatC= 5.43D-05 BMatP= 4.86D-04
 IDIUse=3 WtCom= 9.99D-01 WtEn= 1.28D-03
 Coeff-Com:  0.593D-03-0.545D-02 0.949D-02 0.376D-01 0.258D+00 0.700D+00
 Coeff-En:   0.000D+00 0.000D+00 0.000D+00 0.000D+00 0.000D+00 0.100D+01
 Coeff:      0.592D-03-0.544D-02 0.948D-02 0.375D-01 0.257D+00 0.700D+00
 Gap=     0.222 Goal=   None    Shift=    0.000
 RMSDP=1.72D-05 MaxDP=1.04D-03 DE=-3.84D-04 OVMax= 2.30D-03

 Cycle   7  Pass 0  IDiag  1:
 RMSU=  1.54D-05    CP:  9.97D-01  6.88D-01  9.74D-01  7.59D-01  9.44D-01
                    CP:  1.00D+00
 E= -1507.88730504879     Delta-E=       -0.000070549586 Rises=F Damp=F
 DIIS: error= 6.53D-05 at cycle   7 NSaved=   7.
 NSaved= 7 IEnMin= 7 EnMin= -1507.88730504879     IErMin= 7 ErrMin= 6.53D-05
 ErrMax= 6.53D-05  0.00D+00 EMaxC= 1.00D-01 BMatC= 8.42D-06 BMatP= 5.43D-05
 IDIUse=1 WtCom= 1.00D+00 WtEn= 0.00D+00
 Coeff-Com:  0.184D-02-0.491D-02-0.129D-01-0.267D-01 0.685D-02 0.273D+00
 Coeff-Com:  0.763D+00
 Coeff:      0.184D-02-0.491D-02-0.129D-01-0.267D-01 0.685D-02 0.273D+00
 Coeff:      0.763D+00
 Gap=     0.222 Goal=   None    Shift=    0.000
 RMSDP=1.43D-05 MaxDP=3.39D-03 DE=-7.05D-05 OVMax= 2.07D-03

 Cycle   8  Pass 0  IDiag  1:
 RMSU=  9.85D-06    CP:  9.97D-01  6.84D-01  9.76D-01  7.66D-01  1.00D+00
                    CP:  1.16D+00  1.20D+00
 E= -1507.88731964568     Delta-E=       -0.000014596896 Rises=F Damp=F
 DIIS: error= 3.06D-05 at cycle   8 NSaved=   8.
 NSaved= 8 IEnMin= 8 EnMin= -1507.88731964568     IErMin= 8 ErrMin= 3.06D-05
 ErrMax= 3.06D-05  0.00D+00 EMaxC= 1.00D-01 BMatC= 2.06D-06 BMatP= 8.42D-06
 IDIUse=1 WtCom= 1.00D+00 WtEn= 0.00D+00
 Coeff-Com:  0.848D-03-0.149D-02-0.734D-02-0.209D-01-0.418D-01 0.264D-02
 Coeff-Com:  0.366D+00 0.702D+00
 Coeff:      0.848D-03-0.149D-02-0.734D-02-0.209D-01-0.418D-01 0.264D-02
 Coeff:      0.366D+00 0.702D+00
 Gap=     0.222 Goal=   None    Shift=    0.000
 RMSDP=1.10D-05 MaxDP=1.12D-03 DE=-1.46D-05 OVMax= 6.09D-04

 Cycle   9  Pass 0  IDiag  1:
 RMSU=  6.99D-06    CP:  9.97D-01  6.83D-01  9.78D-01  7.65D-01  1.04D+00
                    CP:  1.24D+00  1.57D+00  1.50D+00
 E= -1507.88731327581     Delta-E=        0.000006369873 Rises=F Damp=F
 DIIS: error= 1.56D-05 at cycle   9 NSaved=   9.
 NSaved= 9 IEnMin= 8 EnMin= -1507.88731964568     IErMin= 9 ErrMin= 1.56D-05
 ErrMax= 1.56D-05  0.00D+00 EMaxC= 1.00D-01 BMatC= 2.93D-07 BMatP= 2.06D-06
 IDIUse=1 WtCom= 1.00D+00 WtEn= 0.00D+00
 Coeff-Com:  0.123D-03-0.496D-04-0.932D-03-0.528D-02-0.162D-01-0.334D-01
 Coeff-Com:  0.534D-01 0.272D+00 0.730D+00
 Coeff:      0.123D-03-0.496D-04-0.932D-03-0.528D-02-0.162D-01-0.334D-01
 Coeff:      0.534D-01 0.272D+00 0.730D+00
 Gap=     0.222 Goal=   None    Shift=    0.000
 RMSDP=1.37D-05 MaxDP=1.28D-03 DE= 6.37D-06 OVMax= 2.32D-04

 Cycle  10  Pass 0  IDiag  1:
 RMSU=  4.54D-06    CP:  9.97D-01  6.83D-01  9.80D-01  7.66D-01  1.07D+00
                    CP:  1.30D+00  1.92D+00  2.36D+00  2.05D+00
 E= -1507.88730048775     Delta-E=        0.000012788058 Rises=F Damp=F
 DIIS: error= 2.32D-05 at cycle  10 NSaved=  10.
 NSaved=10 IEnMin= 8 EnMin= -1507.88731964568     IErMin= 9 ErrMin= 1.56D-05
 ErrMax= 2.32D-05  0.00D+00 EMaxC= 1.00D-01 BMatC= 2.16D-07 BMatP= 2.93D-07
 IDIUse=1 WtCom= 1.00D+00 WtEn= 0.00D+00
 Coeff-Com:  0.871D-04-0.222D-04-0.593D-03-0.392D-02-0.122D-01-0.269D-01
 Coeff-Com:  0.373D-01 0.205D+00 0.587D+00 0.214D+00
 Coeff:      0.871D-04-0.222D-04-0.593D-03-0.392D-02-0.122D-01-0.269D-01
 Coeff:      0.373D-01 0.205D+00 0.587D+00 0.214D+00
 Gap=     0.222 Goal=   None    Shift=    0.000
 RMSDP=5.43D-06 MaxDP=4.99D-04 DE= 1.28D-05 OVMax= 2.03D-05

 Initial convergence to 1.0D-05 achieved.  Increase integral accuracy.
 Cycle  11  Pass 1  IDiag  1:
 E= -1507.88725942177     Delta-E=        0.000041065985 Rises=F Damp=F
 DIIS: error= 3.33D-04 at cycle   1 NSaved=   1.
 NSaved= 1 IEnMin= 1 EnMin= -1507.88725942177     IErMin= 1 ErrMin= 3.33D-04
 ErrMax= 3.33D-04  0.00D+00 EMaxC= 1.00D-01 BMatC= 8.16D-05 BMatP= 8.16D-05
 IDIUse=3 WtCom= 9.97D-01 WtEn= 3.33D-03
 Coeff-Com:  0.100D+01
 Coeff-En:   0.100D+01
 Coeff:      0.100D+01
 Gap=     0.222 Goal=   None    Shift=    0.000
 RMSDP=5.43D-06 MaxDP=4.99D-04 DE= 4.11D-05 OVMax= 8.08D-04

 Cycle  12  Pass 1  IDiag  1:
 RMSU=  4.07D-04    CP:  9.96D-01
 E= -1507.88731164538     Delta-E=       -0.000052223612 Rises=F Damp=F
 DIIS: error= 7.87D-06 at cycle   2 NSaved=   2.
 NSaved= 2 IEnMin= 2 EnMin= -1507.88731164538     IErMin= 2 ErrMin= 7.87D-06
 ErrMax= 7.87D-06  0.00D+00 EMaxC= 1.00D-01 BMatC= 8.41D-08 BMatP= 8.16D-05
 IDIUse=1 WtCom= 1.00D+00 WtEn= 0.00D+00
 Coeff-Com: -0.164D-01 0.102D+01
 Coeff:     -0.164D-01 0.102D+01
 Gap=     0.222 Goal=   None    Shift=    0.000
 RMSDP=1.46D-05 MaxDP=1.04D-03 DE=-5.22D-05 OVMax= 8.61D-05

 Cycle  13  Pass 1  IDiag  1:
 RMSU=  4.77D-06    CP:  9.96D-01  1.03D+00
 E= -1507.88731171369     Delta-E=       -0.000000068312 Rises=F Damp=F
 DIIS: error= 2.92D-06 at cycle   3 NSaved=   3.
 NSaved= 3 IEnMin= 3 EnMin= -1507.88731171369     IErMin= 3 ErrMin= 2.92D-06
 ErrMax= 2.92D-06  0.00D+00 EMaxC= 1.00D-01 BMatC= 5.08D-08 BMatP= 8.41D-08
 IDIUse=1 WtCom= 1.00D+00 WtEn= 0.00D+00
 Coeff-Com: -0.828D-02 0.476D+00 0.532D+00
 Coeff:     -0.828D-02 0.476D+00 0.532D+00
 Gap=     0.222 Goal=   None    Shift=    0.000
 RMSDP=4.57D-07 MaxDP=5.24D-05 DE=-6.83D-08 OVMax= 4.28D-05

 Cycle  14  Pass 1  IDiag  1:
 RMSU=  3.87D-07    CP:  9.96D-01  1.03D+00  1.03D+00
 E= -1507.88731174975     Delta-E=       -0.000000036058 Rises=F Damp=F
 DIIS: error= 1.13D-06 at cycle   4 NSaved=   4.
 NSaved= 4 IEnMin= 4 EnMin= -1507.88731174975     IErMin= 4 ErrMin= 1.13D-06
 ErrMax= 1.13D-06  0.00D+00 EMaxC= 1.00D-01 BMatC= 5.13D-09 BMatP= 5.08D-08
 IDIUse=1 WtCom= 1.00D+00 WtEn= 0.00D+00
 Coeff-Com: -0.104D-02 0.488D-01 0.237D+00 0.715D+00
 Coeff:     -0.104D-02 0.488D-01 0.237D+00 0.715D+00
 Gap=     0.222 Goal=   None    Shift=    0.000
 RMSDP=2.74D-07 MaxDP=2.15D-05 DE=-3.61D-08 OVMax= 1.91D-05

 Cycle  15  Pass 1  IDiag  1:
 RMSU=  1.57D-07    CP:  9.96D-01  1.03D+00  1.06D+00  9.48D-01
 E= -1507.88731175330     Delta-E=       -0.000000003548 Rises=F Damp=F
 DIIS: error= 9.20D-07 at cycle   5 NSaved=   5.
 NSaved= 5 IEnMin= 5 EnMin= -1507.88731175330     IErMin= 5 ErrMin= 9.20D-07
 ErrMax= 9.20D-07  0.00D+00 EMaxC= 1.00D-01 BMatC= 1.02D-09 BMatP= 5.13D-09
 IDIUse=1 WtCom= 1.00D+00 WtEn= 0.00D+00
 Coeff-Com:  0.426D-03-0.306D-01 0.626D-01 0.391D+00 0.577D+00
 Coeff:      0.426D-03-0.306D-01 0.626D-01 0.391D+00 0.577D+00
 Gap=     0.222 Goal=   None    Shift=    0.000
 RMSDP=7.69D-08 MaxDP=5.18D-06 DE=-3.55D-09 OVMax= 8.24D-06

 Cycle  16  Pass 1  IDiag  1:
 RMSU=  5.04D-08    CP:  9.96D-01  1.03D+00  1.06D+00  9.90D-01  1.05D+00
 E= -1507.88731175424     Delta-E=       -0.000000000948 Rises=F Damp=F
 DIIS: error= 1.05D-07 at cycle   6 NSaved=   6.
 NSaved= 6 IEnMin= 6 EnMin= -1507.88731175424     IErMin= 6 ErrMin= 1.05D-07
 ErrMax= 1.05D-07  0.00D+00 EMaxC= 1.00D-01 BMatC= 3.86D-11 BMatP= 1.02D-09
 IDIUse=1 WtCom= 1.00D+00 WtEn= 0.00D+00
 Coeff-Com:  0.235D-03-0.150D-01 0.538D-02 0.897D-01 0.208D+00 0.712D+00
 Coeff:      0.235D-03-0.150D-01 0.538D-02 0.897D-01 0.208D+00 0.712D+00
 Gap=     0.222 Goal=   None    Shift=    0.000
 RMSDP=1.84D-08 MaxDP=1.40D-06 DE=-9.48D-10 OVMax= 2.48D-06

 Cycle  17  Pass 1  IDiag  1:
 RMSU=  1.30D-08    CP:  9.96D-01  1.03D+00  1.06D+00  1.00D+00  1.12D+00
                    CP:  1.05D+00
 E= -1507.88731175428     Delta-E=       -0.000000000040 Rises=F Damp=F
 DIIS: error= 4.83D-08 at cycle   7 NSaved=   7.
 NSaved= 7 IEnMin= 7 EnMin= -1507.88731175428     IErMin= 7 ErrMin= 4.83D-08
 ErrMax= 4.83D-08  0.00D+00 EMaxC= 1.00D-01 BMatC= 6.45D-12 BMatP= 3.86D-11
 IDIUse=1 WtCom= 1.00D+00 WtEn= 0.00D+00
 Coeff-Com:  0.427D-05 0.394D-03-0.961D-02-0.412D-01-0.341D-01 0.266D+00
 Coeff-Com:  0.818D+00
 Coeff:      0.427D-05 0.394D-03-0.961D-02-0.412D-01-0.341D-01 0.266D+00
 Coeff:      0.818D+00
 Gap=     0.222 Goal=   None    Shift=    0.000
 RMSDP=9.22D-09 MaxDP=7.44D-07 DE=-3.96D-11 OVMax= 1.46D-06

 SCF Done:  E(RM062X) =  -1507.88731175     A.U. after   17 cycles
            NFock= 17  Conv=0.92D-08     -V/T= 2.0042
 KE= 1.501582598252D+03 PE=-8.404895945190D+03 EE= 2.962580636188D+03
 Leave Link  502 at Wed Mar  8 14:41:49 2023, MaxMem=  2684354560 cpu:           16645.9 elap:            1046.4
 (Enter /opt/gaussian/g16/l601.exe)
 Copying SCF densities to generalized density rwf, IOpCl= 0 IROHF=0.

 **********************************************************************

            Population analysis using the SCF density.

 **********************************************************************

 Alpha  occ. eigenvalues --  -89.90996 -19.62696 -19.62558 -19.61514 -19.59969
 Alpha  occ. eigenvalues --  -19.59162 -14.78566 -14.76281 -10.64776 -10.64163
 Alpha  occ. eigenvalues --  -10.62444 -10.60190 -10.60090 -10.59512 -10.58498
 Alpha  occ. eigenvalues --  -10.57082 -10.56378 -10.55599 -10.55548 -10.54170
 Alpha  occ. eigenvalues --  -10.54123 -10.54043 -10.53961 -10.53378  -8.26942
 Alpha  occ. eigenvalues --   -6.18872  -6.18649  -6.18473  -1.17251  -1.17101
 Alpha  occ. eigenvalues --   -1.16237  -1.14224  -1.11916  -1.07184  -1.01261
 Alpha  occ. eigenvalues --   -0.91520  -0.90878  -0.88444  -0.87248  -0.86684
 Alpha  occ. eigenvalues --   -0.84592  -0.81344  -0.78143  -0.75256  -0.74657
 Alpha  occ. eigenvalues --   -0.72600  -0.69548  -0.67409  -0.66503  -0.65718
 Alpha  occ. eigenvalues --   -0.62584  -0.62293  -0.61045  -0.59879  -0.58108
 Alpha  occ. eigenvalues --   -0.57389  -0.55617  -0.55376  -0.54603  -0.53906
 Alpha  occ. eigenvalues --   -0.52867  -0.52555  -0.51699  -0.50614  -0.50402
 Alpha  occ. eigenvalues --   -0.49922  -0.49565  -0.48934  -0.48213  -0.47971
 Alpha  occ. eigenvalues --   -0.47860  -0.47564  -0.46889  -0.46347  -0.45852
 Alpha  occ. eigenvalues --   -0.44941  -0.44266  -0.43712  -0.43239  -0.42406
 Alpha  occ. eigenvalues --   -0.42172  -0.41116  -0.40738  -0.39558  -0.37154
 Alpha  occ. eigenvalues --   -0.35285  -0.35053  -0.34597  -0.34136  -0.32994
 Alpha  occ. eigenvalues --   -0.32509  -0.32334  -0.31597  -0.29861  -0.24815
 Alpha virt. eigenvalues --   -0.02605   0.01606   0.05308   0.05532   0.05776
 Alpha virt. eigenvalues --    0.06550   0.06818   0.07432   0.08229   0.08640
 Alpha virt. eigenvalues --    0.09392   0.09553   0.10118   0.10908   0.11474
 Alpha virt. eigenvalues --    0.11811   0.11976   0.12634   0.13128   0.13254
 Alpha virt. eigenvalues --    0.13691   0.14593   0.14729   0.14943   0.15257
 Alpha virt. eigenvalues --    0.15662   0.15979   0.16349   0.17154   0.17543
 Alpha virt. eigenvalues --    0.17974   0.18877   0.19064   0.19485   0.20018
 Alpha virt. eigenvalues --    0.20223   0.21231   0.21442   0.21557   0.21936
 Alpha virt. eigenvalues --    0.23043   0.23595   0.23805   0.23910   0.24474
 Alpha virt. eigenvalues --    0.25074   0.25156   0.25565   0.25919   0.26282
 Alpha virt. eigenvalues --    0.26924   0.27324   0.27660   0.28399   0.29153
 Alpha virt. eigenvalues --    0.29815   0.30310   0.30338   0.30759   0.30992
 Alpha virt. eigenvalues --    0.31813   0.32383   0.32855   0.33103   0.33674
 Alpha virt. eigenvalues --    0.34067   0.34265   0.34991   0.35634   0.36274
 Alpha virt. eigenvalues --    0.36450   0.37315   0.37605   0.37980   0.38290
 Alpha virt. eigenvalues --    0.39067   0.39313   0.40035   0.40384   0.40659
 Alpha virt. eigenvalues --    0.41003   0.41237   0.41858   0.42308   0.42391
 Alpha virt. eigenvalues --    0.42901   0.42985   0.43343   0.43860   0.44058
 Alpha virt. eigenvalues --    0.44434   0.44639   0.44980   0.45307   0.45752
 Alpha virt. eigenvalues --    0.45807   0.46227   0.46867   0.47347   0.47627
 Alpha virt. eigenvalues --    0.47943   0.48361   0.48814   0.49112   0.49266
 Alpha virt. eigenvalues --    0.49605   0.49678   0.50238   0.50573   0.50696
 Alpha virt. eigenvalues --    0.51036   0.51465   0.51613   0.51971   0.52197
 Alpha virt. eigenvalues --    0.52769   0.53245   0.53682   0.53822   0.54155
 Alpha virt. eigenvalues --    0.54968   0.55229   0.55694   0.56302   0.56766
 Alpha virt. eigenvalues --    0.57260   0.58303   0.58652   0.58955   0.59067
 Alpha virt. eigenvalues --    0.60040   0.60102   0.60360   0.61475   0.61601
 Alpha virt. eigenvalues --    0.61978   0.63084   0.63124   0.63503   0.64140
 Alpha virt. eigenvalues --    0.65120   0.65856   0.66251   0.66863   0.67230
 Alpha virt. eigenvalues --    0.68797   0.69040   0.69332   0.69614   0.70463
 Alpha virt. eigenvalues --    0.71176   0.72372   0.72614   0.72885   0.73330
 Alpha virt. eigenvalues --    0.74221   0.75144   0.75812   0.76210   0.77423
 Alpha virt. eigenvalues --    0.78439   0.78906   0.79223   0.80116   0.80819
 Alpha virt. eigenvalues --    0.81415   0.82026   0.82367   0.82890   0.83898
 Alpha virt. eigenvalues --    0.84419   0.85116   0.85911   0.86645   0.87442
 Alpha virt. eigenvalues --    0.88481   0.88798   0.88977   0.89867   0.90749
 Alpha virt. eigenvalues --    0.91723   0.92346   0.93036   0.93346   0.94179
 Alpha virt. eigenvalues --    0.94672   0.95212   0.95699   0.96387   0.96765
 Alpha virt. eigenvalues --    0.97120   0.98266   0.98503   0.98976   0.99425
 Alpha virt. eigenvalues --    1.00540   1.01433   1.02161   1.03173   1.03444
 Alpha virt. eigenvalues --    1.04404   1.04597   1.05130   1.05533   1.06585
 Alpha virt. eigenvalues --    1.06944   1.07861   1.08853   1.09063   1.09673
 Alpha virt. eigenvalues --    1.10091   1.10933   1.11616   1.12323   1.12806
 Alpha virt. eigenvalues --    1.14024   1.14272   1.14426   1.14974   1.15844
 Alpha virt. eigenvalues --    1.16417   1.16971   1.18068   1.18274   1.19219
 Alpha virt. eigenvalues --    1.20192   1.21148   1.22175   1.22530   1.22896
 Alpha virt. eigenvalues --    1.23971   1.25306   1.25996   1.26789   1.27322
 Alpha virt. eigenvalues --    1.27744   1.29146   1.30165   1.31741   1.32099
 Alpha virt. eigenvalues --    1.32865   1.33752   1.33877   1.34233   1.34746
 Alpha virt. eigenvalues --    1.35646   1.36214   1.37843   1.39161   1.40038
 Alpha virt. eigenvalues --    1.41163   1.41900   1.42449   1.43149   1.44169
 Alpha virt. eigenvalues --    1.45876   1.46574   1.46771   1.49364   1.49757
 Alpha virt. eigenvalues --    1.49992   1.50872   1.51601   1.53138   1.53164
 Alpha virt. eigenvalues --    1.53633   1.53931   1.54795   1.55253   1.55829
 Alpha virt. eigenvalues --    1.56311   1.56416   1.57023   1.57431   1.57620
 Alpha virt. eigenvalues --    1.58117   1.58415   1.59020   1.59876   1.60331
 Alpha virt. eigenvalues --    1.61453   1.61532   1.62104   1.62263   1.62794
 Alpha virt. eigenvalues --    1.63165   1.64230   1.64330   1.64785   1.65173
 Alpha virt. eigenvalues --    1.66330   1.66870   1.67133   1.67541   1.67997
 Alpha virt. eigenvalues --    1.68307   1.68789   1.69576   1.70163   1.71064
 Alpha virt. eigenvalues --    1.71564   1.72331   1.72681   1.73148   1.73778
 Alpha virt. eigenvalues --    1.74429   1.75479   1.76449   1.76995   1.77361
 Alpha virt. eigenvalues --    1.77877   1.78379   1.79119   1.79928   1.80602
 Alpha virt. eigenvalues --    1.81105   1.81884   1.82253   1.83160   1.83386
 Alpha virt. eigenvalues --    1.84938   1.85860   1.86809   1.87126   1.88201
 Alpha virt. eigenvalues --    1.88529   1.88637   1.88979   1.89984   1.91228
 Alpha virt. eigenvalues --    1.91942   1.92455   1.93127   1.93821   1.94723
 Alpha virt. eigenvalues --    1.95103   1.95298   1.96870   1.97630   1.97902
 Alpha virt. eigenvalues --    1.98671   1.99254   1.99696   2.00485   2.00681
 Alpha virt. eigenvalues --    2.01294   2.02122   2.02835   2.03362   2.04624
 Alpha virt. eigenvalues --    2.05260   2.05810   2.06963   2.07321   2.08249
 Alpha virt. eigenvalues --    2.09161   2.10282   2.10532   2.11041   2.11954
 Alpha virt. eigenvalues --    2.12461   2.13179   2.13776   2.14850   2.15425
 Alpha virt. eigenvalues --    2.16735   2.16898   2.18172   2.18720   2.18941
 Alpha virt. eigenvalues --    2.19789   2.20033   2.20869   2.20995   2.21312
 Alpha virt. eigenvalues --    2.22640   2.23200   2.24045   2.24810   2.25822
 Alpha virt. eigenvalues --    2.26011   2.27262   2.28042   2.28965   2.29553
 Alpha virt. eigenvalues --    2.29697   2.30368   2.31077   2.31859   2.32089
 Alpha virt. eigenvalues --    2.32676   2.33404   2.33998   2.34618   2.35010
 Alpha virt. eigenvalues --    2.35690   2.36117   2.36843   2.37457   2.38136
 Alpha virt. eigenvalues --    2.39186   2.39450   2.40377   2.41224   2.42632
 Alpha virt. eigenvalues --    2.43149   2.44130   2.45657   2.45870   2.47123
 Alpha virt. eigenvalues --    2.47561   2.47984   2.48892   2.49308   2.50526
 Alpha virt. eigenvalues --    2.50619   2.51201   2.52422   2.52700   2.53847
 Alpha virt. eigenvalues --    2.54959   2.56029   2.56285   2.56946   2.57584
 Alpha virt. eigenvalues --    2.58010   2.58421   2.59104   2.59495   2.60497
 Alpha virt. eigenvalues --    2.60561   2.61045   2.61986   2.62823   2.63019
 Alpha virt. eigenvalues --    2.63274   2.64302   2.65126   2.65874   2.66503
 Alpha virt. eigenvalues --    2.67149   2.68069   2.68429   2.68682   2.69608
 Alpha virt. eigenvalues --    2.69736   2.71044   2.71591   2.71827   2.73204
 Alpha virt. eigenvalues --    2.74280   2.74608   2.75353   2.76244   2.77076
 Alpha virt. eigenvalues --    2.77738   2.78901   2.79858   2.80510   2.80925
 Alpha virt. eigenvalues --    2.81415   2.81558   2.83193   2.83910   2.84680
 Alpha virt. eigenvalues --    2.85062   2.86006   2.87713   2.87900   2.88769
 Alpha virt. eigenvalues --    2.89831   2.91065   2.91262   2.92274   2.92862
 Alpha virt. eigenvalues --    2.93885   2.94124   2.94914   2.96631   2.97651
 Alpha virt. eigenvalues --    2.97879   2.98413   2.99266   2.99664   3.00508
 Alpha virt. eigenvalues --    3.01104   3.01995   3.02487   3.03083   3.03431
 Alpha virt. eigenvalues --    3.03844   3.05180   3.05441   3.05686   3.06968
 Alpha virt. eigenvalues --    3.07340   3.07767   3.08099   3.09395   3.09802
 Alpha virt. eigenvalues --    3.10228   3.10266   3.10689   3.12305   3.12508
 Alpha virt. eigenvalues --    3.13053   3.13263   3.13629   3.14879   3.15721
 Alpha virt. eigenvalues --    3.16404   3.16554   3.17203   3.17989   3.19070
 Alpha virt. eigenvalues --    3.19761   3.20335   3.20928   3.21379   3.21822
 Alpha virt. eigenvalues --    3.22370   3.23044   3.23550   3.23652   3.24348
 Alpha virt. eigenvalues --    3.24708   3.25730   3.26233   3.26746   3.27696
 Alpha virt. eigenvalues --    3.27893   3.28734   3.29589   3.30165   3.30832
 Alpha virt. eigenvalues --    3.31359   3.32105   3.32289   3.32369   3.32754
 Alpha virt. eigenvalues --    3.33509   3.33869   3.34312   3.35037   3.35884
 Alpha virt. eigenvalues --    3.36620   3.37420   3.37490   3.37883   3.38533
 Alpha virt. eigenvalues --    3.39222   3.39660   3.40597   3.41052   3.41893
 Alpha virt. eigenvalues --    3.42175   3.43064   3.43344   3.44226   3.45459
 Alpha virt. eigenvalues --    3.45570   3.46155   3.46652   3.48122   3.48818
 Alpha virt. eigenvalues --    3.49319   3.49780   3.50398   3.50688   3.52309
 Alpha virt. eigenvalues --    3.52985   3.53268   3.54286   3.54777   3.55808
 Alpha virt. eigenvalues --    3.56545   3.57139   3.57369   3.58417   3.58659
 Alpha virt. eigenvalues --    3.59256   3.60992   3.61185   3.62266   3.63412
 Alpha virt. eigenvalues --    3.63980   3.64907   3.66086   3.67032   3.67881
 Alpha virt. eigenvalues --    3.68598   3.69159   3.70018   3.70768   3.72055
 Alpha virt. eigenvalues --    3.73708   3.74669   3.75094   3.75776   3.76235
 Alpha virt. eigenvalues --    3.77462   3.77809   3.78806   3.79994   3.81199
 Alpha virt. eigenvalues --    3.81375   3.82274   3.84048   3.86687   3.87180
 Alpha virt. eigenvalues --    3.88508   3.89628   3.90125   3.91926   3.92146
 Alpha virt. eigenvalues --    3.92341   3.93806   3.95866   3.97152   3.98845
 Alpha virt. eigenvalues --    3.99371   4.00157   4.00565   4.02013   4.04269
 Alpha virt. eigenvalues --    4.05519   4.06069   4.06456   4.07703   4.09511
 Alpha virt. eigenvalues --    4.10811   4.12037   4.13317   4.14204   4.14957
 Alpha virt. eigenvalues --    4.17039   4.18268   4.19649   4.20543   4.23054
 Alpha virt. eigenvalues --    4.24243   4.25920   4.26410   4.27544   4.28136
 Alpha virt. eigenvalues --    4.30896   4.31763   4.33763   4.35222   4.36848
 Alpha virt. eigenvalues --    4.37983   4.39037   4.39407   4.40045   4.42087
 Alpha virt. eigenvalues --    4.43110   4.44536   4.45371   4.47501   4.47698
 Alpha virt. eigenvalues --    4.49598   4.50836   4.51796   4.54232   4.54516
 Alpha virt. eigenvalues --    4.58728   4.62835   4.65866   4.66749   4.67451
 Alpha virt. eigenvalues --    4.68810   4.71098   4.71946   4.72751   4.73969
 Alpha virt. eigenvalues --    4.75906   4.76544   4.78577   4.78825   4.79298
 Alpha virt. eigenvalues --    4.81629   4.85990   4.87079   4.88585   4.91645
 Alpha virt. eigenvalues --    4.93481   4.93730   4.95287   4.96259   4.97649
 Alpha virt. eigenvalues --    4.98822   4.99124   5.00083   5.04311   5.05774
 Alpha virt. eigenvalues --    5.08244   5.09389   5.12862   5.16400   5.20133
 Alpha virt. eigenvalues --    5.22096   5.23192   5.24419   5.26075   5.28344
 Alpha virt. eigenvalues --    5.28735   5.30418   5.32729   5.33648   5.35019
 Alpha virt. eigenvalues --    5.37723   5.40693   5.41912   5.42680   5.44973
 Alpha virt. eigenvalues --    5.48177   5.51805   5.53720   5.55174   5.58534
 Alpha virt. eigenvalues --    5.61447   5.67749   5.72522   5.73700   5.76339
 Alpha virt. eigenvalues --    5.79269   5.80037   5.82750   5.83540   5.84811
 Alpha virt. eigenvalues --    5.85932   5.87930   5.88885   5.90296   5.94393
 Alpha virt. eigenvalues --    5.95341   5.97388   6.03936   6.17209   6.21438
 Alpha virt. eigenvalues --    6.22026   6.23036   6.29807   6.32887   6.37108
 Alpha virt. eigenvalues --    6.37620   6.47712   6.50624   6.52534   6.52708
 Alpha virt. eigenvalues --    6.59521   6.61736   6.68407   6.72034   6.73523
 Alpha virt. eigenvalues --    6.75403   6.80810   6.85024   6.87163   6.88082
 Alpha virt. eigenvalues --    6.90625   6.92395   6.99696   7.07327   7.08299
 Alpha virt. eigenvalues --    7.08545   7.11058   7.12762   7.18463   7.25283
 Alpha virt. eigenvalues --    7.30131   7.35339   9.00072   9.40249   9.53342
 Alpha virt. eigenvalues --   20.03294  22.28517  22.39611  22.44087  22.45755
 Alpha virt. eigenvalues --   22.55025  22.56953  22.62208  22.66007  22.73518
 Alpha virt. eigenvalues --   22.77375  22.92545  22.95040  23.01684  23.06251
 Alpha virt. eigenvalues --   23.20049  23.46485  32.13030  33.14589  44.14965
 Alpha virt. eigenvalues --   44.19158  44.22950  44.28991  44.51357
          Condensed to atoms (all electrons):
               1          2          3          4          5          6
     1  C    5.111830   0.416272   0.407182  -0.011546   0.000514  -0.000191
     2  H    0.416272   0.511716  -0.020836  -0.001088   0.000219  -0.000005
     3  H    0.407182  -0.020836   0.542970   0.001708  -0.000051  -0.000001
     4  C   -0.011546  -0.001088   0.001708   5.316784   0.462729   0.252902
     5  H    0.000514   0.000219  -0.000051   0.462729   0.533892  -0.036956
     6  O   -0.000191  -0.000005  -0.000001   0.252902  -0.036956   8.119884
     7  H   -0.000050  -0.000002   0.000003  -0.026911  -0.012412   0.286947
     8  C   -0.009547   0.012164  -0.007698   0.019341  -0.052188  -0.042555
     9  H    0.011089  -0.000025  -0.001016  -0.096746   0.002995   0.003478
    10  O    0.008876  -0.000408   0.000119  -0.041133   0.001444  -0.005895
    11  H   -0.000668  -0.000104   0.000312   0.013103  -0.000614  -0.000322
    12  C   -0.001579   0.000342   0.000123   0.094458  -0.060517  -0.034311
    13  H    0.000208   0.000021   0.000097  -0.094362   0.005155   0.008037
    14  C    0.189679  -0.047669  -0.038492   0.078564   0.007021   0.005747
    15  H   -0.062475  -0.005143  -0.002842  -0.008930   0.000003   0.000078
    16  O   -0.035468   0.001848   0.005208  -0.073044  -0.000982   0.006785
    17  N   -0.000254  -0.000103  -0.000029   0.015307  -0.010553  -0.000816
    18  C   -0.000545   0.000132  -0.000024  -0.005152   0.001020   0.001694
    19  H   -0.000664  -0.000137   0.000099  -0.016673  -0.003022   0.001053
    20  C    0.000036   0.000002  -0.000002   0.005501   0.004662  -0.001143
    21  H    0.000006   0.000000  -0.000000   0.000055   0.000062  -0.000009
    22  C   -0.000010   0.000000   0.000000  -0.000215  -0.000216   0.000069
    23  H   -0.000000   0.000000  -0.000000   0.000010   0.000004   0.000000
    24  H    0.000000  -0.000000   0.000000  -0.000025  -0.000064   0.000011
    25  C   -0.000063  -0.000005   0.000001  -0.004805  -0.000181  -0.000240
    26  C   -0.000330   0.000044  -0.000005   0.013534  -0.000744  -0.007020
    27  H   -0.000016   0.000001  -0.000000   0.000607  -0.000121  -0.000105
    28  C    0.000000   0.000000  -0.000000   0.000046   0.000003  -0.000024
    29  O    0.000000  -0.000000  -0.000000   0.000006   0.000000   0.000000
    30  N   -0.000000   0.000000   0.000000   0.000001   0.000000  -0.000000
    31  H   -0.000000   0.000000  -0.000000  -0.000000   0.000000  -0.000000
    32  H    0.000000   0.000000  -0.000000   0.000000  -0.000000   0.000000
    33  C    0.000002  -0.000000  -0.000000   0.000677  -0.000388  -0.018905
    34  C    0.000001  -0.000000  -0.000000  -0.000231   0.000270   0.011640
    35  C   -0.000000   0.000000   0.000000  -0.000205   0.000173   0.001193
    36  C   -0.000000   0.000000   0.000000  -0.000000   0.000001   0.000002
    37  C   -0.000000   0.000000   0.000000   0.000166  -0.000009  -0.000034
    38  O   -0.000000   0.000000  -0.000000   0.005506   0.000119  -0.041917
    39  S    0.000000  -0.000000  -0.000000  -0.000289   0.000016   0.000695
    40  H   -0.000000   0.000000  -0.000000   0.000126   0.000028  -0.000068
    41  H   -0.000007   0.000000  -0.000000  -0.000071   0.000516   0.010708
    42  H   -0.000000   0.000000  -0.000000   0.000000  -0.000000  -0.000000
    43  H    0.000000   0.000000  -0.000000   0.000000  -0.000000  -0.000000
    44  H    0.000000  -0.000000  -0.000000  -0.000000  -0.000000   0.000000
    45  H   -0.000000   0.000000   0.000000   0.000011   0.000005   0.000016
    46  H    0.000000  -0.000000  -0.000000  -0.000014   0.000000   0.000028
    47  H    0.384569  -0.023008  -0.024748   0.000665  -0.000102  -0.000002
    48  H    0.000000   0.000000  -0.000000  -0.000020   0.000006   0.000761
               7          8          9         10         11         12
     1  C   -0.000050  -0.009547   0.011089   0.008876  -0.000668  -0.001579
     2  H   -0.000002   0.012164  -0.000025  -0.000408  -0.000104   0.000342
     3  H    0.000003  -0.007698  -0.001016   0.000119   0.000312   0.000123
     4  C   -0.026911   0.019341  -0.096746  -0.041133   0.013103   0.094458
     5  H   -0.012412  -0.052188   0.002995   0.001444  -0.000614  -0.060517
     6  O    0.286947  -0.042555   0.003478  -0.005895  -0.000322  -0.034311
     7  H    0.348218   0.009967  -0.000286  -0.000443   0.000127   0.002900
     8  C    0.009967   5.320395   0.489821   0.277634  -0.039571  -0.035630
     9  H   -0.000286   0.489821   0.583160  -0.059444  -0.005199   0.012340
    10  O   -0.000443   0.277634  -0.059444   8.038458   0.292951  -0.023883
    11  H    0.000127  -0.039571  -0.005199   0.292951   0.426813  -0.002873
    12  C    0.002900  -0.035630   0.012340  -0.023883  -0.002873   5.492879
    13  H   -0.001102   0.023007   0.002760   0.017469  -0.001053   0.450111
    14  C   -0.000946   0.151111  -0.101706  -0.051895   0.000263  -0.065302
    15  H    0.000050  -0.025054   0.008925  -0.004859   0.002894  -0.003708
    16  O   -0.000144  -0.047663   0.004531   0.009036   0.000165   0.228928
    17  N    0.002907  -0.003907  -0.000808  -0.000292  -0.000002   0.169168
    18  C    0.000526  -0.003126  -0.000252  -0.000305   0.000007  -0.079569
    19  H    0.000281   0.001573   0.000056  -0.000011   0.000004   0.018020
    20  C   -0.001144  -0.000749   0.000020   0.000008  -0.000001   0.013528
    21  H   -0.000010   0.000003   0.000000   0.000000  -0.000000   0.000118
    22  C    0.000242   0.000026  -0.000002  -0.000002   0.000000  -0.008987
    23  H   -0.000001   0.000000   0.000000   0.000000  -0.000000   0.000154
    24  H    0.000061   0.000007  -0.000000   0.000000   0.000000   0.000033
    25  C    0.000487  -0.000504  -0.000002  -0.000053  -0.000001  -0.018361
    26  C    0.000640  -0.003918  -0.000075  -0.000650  -0.000052  -0.058597
    27  H    0.000077   0.000020  -0.000012  -0.000179   0.000008  -0.002532
    28  C    0.000049  -0.000010  -0.000000  -0.000000  -0.000000  -0.001948
    29  O    0.000009   0.000000   0.000000  -0.000000   0.000000   0.000302
    30  N    0.000000  -0.000000  -0.000000  -0.000000  -0.000000  -0.000009
    31  H   -0.000000  -0.000000   0.000000  -0.000000  -0.000000  -0.000005
    32  H   -0.000000  -0.000000  -0.000000   0.000000  -0.000000  -0.000008
    33  C    0.001154   0.000727   0.000019  -0.001132   0.000075  -0.000372
    34  C   -0.008537  -0.000088  -0.000024   0.000026   0.000001  -0.000078
    35  C   -0.000671  -0.000082  -0.000001   0.000000  -0.000000   0.000680
    36  C   -0.000013  -0.000000   0.000000   0.000000  -0.000000   0.000039
    37  C    0.000101   0.000002  -0.000000  -0.000000  -0.000000  -0.000784
    38  O    0.030860  -0.000445   0.000005  -0.000001  -0.000001   0.000431
    39  S    0.001101  -0.000009   0.000001   0.000011  -0.000003  -0.000573
    40  H   -0.001794  -0.000019   0.000002   0.000024  -0.000001   0.000028
    41  H   -0.009102  -0.001051   0.000006   0.003360  -0.000229   0.000049
    42  H   -0.000000   0.000000  -0.000000  -0.000000  -0.000000   0.000000
    43  H    0.000001   0.000000  -0.000000   0.000000   0.000000   0.000003
    44  H    0.000000   0.000000  -0.000000   0.000000   0.000000  -0.000000
    45  H    0.000020   0.000000   0.000000  -0.000000  -0.000000  -0.000030
    46  H   -0.000087   0.000000  -0.000000   0.000000   0.000000   0.000072
    47  H    0.000008  -0.009247   0.000723   0.000171   0.000097  -0.000829
    48  H    0.000322  -0.000031   0.000001   0.000004  -0.000003   0.000016
              13         14         15         16         17         18
     1  C    0.000208   0.189679  -0.062475  -0.035468  -0.000254  -0.000545
     2  H    0.000021  -0.047669  -0.005143   0.001848  -0.000103   0.000132
     3  H    0.000097  -0.038492  -0.002842   0.005208  -0.000029  -0.000024
     4  C   -0.094362   0.078564  -0.008930  -0.073044   0.015307  -0.005152
     5  H    0.005155   0.007021   0.000003  -0.000982  -0.010553   0.001020
     6  O    0.008037   0.005747   0.000078   0.006785  -0.000816   0.001694
     7  H   -0.001102  -0.000946   0.000050  -0.000144   0.002907   0.000526
     8  C    0.023007   0.151111  -0.025054  -0.047663  -0.003907  -0.003126
     9  H    0.002760  -0.101706   0.008925   0.004531  -0.000808  -0.000252
    10  O    0.017469  -0.051895  -0.004859   0.009036  -0.000292  -0.000305
    11  H   -0.001053   0.000263   0.002894   0.000165  -0.000002   0.000007
    12  C    0.450111  -0.065302  -0.003708   0.228928   0.169168  -0.079569
    13  H    0.520157  -0.013680   0.006305  -0.034003  -0.062617   0.011635
    14  C   -0.013680   5.256371   0.405155   0.209189   0.015152  -0.000171
    15  H    0.006305   0.405155   0.605796  -0.039075  -0.001443   0.000074
    16  O   -0.034003   0.209189  -0.039075   8.132101  -0.077757   0.003625
    17  N   -0.062617   0.015152  -0.001443  -0.077757   6.586963   0.317464
    18  C    0.011635  -0.000171   0.000074   0.003625   0.317464   5.020131
    19  H    0.001514  -0.003791   0.000301   0.017217  -0.050842   0.406691
    20  C   -0.000391   0.000373   0.000009  -0.000422  -0.089740   0.536961
    21  H    0.000008  -0.000002  -0.000000  -0.000080   0.004464  -0.031006
    22  C    0.000054  -0.000050   0.000001   0.000545  -0.000901  -0.018824
    23  H   -0.000003  -0.000000   0.000000  -0.000006  -0.001321   0.004018
    24  H   -0.000022   0.000003   0.000000   0.000032   0.008881   0.002286
    25  C    0.008464   0.000054   0.000027  -0.001524  -0.065869   0.045452
    26  C   -0.019253   0.000155  -0.000445   0.001007   0.303583  -0.151565
    27  H   -0.000692   0.000005  -0.000030   0.001171  -0.036711   0.007237
    28  C   -0.000029  -0.000001  -0.000001   0.000026   0.002848   0.000504
    29  O   -0.000024  -0.000000   0.000000  -0.000000  -0.000553   0.000203
    30  N    0.000000   0.000000  -0.000000  -0.000000  -0.000497  -0.000027
    31  H   -0.000000  -0.000000  -0.000000   0.000000   0.000028  -0.000004
    32  H    0.000001   0.000000  -0.000000   0.000000   0.000035   0.000072
    33  C   -0.000367  -0.000078   0.000000   0.000001   0.000109  -0.000005
    34  C    0.000283   0.000073  -0.000001   0.000112   0.008515  -0.001981
    35  C    0.000065   0.000004   0.000000  -0.000015  -0.006103   0.000175
    36  C    0.000003   0.000000   0.000000  -0.000000  -0.000184   0.000138
    37  C   -0.000036  -0.000001  -0.000000  -0.000001  -0.000213   0.001164
    38  O   -0.000454   0.000040  -0.000000   0.000003  -0.001010   0.001688
    39  S    0.001352  -0.000006   0.000001   0.000001  -0.000157   0.000173
    40  H    0.000032   0.000001  -0.000000   0.000000  -0.000010  -0.000005
    41  H    0.000284   0.000154  -0.000001  -0.000006  -0.000011   0.000049
    42  H    0.000000  -0.000000  -0.000000   0.000000   0.000010   0.000075
    43  H   -0.000001   0.000000  -0.000000   0.000000   0.000036  -0.000056
    44  H   -0.000000  -0.000000   0.000000   0.000000   0.000004  -0.000001
    45  H    0.000002  -0.000000   0.000000  -0.000000  -0.000324   0.000423
    46  H    0.000012   0.000000   0.000000   0.000000   0.000291  -0.000027
    47  H    0.000053  -0.015143   0.007946   0.001229  -0.000227  -0.000080
    48  H    0.000009   0.000001  -0.000000  -0.000000  -0.000005  -0.000001
              19         20         21         22         23         24
     1  C   -0.000664   0.000036   0.000006  -0.000010  -0.000000   0.000000
[...]
      7        1          -0.001221258   -0.004722461   -0.004369288
      8        6           0.014091950    0.000523676   -0.002628427
      9        1          -0.007310032    0.003401709   -0.011009390
     10        8          -0.001387328    0.006925354    0.002269172
     11        1          -0.010886207   -0.005835943   -0.001807500
     12        6           0.018588745   -0.019159861   -0.000948602
     13        1          -0.008304110   -0.006201973    0.004455837
     14        6          -0.020286995    0.001677487   -0.002640755
     15        1          -0.004476891   -0.006725998    0.010571545
     16        8           0.001488278   -0.004555093   -0.000010964
     17        7          -0.000993590    0.005945057   -0.005670162
     18        6           0.018318383    0.006676265    0.009996690
     19        1          -0.004807107    0.002656375   -0.001372809
     20        6          -0.020078836    0.005399509   -0.010470905
     21        1           0.003810144    0.003490098    0.001878987
     22        6           0.007964516    0.004048313    0.018386649
     23        1           0.002175506    0.000260593    0.007930597
     24        1           0.011889528   -0.014879849   -0.028904681
     25        6          -0.018885164   -0.004915274   -0.007340863
     26        6           0.004669489   -0.015822305    0.005426311
     27        1          -0.006384622    0.000946464    0.002530301
     28        6          -0.009917090   -0.007241523    0.003198239
     29        8           0.015828515    0.016679916    0.010491677
     30        7           0.002320621   -0.008452656   -0.004237217
     31        1          -0.001558983    0.000487193   -0.001968791
     32        1          -0.002793135   -0.000182914   -0.003304630
     33        6          -0.006401281   -0.010050329   -0.010244902
     34        6          -0.004288818   -0.042282365    0.018549376
     35        6          -0.007205695    0.008489942   -0.014224148
     36        6           0.008238295   -0.004689997    0.005000497
     37        6          -0.002350334    0.011951554    0.017605371
     38        8          -0.010638622    0.019689800   -0.012104787
     39       16           0.016877885    0.016016221    0.011219272
     40        1           0.006703122    0.002199561   -0.002501636
     41        1          -0.004270997    0.005129272    0.005210477
     42        1           0.003487365    0.004756342   -0.001450905
     43        1          -0.004572952   -0.002711525    0.002131925
     44        1           0.001405967   -0.004278310   -0.003509272
     45        1           0.006174505    0.005166538   -0.005249453
     46        1          -0.004874312   -0.004796311    0.000838411
     47        1           0.001174028   -0.001254938   -0.001033484
     48        1          -0.003813111    0.004435965   -0.005096050
 -------------------------------------------------------------------
 Cartesian Forces:  Max     0.042282365 RMS     0.009762547
 Leave Link  716 at Wed Mar  8 14:48:46 2023, MaxMem=  2684354560 cpu:               0.9 elap:               0.1
 (Enter /opt/gaussian/g16/l103.exe)

 GradGradGradGradGradGradGradGradGradGradGradGradGradGradGradGradGradGrad
 Berny optimization.
 Search for a local minimum.
 Step number   1 out of a maximum of    2
 All quantities printed in internal units (Hartrees-Bohrs-Radians)
 Second derivative matrix not updated -- first step.
 ITU=  0
     Eigenvalues ---    0.00026   0.00065   0.00085   0.00097   0.00143
     Eigenvalues ---    0.00189   0.00219   0.00270   0.00311   0.00444
     Eigenvalues ---    0.00475   0.00662   0.00742   0.00838   0.00948
     Eigenvalues ---    0.01028   0.01125   0.01266   0.01331   0.01422
     Eigenvalues ---    0.01577   0.01731   0.01893   0.02302   0.02566
     Eigenvalues ---    0.02851   0.02904   0.03161   0.03273   0.03684
     Eigenvalues ---    0.03994   0.04346   0.04470   0.04832   0.05004
     Eigenvalues ---    0.05064   0.05194   0.05402   0.05620   0.05716
     Eigenvalues ---    0.05811   0.05866   0.05906   0.06311   0.06636
     Eigenvalues ---    0.07021   0.07122   0.07437   0.07600   0.07733
     Eigenvalues ---    0.08468   0.08631   0.09083   0.09529   0.10227
     Eigenvalues ---    0.10536   0.10929   0.11685   0.11931   0.12199
     Eigenvalues ---    0.12804   0.12875   0.13004   0.13134   0.13643
     Eigenvalues ---    0.13783   0.14016   0.14596   0.15517   0.16021
     Eigenvalues ---    0.16386   0.17178   0.17543   0.18493   0.19216
     Eigenvalues ---    0.19577   0.19892   0.21048   0.21215   0.21729
     Eigenvalues ---    0.24341   0.25912   0.26293   0.26738   0.30720
     Eigenvalues ---    0.32135   0.33014   0.34186   0.34874   0.36532
     Eigenvalues ---    0.36842   0.36842   0.36842   0.36842   0.40749
     Eigenvalues ---    0.41812   0.43646   0.46488   0.52210   0.55391
     Eigenvalues ---    0.59400   0.64224   0.66208   0.68932   0.73902
     Eigenvalues ---    0.76096   0.77917   0.81394   0.83963   0.87066
     Eigenvalues ---    0.88219   0.89318   0.89757   0.90411   0.91374
     Eigenvalues ---    0.92396   0.93657   0.94884   0.97883   0.99395
     Eigenvalues ---    1.00155   1.01109   1.03933   1.05976   1.10615
     Eigenvalues ---    1.12470   1.15303   1.22458   1.24822   1.27492
     Eigenvalues ---    1.30181   1.39866   1.48337   1.57606   1.66415
     Eigenvalues ---    1.79162   2.00367   2.35332
 Quadratic step=1.209D+01 exceeds max=3.000D-01 adjusted using Lamda=-9.905D-02.
 Angle between NR and scaled steps=  78.14 degrees.
 Angle between quadratic step and forces=  44.21 degrees.
 Linear search not attempted -- first point.
 Variable       Old X    -DE/DX   Delta X   Delta X   Delta X     New X
                                 (Linear)    (Quad)   (Total)
    X1        6.53465   0.00393   0.00000  -0.01115  -0.01115   6.52350
    Y1       -6.72866   0.02764   0.00000   0.05818   0.05818  -6.67048
    Z1       -1.57447   0.00227   0.00000   0.01549   0.01549  -1.55898
    X2        6.46665   0.00082   0.00000   0.00060   0.00060   6.46726
    Y2       -6.87875  -0.00342   0.00000   0.00389   0.00389  -6.87486
    Z2       -3.64317   0.00669   0.00000   0.03005   0.03005  -3.61312
    X3        8.34766  -0.00709   0.00000  -0.03459  -0.03459   8.31307
    Y3       -7.43929  -0.00329   0.00000   0.00603   0.00603  -7.43326
    Z3       -0.84903  -0.00336   0.00000  -0.00298  -0.00298  -0.85201
    X4        3.05037  -0.00231   0.00000   0.02826   0.02826   3.07862
    Y4       -2.28374   0.01697   0.00000   0.02504   0.02504  -2.25871
    Z4        1.85532   0.01424   0.00000   0.00632   0.00632   1.86164
    X5        1.67312   0.01100   0.00000   0.06343   0.06343   1.73655
    Y5       -3.86840   0.00360   0.00000   0.01378   0.01378  -3.85462
    Z5        1.89105  -0.01017   0.00000  -0.05194  -0.05194   1.83911
    X6        2.48763   0.01616   0.00000   0.05114   0.05114   2.53877
    Y6       -0.69301  -0.00968   0.00000  -0.00958  -0.00958  -0.70259
    Z6        3.92286  -0.00527   0.00000   0.00149   0.00149   3.92436
    X7        0.78688  -0.00122   0.00000   0.02900   0.02900   0.81588
    Y7        0.02002  -0.00472   0.00000  -0.04471  -0.04471  -0.02470
    Z7        3.86720  -0.00437   0.00000  -0.01864  -0.01864   3.84856
    X8        5.83298   0.01409   0.00000   0.00911   0.00911   5.84209
    Y8       -3.23470   0.00052   0.00000   0.02439   0.02439  -3.21031
    Z8        1.94548  -0.00263   0.00000  -0.01231  -0.01231   1.93317
    X9        6.17203  -0.00731   0.00000  -0.03705  -0.03705   6.13499
    Y9       -4.81504   0.00340   0.00000   0.00668   0.00668  -4.80836
    Z9        3.28247  -0.01101   0.00000  -0.05224  -0.05224   3.23023
   X10        7.35069  -0.00139   0.00000  -0.02056  -0.02056   7.33013
   Y10       -1.16135   0.00693   0.00000   0.03018   0.03018  -1.13117
   Z10        2.73043   0.00227   0.00000   0.00666   0.00666   2.73709
   X11        9.14685  -0.01089   0.00000  -0.04380  -0.04380   9.10304
   Y11       -1.49229  -0.00584   0.00000  -0.02952  -0.02952  -1.52181
   Z11        2.59576  -0.00181   0.00000  -0.00633  -0.00633   2.58943
   X12        3.08034   0.01859   0.00000   0.02364   0.02364   3.10398
   Y12       -0.85650  -0.01916   0.00000  -0.03570  -0.03570  -0.89219
   Z12       -0.70110  -0.00095   0.00000  -0.00926  -0.00926  -0.71036
   X13        4.24441  -0.00830   0.00000  -0.02332  -0.02332   4.22108
   Y13        0.87554  -0.00620   0.00000  -0.02787  -0.02787   0.84767
   Z13       -0.54290   0.00446   0.00000   0.02163   0.02163  -0.52128
   X14        6.42632  -0.02029   0.00000  -0.04675  -0.04675   6.37957
   Y14       -3.87243   0.00168   0.00000   0.01551   0.01551  -3.85692
   Z14       -0.89929  -0.00264   0.00000   0.00357   0.00357  -0.89572
   X15        8.16838  -0.00448   0.00000  -0.02346  -0.02346   8.14492
   Y15       -2.90960  -0.00673   0.00000  -0.02333  -0.02333  -2.93293
   Z15       -1.56003   0.01057   0.00000   0.05984   0.05984  -1.50019
   X16        4.38685   0.00149   0.00000  -0.01071  -0.01071   4.37614
   Y16       -2.65106  -0.00456   0.00000  -0.02165  -0.02165  -2.67271
   Z16       -2.28615  -0.00001   0.00000  -0.02184  -0.02184  -2.30799
   X17        0.69851  -0.00099   0.00000   0.01639   0.01639   0.71491
   Y17       -0.21552   0.00595   0.00000  -0.00772  -0.00772  -0.22324
   Z17       -1.77168  -0.00567   0.00000  -0.00448  -0.00448  -1.77616
   X18       -1.03779   0.01832   0.00000   0.00862   0.00862  -1.02917
   Y18       -2.14724   0.00668   0.00000   0.01596   0.01596  -2.13129
   Z18       -2.37848   0.01000   0.00000   0.00981   0.00981  -2.36868
   X19       -0.27878  -0.00481   0.00000  -0.02142  -0.02142  -0.30020
   Y19       -4.03291   0.00266   0.00000   0.01197   0.01197  -4.02094
   Z19       -2.08708  -0.00137   0.00000   0.00272   0.00272  -2.08436
   X20       -3.28858  -0.02008   0.00000  -0.00509  -0.00509  -3.29367
   Y20       -1.61691   0.00540   0.00000   0.00976   0.00976  -1.60716
   Z20       -3.30316  -0.01047   0.00000  -0.01256  -0.01256  -3.31572
   X21       -4.54935   0.00381   0.00000   0.00551   0.00551  -4.54384
   Y21       -3.15302   0.00349   0.00000   0.01321   0.01321  -3.13981
   Z21       -3.84107   0.00188   0.00000   0.00229   0.00229  -3.83877
   X22       -4.18911   0.00796   0.00000   0.02319   0.02319  -4.16592
   Y22        1.09066   0.00405   0.00000  -0.01186  -0.01186   1.07880
   Z22       -3.70124   0.01839   0.00000  -0.00059  -0.00059  -3.70184
   X23       -5.36366   0.00218   0.00000   0.01304   0.01304  -5.35062
   Y23        1.23821   0.00026   0.00000   0.00099   0.00099   1.23920
   Z23       -5.41245   0.00793   0.00000   0.02607   0.02607  -5.38638
   X24       -5.34883   0.01189   0.00000   0.02331   0.02331  -5.32553
   Y24        1.78017  -0.01488   0.00000  -0.06150  -0.06150   1.71868
   Z24       -1.99230  -0.02890   0.00000  -0.08562  -0.08562  -2.07793
   X25       -1.86885  -0.01889   0.00000  -0.02316  -0.02316  -1.89201
   Y25        2.84489  -0.00492   0.00000  -0.01670  -0.01670   2.82819
   Z25       -3.84145  -0.00734   0.00000  -0.00197  -0.00197  -3.84342
   X26        0.33835   0.00467   0.00000  -0.01186  -0.01186   0.32649
   Y26        2.17806  -0.01582   0.00000  -0.02651  -0.02651   2.15154
   Z26       -2.82617   0.00543   0.00000   0.00197   0.00197  -2.82420
   X27        2.01618  -0.00638   0.00000  -0.04026  -0.04026   1.97591
   Y27        3.36914   0.00095   0.00000   0.00672   0.00672   3.37587
   Z27       -2.85945   0.00253   0.00000   0.02359   0.02359  -2.83585
   X28       -2.25411  -0.00992   0.00000  -0.02454  -0.02454  -2.27865
   Y28        5.43568  -0.00724   0.00000   0.00352   0.00352   5.43920
   Z28       -4.85140   0.00320   0.00000   0.03160   0.03160  -4.81980
   X29       -1.54010   0.01583   0.00000   0.06108   0.06108  -1.47902
   Y29        7.31104   0.01668   0.00000   0.00694   0.00694   7.31798
   Z29       -3.77848   0.01049   0.00000   0.00954   0.00954  -3.76894
   X30       -3.77761   0.00232   0.00000   0.00876   0.00876  -3.76885
   Y30        5.68664  -0.00845   0.00000  -0.01429  -0.01429   5.67235
   Z30       -6.93367  -0.00424   0.00000  -0.00803  -0.00803  -6.94170
   X31       -3.72922  -0.00156   0.00000  -0.00544  -0.00544  -3.73466
   Y31        7.43929   0.00049   0.00000  -0.00904  -0.00904   7.43026
   Z31       -7.67513  -0.00197   0.00000  -0.00817  -0.00817  -7.68330
   X32       -3.77959  -0.00279   0.00000  -0.01137  -0.01137  -3.79096
   Y32        4.23699  -0.00018   0.00000  -0.00815  -0.00815   4.22884
   Z32       -8.16283  -0.00330   0.00000  -0.01514  -0.01514  -8.17797
   X33        1.77187  -0.00640   0.00000  -0.01055  -0.01055   1.76132
   Y33        4.06478  -0.01005   0.00000  -0.01361  -0.01361   4.05117
   Z33        7.16843  -0.01024   0.00000  -0.02726  -0.02726   7.14118
   X34       -1.75402  -0.00429   0.00000  -0.01839  -0.01839  -1.77241
   Y34        4.01392  -0.04228   0.00000  -0.02714  -0.02714   3.98678
   Z34        3.31347   0.01855   0.00000   0.02494   0.02494   3.33841
   X35       -3.48535  -0.00721   0.00000  -0.00225  -0.00225  -3.48760
   Y35        5.18779   0.00849   0.00000   0.01370   0.01370   5.20149
   Z35        1.52993  -0.01422   0.00000  -0.00070  -0.00070   1.52923
   X36       -7.68330   0.00824   0.00000   0.01961   0.01961  -7.66369
   Y36        5.72705  -0.00469   0.00000  -0.01161  -0.01161   5.71543
   Z36       -0.62351   0.00500   0.00000   0.01210   0.01210  -0.61141
   X37       -5.78215  -0.00235   0.00000  -0.00805  -0.00805  -5.79019
   Y37        4.26799   0.01195   0.00000   0.04203   0.04203   4.31002
   Z37        0.95804   0.01761   0.00000   0.05421   0.05421   1.01225
   X38       -1.84967  -0.01064   0.00000  -0.07814  -0.07814  -1.92782
   Y38        1.77453   0.01969   0.00000  -0.01271  -0.01271   1.76182
   Z38        3.99477  -0.01210   0.00000  -0.02369  -0.02369   3.97108
   X39        0.41872   0.01688   0.00000   0.02895   0.02895   0.44767
   Y39        6.02575   0.01602   0.00000   0.01003   0.01003   6.03578
   Z39        4.65680   0.01122   0.00000   0.00624   0.00624   4.66304
   X40        0.18270   0.00670   0.00000   0.01550   0.01550   0.19819
   Y40        3.17234   0.00220   0.00000  -0.00256  -0.00256   3.16978
   Z40        8.16283  -0.00250   0.00000  -0.01175  -0.01175   8.15108
   X41        2.96888  -0.00427   0.00000  -0.00247  -0.00247   2.96641
   Y41        2.61036   0.00513   0.00000   0.00138   0.00138   2.61174
   Z41        6.29155   0.00521   0.00000   0.01013   0.01013   6.30168
   X42       -9.14685   0.00349   0.00000   0.02809   0.02809  -9.11876
   Y42        4.45383   0.00476   0.00000   0.00364   0.00364   4.45747
   Z42       -1.34740  -0.00145   0.00000  -0.00733  -0.00733  -1.35474
   X43       -6.71158  -0.00457   0.00000  -0.00193  -0.00193  -6.71351
   Y43        6.71660  -0.00271   0.00000  -0.01752  -0.01752   6.69908
   Z43       -2.16682   0.00213   0.00000   0.00805   0.00805  -2.15877
   X44       -8.60033   0.00141   0.00000   0.00139   0.00139  -8.59894
   Y44        7.15486  -0.00428   0.00000  -0.01664  -0.01664   7.13822
   Z44        0.57965  -0.00351   0.00000  -0.01707  -0.01707   0.56258
   X45       -6.47031   0.00617   0.00000   0.03024   0.03024  -6.44007
   Y45        2.57792   0.00517   0.00000   0.01870   0.01870   2.59662
   Z45        1.95251  -0.00525   0.00000   0.00243   0.00243   1.95493
   X46       -2.79843  -0.00487   0.00000  -0.00946  -0.00946  -2.80788
   Y46        6.94831  -0.00480   0.00000  -0.00777  -0.00777   6.94054
   Z46        0.68623   0.00084   0.00000  -0.01081  -0.01081   0.67542
   X47        4.94791   0.00117   0.00000   0.00257   0.00257   4.95048
   Y47       -7.72801  -0.00125   0.00000   0.01804   0.01804  -7.70997
   Z47       -0.72221  -0.00103   0.00000  -0.00268  -0.00268  -0.72489
   X48        2.88807  -0.00381   0.00000  -0.02745  -0.02745   2.86062
   Y48        5.21168   0.00444   0.00000   0.02188   0.02188   5.23356
   Z48        8.46516  -0.00510   0.00000  -0.04280  -0.04280   8.42236
         Item               Value     Threshold  Converged?
 Maximum Force            0.042282     0.000450     NO 
 RMS     Force            0.009763     0.000300     NO 
 Maximum Displacement     0.085621     0.001800     NO 
 RMS     Displacement     0.025005     0.001200     NO 
 Predicted change in Energy=-1.705813D-02
 GradGradGradGradGradGradGradGradGradGradGradGradGradGradGradGradGradGrad

 Leave Link  103 at Wed Mar  8 14:48:46 2023, MaxMem=  2684354560 cpu:               1.8 elap:               0.1
 (Enter /opt/gaussian/g16/l9999.exe)

 Test job not archived.
 1\1\GINC-JULIO-SYS\Force\RM062X\def2TZVP\C16H24N2O5S1\JVELAZQUEZ\08-Ma
 r-2023\0\\#P M062X/Def2TZVP scf=(direct,conver=8) EmpiricalDispersion=
 GD3 NoSymm Force pop=(NBORead) Charge Prop=(Field,Read)\\Gaussian run 
 using SANDER external interface, route from template gau_job.tpl\\0,1\
 C,3.4579879366,-3.5606537552,-0.8331742803\H,3.422006337,-3.6400782779
 ,-1.9278820496\H,4.417391747,-3.9367041831,-0.4492876295\C,1.614184440
 7,-1.208504916,0.9817934945\H,0.8853757783,-2.0470695182,1.0006991973\
 O,1.3163962951,-0.3667254526,2.0758905693\H,0.4164003109,0.010592496,2
 .0464329911\C,3.0866784543,-1.7117275352,1.029502565\H,3.2660994853,-2
 .5480105248,1.7370073182\O,3.8898193812,-0.6145613449,1.4448805383\H,4
 .8403035326,-0.7896849902,1.3736172721\C,1.6300449504,-0.4532392415,-0
 .3710045884\H,2.2460435872,0.4633153344,-0.2872918885\C,3.4006622473,-
 2.0492016905,-0.4758844436\H,4.3225179268,-1.5396924623,-0.8255309557\
 O,2.3214221639,-1.4028814217,-1.209778362\N,0.3696381314,-0.1140484785
 ,-0.9375341234\C,-0.5491748945,-1.136271928,-1.2586392385\H,-0.1475254
 389,-2.1341255885,-1.1044344779\C,-1.740243127,-0.8556335172,-1.747957
 6109\H,-2.4074134396,-1.6685060569,-2.0326054377\C,-2.216783386,0.5771
 498472,-1.9586133154\H,-2.8383247735,0.6552321415,-2.8641441419\H,-2.8
 304804655,0.9420267218,-1.0542821679\C,-0.9889509312,1.5054510997,-2.0
 328079724\C,0.1790468706,1.152577758,-1.4955422799\H,1.0669146182,1.78
 28736676,-1.5131542665\C,-1.1928234273,2.8764374934,-2.5672476919\O,-0
 .8149848873,3.8688361422,-1.9994871423\N,-1.9990239327,3.0092390104,-3
 .6691378118\H,-1.973418282,3.9367041831,-4.0615027353\H,-2.0000733245,
 2.2421196116,-4.3195821562\C,0.9376334137,2.1509898918,3.7933715993\C,
 -0.9281863194,2.1240756592,1.7534119087\C,-1.8443701362,2.7452606826,0
 .8096041614\C,-4.065826186,3.0306224897,-0.3299476566\C,-3.0597803152,
 2.258523586,0.5069708785\O,-0.9788055936,0.9390410315,2.1139434554\S,0
 .2215765648,3.1886921613,2.4642716147\H,0.0966783813,1.6787317188,4.31
 95821562\H,1.571064381,1.3813415521,3.3293445306\H,-4.8403035326,2.356
 8648689,-0.7130144822\H,-3.5516145424,3.5542701544,-1.1466328239\H,-4.
 5510985416,3.7861890751,0.306738247\H,-3.4239406366,1.3641785773,1.033
 2212651\H,-1.4808636028,3.6768884977,0.3631372291\H,2.6183213155,-4.08
 94851821,-0.3821783963\H,1.5283013472,2.7579026398,4.4795700463\\Versi
 on=ES64L-G16RevA.03\HF=-1507.8873118\RMSD=9.216e-09\RMSF=9.763e-03\Dip
 ole=0.0177858,-0.9044355,-0.8315012\Quadrupole=9.8404665,-9.0948506,-0
 .7456159,-7.6227412,6.7496915,-1.8404381\PG=C01 [X(C16H24N2O5S1)]\\@


 IT WAS AN ACT OF DESPARATION. FOR SIX YEARS I HAD STRUGGLED WITH THE
 BLACKBODY THEORY. I KNEW THE PROBLEM WAS FUNDAMENTAL, AND I KNEW
 THE ANSWER. I HAD TO FIND A THEORETICAL EXPLANATION AT ANY COST,
 EXCEPT FOR THE INVIOLABLITY OF THE TWO LAWS OF THERMODYNAMICS.
   -- MAX PLANCK, 1931
 Job cpu time:       0 days  6 hours 30 minutes 13.6 seconds.
 Elapsed time:       0 days  0 hours 24 minutes 32.4 seconds.
 File lengths (MBytes):  RWF=    435 Int=      0 D2E=      0 Chk=     48 Scr=      1
 Normal termination of Gaussian 16 at Wed Mar  8 14:48:46 2023.
