 Entering Gaussian System, Link 0=g16
 Initial command:
 /opt/gaussian/g16/l1.exe "/opt/gaussian/scratch16/Gau-2691704.inp" -scrdir="/opt/gaussian/scratch16/"
 Entering Link 1 = /opt/gaussian/g16/l1.exe PID=   2691706.
  
 Copyright (c) 1988,1990,1992,1993,1995,1998,2003,2009,2016,
            Gaussian, Inc.  All Rights Reserved.
  
 This is part of the Gaussian(R) 16 program.  It is based on
 the Gaussian(R) 09 system (copyright 2009, Gaussian, Inc.),
 the Gaussian(R) 03 system (copyright 2003, Gaussian, Inc.),
 the Gaussian(R) 98 system (copyright 1998, Gaussian, Inc.),
 the Gaussian(R) 94 system (copyright 1995, Gaussian, Inc.),
 the Gaussian 92(TM) system (copyright 1992, Gaussian, Inc.),
 the Gaussian 90(TM) system (copyright 1990, Gaussian, Inc.),
 the Gaussian 88(TM) system (copyright 1988, Gaussian, Inc.),
 the Gaussian 86(TM) system (copyright 1986, Carnegie Mellon
 University), and the Gaussian 82(TM) system (copyright 1983,
 Carnegie Mellon University). Gaussian is a federally registered
 trademark of Gaussian, Inc.
  
 This software contains proprietary and confidential information,
 including trade secrets, belonging to Gaussian, Inc.
  
 This software is provided under written license and may be
 used, copied, transmitted, or stored only in accord with that
 written license.
  
 The following legend is applicable only to US Government
 contracts under FAR:
  
                    RESTRICTED RIGHTS LEGEND
  
 Use, reproduction and disclosure by the US Government is
 subject to restrictions as set forth in subparagraphs (a)
 and (c) of the Commercial Computer Software - Restricted
 Rights clause in FAR 52.227-19.
  
 Gaussian, Inc.
 340 Quinnipiac St., Bldg. 40, Wallingford CT 06492
  
  
 ---------------------------------------------------------------
 Warning -- This program may not be used in any manner that
 competes with the business of Gaussian, Inc. or will provide
 assistance to any competitor of Gaussian, Inc.  The licensee
 of this program is prohibited from giving any competitor of
 Gaussian, Inc. access to this program.  By using this program,
 the user acknowledges that Gaussian, Inc. is engaged in the
 business of creating and licensing software in the field of
 computational chemistry and represents and warrants to the
 licensee that it is not a competitor of Gaussian, Inc. and that
 it will not use this program in any manner prohibited above.
 ---------------------------------------------------------------
  

 Cite this work as:
 Gaussian 16, Revision A.03,
 M. J. Frisch, G. W. Trucks, H. B. Schlegel, G. E. Scuseria, 
 M. A. Robb, J. R. Cheeseman, G. Scalmani, V. Barone, 
 G. A. Petersson, H. Nakatsuji, X. Li, M. Caricato, A. V. Marenich, 
 J. Bloino, B. G. Janesko, R. Gomperts, B. Mennucci, H. P. Hratchian, 
 J. V. Ortiz, A. F. Izmaylov, J. L. Sonnenberg, D. Williams-Young, 
 F. Ding, F. Lipparini, F. Egidi, J. Goings, B. Peng, A. Petrone, 
 T. Henderson, D. Ranasinghe, V. G. Zakrzewski, J. Gao, N. Rega, 
 G. Zheng, W. Liang, M. Hada, M. Ehara, K. Toyota, R. Fukuda, 
 J. Hasegawa, M. Ishida, T. Nakajima, Y. Honda, O. Kitao, H. Nakai, 
 T. Vreven, K. Throssell, J. A. Montgomery, Jr., J. E. Peralta, 
 F. Ogliaro, M. J. Bearpark, J. J. Heyd, E. N. Brothers, K. N. Kudin, 
 V. N. Staroverov, T. A. Keith, R. Kobayashi, J. Normand, 
 K. Raghavachari, A. P. Rendell, J. C. Burant, S. S. Iyengar, 
 J. Tomasi, M. Cossi, J. M. Millam, M. Klene, C. Adamo, R. Cammi, 
 J. W. Ochterski, R. L. Martin, K. Morokuma, O. Farkas, 
 J. B. Foresman, and D. J. Fox, Gaussian, Inc., Wallingford CT, 2016.
 
 ******************************************
 Gaussian 16:  ES64L-G16RevA.03 25-Dec-2016
                 8-Mar-2023 
 ******************************************
 %chk=11.chk
 %NProcShared=16
 Will use up to   16 processors via shared memory.
 %mem=20GB
 ----------------------------------------------------------------------
 #P M062X/Def2TZVP scf=(direct,conver=8) EmpiricalDispersion=GD3 NoSymm
  Force pop=(NBORead) Charge Prop=(Field,Read)
 ----------------------------------------------------------------------
 1/10=7,18=10,28=-2,30=1,38=1,125=101/1,3;
 2/12=2,15=1,17=6,18=5,29=2,40=1/2;
 3/5=44,7=101,11=2,25=1,30=1,71=1,74=-55,124=31/1,2,3;
 4//1;
 5/5=2,6=8,38=5/2;
 6/7=2,8=2,9=2,10=2,14=2,15=1,28=1,40=2/1,2,7;
 7/7=1,16=-2,29=1,30=1/1,2,3,16;
 1/10=7,18=10,28=-2,30=1/3;
 99/12=1/99;
 Leave Link    1 at Wed Mar  8 14:26:21 2023, MaxMem=  2684354560 cpu:               1.7 elap:               0.1
 (Enter /opt/gaussian/g16/l101.exe)
 ----------------------------------------------------------------------
 Gaussian run using SANDER external interface, route from template gau_
 job.tpl
 ----------------------------------------------------------------------
 Symbolic Z-matrix:
 Charge =  0 Multiplicity = 1
 C                     3.45953  -3.56352  -0.83021 
 H                     3.42494  -3.64456  -1.92478 
 H                     4.41854  -3.93853  -0.44421 
 C                     1.61452  -1.20754   0.97991 
 H                     0.88311  -2.04395   0.99904 
 O                     1.32006  -0.36546   2.07379 
 H                     0.41777   0.00846   2.05065 
 C                     3.0858   -1.71276   1.02903 
 H                     3.26253  -2.54748   1.73829 
 O                     3.88807  -0.6153    1.44449 
 H                     4.83873  -0.79189   1.38003 
 C                     1.63638  -0.45271  -0.37311 
 H                     2.25677   0.46117  -0.2883 
 C                     3.40143  -2.05196  -0.47545 
 H                     4.32322  -1.54219  -0.82411 
 O                     2.323    -1.40664  -1.2105 
 N                     0.37818  -0.10475  -0.9458 
 C                    -0.55906  -1.11862  -1.24167 
 H                    -0.16814  -2.12059  -1.0817 
 C                    -1.75029  -0.82439  -1.72376 
 H                    -2.43758  -1.62894  -1.97509 
 C                    -2.20853   0.60954  -1.93305 
 H                    -2.85874   0.69961  -2.81897 
 H                    -2.79663   0.98339  -1.01121 
 C                    -0.97322   1.5217   -2.03637 
 C                     0.19837   1.16282  -1.50884 
 H                     1.09697   1.78058  -1.53994 
 C                    -1.17897   2.89216  -2.57577 
 O                    -0.81033   3.88963  -2.01334 
 N                    -1.99184   3.01362  -3.67538 
 H                    -1.97031   3.93853  -4.07329 
 H                    -1.98409   2.24508  -4.32365 
 C                     0.9299    2.14237   3.79503 
 C                    -0.9246    2.1011    1.7449 
 C                    -1.84023   2.71956   0.80557 
 C                    -4.06133   3.00836  -0.32983 
 C                    -3.04948   2.22076   0.48725 
 O                    -0.97528   0.91557   2.11007 
 S                     0.22086   3.16927   2.45522 
 H                     0.08625   1.67779   4.32365 
 H                     1.56183   1.36757   3.33791 
 H                    -4.83873   2.34283  -0.71882 
 H                    -3.55076   3.53562  -1.14575 
 H                    -4.53768   3.75871   0.31983 
 H                    -3.40935   1.32025   1.00499 
 H                    -1.48506   3.6567    0.36461 
 H                     2.61941  -4.09184  -0.37947 
 H                     1.5215    2.7537    4.47648 
 
 ITRead=  0  0  0  0  0  0  0  0  0  0  0  0  0  0  0  0  0  0  0  0
 ITRead=  0  0  0  0  0  0  0  0  0  0  0  0  0  0  0  0  0  0  0  0
 ITRead=  0  0  0  0  0  0  0  0
 MicOpt= -1 -1 -1 -1 -1 -1 -1 -1 -1 -1 -1 -1 -1 -1 -1 -1 -1 -1 -1 -1
 MicOpt= -1 -1 -1 -1 -1 -1 -1 -1 -1 -1 -1 -1 -1 -1 -1 -1 -1 -1 -1 -1
 MicOpt= -1 -1 -1 -1 -1 -1 -1 -1
 NAtoms=     48 NQM=       48 NQMF=       0 NMMI=      0 NMMIF=      0
                NMic=       0 NMicF=      0.
                    Isotopes and Nuclear Properties:
 (Nuclear quadrupole moments (NQMom) in fm**2, nuclear magnetic moments (NMagM)
  in nuclear magnetons)

  Atom         1           2           3           4           5           6           7           8           9          10
 IAtWgt=          12           1           1          12           1          16           1          12           1          16
 AtmWgt=  12.0000000   1.0078250   1.0078250  12.0000000   1.0078250  15.9949146   1.0078250  12.0000000   1.0078250  15.9949146
 NucSpn=           0           1           1           0           1           0           1           0           1           0
 AtZEff=  -0.0000000  -0.0000000  -0.0000000  -0.0000000  -0.0000000  -0.0000000  -0.0000000  -0.0000000  -0.0000000  -0.0000000
 NQMom=    0.0000000   0.0000000   0.0000000   0.0000000   0.0000000   0.0000000   0.0000000   0.0000000   0.0000000   0.0000000
 NMagM=    0.0000000   2.7928460   2.7928460   0.0000000   2.7928460   0.0000000   2.7928460   0.0000000   2.7928460   0.0000000
 AtZNuc=   6.0000000   1.0000000   1.0000000   6.0000000   1.0000000   8.0000000   1.0000000   6.0000000   1.0000000   8.0000000

  Atom        11          12          13          14          15          16          17          18          19          20
 IAtWgt=           1          12           1          12           1          16          14          12           1          12
 AtmWgt=   1.0078250  12.0000000   1.0078250  12.0000000   1.0078250  15.9949146  14.0030740  12.0000000   1.0078250  12.0000000
 NucSpn=           1           0           1           0           1           0           2           0           1           0
 AtZEff=  -0.0000000  -0.0000000  -0.0000000  -0.0000000  -0.0000000  -0.0000000  -0.0000000  -0.0000000  -0.0000000  -0.0000000
 NQMom=    0.0000000   0.0000000   0.0000000   0.0000000   0.0000000   0.0000000   2.0440000   0.0000000   0.0000000   0.0000000
 NMagM=    2.7928460   0.0000000   2.7928460   0.0000000   2.7928460   0.0000000   0.4037610   0.0000000   2.7928460   0.0000000
 AtZNuc=   1.0000000   6.0000000   1.0000000   6.0000000   1.0000000   8.0000000   7.0000000   6.0000000   1.0000000   6.0000000

  Atom        21          22          23          24          25          26          27          28          29          30
 IAtWgt=           1          12           1           1          12          12           1          12          16          14
 AtmWgt=   1.0078250  12.0000000   1.0078250   1.0078250  12.0000000  12.0000000   1.0078250  12.0000000  15.9949146  14.0030740
 NucSpn=           1           0           1           1           0           0           1           0           0           2
 AtZEff=  -0.0000000  -0.0000000  -0.0000000  -0.0000000  -0.0000000  -0.0000000  -0.0000000  -0.0000000  -0.0000000  -0.0000000
 NQMom=    0.0000000   0.0000000   0.0000000   0.0000000   0.0000000   0.0000000   0.0000000   0.0000000   0.0000000   2.0440000
 NMagM=    2.7928460   0.0000000   2.7928460   2.7928460   0.0000000   0.0000000   2.7928460   0.0000000   0.0000000   0.4037610
 AtZNuc=   1.0000000   6.0000000   1.0000000   1.0000000   6.0000000   6.0000000   1.0000000   6.0000000   8.0000000   7.0000000

  Atom        31          32          33          34          35          36          37          38          39          40
 IAtWgt=           1           1          12          12          12          12          12          16          32           1
 AtmWgt=   1.0078250   1.0078250  12.0000000  12.0000000  12.0000000  12.0000000  12.0000000  15.9949146  31.9720718   1.0078250
 NucSpn=           1           1           0           0           0           0           0           0           0           1
 AtZEff=  -0.0000000  -0.0000000  -0.0000000  -0.0000000  -0.0000000  -0.0000000  -0.0000000  -0.0000000  -0.0000000  -0.0000000
 NQMom=    0.0000000   0.0000000   0.0000000   0.0000000   0.0000000   0.0000000   0.0000000   0.0000000   0.0000000   0.0000000
 NMagM=    2.7928460   2.7928460   0.0000000   0.0000000   0.0000000   0.0000000   0.0000000   0.0000000   0.0000000   2.7928460
 AtZNuc=   1.0000000   1.0000000   6.0000000   6.0000000   6.0000000   6.0000000   6.0000000   8.0000000  16.0000000   1.0000000

  Atom        41          42          43          44          45          46          47          48
 IAtWgt=           1           1           1           1           1           1           1           1
 AtmWgt=   1.0078250   1.0078250   1.0078250   1.0078250   1.0078250   1.0078250   1.0078250   1.0078250
 NucSpn=           1           1           1           1           1           1           1           1
 AtZEff=  -0.0000000  -0.0000000  -0.0000000  -0.0000000  -0.0000000  -0.0000000  -0.0000000  -0.0000000
 NQMom=    0.0000000   0.0000000   0.0000000   0.0000000   0.0000000   0.0000000   0.0000000   0.0000000
 NMagM=    2.7928460   2.7928460   2.7928460   2.7928460   2.7928460   2.7928460   2.7928460   2.7928460
 AtZNuc=   1.0000000   1.0000000   1.0000000   1.0000000   1.0000000   1.0000000   1.0000000   1.0000000
 Background charge distribution read from input stream:
 Leave Link  101 at Wed Mar  8 14:26:22 2023, MaxMem=  2684354560 cpu:               4.5 elap:               0.3
 (Enter /opt/gaussian/g16/l103.exe)

 GradGradGradGradGradGradGradGradGradGradGradGradGradGradGradGradGradGrad
 Berny optimization.
 Initialization pass.
 Trust Radius=3.00D-01 FncErr=1.00D-07 GrdErr=1.00D-07 EigMax=2.50D+02 EigMin=1.00D-04
 Number of steps in this run=      2 maximum allowed number of steps=      2.
 GradGradGradGradGradGradGradGradGradGradGradGradGradGradGradGradGradGrad

 Leave Link  103 at Wed Mar  8 14:26:22 2023, MaxMem=  2684354560 cpu:               0.7 elap:               0.0
 (Enter /opt/gaussian/g16/l202.exe)
 ---------------------------------------------------------------------------------------------------
                            Z-MATRIX (ANGSTROMS AND DEGREES)
   CD    Cent   Atom    N1       Length/X        N2       Alpha/Y        N3        Beta/Z          J
 ---------------------------------------------------------------------------------------------------
      1      1  C        0   3.459531         -3.563517         -0.830205
      2      2  H        0   3.424942         -3.644558         -1.924780
      3      3  H        0   4.418540         -3.938532         -0.444211
      4      4  C        0   1.614516         -1.207542          0.979913
      5      5  H        0   0.883115         -2.043953          0.999044
      6      6  O        0   1.320062         -0.365461          2.073785
      7      7  H        0   0.417766          0.008457          2.050647
      8      8  C        0   3.085795         -1.712762          1.029031
      9      9  H        0   3.262530         -2.547480          1.738287
     10     10  O        0   3.888069         -0.615302          1.444489
     11     11  H        0   4.838734         -0.791887          1.380033
     12     12  C        0   1.636376         -0.452710         -0.373110
     13     13  H        0   2.256769          0.461172         -0.288298
     14     14  C        0   3.401434         -2.051962         -0.475452
     15     15  H        0   4.323219         -1.542192         -0.824114
     16     16  O        0   2.323001         -1.406643         -1.210503
     17     17  N        0   0.378181         -0.104749         -0.945799
     18     18  C        0  -0.559055         -1.118616         -1.241666
     19     19  H        0  -0.168137         -2.120589         -1.081695
     20     20  C        0  -1.750287         -0.824392         -1.723755
     21     21  H        0  -2.437583         -1.628940         -1.975087
     22     22  C        0  -2.208528          0.609544         -1.933050
     23     23  H        0  -2.858743          0.699610         -2.818967
     24     24  H        0  -2.796631          0.983388         -1.011214
     25     25  C        0  -0.973220          1.521701         -2.036367
     26     26  C        0   0.198370          1.162820         -1.508837
     27     27  H        0   1.096970          1.780581         -1.539936
     28     28  C        0  -1.178967          2.892158         -2.575774
     29     29  O        0  -0.810328          3.889632         -2.013337
     30     30  N        0  -1.991837          3.013623         -3.675379
     31     31  H        0  -1.970309          3.938532         -4.073292
     32     32  H        0  -1.984088          2.245076         -4.323651
     33     33  C        0   0.929898          2.142365          3.795027
     34     34  C        0  -0.924598          2.101104          1.744898
     35     35  C        0  -1.840228          2.719565          0.805570
     36     36  C        0  -4.061332          3.008356         -0.329831
     37     37  C        0  -3.049479          2.220761          0.487247
     38     38  O        0  -0.975277          0.915567          2.110070
     39     39  S        0   0.220864          3.169269          2.455222
     40     40  H        0   0.086249          1.677789          4.323651
     41     41  H        0   1.561833          1.367569          3.337905
     42     42  H        0  -4.838734          2.342829         -0.718819
     43     43  H        0  -3.550760          3.535623         -1.145754
     44     44  H        0  -4.537683          3.758714          0.319826
     45     45  H        0  -3.409349          1.320255          1.004993
     46     46  H        0  -1.485064          3.656699          0.364612
     47     47  H        0   2.619410         -4.091845         -0.379466
     48     48  H        0   1.521498          2.753700          4.476480
 ---------------------------------------------------------------------------------------------------
                         Z-Matrix orientation:                         
 ---------------------------------------------------------------------
 Center     Atomic      Atomic             Coordinates (Angstroms)
 Number     Number       Type             X           Y           Z
 ---------------------------------------------------------------------
      1          6           0        3.459531   -3.563517   -0.830205
      2          1           0        3.424942   -3.644558   -1.924780
      3          1           0        4.418540   -3.938532   -0.444211
      4          6           0        1.614516   -1.207542    0.979913
      5          1           0        0.883115   -2.043953    0.999044
      6          8           0        1.320062   -0.365461    2.073785
      7          1           0        0.417766    0.008457    2.050647
      8          6           0        3.085795   -1.712762    1.029031
      9          1           0        3.262530   -2.547480    1.738287
     10          8           0        3.888069   -0.615302    1.444489
     11          1           0        4.838734   -0.791887    1.380033
     12          6           0        1.636376   -0.452710   -0.373110
     13          1           0        2.256769    0.461172   -0.288298
     14          6           0        3.401434   -2.051962   -0.475452
     15          1           0        4.323219   -1.542192   -0.824114
     16          8           0        2.323001   -1.406643   -1.210503
     17          7           0        0.378181   -0.104749   -0.945799
     18          6           0       -0.559055   -1.118616   -1.241666
     19          1           0       -0.168137   -2.120589   -1.081695
     20          6           0       -1.750287   -0.824392   -1.723755
     21          1           0       -2.437583   -1.628940   -1.975087
     22          6           0       -2.208528    0.609544   -1.933050
     23          1           0       -2.858743    0.699610   -2.818967
     24          1           0       -2.796631    0.983388   -1.011214
     25          6           0       -0.973220    1.521701   -2.036367
     26          6           0        0.198370    1.162820   -1.508837
     27          1           0        1.096970    1.780581   -1.539936
     28          6           0       -1.178967    2.892158   -2.575774
     29          8           0       -0.810328    3.889632   -2.013337
     30          7           0       -1.991837    3.013623   -3.675379
     31          1           0       -1.970309    3.938532   -4.073292
     32          1           0       -1.984088    2.245076   -4.323651
     33          6           0        0.929898    2.142365    3.795027
     34          6           0       -0.924598    2.101104    1.744898
     35          6           0       -1.840228    2.719565    0.805570
     36          6           0       -4.061332    3.008356   -0.329831
     37          6           0       -3.049479    2.220761    0.487247
     38          8           0       -0.975277    0.915567    2.110070
     39         16           0        0.220864    3.169269    2.455222
     40          1           0        0.086249    1.677789    4.323651
     41          1           0        1.561833    1.367569    3.337905
     42          1           0       -4.838734    2.342829   -0.718819
     43          1           0       -3.550760    3.535623   -1.145754
     44          1           0       -4.537683    3.758714    0.319826
     45          1           0       -3.409349    1.320255    1.004993
     46          1           0       -1.485064    3.656699    0.364612
     47          1           0        2.619410   -4.091845   -0.379466
     48          1           0        1.521498    2.753700    4.476480
 ---------------------------------------------------------------------
                    Distance matrix (angstroms):
                    1          2          3          4          5
     1  C    0.000000
     2  H    1.098116   0.000000
     3  H    1.099693   1.807136   0.000000
     4  C    3.497317   4.201658   4.165212   0.000000
     5  H    3.506159   4.191846   4.262822   1.111259   0.000000
     6  O    4.820586   5.583146   5.357958   1.411510   2.040423
     7  H    5.505510   6.179939   6.148921   2.014283   2.352617
     8  C    2.649855   3.545681   2.983404   1.556382   2.227642
     9  H    2.769168   3.827273   2.834552   2.255331   2.541975
    10  O    3.748313   4.554432   3.859073   2.394917   3.356966
    11  H    3.803852   4.588936   3.661394   3.275432   4.166503
    12  C    3.634550   3.974235   4.460544   1.549490   2.232099
    13  H    4.235377   4.571621   4.904585   2.192134   3.133660
    14  C    1.553713   2.153477   2.143508   2.454426   2.918242
    15  H    2.198125   2.537383   2.428139   3.271632   3.925556
    16  O    2.467475   2.594750   3.374752   2.310739   2.713216
    17  N    4.633698   4.771939   5.592315   2.540284   2.792469
    18  C    4.721851   4.766473   5.776185   3.109297   2.820795
    19  H    3.912194   3.992930   4.974827   2.874323   2.332484
    20  C    5.953439   5.897181   7.027768   4.333419   3.979418
    21  H    6.311046   6.199553   7.394878   5.032803   4.477134
    22  C    7.124437   7.059280   8.174330   5.138367   5.019609
    23  H    7.877183   7.691298   8.950456   6.170799   6.008814
    24  H    7.736063   7.807718   8.752456   5.312530   5.171698
    25  C    6.852996   6.785758   7.837103   4.821109   5.037220
    26  C    5.782212   5.804710   6.705747   3.717251   4.128163
    27  H    5.885984   5.916054   6.703857   3.942889   4.595565
    28  C    8.138699   8.021747   9.084821   6.103605   6.434027
    29  O    8.670694   8.643459   9.543761   6.389100   6.866559
    30  N    9.003955   8.759993   9.993290   7.245396   7.462885
    31  H    9.812314   9.551339  10.771989   8.054062   8.346301
    32  H    8.693498   8.348651   9.709825   7.279994   7.412672
    33  C    7.768456   8.510577   8.192623   4.428933   5.034379
    34  C    7.611811   8.086882   8.355748   4.240217   4.583189
    35  C    8.380950   8.699361   9.223035   5.233337   5.490458
    36  C   10.000164  10.141471  10.962690   7.190582   7.193003
    37  C    8.806859   9.063000   9.725010   5.809374   5.823660
    38  O    6.955209   7.512435   7.692847   3.534384   3.666982
    39  S    8.161704   8.710843   8.749174   4.824446   5.453138
    40  H    8.087803   8.860990   8.546597   4.673470   5.053649
    41  H    6.729785   7.502563   7.114765   3.492005   4.191588
    42  H   10.186194  10.275772  11.190533   7.558787   7.411779
    43  H    9.982061  10.041031  10.948283   7.327765   7.442518
    44  H   10.903810  11.101806  11.834073   7.934038   7.969776
    45  H    8.625584   8.940944   9.541010   5.624020   5.453730
    46  H    8.832221   9.091635   9.653718   5.800589   6.205498
    47  H    1.090000   1.799151   1.806811   3.343191   3.018091
    48  H    8.474911   9.248619   8.797274   5.284513   5.959662
                    6          7          8          9         10
     6  O    0.000000
     7  H    0.976979   0.000000
     8  C    2.454495   3.335367   0.000000
     9  H    2.940570   3.837065   1.109519   0.000000
    10  O    2.655767   3.577640   1.421502   2.052055   0.000000
    11  H    3.611674   4.542602   2.010972   2.386394   0.969072
    12  C    2.468798   2.751778   2.377930   3.389755   2.898315
    13  H    2.672111   3.009576   2.673692   3.764384   2.611990
    14  C    3.697974   4.419138   1.574216   2.272768   2.446831
    15  H    4.336066   5.091299   2.234829   2.949842   2.488984
    16  O    3.588384   4.033303   2.385598   3.298422   3.181924
    17  N    3.173799   2.998845   3.717100   4.635808   4.277085
    18  C    3.884654   3.614387   4.335206   5.052354   5.219739
    19  H    3.905415   3.832452   3.899944   4.461391   5.010021
    20  C    4.904994   4.431727   5.635133   6.331121   6.470900
    21  H    5.666537   5.200060   6.288041   6.864703   7.261876
    22  C    5.427367   4.809217   6.495913   7.306024   7.076476
    23  H    6.521948   5.909851   7.480920   8.293500   8.088605
    24  H    5.318249   4.545089   6.784893   7.532610   7.298734
    25  C    5.070885   4.574761   6.027771   6.981964   6.349431
    26  C    4.053272   3.748415   4.800726   5.805102   5.049528
    27  H    4.208829   4.061284   4.770584   5.845384   4.736802
    28  C    6.202873   5.680586   7.237963   8.241825   7.357965
    29  O    6.272874   5.752191   7.471453   8.491129   7.370613
    30  N    7.445789   6.901057   8.381679   9.372408   8.599736
    31  H    8.193744   7.658395   9.139749  10.159990   9.246832
    32  H    7.658949   7.169592   8.367760   9.340380   8.714095
    33  C    3.066609   2.803338   5.211587   5.627255   4.677663
    34  C    3.351210   2.504914   5.580439   6.256310   5.534517
    35  C    4.594908   3.741505   6.630321   7.392554   6.659050
    36  C    6.791128   5.893080   8.672768   9.422493   8.914713
    37  C    5.319637   4.400034   7.308059   8.008913   7.555736
    38  O    2.628865   1.663415   4.956719   5.485428   5.141857
    39  S    3.721296   3.192676   5.837473   6.515133   5.365907
    40  H    3.280101   2.839563   5.598896   5.884366   5.291661
    41  H    2.158667   2.193879   4.140266   4.558372   3.595577
    42  H    7.284521   6.383575   9.071988   9.776655   9.465070
    43  H    7.022022   6.197344   8.736081   9.578244   8.903691
    44  H    7.375525   6.451096   9.410497  10.130323   9.559822
    45  H    5.133350   4.178638   7.168450   7.746681   7.562530
    46  H    5.193050   4.446700   7.082748   7.932116   6.948863
    47  H    4.646793   5.250254   2.803821   2.698804   4.125853
    48  H    3.942422   3.826128   5.855017   6.215417   5.113102
                   11         12         13         14         15
    11  H    0.000000
    12  C    3.666559   0.000000
    13  H    3.319644   1.107817   0.000000
    14  C    2.663916   2.384012   2.767874   0.000000
    15  H    2.384738   2.934196   2.927590   1.109558   0.000000
    16  O    3.663020   1.443146   2.084125   1.455937   2.041701
    17  N    5.077223   1.425519   2.069218   3.626696   4.200521
    18  C    6.009675   2.453107   3.366526   4.140494   4.918371
    19  H    5.735357   2.557377   3.629756   3.621336   4.535766
    20  C    7.283526   3.664952   4.446313   5.441086   6.181591
    21  H    8.056196   4.532879   5.408397   6.043341   6.858624
    22  C    7.912296   4.283115   4.760892   6.378078   6.965876
    23  H    8.894230   5.245584   5.712232   7.228625   7.783681
    24  H    8.195638   4.703308   5.131488   6.922167   7.556840
    25  C    7.127643   3.670792   3.822734   5.860471   6.237729
    26  C    5.805121   2.442881   2.493798   4.654280   4.979991
    27  H    5.398575   2.576826   2.156982   4.596963   4.686353
    28  C    8.089087   4.895511   4.790253   7.059444   7.280510
    29  O    8.083532   5.247155   4.912961   7.443559   7.567845
    30  N    9.311058   6.007027   6.003164   8.061455   8.292472
    31  H    9.923643   6.781041   6.654802   8.813971   8.955667
    32  H    9.397131   5.999382   6.119743   7.891579   8.146919
    33  C    5.451700   4.960533   4.610916   6.475945   6.813740
    34  C    6.458988   4.191242   4.116353   6.394722   6.885711
    35  C    7.567618   4.851740   4.804401   7.203020   7.668541
    36  C    9.827343   6.666688   6.812362   9.017810   9.552618
    37  C    8.490997   5.463048   5.643925   7.797258   8.380702
    38  O    6.103367   3.854749   4.050279   5.886149   6.536366
    39  S    6.178311   4.808520   4.359542   6.779833   7.055582
    40  H    6.111490   5.385302   5.240362   6.923358   7.404031
    41  H    4.385727   4.134078   3.801821   5.442336   5.780516
    42  H   10.386772   7.061275   7.353377   9.342044   9.952179
    43  H    9.771927   6.588638   6.626830   8.944463   9.374817
    44  H   10.476126   7.505681   7.576818   9.870461  10.388637
    45  H    8.522481   5.522853   5.874991   7.742760   8.445818
    46  H    7.798168   5.212951   4.963768   7.561242   7.885283
    47  H    4.348673   3.769576   4.568345   2.186755   3.098615
    48  H    5.758753   5.814877   5.338486   7.151936   7.375678
                   16         17         18         19         20
    16  O    0.000000
    17  N    2.355275   0.000000
    18  C    2.896581   1.412046   0.000000
    19  H    2.594625   2.092974   1.087363   0.000000
    20  C    4.146579   2.377704   1.318336   2.143727   0.000000
    21  H    4.826714   3.363201   2.080194   2.488022   1.087585
    22  C    5.012169   2.859360   2.487028   3.513065   1.519856
    23  H    5.820131   3.825366   3.329022   4.267434   2.179621
    24  H    5.653548   3.356747   3.078680   4.068000   2.206948
    25  C    4.485791   2.379278   2.788253   3.850433   2.491127
    26  C    3.347416   1.398597   2.418682   3.331298   2.791499
    27  H    3.430755   2.103361   3.352123   4.126695   3.863489
    28  C    5.710292   3.750064   4.272053   5.327446   3.855527
    29  O    6.205870   4.302008   5.073575   6.115810   4.815538
    30  N    6.650729   4.774080   5.005119   6.034336   4.312487
    31  H    7.429600   5.625365   5.965273   6.993598   5.315466
    32  H    6.448082   4.744669   4.779516   5.732973   4.029362
    33  C    6.292180   5.275353   6.182172   6.569694   6.814837
    34  C    5.620105   3.715221   4.406787   5.136589   4.612141
    35  C    6.198598   3.995670   4.534777   5.457540   4.354906
    36  C    7.812011   5.457116   5.489014   6.482927   4.687634
    37  C    6.701042   4.382975   4.510298   5.441602   3.981130
    38  O    5.224701   3.494456   3.942749   4.478513   4.280924
    39  S    6.228603   4.723440   5.714999   6.375242   6.107260
    40  H    6.718902   5.570437   6.261713   6.611366   6.797418
    41  H    5.381788   4.681759   5.625989   5.890069   6.433913
    42  H    8.098812   5.767007   5.529071   6.470569   4.536485
    43  H    7.676670   5.359932   5.533664   6.590825   4.752423
    44  H    8.723062   6.379175   6.485066   7.458110   5.740267
    45  H    6.723410   4.492394   4.372612   5.167120   3.846825
    46  H    6.528382   4.397425   5.122621   6.099439   4.950939
    47  H    2.826445   4.608771   4.436904   3.485598   5.619396
    48  H    7.091731   6.235304   7.212540   7.583329   7.870848
                   21         22         23         24         25
    21  H    0.000000
    22  C    2.250566   0.000000
    23  H    2.512300   1.102606   0.000000
    24  H    2.807530   1.155598   1.830945   0.000000
    25  C    3.474861   1.539055   2.200794   2.159989   0.000000
    26  C    3.867760   2.505839   3.358116   3.041358   1.334057
    27  H    4.930239   3.528764   4.295589   4.009388   2.144562
    28  C    4.731307   2.585230   2.772735   2.950948   1.487092
    29  O    5.753613   3.566565   3.875730   3.660042   2.373639
    30  N    4.964179   2.976955   2.615267   3.444898   2.439216
    31  H    5.968044   3.964788   3.585145   4.334975   3.314260
    32  H    4.552956   2.905221   2.327565   3.636526   2.603228
    33  C    7.671825   6.708959   7.757594   6.191139   6.165407
    34  C    5.480934   4.171394   5.151112   3.514249   3.825707
    35  C    5.195997   3.476762   4.272571   2.688815   3.203621
    36  C    5.181500   3.428920   3.601712   2.482790   3.828687
    37  C    4.610608   3.026724   3.644356   1.959697   3.341881
    38  O    5.030046   4.238086   5.281049   3.614463   4.190506
    39  S    7.051085   5.631258   6.587888   5.089159   4.930993
    40  H    7.548397   6.749330   7.787606   6.103604   6.449548
    41  H    7.293989   6.524813   7.608859   6.169169   5.944161
    42  H    4.808190   3.375888   3.321319   2.470579   4.165620
    43  H    5.347866   3.314115   3.364744   2.664717   3.390102
    44  H    6.221243   4.518593   4.693504   3.536293   4.822994
    45  H    4.303830   3.252565   3.912932   2.134008   3.901945
    46  H    5.858281   3.884302   4.557032   3.280198   3.253444
    47  H    5.846801   6.915610   7.675895   7.449201   6.867620
    48  H    8.746690   7.719623   8.753819   7.203821   7.082275
                   26         27         28         29         30
    26  C    0.000000
    27  H    1.090907   0.000000
    28  C    2.454796   2.736504   0.000000
    29  O    2.950847   2.882705   1.202990   0.000000
    30  N    3.593938   3.952371   1.372823   2.219401   0.000000
    31  H    4.357083   4.525797   1.990899   2.364605   1.007102
    32  H    3.722578   4.178247   2.030273   3.069174   1.005476
    33  C    5.442942   5.349825   6.752526   6.310185   8.068618
    34  C    3.567663   3.870349   4.399850   4.163679   5.599205
    35  C    3.454825   3.874302   3.449717   3.221178   4.493146
    36  C    4.789689   5.438737   3.655926   3.765617   3.933895
    37  C    3.956276   4.636406   3.651259   3.748580   4.367458
    38  O    3.812488   4.285440   5.089748   5.086724   6.237520
    39  S    4.442984   4.319410   5.229459   4.642231   6.519551
    40  H    5.856251   5.950947   7.118816   6.771523   8.371821
    41  H    5.039033   4.917317   6.693875   6.373676   8.032697
    42  H    5.233448   6.018549   4.140525   4.505156   4.158850
    43  H    4.451742   4.983667   2.843309   2.896203   3.016907
    44  H    5.702006   6.254681   4.518450   4.399314   4.795639
    45  H    4.399973   5.195717   4.501930   4.739929   5.175202
    46  H    3.544459   3.716721   3.053537   2.482774   4.122122
    47  H    5.894778   6.176561   8.247893   8.839492   9.089242
    48  H    6.332898   6.109374   7.552879   6.988955   8.880535
                   31         32         33         34         35
    31  H    0.000000
    32  H    1.711918   0.000000
    33  C    8.576005   8.626402   0.000000
    34  C    6.190394   6.162023   2.764759   0.000000
    35  C    5.030516   5.153130   4.116262   1.450244   0.000000
    36  C    4.387608   4.565976   6.532747   3.868683   2.511144
    37  C    4.991378   4.927514   5.175229   2.472068   1.346263
    38  O    6.954305   6.646658   2.823793   1.241538   2.388361
    39  S    6.929249   7.188121   1.830939   1.719774   2.678000
    40  H    8.935829   8.909767   1.098644   2.801960   4.144093
    41  H    8.603006   8.487816   1.099369   3.042710   4.451363
    42  H    4.693253   4.599280   7.327490   4.631284   3.384780
    43  H    3.351215   3.770810   6.813867   4.160581   2.720209
    44  H    5.091486   5.511246   6.677129   4.222900   2.931219
    45  H    5.891959   5.592952   5.223909   2.707614   2.111867
    46  H    4.473240   4.921536   4.460157   2.153877   1.094900
    47  H    9.959760   8.769570   7.690658   7.444832   8.227271
    48  H    9.311023   9.486314   1.090000   3.724355   4.977745
                   36         37         38         39         40
    36  C    0.000000
    37  C    1.520450   0.000000
    38  O    4.456077   2.939286   0.000000
    39  S    5.110736   3.932904   2.574695   0.000000
    40  H    6.373989   4.984537   2.570557   2.394507   0.000000
    41  H    6.911184   5.488022   2.854613   2.413183   1.801466
    42  H    1.094802   2.161234   4.996598   6.029683   7.079848
    43  H    1.097463   2.155652   4.908991   5.227465   6.825963
    44  H    1.100910   2.146644   4.896856   5.248917   6.460775
    45  H    2.248671   1.099309   2.703641   4.324404   4.833274
    46  H    2.745862   2.127052   3.289424   2.741976   4.696712
    47  H    9.749237   8.528569   6.647837   8.155505   7.862880
    48  H    7.371125   6.090307   3.900323   2.439228   1.800246
                   41         42         43         44         45
    41  H    0.000000
    42  H    7.640380   0.000000
    43  H    7.137385   1.806629   0.000000
    44  H    7.213215   1.781613   1.780929   0.000000
    45  H    5.491573   2.461773   3.090884   2.772846   0.000000
    46  H    4.833650   3.761274   2.561828   3.054651   3.093854
    47  H    6.688985   9.856171   9.840552  10.646326   8.219093
    48  H    1.794252   8.222683   7.612406   7.416300   6.198327
                   46         47         48
    46  H    0.000000
    47  H    8.800016   0.000000
    48  H    5.173228   8.464462   0.000000
 Symmetry turned off by external request.
 Stoichiometry    C16H24N2O5S
 Framework group  C1[X(C16H24N2O5S)]
 Deg. of freedom   138
 Full point group                 C1      NOp   1
 Rotational constants (GHZ):           0.2915596           0.1680460           0.1269644
 Leave Link  202 at Wed Mar  8 14:26:22 2023, MaxMem=  2684354560 cpu:               1.0 elap:               0.1
 (Enter /opt/gaussian/g16/l301.exe)
 Standard basis: def2TZVP (5D, 7F)
 Ernie: Thresh=  0.10000D-02 Tol=  0.10000D-05 Strict=F.
   894 basis functions,  1434 primitive gaussians,  1014 cartesian basis functions
    95 alpha electrons       95 beta electrons
       nuclear repulsion energy      2435.6011924984 Hartrees.
 IExCor= 4336 DFT=T Ex+Corr=M062X ExCW=0 ScaHFX=  0.540000
 ScaDFX=  1.000000  1.000000  1.000000  1.000000 ScalE2=  1.000000  1.000000
 IRadAn=      5 IRanWt=     -1 IRanGd=            0 ICorTp=0 IEmpDi=131
 NAtoms=   48 NActive=   48 NUniq=   48 SFac= 1.00D+00 NAtFMM=   60 NAOKFM=F Big=F
 Integral buffers will be    131072 words long.
 Raffenetti 2 integral format.
 Two-electron integral symmetry is turned off.
 R6Disp:  Grimme-D3 Dispersion energy=       -0.0042110013 Hartrees.
 Nuclear repulsion after empirical dispersion term =     2435.5969814971 Hartrees.
 Leave Link  301 at Wed Mar  8 14:26:22 2023, MaxMem=  2684354560 cpu:               1.2 elap:               0.1
 (Enter /opt/gaussian/g16/l302.exe)
 NPDir=0 NMtPBC=     1 NCelOv=     1 NCel=       1 NClECP=     1 NCelD=      1
         NCelK=      1 NCelE2=     1 NClLst=     1 CellRange=     0.0.
 One-electron integrals computed using PRISM.
   1 Symmetry operations used in ECPInt.
 ECPInt:  NShTT=   65703 NPrTT=  200010 LenC2=   56115 LenP2D=  118756.
 LDataN:  DoStor=T MaxTD1= 6 Len=  172
 NBasis=   894 RedAO= T EigKep=  3.08D-05  NBF=   894
 NBsUse=   894 1.00D-06 EigRej= -1.00D+00 NBFU=   894
 Precomputing XC quadrature grid using
 IXCGrd= 4 IRadAn=           5 IRanWt=          -1 IRanGd=           0 AccXCQ= 0.00D+00.
 Generated NRdTot=       0 NPtTot=           0 NUsed=           0 NTot=          32
 NSgBfM=   998   998   998   998   998 MxSgAt=    48 MxSgA2=    48.
 Leave Link  302 at Wed Mar  8 14:26:25 2023, MaxMem=  2684354560 cpu:              41.1 elap:               2.6
 (Enter /opt/gaussian/g16/l303.exe)
 DipDrv:  MaxL=1.
 Leave Link  303 at Wed Mar  8 14:26:25 2023, MaxMem=  2684354560 cpu:               5.3 elap:               0.4
 (Enter /opt/gaussian/g16/l401.exe)
 ExpMin= 9.52D-02 ExpMax= 6.07D+04 ExpMxC= 2.07D+03 IAcc=3 IRadAn=         5 AccDes= 0.00D+00
 Harris functional with IExCor= 1009 and IRadAn=       5 diagonalized for initial guess.
 HarFok:  IExCor= 1009 AccDes= 0.00D+00 IRadAn=         5 IDoV= 1 UseB2=F ITyADJ=14
 ICtDFT=  3500011 ScaDFX=  1.000000  1.000000  1.000000  1.000000
 FoFCou: FMM=F IPFlag=           0 FMFlag=      100000 FMFlg1=           0
         NFxFlg=           0 DoJE=T BraDBF=F KetDBF=T FulRan=T
         wScrn=  0.000000 ICntrl=       500 IOpCl=  0 I1Cent=   200000004 NGrid=           0
         NMat0=    1 NMatS0=      1 NMatT0=    0 NMatD0=    1 NMtDS0=    0 NMtDT0=    0
 Symmetry not used in FoFCou.
 Harris En= -1507.20378575197    
 JPrj=0 DoOrth=F DoCkMO=F.
 Leave Link  401 at Wed Mar  8 14:26:34 2023, MaxMem=  2684354560 cpu:             140.2 elap:               8.8
 (Enter /opt/gaussian/g16/l502.exe)
 Two-electron integral symmetry not used.
 Closed shell SCF:
 Using DIIS extrapolation, IDIIS=  1040.
 NGot=  2684354560 LenX=  2682275214 LenY=  2681246004
 Requested convergence on RMS density matrix=1.00D-08 within 128 cycles.
 Requested convergence on MAX density matrix=1.00D-06.
 Requested convergence on             energy=1.00D-06.
 No special actions if energy rises.
 Fock matrices will be formed incrementally for  20 cycles.
 Integral accuracy reduced to 1.0D-05 until final iterations.

 Cycle   1  Pass 0  IDiag  1:
 FoFJK:  IHMeth= 1 ICntrl=       0 DoSepK=F KAlg= 0 I1Cent=           0 FoldK=F
 IRaf= 780000000 NMat=       1 IRICut=       1 DoRegI=T DoRafI=F ISym2E= 0 IDoP0=0 IntGTp=1.
 FoFCou: FMM=F IPFlag=           0 FMFlag=      100000 FMFlg1=           0
         NFxFlg=           0 DoJE=F BraDBF=F KetDBF=F FulRan=T
         wScrn=  0.000000 ICntrl=         0 IOpCl=  0 I1Cent=           0 NGrid=           0
         NMat0=    1 NMatS0=      1 NMatT0=    0 NMatD0=    1 NMtDS0=    0 NMtDT0=    0
 Symmetry not used in FoFCou.
 E= -1507.14307725087    
 DIIS: error= 1.41D-02 at cycle   1 NSaved=   1.
 NSaved= 1 IEnMin= 1 EnMin= -1507.14307725087     IErMin= 1 ErrMin= 1.41D-02
 ErrMax= 1.41D-02  0.00D+00 EMaxC= 1.00D-01 BMatC= 9.97D-01 BMatP= 9.97D-01
 IDIUse=3 WtCom= 8.59D-01 WtEn= 1.41D-01
 Coeff-Com:  0.100D+01
 Coeff-En:   0.100D+01
 Coeff:      0.100D+01
 Gap=     0.293 Goal=   None    Shift=    0.000
 GapD=    0.293 DampG=1.000 DampE=0.500 DampFc=0.5000 IDamp=-1.
 Damping current iteration by 5.00D-01
 RMSDP=3.74D-03 MaxDP=9.94D-01              OVMax= 2.37D-01

 Cycle   2  Pass 0  IDiag  1:
 RMSU=  1.87D-03    CP:  1.01D+00
 E= -1507.47629119378     Delta-E=       -0.333213942912 Rises=F Damp=T
 DIIS: error= 4.04D-03 at cycle   2 NSaved=   2.
 NSaved= 2 IEnMin= 2 EnMin= -1507.47629119378     IErMin= 2 ErrMin= 4.04D-03
 ErrMax= 4.04D-03  0.00D+00 EMaxC= 1.00D-01 BMatC= 8.98D-02 BMatP= 9.97D-01
 IDIUse=3 WtCom= 9.60D-01 WtEn= 4.04D-02
 Coeff-Com:  0.463D-02 0.995D+00
 Coeff-En:   0.577D-01 0.942D+00
 Coeff:      0.677D-02 0.993D+00
 Gap=     0.342 Goal=   None    Shift=    0.000
 RMSDP=1.17D-03 MaxDP=2.89D-01 DE=-3.33D-01 OVMax= 1.85D-01

 Cycle   3  Pass 0  IDiag  1:
 RMSU=  9.38D-04    CP:  9.96D-01  6.32D-01
 E= -1507.83921177670     Delta-E=       -0.362920582923 Rises=F Damp=F
 DIIS: error= 5.50D-03 at cycle   3 NSaved=   3.
 NSaved= 3 IEnMin= 3 EnMin= -1507.83921177670     IErMin= 2 ErrMin= 4.04D-03
 ErrMax= 5.50D-03  0.00D+00 EMaxC= 1.00D-01 BMatC= 5.60D-02 BMatP= 8.98D-02
 IDIUse=3 WtCom= 9.45D-01 WtEn= 5.50D-02
 Coeff-Com: -0.762D-01 0.457D+00 0.619D+00
 Coeff-En:   0.000D+00 0.000D+00 0.100D+01
 Coeff:     -0.720D-01 0.432D+00 0.640D+00
 Gap=     0.219 Goal=   None    Shift=    0.000
 RMSDP=3.45D-04 MaxDP=3.01D-02 DE=-3.63D-01 OVMax= 7.24D-02

 Cycle   4  Pass 0  IDiag  1:
 RMSU=  3.10D-04    CP:  9.98D-01  7.04D-01  9.27D-01
 E= -1507.87548232447     Delta-E=       -0.036270547765 Rises=F Damp=F
 DIIS: error= 2.16D-03 at cycle   4 NSaved=   4.
 NSaved= 4 IEnMin= 4 EnMin= -1507.87548232447     IErMin= 4 ErrMin= 2.16D-03
 ErrMax= 2.16D-03  0.00D+00 EMaxC= 1.00D-01 BMatC= 1.16D-02 BMatP= 5.60D-02
 IDIUse=3 WtCom= 9.78D-01 WtEn= 2.16D-02
 Coeff-Com: -0.352D-01 0.968D-01 0.349D+00 0.589D+00
 Coeff-En:   0.000D+00 0.000D+00 0.146D+00 0.854D+00
 Coeff:     -0.345D-01 0.947D-01 0.345D+00 0.595D+00
 Gap=     0.219 Goal=   None    Shift=    0.000
 RMSDP=1.17D-04 MaxDP=1.14D-02 DE=-3.63D-02 OVMax= 1.94D-02

 Cycle   5  Pass 0  IDiag  1:
 RMSU=  7.49D-05    CP:  9.98D-01  7.03D-01  9.58D-01  7.27D-01
 E= -1507.88408022038     Delta-E=       -0.008597895910 Rises=F Damp=F
 DIIS: error= 3.98D-04 at cycle   5 NSaved=   5.
 NSaved= 5 IEnMin= 5 EnMin= -1507.88408022038     IErMin= 5 ErrMin= 3.98D-04
 ErrMax= 3.98D-04  0.00D+00 EMaxC= 1.00D-01 BMatC= 4.90D-04 BMatP= 1.16D-02
 IDIUse=3 WtCom= 9.96D-01 WtEn= 3.98D-03
 Coeff-Com: -0.100D-01 0.163D-01 0.122D+00 0.271D+00 0.601D+00
 Coeff-En:   0.000D+00 0.000D+00 0.000D+00 0.000D+00 0.100D+01
 Coeff:     -0.996D-02 0.162D-01 0.122D+00 0.269D+00 0.602D+00
 Gap=     0.219 Goal=   None    Shift=    0.000
 RMSDP=4.40D-05 MaxDP=9.80D-03 DE=-8.60D-03 OVMax= 4.59D-03

 Cycle   6  Pass 0  IDiag  1:
 RMSU=  3.00D-05    CP:  9.97D-01  6.88D-01  9.69D-01  7.50D-01  8.78D-01
 E= -1507.88447044320     Delta-E=       -0.000390222821 Rises=F Damp=F
 DIIS: error= 1.23D-04 at cycle   6 NSaved=   6.
 NSaved= 6 IEnMin= 6 EnMin= -1507.88447044320     IErMin= 6 ErrMin= 1.23D-04
 ErrMax= 1.23D-04  0.00D+00 EMaxC= 1.00D-01 BMatC= 5.48D-05 BMatP= 4.90D-04
 IDIUse=3 WtCom= 9.99D-01 WtEn= 1.23D-03
 Coeff-Com:  0.621D-03-0.554D-02 0.930D-02 0.370D-01 0.257D+00 0.702D+00
 Coeff-En:   0.000D+00 0.000D+00 0.000D+00 0.000D+00 0.000D+00 0.100D+01
 Coeff:      0.621D-03-0.554D-02 0.928D-02 0.369D-01 0.256D+00 0.703D+00
 Gap=     0.220 Goal=   None    Shift=    0.000
 RMSDP=1.75D-05 MaxDP=1.16D-03 DE=-3.90D-04 OVMax= 2.33D-03

 Cycle   7  Pass 0  IDiag  1:
 RMSU=  1.58D-05    CP:  9.97D-01  6.87D-01  9.74D-01  7.56D-01  9.49D-01
                    CP:  1.01D+00
 E= -1507.88454169701     Delta-E=       -0.000071253813 Rises=F Damp=F
 DIIS: error= 6.17D-05 at cycle   7 NSaved=   7.
 NSaved= 7 IEnMin= 7 EnMin= -1507.88454169701     IErMin= 7 ErrMin= 6.17D-05
 ErrMax= 6.17D-05  0.00D+00 EMaxC= 1.00D-01 BMatC= 8.62D-06 BMatP= 5.48D-05
 IDIUse=1 WtCom= 1.00D+00 WtEn= 0.00D+00
 Coeff-Com:  0.187D-02-0.497D-02-0.131D-01-0.273D-01 0.559D-02 0.274D+00
 Coeff-Com:  0.764D+00
 Coeff:      0.187D-02-0.497D-02-0.131D-01-0.273D-01 0.559D-02 0.274D+00
 Coeff:      0.764D+00
 Gap=     0.220 Goal=   None    Shift=    0.000
 RMSDP=1.49D-05 MaxDP=3.49D-03 DE=-7.13D-05 OVMax= 2.07D-03

 Cycle   8  Pass 0  IDiag  1:
 RMSU=  1.03D-05    CP:  9.97D-01  6.83D-01  9.75D-01  7.64D-01  1.01D+00
                    CP:  1.17D+00  1.23D+00
 E= -1507.88455624614     Delta-E=       -0.000014549129 Rises=F Damp=F
 DIIS: error= 2.87D-05 at cycle   8 NSaved=   8.
 NSaved= 8 IEnMin= 8 EnMin= -1507.88455624614     IErMin= 8 ErrMin= 2.87D-05
 ErrMax= 2.87D-05  0.00D+00 EMaxC= 1.00D-01 BMatC= 2.12D-06 BMatP= 8.62D-06
 IDIUse=1 WtCom= 1.00D+00 WtEn= 0.00D+00
 Coeff-Com:  0.857D-03-0.151D-02-0.741D-02-0.212D-01-0.424D-01 0.303D-02
 Coeff-Com:  0.368D+00 0.700D+00
 Coeff:      0.857D-03-0.151D-02-0.741D-02-0.212D-01-0.424D-01 0.303D-02
 Coeff:      0.368D+00 0.700D+00
 Gap=     0.220 Goal=   None    Shift=    0.000
 RMSDP=1.14D-05 MaxDP=1.03D-03 DE=-1.45D-05 OVMax= 5.98D-04

 Cycle   9  Pass 0  IDiag  1:
 RMSU=  7.01D-06    CP:  9.97D-01  6.82D-01  9.76D-01  7.62D-01  1.04D+00
                    CP:  1.25D+00  1.62D+00  1.49D+00
 E= -1507.88455007004     Delta-E=        0.000006176105 Rises=F Damp=F
 DIIS: error= 1.74D-05 at cycle   9 NSaved=   9.
 NSaved= 9 IEnMin= 8 EnMin= -1507.88455624614     IErMin= 9 ErrMin= 1.74D-05
 ErrMax= 1.74D-05  0.00D+00 EMaxC= 1.00D-01 BMatC= 3.22D-07 BMatP= 2.12D-06
 IDIUse=1 WtCom= 1.00D+00 WtEn= 0.00D+00
 Coeff-Com:  0.140D-03-0.819D-04-0.108D-02-0.567D-02-0.168D-01-0.320D-01
 Coeff-Com:  0.620D-01 0.280D+00 0.713D+00
 Coeff:      0.140D-03-0.819D-04-0.108D-02-0.567D-02-0.168D-01-0.320D-01
 Coeff:      0.620D-01 0.280D+00 0.713D+00
 Gap=     0.220 Goal=   None    Shift=    0.000
 RMSDP=1.40D-05 MaxDP=1.21D-03 DE= 6.18D-06 OVMax= 2.21D-04

 Cycle  10  Pass 0  IDiag  1:
 RMSU=  5.26D-06    CP:  9.96D-01  6.81D-01  9.77D-01  7.63D-01  1.07D+00
                    CP:  1.33D+00  1.98D+00  2.32D+00  2.00D+00
 E= -1507.88453711177     Delta-E=        0.000012958263 Rises=F Damp=F
 DIIS: error= 2.83D-05 at cycle  10 NSaved=  10.
 NSaved=10 IEnMin= 8 EnMin= -1507.88455624614     IErMin= 9 ErrMin= 1.74D-05
 ErrMax= 2.83D-05  0.00D+00 EMaxC= 1.00D-01 BMatC= 2.90D-07 BMatP= 3.22D-07
 IDIUse=1 WtCom= 1.00D+00 WtEn= 0.00D+00
 Coeff-Com:  0.132D-03-0.774D-04-0.101D-02-0.538D-02-0.159D-01-0.305D-01
 Coeff-Com:  0.586D-01 0.265D+00 0.679D+00 0.503D-01
 Coeff:      0.132D-03-0.774D-04-0.101D-02-0.538D-02-0.159D-01-0.305D-01
 Coeff:      0.586D-01 0.265D+00 0.679D+00 0.503D-01
 Gap=     0.220 Goal=   None    Shift=    0.000
 RMSDP=1.34D-06 MaxDP=1.06D-04 DE= 1.30D-05 OVMax= 4.38D-06

 Initial convergence to 1.0D-05 achieved.  Increase integral accuracy.
 Cycle  11  Pass 1  IDiag  1:
 E= -1507.88444631176     Delta-E=        0.000090800009 Rises=F Damp=F
 DIIS: error= 3.14D-04 at cycle   1 NSaved=   1.
 NSaved= 1 IEnMin= 1 EnMin= -1507.88444631176     IErMin= 1 ErrMin= 3.14D-04
 ErrMax= 3.14D-04  0.00D+00 EMaxC= 1.00D-01 BMatC= 8.06D-05 BMatP= 8.06D-05
 IDIUse=3 WtCom= 9.97D-01 WtEn= 3.14D-03
 Coeff-Com:  0.100D+01
 Coeff-En:   0.100D+01
 Coeff:      0.100D+01
 Gap=     0.220 Goal=   None    Shift=    0.000
 RMSDP=1.34D-06 MaxDP=1.06D-04 DE= 9.08D-05 OVMax= 8.03D-04

 Cycle  12  Pass 1  IDiag  1:
 RMSU=  3.98D-04    CP:  9.97D-01
 E= -1507.88449800724     Delta-E=       -0.000051695478 Rises=F Damp=F
 DIIS: error= 7.80D-06 at cycle   2 NSaved=   2.
 NSaved= 2 IEnMin= 2 EnMin= -1507.88449800724     IErMin= 2 ErrMin= 7.80D-06
 ErrMax= 7.80D-06  0.00D+00 EMaxC= 1.00D-01 BMatC= 9.78D-08 BMatP= 8.06D-05
 IDIUse=1 WtCom= 1.00D+00 WtEn= 0.00D+00
 Coeff-Com: -0.161D-01 0.102D+01
 Coeff:     -0.161D-01 0.102D+01
 Gap=     0.220 Goal=   None    Shift=    0.000
 RMSDP=1.42D-05 MaxDP=9.30D-04 DE=-5.17D-05 OVMax= 9.84D-05

 Cycle  13  Pass 1  IDiag  1:
 RMSU=  4.74D-06    CP:  9.97D-01  1.03D+00
 E= -1507.88449806278     Delta-E=       -0.000000055539 Rises=F Damp=F
 DIIS: error= 3.58D-06 at cycle   3 NSaved=   3.
 NSaved= 3 IEnMin= 3 EnMin= -1507.88449806278     IErMin= 3 ErrMin= 3.58D-06
 ErrMax= 3.58D-06  0.00D+00 EMaxC= 1.00D-01 BMatC= 8.43D-08 BMatP= 9.78D-08
 IDIUse=1 WtCom= 1.00D+00 WtEn= 0.00D+00
 Coeff-Com: -0.903D-02 0.521D+00 0.488D+00
 Coeff:     -0.903D-02 0.521D+00 0.488D+00
 Gap=     0.220 Goal=   None    Shift=    0.000
 RMSDP=4.94D-07 MaxDP=7.67D-05 DE=-5.55D-08 OVMax= 5.43D-05

 Cycle  14  Pass 1  IDiag  1:
 RMSU=  4.46D-07    CP:  9.97D-01  1.03D+00  1.02D+00
 E= -1507.88449812289     Delta-E=       -0.000000060113 Rises=F Damp=F
 DIIS: error= 1.07D-06 at cycle   4 NSaved=   4.
 NSaved= 4 IEnMin= 4 EnMin= -1507.88449812289     IErMin= 4 ErrMin= 1.07D-06
 ErrMax= 1.07D-06  0.00D+00 EMaxC= 1.00D-01 BMatC= 5.16D-09 BMatP= 8.43D-08
 IDIUse=1 WtCom= 1.00D+00 WtEn= 0.00D+00
 Coeff-Com: -0.130D-02 0.634D-01 0.199D+00 0.739D+00
 Coeff:     -0.130D-02 0.634D-01 0.199D+00 0.739D+00
 Gap=     0.220 Goal=   None    Shift=    0.000
 RMSDP=2.92D-07 MaxDP=2.39D-05 DE=-6.01D-08 OVMax= 2.16D-05

 Cycle  15  Pass 1  IDiag  1:
 RMSU=  1.67D-07    CP:  9.97D-01  1.03D+00  1.05D+00  9.42D-01
 E= -1507.88449812659     Delta-E=       -0.000000003693 Rises=F Damp=F
 DIIS: error= 9.69D-07 at cycle   5 NSaved=   5.
 NSaved= 5 IEnMin= 5 EnMin= -1507.88449812659     IErMin= 5 ErrMin= 9.69D-07
 ErrMax= 9.69D-07  0.00D+00 EMaxC= 1.00D-01 BMatC= 1.17D-09 BMatP= 5.16D-09
 IDIUse=1 WtCom= 1.00D+00 WtEn= 0.00D+00
 Coeff-Com:  0.460D-03-0.329D-01 0.411D-01 0.398D+00 0.593D+00
 Coeff:      0.460D-03-0.329D-01 0.411D-01 0.398D+00 0.593D+00
 Gap=     0.220 Goal=   None    Shift=    0.000
 RMSDP=8.78D-08 MaxDP=5.44D-06 DE=-3.69D-09 OVMax= 8.52D-06

 Cycle  16  Pass 1  IDiag  1:
 RMSU=  5.57D-08    CP:  9.97D-01  1.03D+00  1.06D+00  9.78D-01  1.08D+00
 E= -1507.88449812770     Delta-E=       -0.000000001110 Rises=F Damp=F
 DIIS: error= 1.16D-07 at cycle   6 NSaved=   6.
 NSaved= 6 IEnMin= 6 EnMin= -1507.88449812770     IErMin= 6 ErrMin= 1.16D-07
 ErrMax= 1.16D-07  0.00D+00 EMaxC= 1.00D-01 BMatC= 4.48D-11 BMatP= 1.17D-09
 IDIUse=1 WtCom= 1.00D+00 WtEn= 0.00D+00
 Coeff-Com:  0.259D-03-0.165D-01 0.306D-03 0.907D-01 0.209D+00 0.716D+00
 Coeff:      0.259D-03-0.165D-01 0.306D-03 0.907D-01 0.209D+00 0.716D+00
 Gap=     0.220 Goal=   None    Shift=    0.000
 RMSDP=2.04D-08 MaxDP=1.41D-06 DE=-1.11D-09 OVMax= 2.76D-06

 Cycle  17  Pass 1  IDiag  1:
 RMSU=  1.49D-08    CP:  9.97D-01  1.03D+00  1.06D+00  9.87D-01  1.15D+00
                    CP:  1.04D+00
 E= -1507.88449812772     Delta-E=       -0.000000000028 Rises=F Damp=F
 DIIS: error= 4.90D-08 at cycle   7 NSaved=   7.
 NSaved= 7 IEnMin= 7 EnMin= -1507.88449812772     IErMin= 7 ErrMin= 4.90D-08
 ErrMax= 4.90D-08  0.00D+00 EMaxC= 1.00D-01 BMatC= 8.61D-12 BMatP= 4.48D-11
 IDIUse=1 WtCom= 1.00D+00 WtEn= 0.00D+00
 Coeff-Com:  0.831D-05 0.204D-03-0.788D-02-0.426D-01-0.381D-01 0.283D+00
 Coeff-Com:  0.806D+00
 Coeff:      0.831D-05 0.204D-03-0.788D-02-0.426D-01-0.381D-01 0.283D+00
 Coeff:      0.806D+00
 Gap=     0.220 Goal=   None    Shift=    0.000
 RMSDP=1.00D-08 MaxDP=9.41D-07 DE=-2.82D-11 OVMax= 1.76D-06

 Cycle  18  Pass 1  IDiag  1:
 RMSU=  6.44D-09    CP:  9.97D-01  1.03D+00  1.06D+00  9.87D-01  1.18D+00
                    CP:  1.13D+00  9.93D-01
 E= -1507.88449812776     Delta-E=       -0.000000000037 Rises=F Damp=F
 DIIS: error= 2.37D-08 at cycle   8 NSaved=   8.
 NSaved= 8 IEnMin= 8 EnMin= -1507.88449812776     IErMin= 8 ErrMin= 2.37D-08
 ErrMax= 2.37D-08  0.00D+00 EMaxC= 1.00D-01 BMatC= 1.17D-12 BMatP= 8.61D-12
 IDIUse=1 WtCom= 1.00D+00 WtEn= 0.00D+00
 Coeff-Com: -0.239D-04 0.185D-02-0.355D-02-0.281D-01-0.401D-01 0.483D-01
 Coeff-Com:  0.352D+00 0.670D+00
 Coeff:     -0.239D-04 0.185D-02-0.355D-02-0.281D-01-0.401D-01 0.483D-01
 Coeff:      0.352D+00 0.670D+00
 Gap=     0.220 Goal=   None    Shift=    0.000
 RMSDP=2.68D-09 MaxDP=1.56D-07 DE=-3.68D-11 OVMax= 5.81D-07

 SCF Done:  E(RM062X) =  -1507.88449813     A.U. after   18 cycles
            NFock= 18  Conv=0.27D-08     -V/T= 2.0042
 KE= 1.501591732540D+03 PE=-8.410393564558D+03 EE= 2.965320352394D+03
 Leave Link  502 at Wed Mar  8 14:45:22 2023, MaxMem=  2684354560 cpu:           18006.5 elap:            1128.4
 (Enter /opt/gaussian/g16/l601.exe)
 Copying SCF densities to generalized density rwf, IOpCl= 0 IROHF=0.

 **********************************************************************

            Population analysis using the SCF density.

 **********************************************************************

 Alpha  occ. eigenvalues --  -89.90988 -19.62686 -19.62537 -19.61476 -19.59879
 Alpha  occ. eigenvalues --  -19.59253 -14.78590 -14.76260 -10.64740 -10.64211
 Alpha  occ. eigenvalues --  -10.62450 -10.60154 -10.60057 -10.59494 -10.58614
 Alpha  occ. eigenvalues --  -10.57111 -10.56491 -10.55558 -10.55537 -10.54199
 Alpha  occ. eigenvalues --  -10.54149 -10.54070 -10.53944 -10.53353  -8.26937
 Alpha  occ. eigenvalues --   -6.18868  -6.18644  -6.18468  -1.17262  -1.17190
 Alpha  occ. eigenvalues --   -1.16156  -1.14212  -1.11854  -1.07123  -1.01273
 Alpha  occ. eigenvalues --   -0.91626  -0.90889  -0.88485  -0.87271  -0.86674
 Alpha  occ. eigenvalues --   -0.84586  -0.81411  -0.78119  -0.75266  -0.74658
 Alpha  occ. eigenvalues --   -0.72598  -0.69533  -0.67385  -0.66595  -0.65703
 Alpha  occ. eigenvalues --   -0.62570  -0.62322  -0.61071  -0.59864  -0.58135
 Alpha  occ. eigenvalues --   -0.57374  -0.55647  -0.55379  -0.54604  -0.53950
 Alpha  occ. eigenvalues --   -0.52881  -0.52588  -0.51775  -0.50603  -0.50430
 Alpha  occ. eigenvalues --   -0.49949  -0.49554  -0.48982  -0.48194  -0.48014
 Alpha  occ. eigenvalues --   -0.47806  -0.47551  -0.46885  -0.46363  -0.45794
 Alpha  occ. eigenvalues --   -0.44911  -0.44246  -0.43742  -0.43216  -0.42412
 Alpha  occ. eigenvalues --   -0.42205  -0.41111  -0.40771  -0.39562  -0.37141
 Alpha  occ. eigenvalues --   -0.35312  -0.35070  -0.34582  -0.34115  -0.33009
 Alpha  occ. eigenvalues --   -0.32496  -0.32340  -0.31558  -0.29817  -0.24768
 Alpha virt. eigenvalues --   -0.02747   0.01568   0.05320   0.05565   0.05790
 Alpha virt. eigenvalues --    0.06534   0.06787   0.07393   0.08200   0.08537
 Alpha virt. eigenvalues --    0.09405   0.09612   0.10134   0.10907   0.11462
 Alpha virt. eigenvalues --    0.11850   0.11974   0.12657   0.13152   0.13258
 Alpha virt. eigenvalues --    0.13694   0.14542   0.14743   0.14950   0.15265
 Alpha virt. eigenvalues --    0.15635   0.15971   0.16344   0.17184   0.17569
 Alpha virt. eigenvalues --    0.17983   0.18911   0.19062   0.19494   0.20078
 Alpha virt. eigenvalues --    0.20272   0.21244   0.21437   0.21603   0.22106
 Alpha virt. eigenvalues --    0.23081   0.23619   0.23801   0.23959   0.24510
 Alpha virt. eigenvalues --    0.25123   0.25150   0.25667   0.25919   0.26318
 Alpha virt. eigenvalues --    0.26918   0.27272   0.27676   0.28452   0.29140
 Alpha virt. eigenvalues --    0.29777   0.30257   0.30372   0.30729   0.30997
 Alpha virt. eigenvalues --    0.31816   0.32512   0.32846   0.33159   0.33723
 Alpha virt. eigenvalues --    0.34144   0.34275   0.35002   0.35678   0.36268
 Alpha virt. eigenvalues --    0.36473   0.37321   0.37610   0.38002   0.38242
 Alpha virt. eigenvalues --    0.39123   0.39311   0.39978   0.40359   0.40651
 Alpha virt. eigenvalues --    0.41069   0.41220   0.41898   0.42285   0.42412
 Alpha virt. eigenvalues --    0.42850   0.43030   0.43330   0.43885   0.44086
 Alpha virt. eigenvalues --    0.44446   0.44703   0.45076   0.45311   0.45740
 Alpha virt. eigenvalues --    0.45891   0.46336   0.46820   0.47332   0.47661
 Alpha virt. eigenvalues --    0.47987   0.48494   0.48810   0.49029   0.49236
 Alpha virt. eigenvalues --    0.49586   0.49684   0.50203   0.50539   0.50773
 Alpha virt. eigenvalues --    0.51051   0.51487   0.51673   0.51888   0.52195
 Alpha virt. eigenvalues --    0.52791   0.53291   0.53663   0.53778   0.54164
 Alpha virt. eigenvalues --    0.54907   0.55156   0.55740   0.56365   0.56841
 Alpha virt. eigenvalues --    0.57332   0.58251   0.58748   0.58902   0.59189
 Alpha virt. eigenvalues --    0.59943   0.60114   0.60394   0.61541   0.61679
 Alpha virt. eigenvalues --    0.62058   0.63137   0.63252   0.63714   0.64090
 Alpha virt. eigenvalues --    0.65092   0.65848   0.66359   0.66908   0.67298
 Alpha virt. eigenvalues --    0.68840   0.69052   0.69397   0.69727   0.70474
 Alpha virt. eigenvalues --    0.71221   0.72427   0.72862   0.72930   0.73469
 Alpha virt. eigenvalues --    0.74297   0.75117   0.75942   0.76558   0.77489
 Alpha virt. eigenvalues --    0.78551   0.79110   0.79119   0.80239   0.81045
 Alpha virt. eigenvalues --    0.81596   0.82118   0.82530   0.83056   0.84331
 Alpha virt. eigenvalues --    0.84469   0.85266   0.85996   0.86743   0.87609
 Alpha virt. eigenvalues --    0.88369   0.88833   0.88841   0.89987   0.90775
 Alpha virt. eigenvalues --    0.91765   0.92428   0.93129   0.93617   0.94253
 Alpha virt. eigenvalues --    0.94811   0.95356   0.95720   0.96449   0.96801
 Alpha virt. eigenvalues --    0.97221   0.98466   0.98584   0.98984   0.99466
 Alpha virt. eigenvalues --    1.00575   1.01539   1.02189   1.03233   1.03499
 Alpha virt. eigenvalues --    1.04514   1.04560   1.05345   1.05602   1.06620
 Alpha virt. eigenvalues --    1.06962   1.07932   1.08947   1.09173   1.09880
 Alpha virt. eigenvalues --    1.10232   1.10914   1.11631   1.12303   1.12866
 Alpha virt. eigenvalues --    1.14087   1.14267   1.14455   1.14957   1.15872
 Alpha virt. eigenvalues --    1.16520   1.17355   1.18026   1.18230   1.19316
 Alpha virt. eigenvalues --    1.20182   1.21094   1.22253   1.22550   1.22872
 Alpha virt. eigenvalues --    1.23931   1.25400   1.26049   1.26984   1.27281
 Alpha virt. eigenvalues --    1.27818   1.29184   1.30216   1.31735   1.31998
 Alpha virt. eigenvalues --    1.32898   1.33707   1.34049   1.34330   1.34695
 Alpha virt. eigenvalues --    1.35666   1.36358   1.37768   1.39122   1.40024
 Alpha virt. eigenvalues --    1.41212   1.41933   1.42559   1.43180   1.44305
 Alpha virt. eigenvalues --    1.45854   1.46593   1.46749   1.49363   1.49824
 Alpha virt. eigenvalues --    1.49971   1.50989   1.51636   1.52987   1.53214
 Alpha virt. eigenvalues --    1.53641   1.53937   1.54815   1.55306   1.55758
 Alpha virt. eigenvalues --    1.56376   1.56550   1.57065   1.57388   1.57550
 Alpha virt. eigenvalues --    1.58099   1.58477   1.59088   1.59912   1.60353
 Alpha virt. eigenvalues --    1.61410   1.61573   1.62151   1.62293   1.62737
 Alpha virt. eigenvalues --    1.63088   1.64307   1.64328   1.64733   1.65236
 Alpha virt. eigenvalues --    1.66294   1.66911   1.67192   1.67537   1.68225
 Alpha virt. eigenvalues --    1.68376   1.69116   1.69606   1.70265   1.71110
 Alpha virt. eigenvalues --    1.71683   1.72294   1.72743   1.73186   1.73791
 Alpha virt. eigenvalues --    1.74459   1.75497   1.76438   1.77012   1.77451
 Alpha virt. eigenvalues --    1.78042   1.78375   1.79248   1.79988   1.80701
 Alpha virt. eigenvalues --    1.81379   1.81958   1.82547   1.83428   1.83597
 Alpha virt. eigenvalues --    1.85133   1.85755   1.86891   1.87126   1.88439
 Alpha virt. eigenvalues --    1.88560   1.89028   1.89280   1.90046   1.91463
 Alpha virt. eigenvalues --    1.92011   1.92699   1.93097   1.93929   1.94927
 Alpha virt. eigenvalues --    1.95165   1.95556   1.96990   1.97769   1.97956
 Alpha virt. eigenvalues --    1.98726   1.99456   1.99854   2.00457   2.01032
 Alpha virt. eigenvalues --    2.01521   2.02247   2.02861   2.03461   2.04829
 Alpha virt. eigenvalues --    2.05393   2.06100   2.07173   2.07612   2.08523
 Alpha virt. eigenvalues --    2.09076   2.10384   2.10545   2.11202   2.12028
 Alpha virt. eigenvalues --    2.12569   2.13310   2.13939   2.15053   2.15705
 Alpha virt. eigenvalues --    2.16951   2.17176   2.18274   2.18722   2.19033
 Alpha virt. eigenvalues --    2.19844   2.20079   2.20908   2.21106   2.21484
 Alpha virt. eigenvalues --    2.22721   2.23308   2.24110   2.25043   2.25753
 Alpha virt. eigenvalues --    2.25887   2.27627   2.28126   2.29069   2.29662
 Alpha virt. eigenvalues --    2.29983   2.30556   2.31232   2.31847   2.32297
 Alpha virt. eigenvalues --    2.32889   2.33480   2.34109   2.34731   2.35089
 Alpha virt. eigenvalues --    2.35986   2.36646   2.37100   2.37500   2.38240
 Alpha virt. eigenvalues --    2.39217   2.39417   2.40461   2.41282   2.42538
 Alpha virt. eigenvalues --    2.43315   2.44174   2.45923   2.46070   2.47286
 Alpha virt. eigenvalues --    2.47554   2.48275   2.49160   2.50072   2.50554
 Alpha virt. eigenvalues --    2.51280   2.51522   2.52836   2.53411   2.54052
 Alpha virt. eigenvalues --    2.54988   2.56387   2.56488   2.56902   2.57695
 Alpha virt. eigenvalues --    2.58033   2.58587   2.59284   2.59529   2.60631
 Alpha virt. eigenvalues --    2.60745   2.61007   2.61945   2.63110   2.63490
 Alpha virt. eigenvalues --    2.63656   2.64458   2.65302   2.66025   2.66596
 Alpha virt. eigenvalues --    2.67308   2.68245   2.68461   2.68905   2.69690
 Alpha virt. eigenvalues --    2.70336   2.71137   2.71784   2.71918   2.73405
 Alpha virt. eigenvalues --    2.74448   2.74597   2.75428   2.76262   2.76813
 Alpha virt. eigenvalues --    2.77548   2.78936   2.80012   2.80759   2.80905
 Alpha virt. eigenvalues --    2.81370   2.81695   2.82943   2.83973   2.84601
 Alpha virt. eigenvalues --    2.84881   2.85996   2.87509   2.87888   2.88835
 Alpha virt. eigenvalues --    2.89989   2.90991   2.91403   2.92010   2.92854
 Alpha virt. eigenvalues --    2.93997   2.94191   2.95030   2.96548   2.97378
 Alpha virt. eigenvalues --    2.97957   2.98679   2.99229   2.99666   3.00811
 Alpha virt. eigenvalues --    3.01086   3.01976   3.02519   3.03215   3.03643
 Alpha virt. eigenvalues --    3.03982   3.05105   3.05509   3.05611   3.07019
 Alpha virt. eigenvalues --    3.07401   3.07693   3.08426   3.09603   3.09897
 Alpha virt. eigenvalues --    3.10445   3.10565   3.10833   3.12241   3.12573
 Alpha virt. eigenvalues --    3.13099   3.13657   3.13876   3.15155   3.15947
 Alpha virt. eigenvalues --    3.16442   3.16631   3.17311   3.18191   3.19132
 Alpha virt. eigenvalues --    3.20131   3.20696   3.20868   3.21488   3.21989
 Alpha virt. eigenvalues --    3.22532   3.23383   3.23692   3.23817   3.24137
 Alpha virt. eigenvalues --    3.24864   3.25915   3.26327   3.26805   3.27753
 Alpha virt. eigenvalues --    3.28028   3.28795   3.29824   3.30467   3.30751
 Alpha virt. eigenvalues --    3.31588   3.32097   3.32350   3.32635   3.33264
 Alpha virt. eigenvalues --    3.33573   3.34170   3.34510   3.35243   3.36250
 Alpha virt. eigenvalues --    3.36806   3.37519   3.37630   3.37972   3.38665
 Alpha virt. eigenvalues --    3.39265   3.39746   3.40701   3.41100   3.42010
 Alpha virt. eigenvalues --    3.42207   3.42922   3.43324   3.44441   3.45503
 Alpha virt. eigenvalues --    3.45720   3.46296   3.46862   3.48122   3.48779
 Alpha virt. eigenvalues --    3.49269   3.49592   3.50568   3.50794   3.52181
 Alpha virt. eigenvalues --    3.52968   3.53451   3.54434   3.54828   3.55865
 Alpha virt. eigenvalues --    3.56761   3.57121   3.57360   3.58758   3.58901
 Alpha virt. eigenvalues --    3.59474   3.61089   3.61277   3.62635   3.63485
 Alpha virt. eigenvalues --    3.64088   3.64813   3.66368   3.67215   3.67931
 Alpha virt. eigenvalues --    3.68666   3.69563   3.70145   3.70827   3.72265
 Alpha virt. eigenvalues --    3.73777   3.74776   3.75195   3.75883   3.76455
 Alpha virt. eigenvalues --    3.77796   3.77933   3.78917   3.79933   3.81189
 Alpha virt. eigenvalues --    3.81313   3.82759   3.84079   3.86858   3.87319
 Alpha virt. eigenvalues --    3.88830   3.89685   3.90221   3.91811   3.92447
 Alpha virt. eigenvalues --    3.92515   3.93971   3.96323   3.97052   3.98804
 Alpha virt. eigenvalues --    4.00059   4.00332   4.00670   4.02189   4.04422
 Alpha virt. eigenvalues --    4.05717   4.06065   4.06815   4.08019   4.09748
 Alpha virt. eigenvalues --    4.10890   4.12055   4.13580   4.14605   4.15117
 Alpha virt. eigenvalues --    4.17201   4.18490   4.19584   4.20531   4.23091
 Alpha virt. eigenvalues --    4.24621   4.26084   4.26648   4.27624   4.28090
 Alpha virt. eigenvalues --    4.31061   4.31990   4.34111   4.35376   4.36583
 Alpha virt. eigenvalues --    4.37919   4.38922   4.39404   4.40113   4.42013
 Alpha virt. eigenvalues --    4.43252   4.44319   4.45277   4.47304   4.47684
 Alpha virt. eigenvalues --    4.49447   4.50838   4.51970   4.54199   4.54692
 Alpha virt. eigenvalues --    4.58732   4.62969   4.66145   4.66886   4.67701
 Alpha virt. eigenvalues --    4.69117   4.71209   4.72208   4.72846   4.74244
 Alpha virt. eigenvalues --    4.76023   4.76841   4.79017   4.79367   4.79704
 Alpha virt. eigenvalues --    4.82125   4.85975   4.87111   4.88496   4.91598
 Alpha virt. eigenvalues --    4.93581   4.93738   4.95100   4.96026   4.97652
 Alpha virt. eigenvalues --    4.98769   4.99093   4.99915   5.04141   5.05508
 Alpha virt. eigenvalues --    5.08383   5.08884   5.12839   5.15790   5.20338
 Alpha virt. eigenvalues --    5.22147   5.22759   5.24649   5.25946   5.28234
 Alpha virt. eigenvalues --    5.28800   5.30321   5.32599   5.33756   5.34898
 Alpha virt. eigenvalues --    5.37880   5.40841   5.41938   5.42653   5.44830
 Alpha virt. eigenvalues --    5.48253   5.51868   5.53872   5.55280   5.58662
 Alpha virt. eigenvalues --    5.61311   5.67724   5.72616   5.73676   5.76393
 Alpha virt. eigenvalues --    5.79195   5.80111   5.82796   5.83500   5.84988
 Alpha virt. eigenvalues --    5.85865   5.87954   5.89070   5.90359   5.94391
 Alpha virt. eigenvalues --    5.95458   5.97307   6.03650   6.17316   6.21606
 Alpha virt. eigenvalues --    6.22382   6.22730   6.29961   6.33168   6.37242
 Alpha virt. eigenvalues --    6.37738   6.47623   6.50858   6.52640   6.53043
 Alpha virt. eigenvalues --    6.59344   6.62514   6.68453   6.72229   6.73377
 Alpha virt. eigenvalues --    6.75463   6.80766   6.85128   6.87168   6.88177
 Alpha virt. eigenvalues --    6.90812   6.92394   6.99725   7.07551   7.08041
 Alpha virt. eigenvalues --    7.09019   7.11050   7.12977   7.18550   7.25287
 Alpha virt. eigenvalues --    7.30432   7.35554   9.00167   9.40285   9.53582
 Alpha virt. eigenvalues --   20.04078  22.28565  22.39619  22.44347  22.46349
 Alpha virt. eigenvalues --   22.56101  22.57812  22.62433  22.66711  22.73474
 Alpha virt. eigenvalues --   22.77551  22.92094  22.94793  23.02333  23.06350
 Alpha virt. eigenvalues --   23.19187  23.46012  32.12723  33.14574  44.15165
 Alpha virt. eigenvalues --   44.19449  44.23135  44.29346  44.51562
          Condensed to atoms (all electrons):
               1          2          3          4          5          6
     1  C    5.111429   0.416242   0.407291  -0.010947   0.000555  -0.000205
     2  H    0.416242   0.511940  -0.020896  -0.001088   0.000218  -0.000005
     3  H    0.407291  -0.020896   0.543307   0.001704  -0.000050  -0.000001
     4  C   -0.010947  -0.001088   0.001704   5.322152   0.465128   0.254422
     5  H    0.000555   0.000218  -0.000050   0.465128   0.534208  -0.037337
     6  O   -0.000205  -0.000005  -0.000001   0.254422  -0.037337   8.123788
     7  H   -0.000052  -0.000002   0.000003  -0.027637  -0.012574   0.286737
     8  C   -0.009158   0.012186  -0.007808   0.019217  -0.051803  -0.042840
     9  H    0.011132  -0.000022  -0.001015  -0.096515   0.002949   0.003553
    10  O    0.008919  -0.000409   0.000118  -0.041007   0.001427  -0.006246
    11  H   -0.000675  -0.000103   0.000313   0.013212  -0.000613  -0.000322
    12  C   -0.002289   0.000347   0.000144   0.088734  -0.063208  -0.036108
    13  H    0.000213   0.000020   0.000100  -0.094029   0.005158   0.008304
    14  C    0.188682  -0.047612  -0.038578   0.078221   0.006853   0.005778
    15  H   -0.062349  -0.005179  -0.002830  -0.009067  -0.000005   0.000081
    16  O   -0.034889   0.001823   0.005194  -0.073008  -0.000927   0.006778
    17  N   -0.000294  -0.000102  -0.000028   0.014631  -0.010374  -0.000604
    18  C   -0.000556   0.000124  -0.000021  -0.005340   0.000953   0.001745
    19  H   -0.000608  -0.000126   0.000093  -0.016726  -0.003083   0.001085
    20  C    0.000041   0.000002  -0.000002   0.006168   0.004814  -0.001199
    21  H    0.000006   0.000000  -0.000000   0.000071   0.000068  -0.000010
    22  C   -0.000010   0.000000   0.000000  -0.000244  -0.000204   0.000053
    23  H   -0.000000   0.000000  -0.000000   0.000011   0.000004   0.000000
    24  H    0.000000  -0.000000   0.000000  -0.000063  -0.000075   0.000014
    25  C   -0.000065  -0.000005   0.000001  -0.005145  -0.000205  -0.000159
    26  C   -0.000332   0.000045  -0.000004   0.013502  -0.000709  -0.006902
    27  H   -0.000015   0.000001  -0.000000   0.000607  -0.000113  -0.000118
    28  C    0.000000   0.000000  -0.000000   0.000027   0.000002  -0.000022
    29  O    0.000000  -0.000000  -0.000000   0.000006   0.000000   0.000000
    30  N   -0.000000   0.000000   0.000000   0.000001   0.000000  -0.000000
    31  H   -0.000000   0.000000  -0.000000  -0.000000   0.000000  -0.000000
    32  H    0.000000   0.000000  -0.000000   0.000000  -0.000000   0.000000
    33  C    0.000002  -0.000000  -0.000000   0.000757  -0.000399  -0.019378
    34  C    0.000001  -0.000000  -0.000000  -0.000110   0.000273   0.012277
    35  C   -0.000000   0.000000   0.000000  -0.000167   0.000207   0.001409
    36  C   -0.000000   0.000000   0.000000   0.000001   0.000001   0.000002
    37  C   -0.000000   0.000000   0.000000   0.000155  -0.000010  -0.000038
    38  O   -0.000000   0.000000  -0.000000   0.006023   0.000137  -0.043994
    39  S    0.000000  -0.000000  -0.000000  -0.000440   0.000013   0.000707
    40  H   -0.000000   0.000000  -0.000000   0.000113   0.000029  -0.000050
    41  H   -0.000007   0.000000  -0.000000   0.000069   0.000526   0.010802
    42  H   -0.000000   0.000000  -0.000000   0.000000  -0.000000  -0.000000
    43  H    0.000000   0.000000  -0.000000   0.000000  -0.000000  -0.000000
    44  H    0.000000  -0.000000  -0.000000  -0.000000  -0.000000   0.000000
    45  H   -0.000000   0.000000   0.000000   0.000014   0.000006   0.000017
    46  H    0.000000  -0.000000  -0.000000  -0.000013   0.000001   0.000032
    47  H    0.384623  -0.022994  -0.024775   0.000597  -0.000107  -0.000001
    48  H    0.000000   0.000000  -0.000000  -0.000023   0.000005   0.000735
               7          8          9         10         11         12
     1  C   -0.000052  -0.009158   0.011132   0.008919  -0.000675  -0.002289
     2  H   -0.000002   0.012186  -0.000022  -0.000409  -0.000103   0.000347
     3  H    0.000003  -0.007808  -0.001015   0.000118   0.000313   0.000144
     4  C   -0.027637   0.019217  -0.096515  -0.041007   0.013212   0.088734
     5  H   -0.012574  -0.051803   0.002949   0.001427  -0.000613  -0.063208
     6  O    0.286737  -0.042840   0.003553  -0.006246  -0.000322  -0.036108
     7  H    0.346541   0.009861  -0.000259  -0.000436   0.000126   0.003934
     8  C    0.009861   5.322816   0.489984   0.278753  -0.039669  -0.036771
     9  H   -0.000259   0.489984   0.583501  -0.059537  -0.005287   0.012119
    10  O   -0.000436   0.278753  -0.059537   8.038539   0.292939  -0.024689
    11  H    0.000126  -0.039669  -0.005287   0.292939   0.426894  -0.002894
    12  C    0.003934  -0.036771   0.012119  -0.024689  -0.002894   5.499025
    13  H   -0.001063   0.023061   0.002783   0.017574  -0.001064   0.448500
    14  C   -0.000944   0.149143  -0.102082  -0.052489   0.000360  -0.063920
    15  H    0.000051  -0.025240   0.008922  -0.004807   0.002886  -0.003574
    16  O   -0.000173  -0.047831   0.004574   0.009158   0.000156   0.230457
    17  N    0.002528  -0.003986  -0.000799  -0.000279  -0.000003   0.172999
    18  C    0.000486  -0.003141  -0.000248  -0.000305   0.000007  -0.081844
    19  H    0.000274   0.001593   0.000055  -0.000010   0.000004   0.017641
    20  C   -0.001199  -0.000786   0.000021   0.000008  -0.000001   0.013623
    21  H   -0.000012   0.000002   0.000000   0.000000  -0.000000   0.000129
    22  C    0.000234   0.000026  -0.000002  -0.000002   0.000000  -0.009240
    23  H   -0.000002   0.000000   0.000000   0.000000  -0.000000   0.000131
    24  H    0.000077   0.000008  -0.000000   0.000000   0.000000   0.000166
    25  C    0.000497  -0.000496  -0.000003  -0.000053  -0.000001  -0.018722
    26  C    0.000708  -0.003904  -0.000074  -0.000661  -0.000051  -0.056406
    27  H    0.000067   0.000022  -0.000011  -0.000172   0.000008  -0.002294
    28  C    0.000052  -0.000010  -0.000000  -0.000000  -0.000000  -0.001804
    29  O    0.000008   0.000000   0.000000  -0.000000   0.000000   0.000291
    30  N    0.000000  -0.000000  -0.000000  -0.000000  -0.000000  -0.000012
    31  H   -0.000000  -0.000000   0.000000  -0.000000  -0.000000  -0.000005
    32  H   -0.000000  -0.000000  -0.000000   0.000000  -0.000000  -0.000008
    33  C    0.001196   0.000735   0.000020  -0.001126   0.000075  -0.000392
    34  C   -0.008929  -0.000083  -0.000026   0.000028   0.000001  -0.000274
    35  C   -0.000862  -0.000090  -0.000001   0.000000  -0.000000   0.000703
    36  C   -0.000013  -0.000000  -0.000000   0.000000  -0.000000   0.000035
    37  C    0.000116   0.000002  -0.000000  -0.000000  -0.000000  -0.000734
    38  O    0.032093  -0.000457   0.000004  -0.000001  -0.000001   0.000304
    39  S    0.001201  -0.000004   0.000001   0.000012  -0.000003  -0.000446
    40  H   -0.001781  -0.000020   0.000002   0.000023  -0.000001   0.000032
    41  H   -0.009361  -0.001084   0.000004   0.003348  -0.000229   0.000019
    42  H   -0.000000   0.000000  -0.000000  -0.000000  -0.000000  -0.000000
    43  H    0.000001   0.000000  -0.000000   0.000000   0.000000   0.000003
    44  H    0.000000   0.000000  -0.000000   0.000000   0.000000  -0.000000
    45  H    0.000017   0.000000   0.000000  -0.000000  -0.000000  -0.000035
    46  H   -0.000094   0.000000  -0.000000   0.000000   0.000000   0.000075
    47  H    0.000008  -0.009176   0.000705   0.000172   0.000098  -0.000820
    48  H    0.000357  -0.000031   0.000002   0.000004  -0.000003   0.000017
              13         14         15         16         17         18
     1  C    0.000213   0.188682  -0.062349  -0.034889  -0.000294  -0.000556
     2  H    0.000020  -0.047612  -0.005179   0.001823  -0.000102   0.000124
     3  H    0.000100  -0.038578  -0.002830   0.005194  -0.000028  -0.000021
     4  C   -0.094029   0.078221  -0.009067  -0.073008   0.014631  -0.005340
     5  H    0.005158   0.006853  -0.000005  -0.000927  -0.010374   0.000953
     6  O    0.008304   0.005778   0.000081   0.006778  -0.000604   0.001745
     7  H   -0.001063  -0.000944   0.000051  -0.000173   0.002528   0.000486
     8  C    0.023061   0.149143  -0.025240  -0.047831  -0.003986  -0.003141
     9  H    0.002783  -0.102082   0.008922   0.004574  -0.000799  -0.000248
    10  O    0.017574  -0.052489  -0.004807   0.009158  -0.000279  -0.000305
    11  H   -0.001064   0.000360   0.002886   0.000156  -0.000003   0.000007
    12  C    0.448500  -0.063920  -0.003574   0.230457   0.172999  -0.081844
    13  H    0.520319  -0.013823   0.006399  -0.034007  -0.061978   0.011940
    14  C   -0.013823   5.259527   0.405074   0.208771   0.015160  -0.000199
    15  H    0.006399   0.405074   0.606204  -0.039327  -0.001427   0.000091
    16  O   -0.034007   0.208771  -0.039327   8.129863  -0.078860   0.004609
    17  N   -0.061978   0.015160  -0.001427  -0.078860   6.584241   0.317054
    18  C    0.011940  -0.000199   0.000091   0.004609   0.317054   5.028080
    19  H    0.001513  -0.003692   0.000295   0.017141  -0.050722   0.406663
    20  C   -0.000420   0.000351   0.000006  -0.000822  -0.091146   0.533679
    21  H    0.000007  -0.000002  -0.000000  -0.000089   0.004557  -0.031649
    22  C    0.000072  -0.000048   0.000001   0.000578  -0.001358  -0.020548
    23  H   -0.000003  -0.000000   0.000000  -0.000005  -0.001372   0.003976
    24  H   -0.000027   0.000003   0.000000   0.000034   0.009752   0.003094
    25  C    0.008368   0.000077   0.000029  -0.001402  -0.065624   0.049360
    26  C   -0.019404   0.000135  -0.000441   0.000978   0.304427  -0.155943
    27  H   -0.000704   0.000003  -0.000031   0.001177  -0.036989   0.007211
    28  C   -0.000027  -0.000001  -0.000001   0.000029   0.002860   0.000728
    29  O   -0.000018  -0.000000   0.000000  -0.000000  -0.000513   0.000205
    30  N    0.000000   0.000000  -0.000000  -0.000000  -0.000502  -0.000003
    31  H   -0.000000  -0.000000  -0.000000   0.000000   0.000028  -0.000006
    32  H    0.000000   0.000000  -0.000000   0.000000   0.000033   0.000080
    33  C   -0.000365  -0.000078   0.000000   0.000001   0.000116  -0.000007
    34  C    0.000282   0.000075  -0.000001   0.000119   0.009090  -0.001999
    35  C    0.000093   0.000003   0.000000  -0.000018  -0.007224   0.000292
    36  C    0.000003   0.000000   0.000000  -0.000000  -0.000193   0.000160
    37  C   -0.000034  -0.000001  -0.000000  -0.000001  -0.000197   0.001393
    38  O   -0.000450   0.000043  -0.000000   0.000004  -0.000559   0.001742
    39  S    0.001362  -0.000006   0.000001   0.000001  -0.000158   0.000167
[...]
      6        8           0.016315769   -0.009700177   -0.005150138
      7        1          -0.001255887   -0.004821491   -0.004461335
      8        6           0.014055590    0.000473160   -0.002582908
      9        1          -0.007139679    0.003128254   -0.010912705
     10        8          -0.001089344    0.006983793    0.002294549
     11        1          -0.010862143   -0.005861716   -0.001875184
     12        6           0.016785157   -0.018389157   -0.002217230
     13        1          -0.008320473   -0.006397043    0.004363945
     14        6          -0.020156812    0.001665832   -0.002401968
     15        1          -0.004316994   -0.006717812    0.010492535
     16        8           0.001392988   -0.004456624    0.000002583
     17        7           0.000414513    0.005816447   -0.004369056
     18        6           0.019375878    0.007431372    0.008683475
     19        1          -0.005112232    0.003179650   -0.001227673
     20        6          -0.019239914    0.004357389   -0.008532013
     21        1           0.003302791    0.002557878    0.000671843
     22        6           0.006563112    0.004688340    0.017173613
     23        1           0.003565801   -0.000254061    0.008150482
     24        1           0.011942414   -0.015327640   -0.030129609
     25        6          -0.018017072   -0.003236354   -0.006387849
     26        6           0.004626999   -0.017277934    0.005718149
     27        1          -0.007594412    0.000448803    0.002503953
     28        6          -0.011702909   -0.008626255    0.002426909
     29        8           0.016671596    0.017296327    0.011295338
     30        7           0.002955882   -0.008157152   -0.004256949
     31        1          -0.001676468    0.000860388   -0.002052380
     32        1          -0.002822204   -0.000659768   -0.003488047
     33        6          -0.006246139   -0.010248244   -0.010226672
     34        6          -0.003738220   -0.043827748    0.020261525
     35        6          -0.008995809    0.008141191   -0.016525050
     36        6           0.008604238   -0.005285991    0.004409109
     37        6          -0.002187078    0.014328411    0.020130845
     38        8          -0.010710452    0.020864160   -0.012658502
     39       16           0.017080975    0.016509444    0.011211394
     40        1           0.006727116    0.002101354   -0.002462917
     41        1          -0.004157095    0.005072823    0.005354088
     42        1           0.002869173    0.004409207   -0.001188609
     43        1          -0.004372968   -0.002056218    0.002043851
     44        1           0.001553296   -0.004461350   -0.003755037
     45        1           0.005974915    0.005173731   -0.004877141
     46        1          -0.004803486   -0.004401067    0.001173391
     47        1           0.001177366   -0.001250461   -0.001037204
     48        1          -0.003816921    0.004383302   -0.005115822
 -------------------------------------------------------------------
 Cartesian Forces:  Max     0.043827748 RMS     0.009948369
 Leave Link  716 at Wed Mar  8 14:52:59 2023, MaxMem=  2684354560 cpu:               0.9 elap:               0.1
 (Enter /opt/gaussian/g16/l103.exe)

 GradGradGradGradGradGradGradGradGradGradGradGradGradGradGradGradGradGrad
 Berny optimization.
 Search for a local minimum.
 Step number   1 out of a maximum of    2
 All quantities printed in internal units (Hartrees-Bohrs-Radians)
 Second derivative matrix not updated -- first step.
 ITU=  0
     Eigenvalues ---    0.00026   0.00065   0.00085   0.00098   0.00143
     Eigenvalues ---    0.00189   0.00217   0.00275   0.00310   0.00443
     Eigenvalues ---    0.00472   0.00659   0.00753   0.00839   0.00947
     Eigenvalues ---    0.01027   0.01127   0.01266   0.01328   0.01419
     Eigenvalues ---    0.01576   0.01740   0.01900   0.02284   0.02561
     Eigenvalues ---    0.02843   0.02912   0.03147   0.03269   0.03700
     Eigenvalues ---    0.04009   0.04351   0.04472   0.04833   0.04999
     Eigenvalues ---    0.05057   0.05187   0.05404   0.05621   0.05726
     Eigenvalues ---    0.05817   0.05863   0.05911   0.06316   0.06642
     Eigenvalues ---    0.07016   0.07128   0.07439   0.07591   0.07733
     Eigenvalues ---    0.08455   0.08623   0.09103   0.09539   0.10233
     Eigenvalues ---    0.10522   0.10925   0.11684   0.11931   0.12190
     Eigenvalues ---    0.12803   0.12883   0.13015   0.13123   0.13636
     Eigenvalues ---    0.13788   0.14019   0.14590   0.15493   0.16018
     Eigenvalues ---    0.16364   0.17157   0.17509   0.18473   0.19158
     Eigenvalues ---    0.19503   0.19903   0.21038   0.21201   0.21713
     Eigenvalues ---    0.24329   0.25930   0.26311   0.26749   0.30697
     Eigenvalues ---    0.32134   0.32991   0.34195   0.34950   0.36520
     Eigenvalues ---    0.36826   0.36826   0.36826   0.36826   0.40852
     Eigenvalues ---    0.41821   0.43514   0.46469   0.52182   0.55412
     Eigenvalues ---    0.59409   0.64203   0.66194   0.69050   0.73970
     Eigenvalues ---    0.75916   0.78023   0.80771   0.83994   0.87063
     Eigenvalues ---    0.88294   0.89450   0.89814   0.90505   0.91461
     Eigenvalues ---    0.92418   0.93643   0.95010   0.97976   0.99567
     Eigenvalues ---    1.00188   1.01276   1.03944   1.06059   1.10793
     Eigenvalues ---    1.12424   1.15390   1.22353   1.24893   1.27466
     Eigenvalues ---    1.29788   1.39303   1.48204   1.56794   1.65913
     Eigenvalues ---    1.78795   1.99344   2.36206
 Quadratic step=1.461D+01 exceeds max=3.000D-01 adjusted using Lamda=-1.031D-01.
 Angle between NR and scaled steps=  77.90 degrees.
 Angle between quadratic step and forces=  43.97 degrees.
 Linear search not attempted -- first point.
 Variable       Old X    -DE/DX   Delta X   Delta X   Delta X     New X
                                 (Linear)    (Quad)   (Total)
    X1        6.53757   0.00395   0.00000  -0.01086  -0.01086   6.52671
    Y1       -6.73407   0.02754   0.00000   0.05746   0.05746  -6.67662
    Z1       -1.56886   0.00220   0.00000   0.01488   0.01488  -1.55398
    X2        6.47220   0.00082   0.00000   0.00051   0.00051   6.47271
    Y2       -6.88722  -0.00346   0.00000   0.00355   0.00355  -6.88367
    Z2       -3.63731   0.00665   0.00000   0.02934   0.02934  -3.60797
    X3        8.34983  -0.00711   0.00000  -0.03408  -0.03408   8.31576
    Y3       -7.44275  -0.00332   0.00000   0.00554   0.00554  -7.43720
    Z3       -0.83944  -0.00340   0.00000  -0.00341  -0.00341  -0.84285
    X4        3.05099  -0.00244   0.00000   0.02736   0.02736   3.07835
    Y4       -2.28192   0.01717   0.00000   0.02573   0.02573  -2.25620
    Z4        1.85177   0.01432   0.00000   0.00627   0.00627   1.85803
    X5        1.66884   0.01115   0.00000   0.06231   0.06231   1.73116
    Y5       -3.86251   0.00360   0.00000   0.01425   0.01425  -3.84826
    Z5        1.88792  -0.01024   0.00000  -0.05084  -0.05084   1.83708
    X6        2.49456   0.01632   0.00000   0.05018   0.05018   2.54473
    Y6       -0.69062  -0.00970   0.00000  -0.00927  -0.00927  -0.69989
    Z6        3.91889  -0.00515   0.00000   0.00194   0.00194   3.92083
    X7        0.78946  -0.00126   0.00000   0.02810   0.02810   0.81756
    Y7        0.01598  -0.00482   0.00000  -0.04391  -0.04391  -0.02793
    Z7        3.87516  -0.00446   0.00000  -0.01846  -0.01846   3.85670
    X8        5.83131   0.01406   0.00000   0.00930   0.00930   5.84061
    Y8       -3.23665   0.00047   0.00000   0.02386   0.02386  -3.21280
    Z8        1.94459  -0.00258   0.00000  -0.01173  -0.01173   1.93286
    X9        6.16529  -0.00714   0.00000  -0.03569  -0.03569   6.12960
    Y9       -4.81404   0.00313   0.00000   0.00583   0.00583  -4.80821
    Z9        3.28489  -0.01091   0.00000  -0.05083  -0.05083   3.23406
   X10        7.34739  -0.00109   0.00000  -0.01905  -0.01905   7.32834
   Y10       -1.16275   0.00698   0.00000   0.02947   0.02947  -1.13328
   Z10        2.72969   0.00229   0.00000   0.00663   0.00663   2.73632
   X11        9.14388  -0.01086   0.00000  -0.04214  -0.04214   9.10174
   Y11       -1.49645  -0.00586   0.00000  -0.02940  -0.02940  -1.52585
   Z11        2.60788  -0.00188   0.00000  -0.00621  -0.00621   2.60168
   X12        3.09230   0.01679   0.00000   0.02177   0.02177   3.11407
   Y12       -0.85550  -0.01839   0.00000  -0.03433  -0.03433  -0.88982
   Z12       -0.70508  -0.00222   0.00000  -0.01033  -0.01033  -0.71541
   X13        4.26467  -0.00832   0.00000  -0.02369  -0.02369   4.24099
   Y13        0.87149  -0.00640   0.00000  -0.02747  -0.02747   0.84402
   Z13       -0.54481   0.00436   0.00000   0.02050   0.02050  -0.52431
   X14        6.42778  -0.02016   0.00000  -0.04608  -0.04608   6.38170
   Y14       -3.87765   0.00167   0.00000   0.01549   0.01549  -3.86216
   Z14       -0.89847  -0.00240   0.00000   0.00367   0.00367  -0.89481
   X15        8.16970  -0.00432   0.00000  -0.02275  -0.02275   8.14695
   Y15       -2.91432  -0.00672   0.00000  -0.02295  -0.02295  -2.93727
   Z15       -1.55735   0.01049   0.00000   0.05855   0.05855  -1.49880
   X16        4.38984   0.00139   0.00000  -0.01104  -0.01104   4.37879
   Y16       -2.65817  -0.00446   0.00000  -0.02088  -0.02088  -2.67905
   Z16       -2.28752   0.00000   0.00000  -0.02148  -0.02148  -2.30900
   X17        0.71466   0.00041   0.00000   0.01685   0.01685   0.73151
   Y17       -0.19795   0.00582   0.00000  -0.00769  -0.00769  -0.20564
   Z17       -1.78730  -0.00437   0.00000  -0.00253  -0.00253  -1.78983
   X18       -1.05646   0.01938   0.00000   0.01149   0.01149  -1.04497
   Y18       -2.11388   0.00743   0.00000   0.01690   0.01690  -2.09697
   Z18       -2.34641   0.00868   0.00000   0.00789   0.00789  -2.33852
   X19       -0.31773  -0.00511   0.00000  -0.02032  -0.02032  -0.33806
   Y19       -4.00733   0.00318   0.00000   0.01404   0.01404  -3.99329
   Z19       -2.04411  -0.00123   0.00000   0.00293   0.00293  -2.04117
   X20       -3.30756  -0.01924   0.00000  -0.00467  -0.00467  -3.31224
   Y20       -1.55788   0.00436   0.00000   0.00672   0.00672  -1.55115
   Z20       -3.25742  -0.00853   0.00000  -0.01019  -0.01019  -3.26762
   X21       -4.60636   0.00330   0.00000   0.00573   0.00573  -4.60063
   Y21       -3.07825   0.00256   0.00000   0.00919   0.00919  -3.06906
   Z21       -3.73237   0.00067   0.00000  -0.00220  -0.00220  -3.73457
   X22       -4.17351   0.00656   0.00000   0.02165   0.02165  -4.15186
   Y22        1.15187   0.00469   0.00000  -0.01272  -0.01272   1.13915
   Z22       -3.65294   0.01717   0.00000  -0.00339  -0.00339  -3.65633
   X23       -5.40224   0.00357   0.00000   0.01746   0.01746  -5.38478
   Y23        1.32207  -0.00025   0.00000  -0.00162  -0.00162   1.32045
   Z23       -5.32708   0.00815   0.00000   0.02300   0.02300  -5.30408
   X24       -5.28487   0.01194   0.00000   0.02295   0.02295  -5.26192
   Y24        1.85833  -0.01533   0.00000  -0.06095  -0.06095   1.79738
   Z24       -1.91092  -0.03013   0.00000  -0.08961  -0.08961  -2.00053
   X25       -1.83912  -0.01802   0.00000  -0.02384  -0.02384  -1.86295
   Y25        2.87560  -0.00324   0.00000  -0.01522  -0.01522   2.86038
   Z25       -3.84818  -0.00639   0.00000   0.00017   0.00017  -3.84800
   X26        0.37487   0.00463   0.00000  -0.01336  -0.01336   0.36150
   Y26        2.19741  -0.01728   0.00000  -0.02855  -0.02855   2.16887
   Z26       -2.85129   0.00572   0.00000   0.00337   0.00337  -2.84792
   X27        2.07297  -0.00759   0.00000  -0.04369  -0.04369   2.02928
   Y27        3.36481   0.00045   0.00000   0.00501   0.00501   3.36982
   Z27       -2.91006   0.00250   0.00000   0.02364   0.02364  -2.88642
   X28       -2.22792  -0.01170   0.00000  -0.02796  -0.02796  -2.25589
   Y28        5.46539  -0.00863   0.00000   0.00326   0.00326   5.46865
   Z28       -4.86751   0.00243   0.00000   0.03273   0.03273  -4.83477
   X29       -1.53130   0.01667   0.00000   0.06242   0.06242  -1.46888
   Y29        7.35034   0.01730   0.00000   0.00598   0.00598   7.35632
   Z29       -3.80466   0.01130   0.00000   0.01165   0.01165  -3.79301
   X30       -3.76403   0.00296   0.00000   0.00987   0.00987  -3.75416
   Y30        5.69492  -0.00816   0.00000  -0.01267  -0.01267   5.68225
   Z30       -6.94546  -0.00426   0.00000  -0.00944  -0.00944  -6.95490
   X31       -3.72334  -0.00168   0.00000  -0.00530  -0.00530  -3.72864
   Y31        7.44275   0.00086   0.00000  -0.00644  -0.00644   7.43631
   Z31       -7.69741  -0.00205   0.00000  -0.00825  -0.00825  -7.70565
   X32       -3.74938  -0.00282   0.00000  -0.01083  -0.01083  -3.76021
   Y32        4.24258  -0.00066   0.00000  -0.00834  -0.00834   4.23424
   Z32       -8.17052  -0.00349   0.00000  -0.01558  -0.01558  -8.18609
   X33        1.75725  -0.00625   0.00000  -0.00973  -0.00973   1.74753
   Y33        4.04848  -0.01025   0.00000  -0.01436  -0.01436   4.03412
   Z33        7.17156  -0.01023   0.00000  -0.02707  -0.02707   7.14449
   X34       -1.74724  -0.00374   0.00000  -0.01776  -0.01776  -1.76499
   Y34        3.97051  -0.04383   0.00000  -0.02727  -0.02727   3.94324
   Z34        3.29738   0.02026   0.00000   0.02534   0.02534   3.32272
   X35       -3.47753  -0.00900   0.00000  -0.00303  -0.00303  -3.48055
   Y35        5.13923   0.00814   0.00000   0.01366   0.01366   5.15290
   Z35        1.52231  -0.01653   0.00000  -0.00341  -0.00341   1.51889
   X36       -7.67481   0.00860   0.00000   0.01916   0.01916  -7.65564
   Y36        5.68497  -0.00529   0.00000  -0.01289  -0.01289   5.67208
   Z36       -0.62329   0.00441   0.00000   0.00930   0.00930  -0.61399
   X37       -5.76268  -0.00219   0.00000  -0.01131  -0.01131  -5.77399
   Y37        4.19663   0.01433   0.00000   0.04644   0.04644   4.24307
   Z37        0.92076   0.02013   0.00000   0.06075   0.06075   0.98151
   X38       -1.84301  -0.01071   0.00000  -0.07645  -0.07645  -1.91945
   Y38        1.73017   0.02086   0.00000  -0.01182  -0.01182   1.71835
   Z38        3.98745  -0.01266   0.00000  -0.02456  -0.02456   3.96290
   X39        0.41737   0.01708   0.00000   0.03007   0.03007   0.44744
   Y39        5.98905   0.01651   0.00000   0.01037   0.01037   5.99942
   Z39        4.63970   0.01121   0.00000   0.00555   0.00555   4.64525
   X40        0.16299   0.00673   0.00000   0.01566   0.01566   0.17865
   Y40        3.17056   0.00210   0.00000  -0.00306  -0.00306   3.16750
   Z40        8.17052  -0.00246   0.00000  -0.01186  -0.01186   8.15866
   X41        2.95144  -0.00416   0.00000  -0.00148  -0.00148   2.94995
   Y41        2.58433   0.00507   0.00000   0.00038   0.00038   2.58471
   Z41        6.30773   0.00535   0.00000   0.01112   0.01112   6.31885
   X42       -9.14388   0.00287   0.00000   0.02573   0.02573  -9.11816
   Y42        4.42731   0.00441   0.00000   0.00106   0.00106   4.42836
   Z42       -1.35837  -0.00119   0.00000  -0.00700  -0.00700  -1.36537
   X43       -6.70996  -0.00437   0.00000  -0.00093  -0.00093  -6.71090
   Y43        6.68136  -0.00206   0.00000  -0.01608  -0.01608   6.66528
   Z43       -2.16516   0.00204   0.00000   0.00651   0.00651  -2.15865
   X44       -8.57498   0.00155   0.00000   0.00137   0.00137  -8.57360
   Y44        7.10294  -0.00446   0.00000  -0.01745  -0.01745   7.08549
   Z44        0.60438  -0.00376   0.00000  -0.02014  -0.02014   0.58424
   X45       -6.44274   0.00597   0.00000   0.02806   0.02806  -6.41467
   Y45        2.49492   0.00517   0.00000   0.02062   0.02062   2.51554
   Z45        1.89916  -0.00488   0.00000   0.00599   0.00599   1.90515
   X46       -2.80636  -0.00480   0.00000  -0.00923  -0.00923  -2.81559
   Y46        6.91016  -0.00440   0.00000  -0.00632  -0.00632   6.90384
   Z46        0.68902   0.00117   0.00000  -0.01059  -0.01059   0.67842
   X47        4.94997   0.00118   0.00000   0.00267   0.00267   4.95263
   Y47       -7.73247  -0.00125   0.00000   0.01764   0.01764  -7.71482
   Z47       -0.71709  -0.00104   0.00000  -0.00280  -0.00280  -0.71989
   X48        2.87522  -0.00382   0.00000  -0.02682  -0.02682   2.84840
   Y48        5.20374   0.00438   0.00000   0.02046   0.02046   5.22420
   Z48        8.45932  -0.00512   0.00000  -0.04196  -0.04196   8.41736
         Item               Value     Threshold  Converged?
 Maximum Force            0.043828     0.000450     NO 
 RMS     Force            0.009948     0.000300     NO 
 Maximum Displacement     0.089612     0.001800     NO 
 RMS     Displacement     0.025037     0.001200     NO 
 Predicted change in Energy=-1.756270D-02
 GradGradGradGradGradGradGradGradGradGradGradGradGradGradGradGradGradGrad

 Leave Link  103 at Wed Mar  8 14:53:00 2023, MaxMem=  2684354560 cpu:               1.7 elap:               0.1
 (Enter /opt/gaussian/g16/l9999.exe)

 Test job not archived.
 1\1\GINC-JULIO-SYS\Force\RM062X\def2TZVP\C16H24N2O5S1\JVELAZQUEZ\08-Ma
 r-2023\0\\#P M062X/Def2TZVP scf=(direct,conver=8) EmpiricalDispersion=
 GD3 NoSymm Force pop=(NBORead) Charge Prop=(Field,Read)\\Gaussian run 
 using SANDER external interface, route from template gau_job.tpl\\0,1\
 C,3.4595311074,-3.5635171613,-0.8302050687\H,3.424942167,-3.64455805,-
 1.9247801641\H,4.4185400659,-3.9385319517,-0.4442112738\C,1.6145157462
 ,-1.2075420566,0.9799127289\H,0.8831145058,-2.0439530687,0.9990442859\
 O,1.3200618316,-0.3654607528,2.0737851435\H,0.4177661546,0.0084572261,
 2.0506470997\C,3.0857952621,-1.7127623435,1.0290310972\H,3.2625295023,
 -2.5474804227,1.7382871241\O,3.8880694887,-0.6153021336,1.4444893343\H
 ,4.8387344686,-0.7918871697,1.3800329061\C,1.6363755694,-0.4527097944,
 -0.3731099219\H,2.2567685917,0.4611715319,-0.2882983957\C,3.4014338469
 ,-2.0519621215,-0.4754524488\H,4.3232193035,-1.5421915077,-0.824114245
 1\O,2.3230014872,-1.4066426421,-1.2105032787\N,0.3781808181,-0.1047491
 659,-0.9457987642\C,-0.5590551988,-1.1186155071,-1.2416657356\H,-0.168
 1367919,-2.1205889187,-1.0816954012\C,-1.7502868096,-0.8243924741,-1.7
 237550751\H,-2.437583355,-1.6289399576,-1.9750872556\C,-2.2085275621,0
 .60954431,-1.9330502545\H,-2.8587429089,0.6996097621,-2.8189668482\H,-
 2.7966313989,0.9833877501,-1.0112139868\C,-0.9732196065,1.5217012575,-
 2.0363672456\C,0.1983704009,1.1628197015,-1.5088367112\H,1.0969695751,
 1.7805814087,-1.5399356844\C,-1.1789669707,2.8921579993,-2.5757743627\
 O,-0.8103282092,3.8896323167,-2.0133374402\N,-1.991837386,3.0136227588
 ,-3.6753792389\H,-1.9703085181,3.9385319517,-4.0732916971\H,-1.9840883
 95,2.2450755971,-4.3236513234\C,0.9298982945,2.1423653329,3.7950271636
 \C,-0.9245983661,2.1011036612,1.7448976154\C,-1.8402275577,2.719564926
 8,0.8055701919\C,-4.0613323588,3.0083558417,-0.3298312768\C,-3.0494791
 588,2.2207612803,0.4872470168\O,-0.9752770757,0.9155668814,2.110069710
 6\S,0.2208637062,3.1692690549,2.4552224728\H,0.0862489135,1.6777885724
 ,4.3236513234\H,1.561832947,1.3675688382,3.337905001\H,-4.8387344686,2
 .3428292287,-0.7188189626\H,-3.5507599221,3.5356231953,-1.1457535354\H
 ,-4.5376827064,3.7587143802,0.3198259785\H,-3.4093493794,1.320254615,1
 .0049925573\H,-1.4850639956,3.6566987085,0.3646116335\H,2.6194096847,-
 4.091844985,-0.3794660025\H,1.5214984687,2.7537004602,4.4764804606\\Ve
 rsion=ES64L-G16RevA.03\HF=-1507.8844981\RMSD=2.676e-09\RMSF=9.948e-03\
 Dipole=0.0103803,-0.9052133,-0.8205679\Quadrupole=9.9486976,-9.2164565
 ,-0.7322411,-7.5279224,6.6761305,-1.8700686\PG=C01 [X(C16H24N2O5S1)]\\
 @


 I WANT TO KNOW HOW GOD CREATED THE WORLD.  I AM NOT INTERESTED IN
 THIS OR THAT PHENOMENON, IN THE SPECTRUM OF THIS OR THAT ELEMENT.
 I WANT TO KNOW HIS THOUGHTS, THE REST ARE DETAILS.
     -- ALBERT EINSTEIN
 Job cpu time:       0 days  7 hours  4 minutes  5.6 seconds.
 Elapsed time:       0 days  0 hours 26 minutes 35.1 seconds.
 File lengths (MBytes):  RWF=    435 Int=      0 D2E=      0 Chk=     48 Scr=      1
 Normal termination of Gaussian 16 at Wed Mar  8 14:53:00 2023.
