 Entering Gaussian System, Link 0=g16
 Initial command:
 /opt/gaussian/g16/l1.exe "/opt/gaussian/scratch16/Gau-2692121.inp" -scrdir="/opt/gaussian/scratch16/"
 Entering Link 1 = /opt/gaussian/g16/l1.exe PID=   2692123.
  
 Copyright (c) 1988,1990,1992,1993,1995,1998,2003,2009,2016,
            Gaussian, Inc.  All Rights Reserved.
  
 This is part of the Gaussian(R) 16 program.  It is based on
 the Gaussian(R) 09 system (copyright 2009, Gaussian, Inc.),
 the Gaussian(R) 03 system (copyright 2003, Gaussian, Inc.),
 the Gaussian(R) 98 system (copyright 1998, Gaussian, Inc.),
 the Gaussian(R) 94 system (copyright 1995, Gaussian, Inc.),
 the Gaussian 92(TM) system (copyright 1992, Gaussian, Inc.),
 the Gaussian 90(TM) system (copyright 1990, Gaussian, Inc.),
 the Gaussian 88(TM) system (copyright 1988, Gaussian, Inc.),
 the Gaussian 86(TM) system (copyright 1986, Carnegie Mellon
 University), and the Gaussian 82(TM) system (copyright 1983,
 Carnegie Mellon University). Gaussian is a federally registered
 trademark of Gaussian, Inc.
  
 This software contains proprietary and confidential information,
 including trade secrets, belonging to Gaussian, Inc.
  
 This software is provided under written license and may be
 used, copied, transmitted, or stored only in accord with that
 written license.
  
 The following legend is applicable only to US Government
 contracts under FAR:
  
                    RESTRICTED RIGHTS LEGEND
  
 Use, reproduction and disclosure by the US Government is
 subject to restrictions as set forth in subparagraphs (a)
 and (c) of the Commercial Computer Software - Restricted
 Rights clause in FAR 52.227-19.
  
 Gaussian, Inc.
 340 Quinnipiac St., Bldg. 40, Wallingford CT 06492
  
  
 ---------------------------------------------------------------
 Warning -- This program may not be used in any manner that
 competes with the business of Gaussian, Inc. or will provide
 assistance to any competitor of Gaussian, Inc.  The licensee
 of this program is prohibited from giving any competitor of
 Gaussian, Inc. access to this program.  By using this program,
 the user acknowledges that Gaussian, Inc. is engaged in the
 business of creating and licensing software in the field of
 computational chemistry and represents and warrants to the
 licensee that it is not a competitor of Gaussian, Inc. and that
 it will not use this program in any manner prohibited above.
 ---------------------------------------------------------------
  

 Cite this work as:
 Gaussian 16, Revision A.03,
 M. J. Frisch, G. W. Trucks, H. B. Schlegel, G. E. Scuseria, 
 M. A. Robb, J. R. Cheeseman, G. Scalmani, V. Barone, 
 G. A. Petersson, H. Nakatsuji, X. Li, M. Caricato, A. V. Marenich, 
 J. Bloino, B. G. Janesko, R. Gomperts, B. Mennucci, H. P. Hratchian, 
 J. V. Ortiz, A. F. Izmaylov, J. L. Sonnenberg, D. Williams-Young, 
 F. Ding, F. Lipparini, F. Egidi, J. Goings, B. Peng, A. Petrone, 
 T. Henderson, D. Ranasinghe, V. G. Zakrzewski, J. Gao, N. Rega, 
 G. Zheng, W. Liang, M. Hada, M. Ehara, K. Toyota, R. Fukuda, 
 J. Hasegawa, M. Ishida, T. Nakajima, Y. Honda, O. Kitao, H. Nakai, 
 T. Vreven, K. Throssell, J. A. Montgomery, Jr., J. E. Peralta, 
 F. Ogliaro, M. J. Bearpark, J. J. Heyd, E. N. Brothers, K. N. Kudin, 
 V. N. Staroverov, T. A. Keith, R. Kobayashi, J. Normand, 
 K. Raghavachari, A. P. Rendell, J. C. Burant, S. S. Iyengar, 
 J. Tomasi, M. Cossi, J. M. Millam, M. Klene, C. Adamo, R. Cammi, 
 J. W. Ochterski, R. L. Martin, K. Morokuma, O. Farkas, 
 J. B. Foresman, and D. J. Fox, Gaussian, Inc., Wallingford CT, 2016.
 
 ******************************************
 Gaussian 16:  ES64L-G16RevA.03 25-Dec-2016
                 8-Mar-2023 
 ******************************************
 %chk=12.chk
 %NProcShared=16
 Will use up to   16 processors via shared memory.
 %mem=20GB
 ----------------------------------------------------------------------
 #P M062X/Def2TZVP scf=(direct,conver=8) EmpiricalDispersion=GD3 NoSymm
  Force pop=(NBORead) Charge Prop=(Field,Read)
 ----------------------------------------------------------------------
 1/10=7,18=10,28=-2,30=1,38=1,125=101/1,3;
 2/12=2,15=1,17=6,18=5,29=2,40=1/2;
 3/5=44,7=101,11=2,25=1,30=1,71=1,74=-55,124=31/1,2,3;
 4//1;
 5/5=2,6=8,38=5/2;
 6/7=2,8=2,9=2,10=2,14=2,15=1,28=1,40=2/1,2,7;
 7/7=1,16=-2,29=1,30=1/1,2,3,16;
 1/10=7,18=10,28=-2,30=1/3;
 99/12=1/99;
 Leave Link    1 at Wed Mar  8 14:26:56 2023, MaxMem=  2684354560 cpu:               1.0 elap:               0.1
 (Enter /opt/gaussian/g16/l101.exe)
 ----------------------------------------------------------------------
 Gaussian run using SANDER external interface, route from template gau_
 job.tpl
 ----------------------------------------------------------------------
 Symbolic Z-matrix:
 Charge =  0 Multiplicity = 1
 C                     3.4614   -3.56547  -0.82701 
 H                     3.42784  -3.64717  -1.92157 
 H                     4.42033  -3.94016  -0.4403 
 C                     1.61465  -1.20753   0.98019 
 H                     0.88193  -2.04288   0.99893 
 O                     1.32284  -0.36668   2.07473 
 H                     0.42149   0.00996   2.05196 
 C                     3.08571  -1.71362   1.0306 
 H                     3.26081  -2.54763   1.74099 
 O                     3.88721  -0.61571   1.4464 
 H                     4.83785  -0.79297   1.38423 
 C                     1.63944  -0.45279  -0.37344 
 H                     2.26194   0.45907  -0.28808 
 C                     3.40304  -2.05407  -0.47276 
 H                     4.32499  -1.54412  -0.82132 
 O                     2.32312  -1.40796  -1.20962 
 N                     0.38395  -0.09961  -0.94724 
 C                    -0.56081  -1.10748  -1.22936 
 H                    -0.18059  -2.11406  -1.07243 
 C                    -1.75475  -0.80896  -1.70569 
 H                    -2.45746  -1.60605  -1.9425 
 C                    -2.2006    0.62719  -1.9214 
 H                    -2.87803   0.72593  -2.78595 
 H                    -2.77293   1.01409  -0.97272 
 C                    -0.95952   1.52927  -2.04171 
 C                     0.21151   1.16607  -1.51308 
 H                     1.11265   1.77984  -1.55048 
 C                    -1.17029   2.90014  -2.58007 
 O                    -0.80584   3.8989   -2.0187 
 N                    -1.98633   3.01548  -3.67866 
 H                    -1.96978   3.94016  -4.07751 
 H                    -1.97731   2.2462   -4.3265 
 C                     0.926     2.13789   3.79641 
 C                    -0.91994   2.08468   1.73768 
 C                    -1.8356    2.70168   0.80284 
 C                    -4.0554    2.99455  -0.33184 
 C                    -3.03892   2.18975   0.46653 
 O                    -0.9685    0.89745   2.10416 
 S                     0.22014   3.15909   2.45172 
 H                     0.08126   1.67692   4.3265 
 H                     1.55659   1.36071   3.34185 
 H                    -4.83785   2.33786  -0.72598 
 H                    -3.54926   3.52655  -1.14791 
 H                    -4.5193    3.73791   0.33498 
 H                    -3.4003    1.28694   0.9799 
 H                    -1.48626   3.64191   0.3633 
 H                     2.62116  -4.09387  -0.37657 
 H                     1.51849   2.75107   4.47543 
 
 ITRead=  0  0  0  0  0  0  0  0  0  0  0  0  0  0  0  0  0  0  0  0
 ITRead=  0  0  0  0  0  0  0  0  0  0  0  0  0  0  0  0  0  0  0  0
 ITRead=  0  0  0  0  0  0  0  0
 MicOpt= -1 -1 -1 -1 -1 -1 -1 -1 -1 -1 -1 -1 -1 -1 -1 -1 -1 -1 -1 -1
 MicOpt= -1 -1 -1 -1 -1 -1 -1 -1 -1 -1 -1 -1 -1 -1 -1 -1 -1 -1 -1 -1
 MicOpt= -1 -1 -1 -1 -1 -1 -1 -1
 NAtoms=     48 NQM=       48 NQMF=       0 NMMI=      0 NMMIF=      0
                NMic=       0 NMicF=      0.
                    Isotopes and Nuclear Properties:
 (Nuclear quadrupole moments (NQMom) in fm**2, nuclear magnetic moments (NMagM)
  in nuclear magnetons)

  Atom         1           2           3           4           5           6           7           8           9          10
 IAtWgt=          12           1           1          12           1          16           1          12           1          16
 AtmWgt=  12.0000000   1.0078250   1.0078250  12.0000000   1.0078250  15.9949146   1.0078250  12.0000000   1.0078250  15.9949146
 NucSpn=           0           1           1           0           1           0           1           0           1           0
 AtZEff=  -0.0000000  -0.0000000  -0.0000000  -0.0000000  -0.0000000  -0.0000000  -0.0000000  -0.0000000  -0.0000000  -0.0000000
 NQMom=    0.0000000   0.0000000   0.0000000   0.0000000   0.0000000   0.0000000   0.0000000   0.0000000   0.0000000   0.0000000
 NMagM=    0.0000000   2.7928460   2.7928460   0.0000000   2.7928460   0.0000000   2.7928460   0.0000000   2.7928460   0.0000000
 AtZNuc=   6.0000000   1.0000000   1.0000000   6.0000000   1.0000000   8.0000000   1.0000000   6.0000000   1.0000000   8.0000000

  Atom        11          12          13          14          15          16          17          18          19          20
 IAtWgt=           1          12           1          12           1          16          14          12           1          12
 AtmWgt=   1.0078250  12.0000000   1.0078250  12.0000000   1.0078250  15.9949146  14.0030740  12.0000000   1.0078250  12.0000000
 NucSpn=           1           0           1           0           1           0           2           0           1           0
 AtZEff=  -0.0000000  -0.0000000  -0.0000000  -0.0000000  -0.0000000  -0.0000000  -0.0000000  -0.0000000  -0.0000000  -0.0000000
 NQMom=    0.0000000   0.0000000   0.0000000   0.0000000   0.0000000   0.0000000   2.0440000   0.0000000   0.0000000   0.0000000
 NMagM=    2.7928460   0.0000000   2.7928460   0.0000000   2.7928460   0.0000000   0.4037610   0.0000000   2.7928460   0.0000000
 AtZNuc=   1.0000000   6.0000000   1.0000000   6.0000000   1.0000000   8.0000000   7.0000000   6.0000000   1.0000000   6.0000000

  Atom        21          22          23          24          25          26          27          28          29          30
 IAtWgt=           1          12           1           1          12          12           1          12          16          14
 AtmWgt=   1.0078250  12.0000000   1.0078250   1.0078250  12.0000000  12.0000000   1.0078250  12.0000000  15.9949146  14.0030740
 NucSpn=           1           0           1           1           0           0           1           0           0           2
 AtZEff=  -0.0000000  -0.0000000  -0.0000000  -0.0000000  -0.0000000  -0.0000000  -0.0000000  -0.0000000  -0.0000000  -0.0000000
 NQMom=    0.0000000   0.0000000   0.0000000   0.0000000   0.0000000   0.0000000   0.0000000   0.0000000   0.0000000   2.0440000
 NMagM=    2.7928460   0.0000000   2.7928460   2.7928460   0.0000000   0.0000000   2.7928460   0.0000000   0.0000000   0.4037610
 AtZNuc=   1.0000000   6.0000000   1.0000000   1.0000000   6.0000000   6.0000000   1.0000000   6.0000000   8.0000000   7.0000000

  Atom        31          32          33          34          35          36          37          38          39          40
 IAtWgt=           1           1          12          12          12          12          12          16          32           1
 AtmWgt=   1.0078250   1.0078250  12.0000000  12.0000000  12.0000000  12.0000000  12.0000000  15.9949146  31.9720718   1.0078250
 NucSpn=           1           1           0           0           0           0           0           0           0           1
 AtZEff=  -0.0000000  -0.0000000  -0.0000000  -0.0000000  -0.0000000  -0.0000000  -0.0000000  -0.0000000  -0.0000000  -0.0000000
 NQMom=    0.0000000   0.0000000   0.0000000   0.0000000   0.0000000   0.0000000   0.0000000   0.0000000   0.0000000   0.0000000
 NMagM=    2.7928460   2.7928460   0.0000000   0.0000000   0.0000000   0.0000000   0.0000000   0.0000000   0.0000000   2.7928460
 AtZNuc=   1.0000000   1.0000000   6.0000000   6.0000000   6.0000000   6.0000000   6.0000000   8.0000000  16.0000000   1.0000000

  Atom        41          42          43          44          45          46          47          48
 IAtWgt=           1           1           1           1           1           1           1           1
 AtmWgt=   1.0078250   1.0078250   1.0078250   1.0078250   1.0078250   1.0078250   1.0078250   1.0078250
 NucSpn=           1           1           1           1           1           1           1           1
 AtZEff=  -0.0000000  -0.0000000  -0.0000000  -0.0000000  -0.0000000  -0.0000000  -0.0000000  -0.0000000
 NQMom=    0.0000000   0.0000000   0.0000000   0.0000000   0.0000000   0.0000000   0.0000000   0.0000000
 NMagM=    2.7928460   2.7928460   2.7928460   2.7928460   2.7928460   2.7928460   2.7928460   2.7928460
 AtZNuc=   1.0000000   1.0000000   1.0000000   1.0000000   1.0000000   1.0000000   1.0000000   1.0000000
 Background charge distribution read from input stream:
 Leave Link  101 at Wed Mar  8 14:26:56 2023, MaxMem=  2684354560 cpu:               3.9 elap:               0.2
 (Enter /opt/gaussian/g16/l103.exe)

 GradGradGradGradGradGradGradGradGradGradGradGradGradGradGradGradGradGrad
 Berny optimization.
 Initialization pass.
 Trust Radius=3.00D-01 FncErr=1.00D-07 GrdErr=1.00D-07 EigMax=2.50D+02 EigMin=1.00D-04
 Number of steps in this run=      2 maximum allowed number of steps=      2.
 GradGradGradGradGradGradGradGradGradGradGradGradGradGradGradGradGradGrad

 Leave Link  103 at Wed Mar  8 14:26:56 2023, MaxMem=  2684354560 cpu:               0.3 elap:               0.0
 (Enter /opt/gaussian/g16/l202.exe)
 ---------------------------------------------------------------------------------------------------
                            Z-MATRIX (ANGSTROMS AND DEGREES)
   CD    Cent   Atom    N1       Length/X        N2       Alpha/Y        N3        Beta/Z          J
 ---------------------------------------------------------------------------------------------------
      1      1  C        0   3.461396         -3.565473         -0.827015
      2      2  H        0   3.427840         -3.647165         -1.921575
      3      3  H        0   4.420333         -3.940158         -0.440302
      4      4  C        0   1.614653         -1.207535          0.980192
      5      5  H        0   0.881934         -2.042877          0.998930
      6      6  O        0   1.322844         -0.366684          2.074732
      7      7  H        0   0.421491          0.009960          2.051956
      8      8  C        0   3.085707         -1.713623          1.030601
      9      9  H        0   3.260813         -2.547628          1.740994
     10     10  O        0   3.887208         -0.615713          1.446400
     11     11  H        0   4.837849         -0.792967          1.384231
     12     12  C        0   1.639439         -0.452788         -0.373443
     13     13  H        0   2.261939          0.459073         -0.288075
     14     14  C        0   3.403042         -2.054069         -0.472763
     15     15  H        0   4.324993         -1.544119         -0.821324
     16     16  O        0   2.323122         -1.407963         -1.209617
     17     17  N        0   0.383953         -0.099612         -0.947241
     18     18  C        0  -0.560814         -1.107479         -1.229356
     19     19  H        0  -0.180595         -2.114062         -1.072434
     20     20  C        0  -1.754751         -0.808959         -1.705690
     21     21  H        0  -2.457464         -1.606049         -1.942502
     22     22  C        0  -2.200602          0.627194         -1.921399
     23     23  H        0  -2.878032          0.725926         -2.785954
     24     24  H        0  -2.772930          1.014093         -0.972723
     25     25  C        0  -0.959524          1.529275         -2.041708
     26     26  C        0   0.211509          1.166070         -1.513083
     27     27  H        0   1.112652          1.779840         -1.550481
     28     28  C        0  -1.170289          2.900137         -2.580073
     29     29  O        0  -0.805842          3.898898         -2.018703
     30     30  N        0  -1.986327          3.015477         -3.678659
     31     31  H        0  -1.969783          3.940158         -4.077513
     32     32  H        0  -1.977314          2.246199         -4.326501
     33     33  C        0   0.926001          2.137886          3.796413
     34     34  C        0  -0.919940          2.084679          1.737678
     35     35  C        0  -1.835599          2.701676          0.802836
     36     36  C        0  -4.055396          2.994550         -0.331840
     37     37  C        0  -3.038919          2.189754          0.466529
     38     38  O        0  -0.968502          0.897449          2.104165
     39     39  S        0   0.220138          3.159091          2.451721
     40     40  H        0   0.081257          1.676915          4.326501
     41     41  H        0   1.556587          1.360708          3.341847
     42     42  H        0  -4.837849          2.337862         -0.725983
     43     43  H        0  -3.549260          3.526551         -1.147914
     44     44  H        0  -4.519303          3.737912          0.334983
     45     45  H        0  -3.400301          1.286943          0.979902
     46     46  H        0  -1.486260          3.641907          0.363300
     47     47  H        0   2.621158         -4.093867         -0.376571
     48     48  H        0   1.518485          2.751074          4.475428
 ---------------------------------------------------------------------------------------------------
                         Z-Matrix orientation:                         
 ---------------------------------------------------------------------
 Center     Atomic      Atomic             Coordinates (Angstroms)
 Number     Number       Type             X           Y           Z
 ---------------------------------------------------------------------
      1          6           0        3.461396   -3.565473   -0.827015
      2          1           0        3.427840   -3.647165   -1.921575
      3          1           0        4.420333   -3.940158   -0.440302
      4          6           0        1.614653   -1.207535    0.980192
      5          1           0        0.881934   -2.042877    0.998930
      6          8           0        1.322844   -0.366684    2.074732
      7          1           0        0.421491    0.009960    2.051956
      8          6           0        3.085707   -1.713623    1.030601
      9          1           0        3.260813   -2.547628    1.740994
     10          8           0        3.887208   -0.615713    1.446400
     11          1           0        4.837849   -0.792967    1.384231
     12          6           0        1.639439   -0.452788   -0.373443
     13          1           0        2.261939    0.459073   -0.288075
     14          6           0        3.403042   -2.054069   -0.472763
     15          1           0        4.324993   -1.544119   -0.821324
     16          8           0        2.323122   -1.407963   -1.209617
     17          7           0        0.383953   -0.099612   -0.947241
     18          6           0       -0.560814   -1.107479   -1.229356
     19          1           0       -0.180595   -2.114062   -1.072434
     20          6           0       -1.754751   -0.808959   -1.705690
     21          1           0       -2.457464   -1.606049   -1.942502
     22          6           0       -2.200602    0.627194   -1.921399
     23          1           0       -2.878032    0.725926   -2.785954
     24          1           0       -2.772930    1.014093   -0.972723
     25          6           0       -0.959524    1.529275   -2.041708
     26          6           0        0.211509    1.166070   -1.513083
     27          1           0        1.112652    1.779840   -1.550481
     28          6           0       -1.170289    2.900137   -2.580073
     29          8           0       -0.805842    3.898898   -2.018703
     30          7           0       -1.986327    3.015477   -3.678659
     31          1           0       -1.969783    3.940158   -4.077513
     32          1           0       -1.977314    2.246199   -4.326501
     33          6           0        0.926001    2.137886    3.796413
     34          6           0       -0.919940    2.084679    1.737678
     35          6           0       -1.835599    2.701676    0.802836
     36          6           0       -4.055396    2.994550   -0.331840
     37          6           0       -3.038919    2.189754    0.466529
     38          8           0       -0.968502    0.897449    2.104165
     39         16           0        0.220138    3.159091    2.451721
     40          1           0        0.081257    1.676915    4.326501
     41          1           0        1.556587    1.360708    3.341847
     42          1           0       -4.837849    2.337862   -0.725983
     43          1           0       -3.549260    3.526551   -1.147914
     44          1           0       -4.519303    3.737912    0.334983
     45          1           0       -3.400301    1.286943    0.979902
     46          1           0       -1.486260    3.641907    0.363300
     47          1           0        2.621158   -4.093867   -0.376571
     48          1           0        1.518485    2.751074    4.475428
 ---------------------------------------------------------------------
                    Distance matrix (angstroms):
                    1          2          3          4          5
     1  C    0.000000
     2  H    1.098117   0.000000
     3  H    1.099771   1.806946   0.000000
     4  C    3.498046   4.202344   4.166159   0.000000
     5  H    3.507990   4.193415   4.265130   1.111317   0.000000
     6  O    4.819314   5.582386   5.356263   1.410744   2.039945
     7  H    5.505744   6.180748   6.148620   2.013605   2.352660
     8  C    2.649759   3.545558   2.983662   1.556491   2.228458
     9  H    2.769641   3.827700   2.835785   2.254887   2.542538
    10  O    3.748442   4.554556   3.859509   2.394183   3.356888
    11  H    3.804079   4.589436   3.661701   3.274768   4.166532
    12  C    3.635114   3.974812   4.460895   1.550027   2.232846
    13  H    4.233925   4.570431   4.902558   2.192045   3.133776
    14  C    1.553461   2.153514   2.143191   2.454798   2.919245
    15  H    2.198114   2.537368   2.428018   3.271803   3.926416
    16  O    2.469190   2.596404   3.376707   2.310273   2.712529
    17  N    4.636518   4.774904   5.594564   2.541085   2.794968
    18  C    4.730939   4.778968   5.784333   3.102382   2.814560
    19  H    3.928221   4.011514   4.990266   2.873670   2.329073
    20  C    5.964782   5.912806   7.038273   4.327321   3.973617
    21  H    6.333763   6.229237   7.416789   5.028229   4.471512
    22  C    7.129821   7.067496   8.178700   5.132410   5.015937
    23  H    7.902018   7.722377   8.974439   6.173034   6.010737
    24  H    7.736955   7.815190   8.750492   5.291540   5.156599
    25  C    6.853938   6.786673   7.837223   4.821659   5.039515
    26  C    5.780999   5.803351   6.703628   3.717423   4.130014
    27  H    5.883228   5.911869   6.700122   3.947242   4.600640
    28  C    8.144313   8.027676   9.089737   6.107729   6.438499
    29  O    8.680223   8.653125   9.552752   6.397486   6.874546
    30  N    9.006579   8.763067   9.995655   7.246087   7.462821
    31  H    9.818245   9.557713  10.777860   8.057748   8.348609
    32  H    8.694912   8.350515   9.710996   7.279525   7.411591
    33  C    7.767407   8.510076   8.191626   4.426870   5.030569
    34  C    7.595918   8.071391   8.340311   4.223342   4.563904
    35  C    8.366105   8.685274   9.208476   5.217051   5.471217
    36  C    9.989057  10.131064  10.951709   7.178329   7.178011
    37  C    8.777812   9.032809   9.697351   5.784562   5.794109
    38  O    6.937830   7.495860   7.675696   3.516669   3.645706
    39  S    8.153258   8.702884   8.740983   4.814300   5.441420
    40  H    8.091149   8.864756   8.549942   4.676445   5.054766
    41  H    6.728667   7.502265   7.113710   3.489506   4.186741
    42  H   10.185138  10.274804  11.189687   7.557490   7.408246
    43  H    9.977428  10.036966  10.943806   7.321639   7.433905
    44  H   10.880313  11.080997  11.809781   7.905640   7.939251
    45  H    8.596149   8.909966   9.513248   5.601088   5.424537
    46  H    8.822838   9.082929   9.644757   5.789067   6.191053
    47  H    1.090000   1.799254   1.806854   3.344365   3.020507
    48  H    8.472872   9.246877   8.795323   5.281714   5.955938
                    6          7          8          9         10
     6  O    0.000000
     7  H    0.977147   0.000000
     8  C    2.451966   3.333459   0.000000
     9  H    2.936600   3.834019   1.109452   0.000000
    10  O    2.651939   3.573424   1.421514   2.052183   0.000000
    11  H    3.607460   4.538145   2.010638   2.386033   0.969021
    12  C    2.470062   2.753197   2.377548   3.389402   2.896694
    13  H    2.673319   3.010764   2.671724   3.762329   2.608652
    14  C    3.696515   4.418605   1.573756   2.272564   2.446727
    15  H    4.334327   5.090012   2.234768   2.950421   2.489210
    16  O    3.587724   4.032934   2.386114   3.299122   3.182523
    17  N    3.175715   3.001433   3.717037   4.636347   4.274187
    18  C    3.874783   3.602860   4.332659   5.049935   5.214059
    19  H    3.901065   3.825675   3.905359   4.466166   5.013641
    20  C    4.894772   4.418887   5.633448   6.329177   6.465657
    21  H    5.653753   5.182235   6.291077   6.866834   7.260874
    22  C    5.419551   4.800406   6.491439   7.302032   7.067412
    23  H    6.516704   5.899562   7.488903   8.300291   8.092051
    24  H    5.288563   4.512349   6.765897   7.513732   7.270892
    25  C    5.074342   4.579694   6.026555   6.981491   6.344973
    26  C    4.056700   3.753689   4.798330   5.803346   5.044210
    27  H    4.218284   4.072803   4.770662   5.845972   4.734779
    28  C    6.209271   5.687053   7.241357   8.245267   7.358802
    29  O    6.283527   5.761983   7.479492   8.498865   7.376542
    30  N    7.449237   6.904395   8.382544   9.373007   8.599429
    31  H    8.200025   7.663878   9.144181  10.163933   9.250617
    32  H    7.661200   7.172150   8.367371   9.339874   8.712608
    33  C    3.065051   2.797450   5.210390   5.624068   4.676924
    34  C    3.339591   2.490515   5.565273   6.239950   5.521379
    35  C    4.583483   3.728282   6.615587   7.376229   6.646034
    36  C    6.783432   5.884962   8.661322   9.409532   8.903993
    37  C    5.305344   4.386288   7.284612   7.984590   7.536712
    38  O    2.617091   1.649983   4.940329   5.466951   5.128376
    39  S    3.713378   3.180783   5.828757   6.505189   5.357912
    40  H    3.284555   2.840432   5.602270   5.885677   5.294940
    41  H    2.155017   2.185584   4.139031   4.554361   3.595935
    42  H    7.287847   6.387232   9.070989   9.774575   9.464115
    43  H    7.019981   6.194550   8.730873   9.571758   8.898869
    44  H    7.348818   6.423166   9.382926  10.100252   9.531984
    45  H    5.122620   4.169662   7.146626   7.723577   7.546225
    46  H    5.185448   4.436452   7.073180   7.921054   6.940792
    47  H    4.646117   5.251445   2.803837   2.698907   4.125975
    48  H    3.939801   3.819727   5.852909   6.212011   5.110882
                   11         12         13         14         15
    11  H    0.000000
    12  C    3.665373   0.000000
    13  H    3.316553   1.107378   0.000000
    14  C    2.664109   2.384168   2.766244   0.000000
    15  H    2.385733   2.933223   2.924607   1.109747   0.000000
    16  O    3.664712   1.441862   2.082980   1.458298   2.043722
    17  N    5.074809   1.424859   2.067235   3.627662   4.199316
    18  C    6.006273   2.449964   3.362742   4.144951   4.922221
    19  H    5.741539   2.561433   3.633485   3.633958   4.548429
    20  C    7.280813   3.663642   4.444248   5.447314   6.187556
    21  H    8.059146   4.536141   5.410603   6.058579   6.874780
    22  C    7.904672   4.278837   4.755028   6.378757   6.964780
    23  H    8.901253   5.255200   5.721007   7.247835   7.803618
    24  H    8.169740   4.688271   5.111429   6.914203   7.546382
    25  C    7.123159   3.669645   3.820783   5.859516   6.233876
    26  C    5.799593   2.440997   2.490934   4.651607   4.974375
    27  H    5.395272   2.578285   2.158461   4.594151   4.679691
    28  C    8.090269   4.899582   4.795022   7.064012   7.283045
    29  O    8.089797   5.255802   4.923287   7.452681   7.575330
    30  N    9.311631   6.008286   6.006582   8.063707   8.293795
    31  H    9.928594   6.785617   6.662227   8.819990   8.961265
    32  H    9.396565   5.999342   6.121598   7.892517   8.146892
    33  C    5.450787   4.960674   4.613696   6.475653   6.814235
    34  C    6.446542   4.176840   4.107387   6.379926   6.872117
    35  C    7.555492   4.838406   4.796788   7.189410   7.656211
    36  C    9.817331   6.657103   6.807297   9.007592   9.543062
    37  C    8.472442   5.438347   5.627058   7.771175   8.356290
    38  O    6.090117   3.842270   4.043605   5.870470   6.522333
    39  S    6.171025   4.800171   4.354944   6.772040   7.048606
    40  H    6.114118   5.390087   5.247173   6.927296   7.408405
    41  H    4.386029   4.135095   3.806153   5.442549   5.782221
    42  H   10.386251   7.061677   7.357214   9.341598   9.951710
    43  H    9.767988   6.584645   6.627125   8.940562   9.371351
    44  H   10.449214   7.482910   7.558057   9.846982  10.366218
    45  H    8.506269   5.500654   5.861237   7.717388   8.422559
    46  H    7.791326   5.203779   4.960214   7.553040   7.878379
    47  H    4.348573   3.771105   4.567946   2.186634   3.098721
    48  H    5.756206   5.812995   5.338254   7.150213   7.374331
                   16         17         18         19         20
    16  O    0.000000
    17  N    2.353932   0.000000
    18  C    2.899615   1.409954   0.000000
    19  H    2.604993   2.095804   1.087382   0.000000
    20  C    4.151378   2.377493   1.319656   2.140625   0.000000
    21  H    4.840491   3.366534   2.086727   2.489825   1.088686
    22  C    5.011245   2.856073   2.485340   3.509366   1.519160
    23  H    5.838692   3.834440   3.339741   4.275260   2.187374
    24  H    5.647320   3.347671   3.075774   4.063926   2.213018
    25  C    4.482801   2.378247   2.787715   3.849691   2.492515
    26  C    3.343149   1.397091   2.417852   3.332744   2.793567
    27  H    3.426881   2.104100   3.352644   4.130797   3.866260
    28  C    5.713300   3.752373   4.272807   5.328664   3.855326
    29  O    6.213518   4.307171   5.074142   6.118990   4.812725
    30  N    6.650890   4.773117   5.002993   6.030360   4.309588
    31  H    7.433455   5.626581   5.964548   6.991800   5.312805
    32  H    6.446830   4.743185   4.779742   5.729662   4.031398
    33  C    6.291687   5.272804   6.164524   6.558146   6.792898
    34  C    5.603797   3.698656   4.372886   5.106152   4.574586
    35  C    6.183369   3.979497   4.501615   5.426509   4.315530
    36  C    7.799878   5.446134   5.462992   6.454493   4.652646
    37  C    6.671170   4.353848   4.459683   5.390849   3.919171
    38  O    5.208729   3.483439   3.911305   4.447558   4.247942
    39  S    6.219800   4.711573   5.688922   6.355029   6.076979
    40  H    6.722427   5.573152   6.247611   6.602163   6.777744
    41  H    5.382279   4.680158   5.609922   5.880280   6.414830
    42  H    8.095962   5.766927   5.515141   6.452106   4.513070
    43  H    7.670600   5.353456   5.514678   6.570397   4.725254
    44  H    8.699689   6.357091   6.449388   7.419623   5.699222
    45  H    6.694332   4.467325   4.321662   5.113260   3.783259
    46  H    6.518178   4.383398   5.094082   6.074312   4.915589
    47  H    2.827874   4.613548   4.446426   3.500524   5.630786
    48  H    7.089765   6.230483   7.194197   7.572000   7.848193
                   21         22         23         24         25
    21  H    0.000000
    22  C    2.248065   0.000000
    23  H    2.515233   1.102776   0.000000
    24  H    2.811607   1.173557   1.838993   0.000000
    25  C    3.476193   1.538993   2.209060   2.167160   0.000000
    26  C    3.872010   2.505073   3.370340   3.036769   1.335171
    27  H    4.935955   3.527581   4.308444   4.002239   2.144295
    28  C    4.729591   2.581021   2.772358   2.951135   1.487791
    29  O    5.747878   3.557931   3.866574   3.644943   2.374713
    30  N    4.959306   2.972840   2.614212   3.456352   2.437772
    31  H    5.962929   3.959525   3.581107   4.341270   3.313228
    32  H    4.555635   2.907843   2.344314   3.660453   2.601952
    33  C    7.641991   6.689634   7.732519   6.139190   6.165165
    34  C    5.434076   4.141643   5.113080   3.453405   3.820183
    35  C    5.145881   3.443568   4.227253   2.622810   3.198978
    36  C    5.129633   3.401667   3.543377   2.444926   3.828198
    37  C    4.533171   2.974318   3.570339   1.877332   3.324359
    38  O    4.985982   4.218563   5.252522   3.568866   4.193751
    39  S    7.013224   5.603094   6.553792   5.028548   4.923292
    40  H    7.518201   6.733873   7.762009   6.055368   6.454386
    41  H    7.269016   6.508169   7.590701   6.122122   5.944904
    42  H    4.764513   3.363105   3.268440   2.465184   4.174488
    43  H    5.307257   3.289898   3.313189   2.635494   3.390385
    44  H    6.164093   4.488229   4.637465   3.489857   4.816509
    45  H    4.218861   3.208129   3.843069   2.069006   3.891817
    46  H    5.813863   3.849498   4.511960   3.216502   3.244184
    47  H    5.868030   6.922736   7.699131   7.452707   6.871222
    48  H    8.716795   7.698173   8.726870   7.149525   7.078586
                   26         27         28         29         30
    26  C    0.000000
    27  H    1.090949   0.000000
    28  C    2.460655   2.743528   0.000000
    29  O    2.959562   2.896594   1.202281   0.000000
    30  N    3.597292   3.957222   1.373358   2.220232   0.000000
    31  H    4.362327   4.533682   1.990769   2.365408   1.007171
    32  H    3.724640   4.179912   2.031978   3.070780   1.005768
    33  C    5.444783   5.362118   6.755370   6.317913   8.070224
    34  C    3.562508   3.877672   4.401207   4.173106   5.598238
    35  C    3.451408   3.883306   3.453418   3.233392   4.494996
    36  C    4.790110   5.446955   3.658867   3.771333   3.934804
    37  C    3.941075   4.633778   3.643927   3.752890   4.355726
    38  O    3.814324   4.297238   5.098388   5.102274   6.242040
    39  S    4.437553   4.326261   5.226786   4.645927   6.516952
    40  H    5.863332   5.967686   7.124844   6.781280   8.375514
    41  H    5.041573   4.930276   6.698868   6.384276   8.036044
    42  H    5.242961   6.033211   4.147867   4.512764   4.160365
    43  H    4.455177   4.994645   2.846572   2.902285   3.018050
    44  H    5.693004   6.253633   4.518330   4.399494   4.800750
    45  H    4.390302   5.197358   4.499863   4.748174   5.166173
    46  H    3.540198   3.726150   3.051804   2.490573   4.120669
    47  H    5.896186   6.176900   8.255095   8.850154   9.092605
    48  H    6.331089   6.117154   7.551942   6.992406   8.879344
                   31         32         33         34         35
    31  H    0.000000
    32  H    1.712177   0.000000
    33  C    8.580935   8.626859   0.000000
    34  C    6.193659   6.157791   2.765631   0.000000
    35  C    5.036829   5.151469   4.111666   1.446736   0.000000
    36  C    4.390219   4.564622   6.526152   3.865470   2.510132
    37  C    4.985507   4.909513   5.177973   2.473244   1.350239
    38  O    6.962311   6.647578   2.826929   1.243458   2.387582
    39  S    6.930852   7.183763   1.830109   1.721626   2.674716
    40  H    8.941838   8.912700   1.098671   2.805471   4.140131
    41  H    8.610212   8.489764   1.099216   3.038203   4.444288
    42  H    4.693176   4.599434   7.328985   4.635056   3.388680
    43  H    3.353858   3.770110   6.811954   4.161606   2.724423
    44  H    5.100105   5.515102   6.647775   4.201922   2.914608
    45  H    5.887561   5.577004   5.231990   2.713448   2.116864
    46  H    4.477004   4.917659   4.457280   2.152810   1.095110
    47  H    9.965905   8.771791   7.689089   7.428584   8.211765
    48  H    9.313148   9.484169   1.090000   3.726295   4.973958
                   36         37         38         39         40
    36  C    0.000000
    37  C    1.522601   0.000000
    38  O    4.456553   2.939138   0.000000
    39  S    5.104457   3.937266   2.578505   0.000000
    40  H    6.367746   4.989778   2.578437   2.393937   0.000000
    41  H    6.903605   5.483927   2.850007   2.410934   1.801702
    42  H    1.094907   2.163369   5.005634   6.029548   7.082517
    43  H    1.097805   2.157290   4.914113   5.225013   6.824297
    44  H    1.101112   2.146074   4.879183   5.222826   6.430013
    45  H    2.250720   1.099644   2.707271   4.333448   4.844899
    46  H    2.739115   2.128417   3.291008   2.739782   4.693108
    47  H    9.737763   8.498893   6.629702   8.146750   7.865870
    48  H    7.364595   6.095596   3.904347   2.438765   1.800451
                   41         42         43         44         45
    41  H    0.000000
    42  H    7.641392   0.000000
    43  H    7.135720   1.803183   0.000000
    44  H    7.183924   1.785290   1.784556   0.000000
    45  H    5.491353   2.465972   3.092836   2.770440   0.000000
    46  H    4.830582   3.757688   2.559892   3.034694   3.096709
    47  H    6.686728   9.855253   9.835639  10.622111   8.188474
    48  H    1.794318   8.223649   7.609559   7.387288   6.209415
                   46         47         48
    46  H    0.000000
    47  H    8.789795   0.000000
    48  H    5.170268   8.462328   0.000000
 Symmetry turned off by external request.
 Stoichiometry    C16H24N2O5S
 Framework group  C1[X(C16H24N2O5S)]
 Deg. of freedom   138
 Full point group                 C1      NOp   1
 Rotational constants (GHZ):           0.2924347           0.1681847           0.1273181
 Leave Link  202 at Wed Mar  8 14:26:56 2023, MaxMem=  2684354560 cpu:               0.1 elap:               0.0
 (Enter /opt/gaussian/g16/l301.exe)
 Standard basis: def2TZVP (5D, 7F)
 Ernie: Thresh=  0.10000D-02 Tol=  0.10000D-05 Strict=F.
   894 basis functions,  1434 primitive gaussians,  1014 cartesian basis functions
    95 alpha electrons       95 beta electrons
       nuclear repulsion energy      2437.6667633003 Hartrees.
 IExCor= 4336 DFT=T Ex+Corr=M062X ExCW=0 ScaHFX=  0.540000
 ScaDFX=  1.000000  1.000000  1.000000  1.000000 ScalE2=  1.000000  1.000000
 IRadAn=      5 IRanWt=     -1 IRanGd=            0 ICorTp=0 IEmpDi=131
 NAtoms=   48 NActive=   48 NUniq=   48 SFac= 1.00D+00 NAtFMM=   60 NAOKFM=F Big=F
 Integral buffers will be    131072 words long.
 Raffenetti 2 integral format.
 Two-electron integral symmetry is turned off.
 R6Disp:  Grimme-D3 Dispersion energy=       -0.0042098649 Hartrees.
 Nuclear repulsion after empirical dispersion term =     2437.6625534353 Hartrees.
 Leave Link  301 at Wed Mar  8 14:26:56 2023, MaxMem=  2684354560 cpu:               0.9 elap:               0.1
 (Enter /opt/gaussian/g16/l302.exe)
 NPDir=0 NMtPBC=     1 NCelOv=     1 NCel=       1 NClECP=     1 NCelD=      1
         NCelK=      1 NCelE2=     1 NClLst=     1 CellRange=     0.0.
 One-electron integrals computed using PRISM.
   1 Symmetry operations used in ECPInt.
 ECPInt:  NShTT=   65703 NPrTT=  200010 LenC2=   56146 LenP2D=  118853.
 LDataN:  DoStor=T MaxTD1= 6 Len=  172
 NBasis=   894 RedAO= T EigKep=  3.04D-05  NBF=   894
 NBsUse=   894 1.00D-06 EigRej= -1.00D+00 NBFU=   894
 Precomputing XC quadrature grid using
 IXCGrd= 4 IRadAn=           5 IRanWt=          -1 IRanGd=           0 AccXCQ= 0.00D+00.
 Generated NRdTot=       0 NPtTot=           0 NUsed=           0 NTot=          32
 NSgBfM=  1001  1000  1000  1001  1001 MxSgAt=    48 MxSgA2=    48.
 Leave Link  302 at Wed Mar  8 14:26:59 2023, MaxMem=  2684354560 cpu:              37.7 elap:               2.4
 (Enter /opt/gaussian/g16/l303.exe)
 DipDrv:  MaxL=1.
 Leave Link  303 at Wed Mar  8 14:26:59 2023, MaxMem=  2684354560 cpu:               4.9 elap:               0.3
 (Enter /opt/gaussian/g16/l401.exe)
 ExpMin= 9.52D-02 ExpMax= 6.07D+04 ExpMxC= 2.07D+03 IAcc=3 IRadAn=         5 AccDes= 0.00D+00
 Harris functional with IExCor= 1009 and IRadAn=       5 diagonalized for initial guess.
 HarFok:  IExCor= 1009 AccDes= 0.00D+00 IRadAn=         5 IDoV= 1 UseB2=F ITyADJ=14
 ICtDFT=  3500011 ScaDFX=  1.000000  1.000000  1.000000  1.000000
 FoFCou: FMM=F IPFlag=           0 FMFlag=      100000 FMFlg1=           0
         NFxFlg=           0 DoJE=T BraDBF=F KetDBF=T FulRan=T
         wScrn=  0.000000 ICntrl=       500 IOpCl=  0 I1Cent=   200000004 NGrid=           0
         NMat0=    1 NMatS0=      1 NMatT0=    0 NMatD0=    1 NMtDS0=    0 NMtDT0=    0
 Symmetry not used in FoFCou.
 Harris En= -1507.19936485607    
 JPrj=0 DoOrth=F DoCkMO=F.
 Leave Link  401 at Wed Mar  8 14:27:08 2023, MaxMem=  2684354560 cpu:             135.9 elap:               8.5
 (Enter /opt/gaussian/g16/l502.exe)
 Two-electron integral symmetry not used.
 Closed shell SCF:
 Using DIIS extrapolation, IDIIS=  1040.
 NGot=  2684354560 LenX=  2682275214 LenY=  2681246004
 Requested convergence on RMS density matrix=1.00D-08 within 128 cycles.
 Requested convergence on MAX density matrix=1.00D-06.
 Requested convergence on             energy=1.00D-06.
 No special actions if energy rises.
 Fock matrices will be formed incrementally for  20 cycles.
 Integral accuracy reduced to 1.0D-05 until final iterations.

 Cycle   1  Pass 0  IDiag  1:
 FoFJK:  IHMeth= 1 ICntrl=       0 DoSepK=F KAlg= 0 I1Cent=           0 FoldK=F
 IRaf= 780000000 NMat=       1 IRICut=       1 DoRegI=T DoRafI=F ISym2E= 0 IDoP0=0 IntGTp=1.
 FoFCou: FMM=F IPFlag=           0 FMFlag=      100000 FMFlg1=           0
         NFxFlg=           0 DoJE=F BraDBF=F KetDBF=F FulRan=T
         wScrn=  0.000000 ICntrl=         0 IOpCl=  0 I1Cent=           0 NGrid=           0
         NMat0=    1 NMatS0=      1 NMatT0=    0 NMatD0=    1 NMtDS0=    0 NMtDT0=    0
 Symmetry not used in FoFCou.
 E= -1507.14081003874    
 DIIS: error= 1.37D-02 at cycle   1 NSaved=   1.
 NSaved= 1 IEnMin= 1 EnMin= -1507.14081003874     IErMin= 1 ErrMin= 1.37D-02
 ErrMax= 1.37D-02  0.00D+00 EMaxC= 1.00D-01 BMatC= 9.95D-01 BMatP= 9.95D-01
 IDIUse=3 WtCom= 8.63D-01 WtEn= 1.37D-01
 Coeff-Com:  0.100D+01
 Coeff-En:   0.100D+01
 Coeff:      0.100D+01
 Gap=     0.287 Goal=   None    Shift=    0.000
 GapD=    0.287 DampG=1.000 DampE=0.500 DampFc=0.5000 IDamp=-1.
 Damping current iteration by 5.00D-01
 RMSDP=3.75D-03 MaxDP=9.86D-01              OVMax= 2.31D-01

 Cycle   2  Pass 0  IDiag  1:
 RMSU=  1.87D-03    CP:  1.01D+00
 E= -1507.47324377547     Delta-E=       -0.332433736732 Rises=F Damp=T
 DIIS: error= 3.80D-03 at cycle   2 NSaved=   2.
 NSaved= 2 IEnMin= 2 EnMin= -1507.47324377547     IErMin= 2 ErrMin= 3.80D-03
 ErrMax= 3.80D-03  0.00D+00 EMaxC= 1.00D-01 BMatC= 8.98D-02 BMatP= 9.95D-01
 IDIUse=3 WtCom= 9.62D-01 WtEn= 3.80D-02
 Coeff-Com:  0.500D-02 0.995D+00
 Coeff-En:   0.587D-01 0.941D+00
 Coeff:      0.704D-02 0.993D+00
 Gap=     0.340 Goal=   None    Shift=    0.000
 RMSDP=1.17D-03 MaxDP=2.86D-01 DE=-3.32D-01 OVMax= 1.85D-01

 Cycle   3  Pass 0  IDiag  1:
 RMSU=  9.42D-04    CP:  9.96D-01  6.31D-01
 E= -1507.83564010624     Delta-E=       -0.362396330768 Rises=F Damp=F
 DIIS: error= 5.27D-03 at cycle   3 NSaved=   3.
 NSaved= 3 IEnMin= 3 EnMin= -1507.83564010624     IErMin= 2 ErrMin= 3.80D-03
 ErrMax= 5.27D-03  0.00D+00 EMaxC= 1.00D-01 BMatC= 5.59D-02 BMatP= 8.98D-02
 IDIUse=3 WtCom= 9.47D-01 WtEn= 5.27D-02
 Coeff-Com: -0.761D-01 0.457D+00 0.619D+00
 Coeff-En:   0.000D+00 0.000D+00 0.100D+01
 Coeff:     -0.721D-01 0.433D+00 0.639D+00
 Gap=     0.217 Goal=   None    Shift=    0.000
 RMSDP=3.47D-04 MaxDP=3.00D-02 DE=-3.62D-01 OVMax= 7.18D-02

 Cycle   4  Pass 0  IDiag  1:
 RMSU=  3.12D-04    CP:  9.98D-01  7.03D-01  9.26D-01
 E= -1507.87196508956     Delta-E=       -0.036324983320 Rises=F Damp=F
 DIIS: error= 2.61D-03 at cycle   4 NSaved=   4.
 NSaved= 4 IEnMin= 4 EnMin= -1507.87196508956     IErMin= 4 ErrMin= 2.61D-03
 ErrMax= 2.61D-03  0.00D+00 EMaxC= 1.00D-01 BMatC= 1.16D-02 BMatP= 5.59D-02
 IDIUse=3 WtCom= 9.74D-01 WtEn= 2.61D-02
 Coeff-Com: -0.354D-01 0.972D-01 0.349D+00 0.589D+00
 Coeff-En:   0.000D+00 0.000D+00 0.145D+00 0.855D+00
 Coeff:     -0.345D-01 0.946D-01 0.344D+00 0.596D+00
 Gap=     0.217 Goal=   None    Shift=    0.000
 RMSDP=1.19D-04 MaxDP=1.17D-02 DE=-3.63D-02 OVMax= 1.94D-02

 Cycle   5  Pass 0  IDiag  1:
 RMSU=  7.58D-05    CP:  9.98D-01  7.02D-01  9.57D-01  7.23D-01
 E= -1507.88055067801     Delta-E=       -0.008585588457 Rises=F Damp=F
 DIIS: error= 4.17D-04 at cycle   5 NSaved=   5.
 NSaved= 5 IEnMin= 5 EnMin= -1507.88055067801     IErMin= 5 ErrMin= 4.17D-04
 ErrMax= 4.17D-04  0.00D+00 EMaxC= 1.00D-01 BMatC= 5.03D-04 BMatP= 1.16D-02
 IDIUse=3 WtCom= 9.96D-01 WtEn= 4.17D-03
 Coeff-Com: -0.101D-01 0.164D-01 0.122D+00 0.273D+00 0.599D+00
 Coeff-En:   0.000D+00 0.000D+00 0.000D+00 0.000D+00 0.100D+01
 Coeff:     -0.100D-01 0.163D-01 0.122D+00 0.271D+00 0.600D+00
 Gap=     0.217 Goal=   None    Shift=    0.000
 RMSDP=4.41D-05 MaxDP=9.62D-03 DE=-8.59D-03 OVMax= 4.69D-03

 Cycle   6  Pass 0  IDiag  1:
 RMSU=  3.04D-05    CP:  9.97D-01  6.87D-01  9.68D-01  7.48D-01  8.75D-01
 E= -1507.88095229209     Delta-E=       -0.000401614079 Rises=F Damp=F
 DIIS: error= 1.27D-04 at cycle   6 NSaved=   6.
 NSaved= 6 IEnMin= 6 EnMin= -1507.88095229209     IErMin= 6 ErrMin= 1.27D-04
 ErrMax= 1.27D-04  0.00D+00 EMaxC= 1.00D-01 BMatC= 5.53D-05 BMatP= 5.03D-04
 IDIUse=3 WtCom= 9.99D-01 WtEn= 1.27D-03
 Coeff-Com:  0.643D-03-0.560D-02 0.907D-02 0.373D-01 0.255D+00 0.703D+00
 Coeff-En:   0.000D+00 0.000D+00 0.000D+00 0.000D+00 0.000D+00 0.100D+01
 Coeff:      0.642D-03-0.560D-02 0.906D-02 0.373D-01 0.255D+00 0.704D+00
 Gap=     0.218 Goal=   None    Shift=    0.000
 RMSDP=1.75D-05 MaxDP=1.03D-03 DE=-4.02D-04 OVMax= 2.34D-03

 Cycle   7  Pass 0  IDiag  1:
 RMSU=  1.58D-05    CP:  9.97D-01  6.86D-01  9.73D-01  7.54D-01  9.47D-01
                    CP:  1.01D+00
 E= -1507.88102434091     Delta-E=       -0.000072048814 Rises=F Damp=F
 DIIS: error= 5.79D-05 at cycle   7 NSaved=   7.
 NSaved= 7 IEnMin= 7 EnMin= -1507.88102434091     IErMin= 7 ErrMin= 5.79D-05
 ErrMax= 5.79D-05  0.00D+00 EMaxC= 1.00D-01 BMatC= 8.78D-06 BMatP= 5.53D-05
 IDIUse=1 WtCom= 1.00D+00 WtEn= 0.00D+00
 Coeff-Com:  0.189D-02-0.502D-02-0.132D-01-0.276D-01 0.511D-02 0.275D+00
 Coeff-Com:  0.764D+00
 Coeff:      0.189D-02-0.502D-02-0.132D-01-0.276D-01 0.511D-02 0.275D+00
 Coeff:      0.764D+00
 Gap=     0.218 Goal=   None    Shift=    0.000
 RMSDP=1.53D-05 MaxDP=3.35D-03 DE=-7.20D-05 OVMax= 2.06D-03

 Cycle   8  Pass 0  IDiag  1:
 RMSU=  1.03D-05    CP:  9.97D-01  6.82D-01  9.74D-01  7.61D-01  1.01D+00
                    CP:  1.19D+00  1.23D+00
 E= -1507.88103932844     Delta-E=       -0.000014987531 Rises=F Damp=F
 DIIS: error= 3.12D-05 at cycle   8 NSaved=   8.
 NSaved= 8 IEnMin= 8 EnMin= -1507.88103932844     IErMin= 8 ErrMin= 3.12D-05
 ErrMax= 3.12D-05  0.00D+00 EMaxC= 1.00D-01 BMatC= 2.18D-06 BMatP= 8.78D-06
 IDIUse=1 WtCom= 1.00D+00 WtEn= 0.00D+00
 Coeff-Com:  0.867D-03-0.152D-02-0.745D-02-0.215D-01-0.428D-01 0.340D-02
 Coeff-Com:  0.370D+00 0.699D+00
 Coeff:      0.867D-03-0.152D-02-0.745D-02-0.215D-01-0.428D-01 0.340D-02
 Coeff:      0.370D+00 0.699D+00
 Gap=     0.218 Goal=   None    Shift=    0.000
 RMSDP=1.22D-05 MaxDP=9.30D-04 DE=-1.50D-05 OVMax= 5.88D-04

 Cycle   9  Pass 0  IDiag  1:
 RMSU=  7.44D-06    CP:  9.96D-01  6.81D-01  9.75D-01  7.59D-01  1.04D+00
                    CP:  1.27D+00  1.63D+00  1.56D+00
 E= -1507.88103319447     Delta-E=        0.000006133970 Rises=F Damp=F
 DIIS: error= 1.98D-05 at cycle   9 NSaved=   9.
 NSaved= 9 IEnMin= 8 EnMin= -1507.88103932844     IErMin= 9 ErrMin= 1.98D-05
 ErrMax= 1.98D-05  0.00D+00 EMaxC= 1.00D-01 BMatC= 3.56D-07 BMatP= 2.18D-06
 IDIUse=1 WtCom= 1.00D+00 WtEn= 0.00D+00
 Coeff-Com:  0.163D-03-0.127D-03-0.127D-02-0.623D-02-0.176D-01-0.304D-01
 Coeff-Com:  0.721D-01 0.291D+00 0.692D+00
 Coeff:      0.163D-03-0.127D-03-0.127D-02-0.623D-02-0.176D-01-0.304D-01
 Coeff:      0.721D-01 0.291D+00 0.692D+00
 Gap=     0.218 Goal=   None    Shift=    0.000
 RMSDP=1.49D-05 MaxDP=1.03D-03 DE= 6.13D-06 OVMax= 2.09D-04

 Cycle  10  Pass 0  IDiag  1:
 RMSU=  5.32D-06    CP:  9.96D-01  6.80D-01  9.76D-01  7.59D-01  1.07D+00
                    CP:  1.35D+00  2.01D+00  2.44D+00  2.07D+00
 E= -1507.88102029518     Delta-E=        0.000012899287 Rises=F Damp=F
 DIIS: error= 3.44D-05 at cycle  10 NSaved=  10.
 NSaved=10 IEnMin= 8 EnMin= -1507.88103932844     IErMin= 9 ErrMin= 1.98D-05
 ErrMax= 3.44D-05  0.00D+00 EMaxC= 1.00D-01 BMatC= 3.81D-07 BMatP= 3.56D-07
 IDIUse=1 WtCom= 1.00D+00 WtEn= 0.00D+00
 Coeff-Com:  0.175D-03-0.131D-03-0.139D-02-0.677D-02-0.193D-01-0.335D-01
 Coeff-Com:  0.778D-01 0.320D+00 0.765D+00-0.101D+00
 Coeff:      0.175D-03-0.131D-03-0.139D-02-0.677D-02-0.193D-01-0.335D-01
 Coeff:      0.778D-01 0.320D+00 0.765D+00-0.101D+00
 Gap=     0.218 Goal=   None    Shift=    0.000
 RMSDP=3.01D-06 MaxDP=1.72D-04 DE= 1.29D-05 OVMax= 8.19D-06

 Initial convergence to 1.0D-05 achieved.  Increase integral accuracy.
 Cycle  11  Pass 1  IDiag  1:
 E= -1507.88088656973     Delta-E=        0.000133725452 Rises=F Damp=F
 DIIS: error= 3.18D-04 at cycle   1 NSaved=   1.
 NSaved= 1 IEnMin= 1 EnMin= -1507.88088656973     IErMin= 1 ErrMin= 3.18D-04
 ErrMax= 3.18D-04  0.00D+00 EMaxC= 1.00D-01 BMatC= 7.99D-05 BMatP= 7.99D-05
 IDIUse=3 WtCom= 9.97D-01 WtEn= 3.18D-03
 Coeff-Com:  0.100D+01
 Coeff-En:   0.100D+01
 Coeff:      0.100D+01
 Gap=     0.218 Goal=   None    Shift=    0.000
 RMSDP=3.01D-06 MaxDP=1.72D-04 DE= 1.34D-04 OVMax= 8.07D-04

 Cycle  12  Pass 1  IDiag  1:
 RMSU=  3.96D-04    CP:  9.97D-01
 E= -1507.88093759310     Delta-E=       -0.000051023372 Rises=F Damp=F
 DIIS: error= 7.58D-06 at cycle   2 NSaved=   2.
 NSaved= 2 IEnMin= 2 EnMin= -1507.88093759310     IErMin= 2 ErrMin= 7.58D-06
 ErrMax= 7.58D-06  0.00D+00 EMaxC= 1.00D-01 BMatC= 1.12D-07 BMatP= 7.99D-05
 IDIUse=1 WtCom= 1.00D+00 WtEn= 0.00D+00
 Coeff-Com: -0.154D-01 0.102D+01
 Coeff:     -0.154D-01 0.102D+01
 Gap=     0.218 Goal=   None    Shift=    0.000
 RMSDP=1.40D-05 MaxDP=9.52D-04 DE=-5.10D-05 OVMax= 1.01D-04

 Cycle  13  Pass 1  IDiag  1:
 RMSU=  4.63D-06    CP:  9.97D-01  1.03D+00
 E= -1507.88093761871     Delta-E=       -0.000000025610 Rises=F Damp=F
 DIIS: error= 4.78D-06 at cycle   3 NSaved=   3.
 NSaved= 3 IEnMin= 3 EnMin= -1507.88093761871     IErMin= 3 ErrMin= 4.78D-06
 ErrMax= 4.78D-06  0.00D+00 EMaxC= 1.00D-01 BMatC= 1.30D-07 BMatP= 1.12D-07
 IDIUse=1 WtCom= 1.00D+00 WtEn= 0.00D+00
 Coeff-Com: -0.943D-02 0.555D+00 0.454D+00
 Coeff:     -0.943D-02 0.555D+00 0.454D+00
 Gap=     0.218 Goal=   None    Shift=    0.000
 RMSDP=5.20D-07 MaxDP=9.27D-05 DE=-2.56D-08 OVMax= 6.10D-05

 Cycle  14  Pass 1  IDiag  1:
 RMSU=  4.88D-07    CP:  9.97D-01  1.03D+00  1.01D+00
 E= -1507.88093771254     Delta-E=       -0.000000093827 Rises=F Damp=F
 DIIS: error= 1.03D-06 at cycle   4 NSaved=   4.
 NSaved= 4 IEnMin= 4 EnMin= -1507.88093771254     IErMin= 4 ErrMin= 1.03D-06
 ErrMax= 1.03D-06  0.00D+00 EMaxC= 1.00D-01 BMatC= 4.11D-09 BMatP= 1.12D-07
 IDIUse=1 WtCom= 1.00D+00 WtEn= 0.00D+00
 Coeff-Com: -0.175D-02 0.930D-01 0.165D+00 0.744D+00
 Coeff:     -0.175D-02 0.930D-01 0.165D+00 0.744D+00
 Gap=     0.218 Goal=   None    Shift=    0.000
 RMSDP=2.70D-07 MaxDP=2.62D-05 DE=-9.38D-08 OVMax= 2.11D-05

 Cycle  15  Pass 1  IDiag  1:
 RMSU=  1.52D-07    CP:  9.97D-01  1.03D+00  1.04D+00  9.35D-01
 E= -1507.88093771540     Delta-E=       -0.000000002865 Rises=F Damp=F
 DIIS: error= 8.88D-07 at cycle   5 NSaved=   5.
 NSaved= 5 IEnMin= 5 EnMin= -1507.88093771540     IErMin= 5 ErrMin= 8.88D-07
 ErrMax= 8.88D-07  0.00D+00 EMaxC= 1.00D-01 BMatC= 1.23D-09 BMatP= 4.11D-09
 IDIUse=1 WtCom= 1.00D+00 WtEn= 0.00D+00
 Coeff-Com:  0.369D-03-0.276D-01 0.232D-01 0.411D+00 0.593D+00
 Coeff:      0.369D-03-0.276D-01 0.232D-01 0.411D+00 0.593D+00
 Gap=     0.218 Goal=   None    Shift=    0.000
 RMSDP=9.51D-08 MaxDP=5.39D-06 DE=-2.87D-09 OVMax= 6.52D-06

 Cycle  16  Pass 1  IDiag  1:
 RMSU=  6.01D-08    CP:  9.97D-01  1.03D+00  1.05D+00  9.61D-01  1.06D+00
 E= -1507.88093771656     Delta-E=       -0.000000001157 Rises=F Damp=F
 DIIS: error= 1.24D-07 at cycle   6 NSaved=   6.
 NSaved= 6 IEnMin= 6 EnMin= -1507.88093771656     IErMin= 6 ErrMin= 1.24D-07
 ErrMax= 1.24D-07  0.00D+00 EMaxC= 1.00D-01 BMatC= 4.36D-11 BMatP= 1.23D-09
 IDIUse=1 WtCom= 1.00D+00 WtEn= 0.00D+00
 Coeff-Com:  0.252D-03-0.164D-01-0.308D-02 0.107D+00 0.207D+00 0.705D+00
 Coeff:      0.252D-03-0.164D-01-0.308D-02 0.107D+00 0.207D+00 0.705D+00
 Gap=     0.218 Goal=   None    Shift=    0.000
 RMSDP=2.09D-08 MaxDP=2.73D-06 DE=-1.16D-09 OVMax= 3.31D-06

 Cycle  17  Pass 1  IDiag  1:
 RMSU=  1.65D-08    CP:  9.97D-01  1.03D+00  1.05D+00  9.64D-01  1.14D+00
                    CP:  1.06D+00
 E= -1507.88093771664     Delta-E=       -0.000000000081 Rises=F Damp=F
 DIIS: error= 6.96D-08 at cycle   7 NSaved=   7.
 NSaved= 7 IEnMin= 7 EnMin= -1507.88093771664     IErMin= 7 ErrMin= 6.96D-08
 ErrMax= 6.96D-08  0.00D+00 EMaxC= 1.00D-01 BMatC= 1.09D-11 BMatP= 4.36D-11
 IDIUse=1 WtCom= 1.00D+00 WtEn= 0.00D+00
 Coeff-Com:  0.151D-04-0.145D-03-0.705D-02-0.484D-01-0.629D-01 0.292D+00
 Coeff-Com:  0.826D+00
 Coeff:      0.151D-04-0.145D-03-0.705D-02-0.484D-01-0.629D-01 0.292D+00
 Coeff:      0.826D+00
 Gap=     0.218 Goal=   None    Shift=    0.000
 RMSDP=1.15D-08 MaxDP=1.86D-06 DE=-8.14D-11 OVMax= 1.82D-06

 Cycle  18  Pass 1  IDiag  1:
 RMSU=  6.72D-09    CP:  9.97D-01  1.03D+00  1.05D+00  9.61D-01  1.17D+00
                    CP:  1.17D+00  1.14D+00
 E= -1507.88093771665     Delta-E=       -0.000000000005 Rises=F Damp=F
 DIIS: error= 3.68D-08 at cycle   8 NSaved=   8.
 NSaved= 8 IEnMin= 8 EnMin= -1507.88093771665     IErMin= 8 ErrMin= 3.68D-08
 ErrMax= 3.68D-08  0.00D+00 EMaxC= 1.00D-01 BMatC= 1.57D-12 BMatP= 1.09D-11
 IDIUse=1 WtCom= 1.00D+00 WtEn= 0.00D+00
 Coeff-Com: -0.248D-04 0.199D-02-0.290D-02-0.339D-01-0.561D-01 0.476D-01
 Coeff-Com:  0.375D+00 0.668D+00
 Coeff:     -0.248D-04 0.199D-02-0.290D-02-0.339D-01-0.561D-01 0.476D-01
 Coeff:      0.375D+00 0.668D+00
 Gap=     0.218 Goal=   None    Shift=    0.000
 RMSDP=3.01D-09 MaxDP=1.99D-07 DE=-5.46D-12 OVMax= 6.19D-07

 SCF Done:  E(RM062X) =  -1507.88093772     A.U. after   18 cycles
            NFock= 18  Conv=0.30D-08     -V/T= 2.0042
 KE= 1.501565790112D+03 PE=-8.414486775481D+03 EE= 2.967377494218D+03
 Leave Link  502 at Wed Mar  8 14:46:01 2023, MaxMem=  2684354560 cpu:           18075.7 elap:            1133.1
 (Enter /opt/gaussian/g16/l601.exe)
 Copying SCF densities to generalized density rwf, IOpCl= 0 IROHF=0.

 **********************************************************************

            Population analysis using the SCF density.

 **********************************************************************

 Alpha  occ. eigenvalues --  -89.90951 -19.62698 -19.62525 -19.61438 -19.59779
 Alpha  occ. eigenvalues --  -19.59322 -14.78693 -14.76285 -10.64703 -10.64266
 Alpha  occ. eigenvalues --  -10.62443 -10.60142 -10.60076 -10.59471 -10.58717
 Alpha  occ. eigenvalues --  -10.57159 -10.56622 -10.55678 -10.55499 -10.54289
 Alpha  occ. eigenvalues --  -10.54121 -10.54094 -10.53957 -10.53426  -8.26897
 Alpha  occ. eigenvalues --   -6.18828  -6.18604  -6.18428  -1.17311  -1.17216
 Alpha  occ. eigenvalues --   -1.16049  -1.14209  -1.11795  -1.07246  -1.01297
 Alpha  occ. eigenvalues --   -0.91671  -0.90858  -0.88458  -0.87316  -0.86691
 Alpha  occ. eigenvalues --   -0.84558  -0.81415  -0.78111  -0.75208  -0.74678
 Alpha  occ. eigenvalues --   -0.72618  -0.69549  -0.67377  -0.66652  -0.65733
 Alpha  occ. eigenvalues --   -0.62596  -0.62334  -0.61104  -0.59865  -0.58157
 Alpha  occ. eigenvalues --   -0.57390  -0.55703  -0.55348  -0.54600  -0.53986
 Alpha  occ. eigenvalues --   -0.52889  -0.52601  -0.51819  -0.50588  -0.50442
 Alpha  occ. eigenvalues --   -0.49990  -0.49524  -0.49007  -0.48171  -0.48062
 Alpha  occ. eigenvalues --   -0.47737  -0.47561  -0.46831  -0.46350  -0.45737
 Alpha  occ. eigenvalues --   -0.44837  -0.44253  -0.43793  -0.43193  -0.42403
 Alpha  occ. eigenvalues --   -0.42183  -0.41110  -0.40794  -0.39545  -0.37117
 Alpha  occ. eigenvalues --   -0.35337  -0.35073  -0.34576  -0.34109  -0.33000
 Alpha  occ. eigenvalues --   -0.32482  -0.32327  -0.31504  -0.29728  -0.24713
 Alpha virt. eigenvalues --   -0.02909   0.01494   0.05331   0.05572   0.05789
 Alpha virt. eigenvalues --    0.06517   0.06748   0.07335   0.08176   0.08474
 Alpha virt. eigenvalues --    0.09415   0.09642   0.10162   0.10913   0.11456
 Alpha virt. eigenvalues --    0.11871   0.11976   0.12667   0.13168   0.13259
 Alpha virt. eigenvalues --    0.13677   0.14490   0.14737   0.14941   0.15263
 Alpha virt. eigenvalues --    0.15637   0.15947   0.16329   0.17171   0.17584
 Alpha virt. eigenvalues --    0.17998   0.18927   0.19082   0.19501   0.20108
 Alpha virt. eigenvalues --    0.20311   0.21242   0.21445   0.21613   0.22223
 Alpha virt. eigenvalues --    0.23107   0.23623   0.23812   0.23981   0.24536
 Alpha virt. eigenvalues --    0.25152   0.25182   0.25717   0.25952   0.26349
 Alpha virt. eigenvalues --    0.26926   0.27249   0.27712   0.28464   0.29135
 Alpha virt. eigenvalues --    0.29733   0.30222   0.30389   0.30700   0.31012
 Alpha virt. eigenvalues --    0.31833   0.32598   0.32859   0.33159   0.33752
 Alpha virt. eigenvalues --    0.34196   0.34296   0.34994   0.35683   0.36258
 Alpha virt. eigenvalues --    0.36470   0.37330   0.37615   0.37995   0.38229
 Alpha virt. eigenvalues --    0.39133   0.39309   0.39948   0.40345   0.40638
 Alpha virt. eigenvalues --    0.41068   0.41217   0.41906   0.42260   0.42404
 Alpha virt. eigenvalues --    0.42789   0.43062   0.43309   0.43893   0.44078
 Alpha virt. eigenvalues --    0.44454   0.44760   0.45134   0.45314   0.45713
 Alpha virt. eigenvalues --    0.45935   0.46371   0.46800   0.47305   0.47659
 Alpha virt. eigenvalues --    0.48006   0.48563   0.48811   0.48965   0.49198
 Alpha virt. eigenvalues --    0.49563   0.49708   0.50166   0.50510   0.50825
 Alpha virt. eigenvalues --    0.51041   0.51479   0.51723   0.51826   0.52178
 Alpha virt. eigenvalues --    0.52758   0.53267   0.53596   0.53741   0.54178
 Alpha virt. eigenvalues --    0.54848   0.55096   0.55785   0.56387   0.56926
 Alpha virt. eigenvalues --    0.57366   0.58197   0.58800   0.58836   0.59263
 Alpha virt. eigenvalues --    0.59842   0.60118   0.60378   0.61554   0.61671
 Alpha virt. eigenvalues --    0.62086   0.63175   0.63380   0.63706   0.64189
 Alpha virt. eigenvalues --    0.65075   0.65818   0.66449   0.66907   0.67404
 Alpha virt. eigenvalues --    0.68874   0.69059   0.69426   0.69757   0.70530
 Alpha virt. eigenvalues --    0.71266   0.72424   0.72897   0.73160   0.73586
 Alpha virt. eigenvalues --    0.74309   0.75030   0.75993   0.76956   0.77514
 Alpha virt. eigenvalues --    0.78601   0.79064   0.79349   0.80346   0.81169
 Alpha virt. eigenvalues --    0.81763   0.82119   0.82624   0.83201   0.84297
 Alpha virt. eigenvalues --    0.84885   0.85327   0.86035   0.86813   0.87739
 Alpha virt. eigenvalues --    0.88341   0.88820   0.88878   0.90093   0.90782
 Alpha virt. eigenvalues --    0.91781   0.92515   0.93147   0.93761   0.94275
 Alpha virt. eigenvalues --    0.94851   0.95367   0.95859   0.96464   0.96832
 Alpha virt. eigenvalues --    0.97349   0.98510   0.98697   0.99056   0.99501
 Alpha virt. eigenvalues --    1.00581   1.01587   1.02225   1.03253   1.03544
 Alpha virt. eigenvalues --    1.04473   1.04575   1.05456   1.05694   1.06612
 Alpha virt. eigenvalues --    1.07028   1.07955   1.08960   1.09279   1.10015
 Alpha virt. eigenvalues --    1.10351   1.10915   1.11634   1.12274   1.12980
 Alpha virt. eigenvalues --    1.14069   1.14240   1.14519   1.14987   1.15840
 Alpha virt. eigenvalues --    1.16617   1.17575   1.17997   1.18214   1.19364
 Alpha virt. eigenvalues --    1.20181   1.21072   1.22232   1.22571   1.22841
 Alpha virt. eigenvalues --    1.23893   1.25489   1.26088   1.27058   1.27270
 Alpha virt. eigenvalues --    1.27923   1.29204   1.30253   1.31620   1.31951
 Alpha virt. eigenvalues --    1.32891   1.33627   1.34145   1.34393   1.34645
 Alpha virt. eigenvalues --    1.35670   1.36530   1.37587   1.39129   1.39964
 Alpha virt. eigenvalues --    1.41185   1.41889   1.42620   1.43287   1.44357
 Alpha virt. eigenvalues --    1.45835   1.46565   1.46758   1.49400   1.49831
 Alpha virt. eigenvalues --    1.50017   1.51062   1.51654   1.52897   1.53278
 Alpha virt. eigenvalues --    1.53688   1.53963   1.54825   1.55340   1.55786
 Alpha virt. eigenvalues --    1.56402   1.56666   1.57150   1.57283   1.57513
 Alpha virt. eigenvalues --    1.58051   1.58549   1.59126   1.59904   1.60374
 Alpha virt. eigenvalues --    1.61379   1.61615   1.62161   1.62312   1.62703
 Alpha virt. eigenvalues --    1.63074   1.64311   1.64370   1.64705   1.65364
 Alpha virt. eigenvalues --    1.66239   1.66972   1.67203   1.67535   1.68303
 Alpha virt. eigenvalues --    1.68544   1.69228   1.69817   1.70371   1.71183
 Alpha virt. eigenvalues --    1.71761   1.72285   1.72792   1.73216   1.73776
 Alpha virt. eigenvalues --    1.74482   1.75435   1.76422   1.76969   1.77489
 Alpha virt. eigenvalues --    1.78153   1.78357   1.79319   1.80005   1.80736
 Alpha virt. eigenvalues --    1.81472   1.82055   1.82747   1.83453   1.83833
 Alpha virt. eigenvalues --    1.85258   1.85662   1.86925   1.87073   1.88484
 Alpha virt. eigenvalues --    1.88563   1.89270   1.89504   1.90087   1.91525
 Alpha virt. eigenvalues --    1.92022   1.92756   1.93035   1.93983   1.95020
 Alpha virt. eigenvalues --    1.95244   1.95774   1.97084   1.97811   1.97995
 Alpha virt. eigenvalues --    1.98729   1.99387   2.00038   2.00360   2.01167
 Alpha virt. eigenvalues --    2.01802   2.02330   2.02874   2.03521   2.04856
 Alpha virt. eigenvalues --    2.05439   2.06342   2.07029   2.07734   2.08942
 Alpha virt. eigenvalues --    2.09072   2.10333   2.10518   2.11316   2.12075
 Alpha virt. eigenvalues --    2.12635   2.13366   2.14117   2.15138   2.15812
 Alpha virt. eigenvalues --    2.17003   2.17383   2.18337   2.18726   2.19192
 Alpha virt. eigenvalues --    2.19877   2.20096   2.20952   2.21098   2.21682
 Alpha virt. eigenvalues --    2.22862   2.23361   2.24068   2.25179   2.25535
 Alpha virt. eigenvalues --    2.25868   2.27794   2.28152   2.29120   2.29785
 Alpha virt. eigenvalues --    2.30032   2.30626   2.31271   2.31878   2.32475
 Alpha virt. eigenvalues --    2.33041   2.33516   2.34152   2.34823   2.35042
 Alpha virt. eigenvalues --    2.36254   2.36921   2.37252   2.37513   2.38366
 Alpha virt. eigenvalues --    2.39189   2.39337   2.40512   2.41281   2.42501
 Alpha virt. eigenvalues --    2.43418   2.44177   2.45900   2.46262   2.47241
 Alpha virt. eigenvalues --    2.47562   2.48307   2.49368   2.50541   2.50638
 Alpha virt. eigenvalues --    2.51329   2.51754   2.52993   2.54047   2.54543
 Alpha virt. eigenvalues --    2.55069   2.56283   2.56790   2.57132   2.57734
 Alpha virt. eigenvalues --    2.58073   2.58579   2.59276   2.59596   2.60770
 Alpha virt. eigenvalues --    2.60825   2.61005   2.61889   2.63264   2.63880
 Alpha virt. eigenvalues --    2.63989   2.64801   2.65449   2.66128   2.66676
 Alpha virt. eigenvalues --    2.67441   2.68366   2.68485   2.69167   2.69723
 Alpha virt. eigenvalues --    2.70839   2.71278   2.71906   2.71975   2.73503
 Alpha virt. eigenvalues --    2.74495   2.74572   2.75506   2.76227   2.76765
 Alpha virt. eigenvalues --    2.77513   2.78936   2.80255   2.80799   2.80996
 Alpha virt. eigenvalues --    2.81382   2.81798   2.82819   2.83875   2.84555
 Alpha virt. eigenvalues --    2.84873   2.86026   2.87264   2.87887   2.88927
 Alpha virt. eigenvalues --    2.89949   2.90949   2.91302   2.91802   2.92821
 Alpha virt. eigenvalues --    2.93930   2.94312   2.95116   2.96483   2.97177
 Alpha virt. eigenvalues --    2.97893   2.98855   2.99286   2.99695   3.00925
 Alpha virt. eigenvalues --    3.01238   3.02053   3.02482   3.03304   3.03834
 Alpha virt. eigenvalues --    3.04067   3.04847   3.05581   3.05606   3.07035
 Alpha virt. eigenvalues --    3.07414   3.07715   3.08785   3.09734   3.09909
 Alpha virt. eigenvalues --    3.10564   3.10801   3.10938   3.12140   3.12575
 Alpha virt. eigenvalues --    3.13227   3.14009   3.14115   3.15333   3.16254
 Alpha virt. eigenvalues --    3.16530   3.16761   3.17377   3.18369   3.19096
 Alpha virt. eigenvalues --    3.20334   3.20645   3.21226   3.21637   3.22203
 Alpha virt. eigenvalues --    3.22589   3.23523   3.23787   3.23896   3.24135
 Alpha virt. eigenvalues --    3.24967   3.26018   3.26524   3.26955   3.27706
 Alpha virt. eigenvalues --    3.28261   3.28866   3.30061   3.30575   3.30647
 Alpha virt. eigenvalues --    3.31813   3.32050   3.32524   3.32721   3.33451
 Alpha virt. eigenvalues --    3.33778   3.34346   3.34766   3.35301   3.36612
 Alpha virt. eigenvalues --    3.37154   3.37539   3.37832   3.37993   3.38763
 Alpha virt. eigenvalues --    3.39242   3.39757   3.40710   3.41189   3.42163
 Alpha virt. eigenvalues --    3.42273   3.42764   3.43507   3.44666   3.45430
 Alpha virt. eigenvalues --    3.45718   3.46416   3.47003   3.48008   3.48688
 Alpha virt. eigenvalues --    3.49206   3.49527   3.50663   3.50945   3.52115
 Alpha virt. eigenvalues --    3.52937   3.53558   3.54602   3.54807   3.55803
 Alpha virt. eigenvalues --    3.56945   3.57146   3.57406   3.58895   3.58988
 Alpha virt. eigenvalues --    3.59614   3.61123   3.61377   3.62861   3.63489
 Alpha virt. eigenvalues --    3.64157   3.64822   3.66544   3.67275   3.68011
 Alpha virt. eigenvalues --    3.68692   3.69699   3.70303   3.70837   3.72325
 Alpha virt. eigenvalues --    3.73827   3.74840   3.75215   3.75947   3.76669
 Alpha virt. eigenvalues --    3.77842   3.78010   3.79050   3.79849   3.81152
 Alpha virt. eigenvalues --    3.81252   3.82992   3.84103   3.86882   3.87406
 Alpha virt. eigenvalues --    3.89054   3.89655   3.90247   3.91774   3.92443
 Alpha virt. eigenvalues --    3.92676   3.94073   3.96627   3.96966   3.98725
 Alpha virt. eigenvalues --    4.00169   4.00683   4.01031   4.01960   4.04452
 Alpha virt. eigenvalues --    4.05692   4.06141   4.07176   4.08253   4.09873
 Alpha virt. eigenvalues --    4.10940   4.11918   4.13650   4.14904   4.15118
 Alpha virt. eigenvalues --    4.17040   4.18614   4.19456   4.20392   4.22776
 Alpha virt. eigenvalues --    4.24748   4.26073   4.26791   4.27594   4.28050
 Alpha virt. eigenvalues --    4.30869   4.31877   4.34251   4.35226   4.36558
 Alpha virt. eigenvalues --    4.37853   4.38771   4.39304   4.40126   4.42010
 Alpha virt. eigenvalues --    4.43308   4.44035   4.45238   4.47040   4.47497
 Alpha virt. eigenvalues --    4.49357   4.50715   4.51829   4.53984   4.54792
 Alpha virt. eigenvalues --    4.58681   4.62814   4.66272   4.66972   4.67726
 Alpha virt. eigenvalues --    4.68915   4.71142   4.72296   4.72919   4.74263
 Alpha virt. eigenvalues --    4.76023   4.76924   4.79102   4.79467   4.80471
 Alpha virt. eigenvalues --    4.82879   4.85953   4.87208   4.88549   4.91619
 Alpha virt. eigenvalues --    4.93460   4.93797   4.94777   4.95957   4.97593
 Alpha virt. eigenvalues --    4.98716   4.98938   4.99733   5.04104   5.05321
 Alpha virt. eigenvalues --    5.08319   5.08636   5.12801   5.15832   5.20395
 Alpha virt. eigenvalues --    5.22191   5.22640   5.24884   5.25962   5.28146
 Alpha virt. eigenvalues --    5.28860   5.30385   5.32618   5.33841   5.34851
 Alpha virt. eigenvalues --    5.37826   5.40927   5.41821   5.42629   5.44872
 Alpha virt. eigenvalues --    5.48223   5.51850   5.53991   5.55315   5.58811
 Alpha virt. eigenvalues --    5.61088   5.67716   5.72557   5.73780   5.76469
 Alpha virt. eigenvalues --    5.79221   5.80165   5.82905   5.83524   5.85097
 Alpha virt. eigenvalues --    5.85975   5.88117   5.89203   5.90518   5.94530
 Alpha virt. eigenvalues --    5.95487   5.97459   6.03372   6.17336   6.21700
 Alpha virt. eigenvalues --    6.22326   6.22642   6.30066   6.33391   6.37392
 Alpha virt. eigenvalues --    6.37831   6.47531   6.50997   6.52763   6.53293
 Alpha virt. eigenvalues --    6.59223   6.63251   6.68511   6.72497   6.73403
 Alpha virt. eigenvalues --    6.75489   6.80750   6.85172   6.87149   6.88228
 Alpha virt. eigenvalues --    6.90992   6.92352   6.99761   7.07597   7.08067
 Alpha virt. eigenvalues --    7.09591   7.11044   7.13152   7.18590   7.25155
 Alpha virt. eigenvalues --    7.30813   7.35871   9.00230   9.40253   9.53688
 Alpha virt. eigenvalues --   20.03415  22.28624  22.39587  22.44548  22.46617
 Alpha virt. eigenvalues --   22.56080  22.58304  22.62564  22.66931  22.73678
 Alpha virt. eigenvalues --   22.77828  22.91213  22.95075  23.02565  23.06271
 Alpha virt. eigenvalues --   23.18647  23.45861  32.12628  33.14939  44.15346
 Alpha virt. eigenvalues --   44.19587  44.23227  44.29671  44.51587
          Condensed to atoms (all electrons):
               1          2          3          4          5          6
     1  C    5.110831   0.416218   0.407381  -0.010812   0.000565  -0.000208
     2  H    0.416218   0.511992  -0.020981  -0.001085   0.000216  -0.000005
     3  H    0.407381  -0.020981   0.543295   0.001706  -0.000047  -0.000001
     4  C   -0.010812  -0.001085   0.001706   5.326679   0.466364   0.254640
     5  H    0.000565   0.000216  -0.000047   0.466364   0.534349  -0.037475
     6  O   -0.000208  -0.000005  -0.000001   0.254640  -0.037475   8.126921
     7  H   -0.000053  -0.000002   0.000003  -0.028040  -0.012550   0.286775
     8  C   -0.008800   0.012177  -0.007915   0.018458  -0.051776  -0.043166
     9  H    0.011231  -0.000019  -0.001022  -0.096515   0.002920   0.003616
    10  O    0.008938  -0.000409   0.000120  -0.041023   0.001420  -0.006479
    11  H   -0.000670  -0.000103   0.000312   0.013262  -0.000612  -0.000322
    12  C   -0.002646   0.000346   0.000159   0.084324  -0.064844  -0.036485
    13  H    0.000236   0.000020   0.000100  -0.094026   0.005172   0.008372
    14  C    0.188001  -0.047539  -0.038520   0.078432   0.006854   0.005840
    15  H   -0.062083  -0.005188  -0.002853  -0.009096  -0.000008   0.000082
    16  O   -0.034241   0.001774   0.005166  -0.072686  -0.000792   0.006781
    17  N   -0.000321  -0.000102  -0.000028   0.014536  -0.010275  -0.000565
    18  C   -0.000580   0.000119  -0.000019  -0.005647   0.000955   0.001804
    19  H   -0.000570  -0.000120   0.000089  -0.016687  -0.003116   0.001093
    20  C    0.000042   0.000002  -0.000002   0.006561   0.004924  -0.001224
    21  H    0.000006   0.000000  -0.000000   0.000078   0.000072  -0.000011
    22  C   -0.000010   0.000000   0.000000  -0.000209  -0.000190   0.000041
    23  H    0.000000   0.000000  -0.000000   0.000012   0.000004   0.000000
    24  H    0.000000  -0.000000  -0.000000  -0.000090  -0.000085   0.000016
    25  C   -0.000066  -0.000005   0.000001  -0.005367  -0.000228  -0.000136
    26  C   -0.000339   0.000046  -0.000004   0.013865  -0.000696  -0.006871
    27  H   -0.000014   0.000001  -0.000000   0.000624  -0.000107  -0.000122
    28  C    0.000000   0.000000  -0.000000   0.000017   0.000002  -0.000020
    29  O    0.000000  -0.000000  -0.000000   0.000006   0.000000   0.000000
    30  N   -0.000000   0.000000   0.000000   0.000001   0.000000  -0.000000
    31  H   -0.000000   0.000000  -0.000000  -0.000000   0.000000  -0.000000
    32  H    0.000000   0.000000  -0.000000   0.000000  -0.000000   0.000000
    33  C    0.000002  -0.000000  -0.000000   0.000800  -0.000409  -0.019703
    34  C    0.000001  -0.000000  -0.000000  -0.000089   0.000276   0.012505
    35  C   -0.000000   0.000000   0.000000  -0.000169   0.000237   0.001635
    36  C   -0.000000   0.000000   0.000000   0.000001   0.000001   0.000002
    37  C   -0.000000   0.000000   0.000000   0.000152  -0.000010  -0.000043
    38  O   -0.000000   0.000000  -0.000000   0.006469   0.000142  -0.046054
    39  S    0.000000  -0.000000  -0.000000  -0.000516   0.000012   0.000726
    40  H   -0.000000   0.000000  -0.000000   0.000110   0.000030  -0.000030
    41  H   -0.000007   0.000000  -0.000000   0.000133   0.000536   0.010976
    42  H   -0.000000   0.000000  -0.000000   0.000000  -0.000000  -0.000000
    43  H    0.000000   0.000000  -0.000000   0.000000  -0.000000  -0.000000
    44  H    0.000000  -0.000000  -0.000000  -0.000000  -0.000000   0.000000
    45  H   -0.000000   0.000000   0.000000   0.000016   0.000008   0.000020
    46  H    0.000000  -0.000000  -0.000000  -0.000014   0.000001   0.000037
    47  H    0.384769  -0.022957  -0.024761   0.000566  -0.000106  -0.000001
    48  H    0.000000   0.000000  -0.000000  -0.000025   0.000005   0.000714
               7          8          9         10         11         12
     1  C   -0.000053  -0.008800   0.011231   0.008938  -0.000670  -0.002646
     2  H   -0.000002   0.012177  -0.000019  -0.000409  -0.000103   0.000346
     3  H    0.000003  -0.007915  -0.001022   0.000120   0.000312   0.000159
     4  C   -0.028040   0.018458  -0.096515  -0.041023   0.013262   0.084324
     5  H   -0.012550  -0.051776   0.002920   0.001420  -0.000612  -0.064844
     6  O    0.286775  -0.043166   0.003616  -0.006479  -0.000322  -0.036485
     7  H    0.344859   0.009812  -0.000251  -0.000444   0.000127   0.004459
     8  C    0.009812   5.323592   0.490284   0.279319  -0.039656  -0.035823
     9  H   -0.000251   0.490284   0.583407  -0.059558  -0.005299   0.011965
    10  O   -0.000444   0.279319  -0.059558   8.038344   0.292841  -0.025082
    11  H    0.000127  -0.039656  -0.005299   0.292841   0.427093  -0.002912
    12  C    0.004459  -0.035823   0.011965  -0.025082  -0.002912   5.504248
    13  H   -0.001029   0.023039   0.002795   0.017686  -0.001072   0.448193
    14  C   -0.000946   0.147869  -0.102240  -0.052583   0.000370  -0.063338
    15  H    0.000052  -0.025148   0.008881  -0.004827   0.002879  -0.003543
    16  O   -0.000188  -0.048012   0.004571   0.009186   0.000150   0.231171
    17  N    0.002384  -0.004092  -0.000797  -0.000280  -0.000005   0.173905
    18  C    0.000473  -0.003199  -0.000248  -0.000311   0.000007  -0.083638
    19  H    0.000271   0.001606   0.000053  -0.000010   0.000004   0.017413
    20  C   -0.001238  -0.000804   0.000021   0.000008  -0.000001   0.013505
    21  H   -0.000013   0.000001   0.000000   0.000000  -0.000000   0.000134
    22  C    0.000224   0.000023  -0.000002  -0.000002   0.000000  -0.009558
    23  H   -0.000002   0.000000   0.000000   0.000000  -0.000000   0.000114
    24  H    0.000093   0.000009  -0.000000   0.000000   0.000000   0.000285
    25  C    0.000519  -0.000492  -0.000003  -0.000054  -0.000001  -0.018897
    26  C    0.000702  -0.003922  -0.000075  -0.000681  -0.000051  -0.056794
    27  H    0.000061   0.000021  -0.000011  -0.000168   0.000008  -0.002287
    28  C    0.000052  -0.000010  -0.000000  -0.000000  -0.000000  -0.001626
    29  O    0.000008   0.000000   0.000000  -0.000000   0.000000   0.000296
    30  N    0.000000  -0.000000  -0.000000  -0.000000  -0.000000  -0.000014
    31  H   -0.000000  -0.000000   0.000000  -0.000000  -0.000000  -0.000005
    32  H   -0.000000  -0.000000  -0.000000   0.000000  -0.000000  -0.000008
    33  C    0.001233   0.000740   0.000021  -0.001122   0.000075  -0.000401
    34  C   -0.008958  -0.000094  -0.000027   0.000029   0.000001  -0.000386
    35  C   -0.001002  -0.000099  -0.000001   0.000000  -0.000000   0.000747
    36  C   -0.000012  -0.000000  -0.000000   0.000000  -0.000000   0.000031
    37  C    0.000115   0.000003   0.000000  -0.000000  -0.000000  -0.000697
    38  O    0.033288  -0.000474   0.000004  -0.000002  -0.000001   0.000249
    39  S    0.001271   0.000000   0.000001   0.000012  -0.000003  -0.000377
    40  H   -0.001804  -0.000021   0.000002   0.000023  -0.000001   0.000034
    41  H   -0.009529  -0.001114   0.000003   0.003338  -0.000228  -0.000005
    42  H   -0.000000   0.000000  -0.000000  -0.000000  -0.000000  -0.000000
    43  H    0.000001   0.000000  -0.000000   0.000000   0.000000   0.000003
    44  H    0.000000   0.000000  -0.000000   0.000000   0.000000  -0.000000
    45  H    0.000013   0.000000   0.000000  -0.000000  -0.000000  -0.000037
    46  H   -0.000099   0.000000  -0.000000   0.000000   0.000000   0.000085
    47  H    0.000008  -0.009059   0.000686   0.000171   0.000098  -0.000824
    48  H    0.000380  -0.000031   0.000002   0.000004  -0.000003   0.000017
              13         14         15         16         17         18
     1  C    0.000236   0.188001  -0.062083  -0.034241  -0.000321  -0.000580
     2  H    0.000020  -0.047539  -0.005188   0.001774  -0.000102   0.000119
     3  H    0.000100  -0.038520  -0.002853   0.005166  -0.000028  -0.000019
     4  C   -0.094026   0.078432  -0.009096  -0.072686   0.014536  -0.005647
     5  H    0.005172   0.006854  -0.000008  -0.000792  -0.010275   0.000955
     6  O    0.008372   0.005840   0.000082   0.006781  -0.000565   0.001804
     7  H   -0.001029  -0.000946   0.000052  -0.000188   0.002384   0.000473
     8  C    0.023039   0.147869  -0.025148  -0.048012  -0.004092  -0.003199
     9  H    0.002795  -0.102240   0.008881   0.004571  -0.000797  -0.000248
    10  O    0.017686  -0.052583  -0.004827   0.009186  -0.000280  -0.000311
    11  H   -0.001072   0.000370   0.002879   0.000150  -0.000005   0.000007
    12  C    0.448193  -0.063338  -0.003543   0.231171   0.173905  -0.083638
    13  H    0.520693  -0.013881   0.006412  -0.034198  -0.061967   0.012233
    14  C   -0.013881   5.261342   0.404878   0.208645   0.015155  -0.000233
    15  H    0.006412   0.404878   0.605690  -0.039199  -0.001419   0.000105
    16  O   -0.034198   0.208645  -0.039199   8.128586  -0.079459   0.005264
    17  N   -0.061967   0.015155  -0.001419  -0.079459   6.579906   0.317461
    18  C    0.012233  -0.000233   0.000105   0.005264   0.317461   5.033931
    19  H    0.001507  -0.003617   0.000287   0.016963  -0.050090   0.406830
    20  C   -0.000416   0.000347   0.000006  -0.000877  -0.091248   0.532481
    21  H    0.000007  -0.000002  -0.000000  -0.000090   0.004518  -0.031248
    22  C    0.000079  -0.000047   0.000001   0.000571  -0.002354  -0.023085
    23  H   -0.000004  -0.000000   0.000000  -0.000005  -0.001385   0.003829
    24  H   -0.000031   0.000003   0.000000   0.000036   0.010719   0.003043
    25  C    0.008418   0.000083   0.000030  -0.001437  -0.064469   0.053113
    26  C   -0.019628   0.000102  -0.000442   0.000970   0.305305  -0.160413
    27  H   -0.000725  -0.000001  -0.000030   0.001183  -0.036932   0.007235
    28  C   -0.000025  -0.000001  -0.000001   0.000029   0.003031   0.000757
    29  O   -0.000015  -0.000000   0.000000  -0.000000  -0.000472   0.000212
    30  N    0.000000   0.000000  -0.000000  -0.000000  -0.000500   0.000017
    31  H   -0.000000  -0.000000  -0.000000   0.000000   0.000028  -0.000006
    32  H    0.000000   0.000000  -0.000000   0.000000   0.000032   0.000075
    33  C   -0.000367  -0.000078   0.000000   0.000001   0.000121  -0.000009
    34  C    0.000268   0.000078  -0.000001   0.000122   0.009225  -0.002049
    35  C    0.000123   0.000004   0.000000  -0.000021  -0.008248   0.000402
    36  C    0.000003   0.000000   0.000000  -0.000000  -0.000197   0.000187
    37  C   -0.000033  -0.000001  -0.000000  -0.000001  -0.000234   0.001570
    38  O   -0.000459   0.000046  -0.000000   0.000005  -0.000054   0.001634
    39  S    0.001371  -0.000006   0.000001   0.000002  -0.000116   0.000172
[...]
      4        6          -0.002188932    0.017209261    0.014440464
      5        1           0.011214775    0.003579636   -0.010276221
      6        8           0.016799443   -0.009862366   -0.005202639
      7        1          -0.001721574   -0.004749695   -0.004342243
      8        6           0.013891779    0.000457505   -0.002623059
      9        1          -0.007063115    0.003085255   -0.010919526
     10        8          -0.000997815    0.006855301    0.002216071
     11        1          -0.010792027   -0.005836033   -0.001874135
     12        6           0.017259810   -0.018313256   -0.001478610
     13        1          -0.008084331   -0.006186615    0.004433303
     14        6          -0.020652066    0.002134724   -0.002895505
     15        1          -0.004540777   -0.006720092    0.010454387
     16        8           0.002413445   -0.005249921    0.000082619
     17        7           0.000861935    0.005462308   -0.003995105
     18        6           0.016766030    0.006156778    0.006963857
     19        1          -0.004500280    0.003606737   -0.000553957
     20        6          -0.019339013    0.005267629   -0.008818907
     21        1           0.004487153    0.002616639    0.000698561
     22        6           0.004818103    0.005880817    0.022154441
     23        1           0.004837716   -0.000600112    0.007693916
     24        1           0.014263123   -0.016990543   -0.034750228
     25        6          -0.019363665   -0.003557578   -0.005511373
     26        6           0.003385500   -0.016299167    0.004717407
     27        1          -0.007460064    0.000230770    0.002729398
     28        6          -0.011677739   -0.009841448    0.001525148
     29        8           0.016723209    0.017870123    0.011543227
     30        7           0.003256596   -0.007730247   -0.004177873
     31        1          -0.001785744    0.000811516   -0.002097820
     32        1          -0.002691144   -0.000552287   -0.003179306
     33        6          -0.006186857   -0.010427417   -0.010199790
     34        6          -0.003103955   -0.044476816    0.021825173
     35        6          -0.010722630    0.006849395   -0.018915023
     36        6           0.008945869   -0.006165619    0.003903790
     37        6          -0.001674403    0.016564453    0.021901922
     38        8          -0.010662145    0.022620657   -0.013236385
     39       16           0.016483977    0.015965617    0.010792295
     40        1           0.006770792    0.002064648   -0.002438704
     41        1          -0.004004903    0.005000343    0.005519260
     42        1           0.002693097    0.004458455   -0.000682687
     43        1          -0.004307282   -0.001752000    0.002552969
     44        1           0.001442370   -0.004496620   -0.004386045
     45        1           0.006172480    0.005462397   -0.004665795
     46        1          -0.004931331   -0.004265990    0.001817675
     47        1           0.001187736   -0.001243635   -0.001047737
     48        1          -0.003809001    0.004338636   -0.005126051
 -------------------------------------------------------------------
 Cartesian Forces:  Max     0.044476816 RMS     0.010288806
 Leave Link  716 at Wed Mar  8 14:54:01 2023, MaxMem=  2684354560 cpu:               1.7 elap:               0.1
 (Enter /opt/gaussian/g16/l103.exe)

 GradGradGradGradGradGradGradGradGradGradGradGradGradGradGradGradGradGrad
 Berny optimization.
 Search for a local minimum.
 Step number   1 out of a maximum of    2
 All quantities printed in internal units (Hartrees-Bohrs-Radians)
 Second derivative matrix not updated -- first step.
 ITU=  0
     Eigenvalues ---    0.00026   0.00065   0.00086   0.00099   0.00143
     Eigenvalues ---    0.00188   0.00216   0.00274   0.00303   0.00441
     Eigenvalues ---    0.00469   0.00654   0.00751   0.00839   0.00943
     Eigenvalues ---    0.01026   0.01131   0.01260   0.01325   0.01416
     Eigenvalues ---    0.01572   0.01739   0.01900   0.02277   0.02559
     Eigenvalues ---    0.02831   0.02920   0.03132   0.03256   0.03703
     Eigenvalues ---    0.04003   0.04324   0.04468   0.04810   0.04978
     Eigenvalues ---    0.05048   0.05166   0.05404   0.05609   0.05732
     Eigenvalues ---    0.05817   0.05860   0.05914   0.06329   0.06641
     Eigenvalues ---    0.07003   0.07124   0.07434   0.07578   0.07724
     Eigenvalues ---    0.08449   0.08611   0.09066   0.09489   0.10226
     Eigenvalues ---    0.10513   0.10913   0.11670   0.11919   0.12167
     Eigenvalues ---    0.12781   0.12880   0.13018   0.13088   0.13625
     Eigenvalues ---    0.13774   0.14019   0.14585   0.15471   0.15962
     Eigenvalues ---    0.16300   0.17108   0.17475   0.18444   0.19020
     Eigenvalues ---    0.19413   0.19893   0.20983   0.21168   0.21700
     Eigenvalues ---    0.24313   0.25933   0.26291   0.26697   0.30677
     Eigenvalues ---    0.32132   0.32830   0.34164   0.34907   0.36470
     Eigenvalues ---    0.36772   0.36772   0.36772   0.36772   0.40791
     Eigenvalues ---    0.41749   0.43463   0.46425   0.52086   0.55242
     Eigenvalues ---    0.59406   0.63958   0.66120   0.69003   0.73875
     Eigenvalues ---    0.75085   0.78033   0.78977   0.83935   0.87031
     Eigenvalues ---    0.88308   0.89501   0.89864   0.90499   0.91565
     Eigenvalues ---    0.92448   0.93403   0.95157   0.98006   0.99259
     Eigenvalues ---    1.00132   1.01327   1.03956   1.06080   1.10745
     Eigenvalues ---    1.12383   1.15133   1.22286   1.24885   1.27598
     Eigenvalues ---    1.29878   1.39092   1.48562   1.55286   1.65734
     Eigenvalues ---    1.78472   1.98158   2.36832
 Quadratic step=1.570D+01 exceeds max=3.000D-01 adjusted using Lamda=-1.085D-01.
 Angle between NR and scaled steps=  77.75 degrees.
 Angle between quadratic step and forces=  43.24 degrees.
 Linear search not attempted -- first point.
 Variable       Old X    -DE/DX   Delta X   Delta X   Delta X     New X
                                 (Linear)    (Quad)   (Total)
    X1        6.54109   0.00394   0.00000  -0.01022  -0.01022   6.53087
    Y1       -6.73777   0.02749   0.00000   0.05682   0.05682  -6.68095
    Z1       -1.56283   0.00217   0.00000   0.01430   0.01430  -1.54853
    X2        6.47768   0.00079   0.00000   0.00056   0.00056   6.47824
    Y2       -6.89214  -0.00344   0.00000   0.00352   0.00352  -6.88862
    Z2       -3.63125   0.00666   0.00000   0.02861   0.02861  -3.60264
    X3        8.35322  -0.00714   0.00000  -0.03324  -0.03324   8.31998
    Y3       -7.44582  -0.00329   0.00000   0.00549   0.00549  -7.44033
    Z3       -0.83205  -0.00340   0.00000  -0.00354  -0.00354  -0.83559
    X4        3.05125  -0.00219   0.00000   0.02723   0.02723   3.07848
    Y4       -2.28191   0.01721   0.00000   0.02531   0.02531  -2.25660
    Z4        1.85229   0.01444   0.00000   0.00712   0.00712   1.85941
    X5        1.66661   0.01121   0.00000   0.06088   0.06088   1.72750
    Y5       -3.86048   0.00358   0.00000   0.01421   0.01421  -3.84627
    Z5        1.88770  -0.01028   0.00000  -0.04933  -0.04933   1.83838
    X6        2.49981   0.01680   0.00000   0.04918   0.04918   2.54899
    Y6       -0.69293  -0.00986   0.00000  -0.00906  -0.00906  -0.70200
    Z6        3.92068  -0.00520   0.00000   0.00230   0.00230   3.92297
    X7        0.79650  -0.00172   0.00000   0.02600   0.02600   0.82250
    Y7        0.01882  -0.00475   0.00000  -0.04338  -0.04338  -0.02455
    Z7        3.87763  -0.00434   0.00000  -0.01694  -0.01694   3.86069
    X8        5.83114   0.01389   0.00000   0.00954   0.00954   5.84068
    Y8       -3.23828   0.00046   0.00000   0.02301   0.02301  -3.21526
    Z8        1.94755  -0.00262   0.00000  -0.01123  -0.01123   1.93633
    X9        6.16204  -0.00706   0.00000  -0.03448  -0.03448   6.12757
    Y9       -4.81432   0.00309   0.00000   0.00551   0.00551  -4.80881
    Z9        3.29000  -0.01092   0.00000  -0.04938  -0.04938   3.24062
   X10        7.34576  -0.00100   0.00000  -0.01803  -0.01803   7.32773
   Y10       -1.16353   0.00686   0.00000   0.02834   0.02834  -1.13519
   Z10        2.73330   0.00222   0.00000   0.00680   0.00680   2.74010
   X11        9.14221  -0.01079   0.00000  -0.04065  -0.04065   9.10155
   Y11       -1.49849  -0.00584   0.00000  -0.02856  -0.02856  -1.52705
   Z11        2.61582  -0.00187   0.00000  -0.00561  -0.00561   2.61021
   X12        3.09809   0.01726   0.00000   0.02261   0.02261   3.12070
   Y12       -0.85565  -0.01831   0.00000  -0.03400  -0.03400  -0.88965
   Z12       -0.70570  -0.00148   0.00000  -0.00922  -0.00922  -0.71492
   X13        4.27445  -0.00808   0.00000  -0.02252  -0.02252   4.25192
   Y13        0.86752  -0.00619   0.00000  -0.02613  -0.02613   0.84139
   Z13       -0.54438   0.00443   0.00000   0.02101   0.02101  -0.52338
   X14        6.43082  -0.02065   0.00000  -0.04513  -0.04513   6.38569
   Y14       -3.88163   0.00213   0.00000   0.01547   0.01547  -3.86615
   Z14       -0.89339  -0.00290   0.00000   0.00338   0.00338  -0.89001
   X15        8.17305  -0.00454   0.00000  -0.02308  -0.02308   8.14997
   Y15       -2.91796  -0.00672   0.00000  -0.02194  -0.02194  -2.93990
   Z15       -1.55208   0.01045   0.00000   0.05671   0.05671  -1.49537
   X16        4.39006   0.00241   0.00000  -0.00828  -0.00828   4.38178
   Y16       -2.66066  -0.00525   0.00000  -0.02128  -0.02128  -2.68195
   Z16       -2.28584   0.00008   0.00000  -0.02052  -0.02052  -2.30636
   X17        0.72557   0.00086   0.00000   0.01605   0.01605   0.74162
   Y17       -0.18824   0.00546   0.00000  -0.00870  -0.00870  -0.19693
   Z17       -1.79003  -0.00400   0.00000  -0.00315  -0.00315  -1.79318
   X18       -1.05979   0.01677   0.00000   0.00873   0.00873  -1.05106
   Y18       -2.09283   0.00616   0.00000   0.01539   0.01539  -2.07745
   Z18       -2.32315   0.00696   0.00000   0.00464   0.00464  -2.31851
   X19       -0.34127  -0.00450   0.00000  -0.01860  -0.01860  -0.35988
   Y19       -3.99500   0.00361   0.00000   0.01520   0.01520  -3.97980
   Z19       -2.02661  -0.00055   0.00000   0.00467   0.00467  -2.02194
   X20       -3.31600  -0.01934   0.00000  -0.00602  -0.00602  -3.32202
   Y20       -1.52871   0.00527   0.00000   0.00832   0.00832  -1.52039
   Z20       -3.22329  -0.00882   0.00000  -0.01136  -0.01136  -3.23464
   X21       -4.64393   0.00449   0.00000   0.00927   0.00927  -4.63466
   Y21       -3.03499   0.00262   0.00000   0.00882   0.00882  -3.02618
   Z21       -3.67080   0.00070   0.00000  -0.00375  -0.00375  -3.67455
   X22       -4.15854   0.00482   0.00000   0.01923   0.01923  -4.13930
   Y22        1.18522   0.00588   0.00000  -0.01159  -0.01159   1.17364
   Z22       -3.63092   0.02215   0.00000   0.00263   0.00263  -3.62828
   X23       -5.43869   0.00484   0.00000   0.02269   0.02269  -5.41600
   Y23        1.37180  -0.00060   0.00000  -0.00259  -0.00259   1.36921
   Z23       -5.26469   0.00769   0.00000   0.02304   0.02304  -5.24165
   X24       -5.24008   0.01426   0.00000   0.02833   0.02833  -5.21174
   Y24        1.91636  -0.01699   0.00000  -0.06304  -0.06304   1.85332
   Z24       -1.83818  -0.03475   0.00000  -0.09926  -0.09926  -1.93744
   X25       -1.81324  -0.01936   0.00000  -0.02774  -0.02774  -1.84098
   Y25        2.88991  -0.00356   0.00000  -0.01494  -0.01494   2.87497
   Z25       -3.85827  -0.00551   0.00000   0.00318   0.00318  -3.85509
   X26        0.39969   0.00339   0.00000  -0.01598  -0.01598   0.38372
   Y26        2.20355  -0.01630   0.00000  -0.02789  -0.02789   2.17566
   Z26       -2.85931   0.00472   0.00000   0.00233   0.00233  -2.85698
   X27        2.10261  -0.00746   0.00000  -0.04380  -0.04380   2.05881
   Y27        3.36341   0.00023   0.00000   0.00364   0.00364   3.36705
   Z27       -2.92998   0.00273   0.00000   0.02289   0.02289  -2.90709
   X28       -2.21153  -0.01168   0.00000  -0.02745  -0.02745  -2.23898
   Y28        5.48047  -0.00984   0.00000   0.00213   0.00213   5.48259
   Z28       -4.87563   0.00153   0.00000   0.03146   0.03146  -4.84417
   X29       -1.52282   0.01672   0.00000   0.06082   0.06082  -1.46200
   Y29        7.36785   0.01787   0.00000   0.00602   0.00602   7.37387
   Z29       -3.81480   0.01154   0.00000   0.01128   0.01128  -3.80352
   X30       -3.75361   0.00326   0.00000   0.01071   0.01071  -3.74290
   Y30        5.69843  -0.00773   0.00000  -0.01127  -0.01127   5.68716
   Z30       -6.95166  -0.00418   0.00000  -0.00967  -0.00967  -6.96133
   X31       -3.72235  -0.00179   0.00000  -0.00543  -0.00543  -3.72778
   Y31        7.44582   0.00081   0.00000  -0.00535  -0.00535   7.44047
   Z31       -7.70538  -0.00210   0.00000  -0.00844  -0.00844  -7.71382
   X32       -3.73658  -0.00269   0.00000  -0.00994  -0.00994  -3.74652
   Y32        4.24470  -0.00055   0.00000  -0.00748  -0.00748   4.23722
   Z32       -8.17590  -0.00318   0.00000  -0.01442  -0.01442  -8.19032
   X33        1.74989  -0.00619   0.00000  -0.00933  -0.00933   1.74056
   Y33        4.04002  -0.01043   0.00000  -0.01512  -0.01512   4.02490
   Z33        7.17418  -0.01020   0.00000  -0.02651  -0.02651   7.14767
   X34       -1.73843  -0.00310   0.00000  -0.01759  -0.01759  -1.75603
   Y34        3.93947  -0.04448   0.00000  -0.02622  -0.02622   3.91325
   Z34        3.28374   0.02183   0.00000   0.02552   0.02552   3.30926
   X35       -3.46878  -0.01072   0.00000  -0.00299  -0.00299  -3.47177
   Y35        5.10543   0.00685   0.00000   0.01163   0.01163   5.11706
   Z35        1.51714  -0.01892   0.00000  -0.00753  -0.00753   1.50961
   X36       -7.66359   0.00895   0.00000   0.01901   0.01901  -7.64457
   Y36        5.65888  -0.00617   0.00000  -0.01414  -0.01414   5.64474
   Z36       -0.62709   0.00390   0.00000   0.00759   0.00759  -0.61949
   X37       -5.74273  -0.00167   0.00000  -0.01278  -0.01278  -5.75550
   Y37        4.13804   0.01656   0.00000   0.04914   0.04914   4.18718
   Z37        0.88161   0.02190   0.00000   0.06402   0.06402   0.94563
   X38       -1.83020  -0.01066   0.00000  -0.07332  -0.07332  -1.90352
   Y38        1.69593   0.02262   0.00000  -0.00910  -0.00910   1.68683
   Z38        3.97630  -0.01324   0.00000  -0.02501  -0.02501   3.95129
   X39        0.41600   0.01648   0.00000   0.02954   0.02954   0.44554
   Y39        5.96982   0.01597   0.00000   0.00942   0.00942   5.97924
   Z39        4.63308   0.01079   0.00000   0.00488   0.00488   4.63796
   X40        0.15355   0.00677   0.00000   0.01565   0.01565   0.16920
   Y40        3.16891   0.00206   0.00000  -0.00352  -0.00352   3.16539
   Z40        8.17590  -0.00244   0.00000  -0.01149  -0.01149   8.16442
   X41        2.94152  -0.00400   0.00000  -0.00062  -0.00062   2.94090
   Y41        2.57136   0.00500   0.00000  -0.00042  -0.00042   2.57094
   Z41        6.31517   0.00552   0.00000   0.01211   0.01211   6.32729
   X42       -9.14221   0.00269   0.00000   0.02428   0.02428  -9.11793
   Y42        4.41792   0.00446   0.00000   0.00002   0.00002   4.41794
   Z42       -1.37191  -0.00068   0.00000  -0.00565  -0.00565  -1.37756
   X43       -6.70713  -0.00431   0.00000  -0.00012  -0.00012  -6.70725
   Y43        6.66422  -0.00175   0.00000  -0.01518  -0.01518   6.64904
   Z43       -2.16924   0.00255   0.00000   0.00733   0.00733  -2.16192
   X44       -8.54024   0.00144   0.00000   0.00029   0.00029  -8.53996
   Y44        7.06363  -0.00450   0.00000  -0.01724  -0.01724   7.04639
   Z44        0.63303  -0.00439   0.00000  -0.02382  -0.02382   0.60921
   X45       -6.42564   0.00617   0.00000   0.02805   0.02805  -6.39758
   Y45        2.43197   0.00546   0.00000   0.02216   0.02216   2.45413
   Z45        1.85175  -0.00467   0.00000   0.00770   0.00770   1.85944
   X46       -2.80862  -0.00493   0.00000  -0.00992  -0.00992  -2.81855
   Y46        6.88221  -0.00427   0.00000  -0.00571  -0.00571   6.87649
   Z46        0.68654   0.00182   0.00000  -0.00883  -0.00883   0.67771
   X47        4.95327   0.00119   0.00000   0.00308   0.00308   4.95635
   Y47       -7.73629  -0.00124   0.00000   0.01721   0.01721  -7.71907
   Z47       -0.71162  -0.00105   0.00000  -0.00303  -0.00303  -0.71465
   X48        2.86952  -0.00381   0.00000  -0.02626  -0.02626   2.84326
   Y48        5.19878   0.00434   0.00000   0.01916   0.01916   5.21793
   Z48        8.45733  -0.00513   0.00000  -0.04082  -0.04082   8.41651
         Item               Value     Threshold  Converged?
 Maximum Force            0.044477     0.000450     NO 
 RMS     Force            0.010289     0.000300     NO 
 Maximum Displacement     0.099258     0.001800     NO 
 RMS     Displacement     0.025070     0.001200     NO 
 Predicted change in Energy=-1.843957D-02
 GradGradGradGradGradGradGradGradGradGradGradGradGradGradGradGradGradGrad

 Leave Link  103 at Wed Mar  8 14:54:01 2023, MaxMem=  2684354560 cpu:               1.9 elap:               0.1
 (Enter /opt/gaussian/g16/l9999.exe)

 Test job not archived.
 1\1\GINC-JULIO-SYS\Force\RM062X\def2TZVP\C16H24N2O5S1\JVELAZQUEZ\08-Ma
 r-2023\0\\#P M062X/Def2TZVP scf=(direct,conver=8) EmpiricalDispersion=
 GD3 NoSymm Force pop=(NBORead) Charge Prop=(Field,Read)\\Gaussian run 
 using SANDER external interface, route from template gau_job.tpl\\0,1\
 C,3.4613956224,-3.5654727918,-0.8270149477\H,3.4278400052,-3.647165051
 3,-1.9215746831\H,4.4203332053,-3.9401582548,-0.440302301\C,1.61465300
 76,-1.2075345322,0.9801921239\H,0.881934035,-2.0428767985,0.9989300428
 \O,1.3228442674,-0.3666841,2.07473225\H,0.4214912953,0.0099603904,2.05
 19558482\C,3.0857065852,-1.7136234442,1.030600834\H,3.260813301,-2.547
 6280318,1.7409937604\O,3.8872082398,-0.6157126251,1.4463999382\H,4.837
 8488317,-0.792967265,1.3842307662\C,1.639439444,-0.4527884988,-0.37344
 29487\H,2.261939351,0.459073026,-0.2880753534\C,3.4030416236,-2.054069
 3712,-0.4727629474\H,4.3249929639,-1.5441191827,-0.8213240933\O,2.3231
 215102,-1.4079631801,-1.2096165848\N,0.3839532951,-0.0996115159,-0.947
 2413451\C,-0.560814409,-1.1074788258,-1.2293558363\H,-0.1805946542,-2.
 1140615537,-1.0724335534\C,-1.7547511172,-0.8089590615,-1.7056899861\H
 ,-2.4574638328,-1.6060489431,-1.942501882\C,-2.200602184,0.6271935094,
 -1.921398737\H,-2.878032263,0.7259260453,-2.7859541266\H,-2.7729302503
 ,1.014092903,-0.9727229884\C,-0.9595242013,1.5292749169,-2.0417076479\
 C,0.2115089708,1.1660699804,-1.5130827891\H,1.1126516193,1.7798402134,
 -1.5504806814\C,-1.1702890693,2.9001373041,-2.5800728457\O,-0.80584230
 97,3.8988979982,-2.018703292\N,-1.9863270745,3.0154771889,-3.678658714
 2\H,-1.9697831784,3.9401582548,-4.0775125016\H,-1.9773137326,2.2461990
 559,-4.32650061\C,0.9260005749,2.1378856939,3.7964127842\C,-0.91993962
 54,2.0846792671,1.7376782015\C,-1.8355991863,2.7016755178,0.8028361394
 \C,-4.0553959992,2.994550313,-0.3318396462\C,-3.038919245,2.1897538515
 ,0.4665286043\O,-0.9685021682,0.8974487838,2.1041649991\S,0.2201384176
 ,3.1590913229,2.4517208404\H,0.0812567538,1.6769152284,4.32650061\H,1.
 5565870988,1.3607075853,3.3418466531\H,-4.8378488317,2.3378618545,-0.7
 259829781\H,-3.549259916,3.5265513668,-1.1479143662\H,-4.5193028413,3.
 7379121063,0.3349829485\H,-3.4003009197,1.2869431332,0.9799022155\H,-1
 .4862597232,3.6419072831,0.3633002927\H,2.6211576432,-4.0938671635,-0.
 3765712484\H,1.5184854802,2.7510739466,4.4754281034\\Version=ES64L-G16
 RevA.03\HF=-1507.8809377\RMSD=3.012e-09\RMSF=1.029e-02\Dipole=0.007077
 1,-0.9138183,-0.8407025\Quadrupole=10.0308836,-9.2922063,-0.7386772,-7
 .4885073,6.6777193,-1.93855\PG=C01 [X(C16H24N2O5S1)]\\@


 A successful marriage requires falling in love
 many times, always with the same person.
                           -- Mignon McLaughlin
 Job cpu time:       0 days  7 hours 11 minutes  8.2 seconds.
 Elapsed time:       0 days  0 hours 27 minutes  2.6 seconds.
 File lengths (MBytes):  RWF=    435 Int=      0 D2E=      0 Chk=     48 Scr=      1
 Normal termination of Gaussian 16 at Wed Mar  8 14:54:01 2023.
