 Entering Gaussian System, Link 0=g16
 Initial command:
 /opt/gaussian/g16/l1.exe "/opt/gaussian/scratch16/Gau-2690791.inp" -scrdir="/opt/gaussian/scratch16/"
 Entering Link 1 = /opt/gaussian/g16/l1.exe PID=   2690793.
  
 Copyright (c) 1988,1990,1992,1993,1995,1998,2003,2009,2016,
            Gaussian, Inc.  All Rights Reserved.
  
 This is part of the Gaussian(R) 16 program.  It is based on
 the Gaussian(R) 09 system (copyright 2009, Gaussian, Inc.),
 the Gaussian(R) 03 system (copyright 2003, Gaussian, Inc.),
 the Gaussian(R) 98 system (copyright 1998, Gaussian, Inc.),
 the Gaussian(R) 94 system (copyright 1995, Gaussian, Inc.),
 the Gaussian 92(TM) system (copyright 1992, Gaussian, Inc.),
 the Gaussian 90(TM) system (copyright 1990, Gaussian, Inc.),
 the Gaussian 88(TM) system (copyright 1988, Gaussian, Inc.),
 the Gaussian 86(TM) system (copyright 1986, Carnegie Mellon
 University), and the Gaussian 82(TM) system (copyright 1983,
 Carnegie Mellon University). Gaussian is a federally registered
 trademark of Gaussian, Inc.
  
 This software contains proprietary and confidential information,
 including trade secrets, belonging to Gaussian, Inc.
  
 This software is provided under written license and may be
 used, copied, transmitted, or stored only in accord with that
 written license.
  
 The following legend is applicable only to US Government
 contracts under FAR:
  
                    RESTRICTED RIGHTS LEGEND
  
 Use, reproduction and disclosure by the US Government is
 subject to restrictions as set forth in subparagraphs (a)
 and (c) of the Commercial Computer Software - Restricted
 Rights clause in FAR 52.227-19.
  
 Gaussian, Inc.
 340 Quinnipiac St., Bldg. 40, Wallingford CT 06492
  
  
 ---------------------------------------------------------------
 Warning -- This program may not be used in any manner that
 competes with the business of Gaussian, Inc. or will provide
 assistance to any competitor of Gaussian, Inc.  The licensee
 of this program is prohibited from giving any competitor of
 Gaussian, Inc. access to this program.  By using this program,
 the user acknowledges that Gaussian, Inc. is engaged in the
 business of creating and licensing software in the field of
 computational chemistry and represents and warrants to the
 licensee that it is not a competitor of Gaussian, Inc. and that
 it will not use this program in any manner prohibited above.
 ---------------------------------------------------------------
  

 Cite this work as:
 Gaussian 16, Revision A.03,
 M. J. Frisch, G. W. Trucks, H. B. Schlegel, G. E. Scuseria, 
 M. A. Robb, J. R. Cheeseman, G. Scalmani, V. Barone, 
 G. A. Petersson, H. Nakatsuji, X. Li, M. Caricato, A. V. Marenich, 
 J. Bloino, B. G. Janesko, R. Gomperts, B. Mennucci, H. P. Hratchian, 
 J. V. Ortiz, A. F. Izmaylov, J. L. Sonnenberg, D. Williams-Young, 
 F. Ding, F. Lipparini, F. Egidi, J. Goings, B. Peng, A. Petrone, 
 T. Henderson, D. Ranasinghe, V. G. Zakrzewski, J. Gao, N. Rega, 
 G. Zheng, W. Liang, M. Hada, M. Ehara, K. Toyota, R. Fukuda, 
 J. Hasegawa, M. Ishida, T. Nakajima, Y. Honda, O. Kitao, H. Nakai, 
 T. Vreven, K. Throssell, J. A. Montgomery, Jr., J. E. Peralta, 
 F. Ogliaro, M. J. Bearpark, J. J. Heyd, E. N. Brothers, K. N. Kudin, 
 V. N. Staroverov, T. A. Keith, R. Kobayashi, J. Normand, 
 K. Raghavachari, A. P. Rendell, J. C. Burant, S. S. Iyengar, 
 J. Tomasi, M. Cossi, J. M. Millam, M. Klene, C. Adamo, R. Cammi, 
 J. W. Ochterski, R. L. Martin, K. Morokuma, O. Farkas, 
 J. B. Foresman, and D. J. Fox, Gaussian, Inc., Wallingford CT, 2016.
 
 ******************************************
 Gaussian 16:  ES64L-G16RevA.03 25-Dec-2016
                 8-Mar-2023 
 ******************************************
 %chk=13.chk
 %NProcShared=16
 Will use up to   16 processors via shared memory.
 %mem=20GB
 ----------------------------------------------------------------------
 #P M062X/Def2TZVP scf=(direct,conver=8) EmpiricalDispersion=GD3 NoSymm
  Force pop=(NBORead) Charge Prop=(Field,Read)
 ----------------------------------------------------------------------
 1/10=7,18=10,28=-2,30=1,38=1,125=101/1,3;
 2/12=2,15=1,17=6,18=5,29=2,40=1/2;
 3/5=44,7=101,11=2,25=1,30=1,71=1,74=-55,124=31/1,2,3;
 4//1;
 5/5=2,6=8,38=5/2;
 6/7=2,8=2,9=2,10=2,14=2,15=1,28=1,40=2/1,2,7;
 7/7=1,16=-2,29=1,30=1/1,2,3,16;
 1/10=7,18=10,28=-2,30=1/3;
 99/12=1/99;
 Leave Link    1 at Wed Mar  8 14:24:50 2023, MaxMem=  2684354560 cpu:               1.0 elap:               0.1
 (Enter /opt/gaussian/g16/l101.exe)
 ----------------------------------------------------------------------
 Gaussian run using SANDER external interface, route from template gau_
 job.tpl
 ----------------------------------------------------------------------
 Symbolic Z-matrix:
 Charge =  0 Multiplicity = 1
 C                     3.46444  -3.56753  -0.82477 
 H                     3.43139  -3.64927  -1.91921 
 H                     4.42312  -3.94149  -0.43712 
 C                     1.61628  -1.20778   0.98092 
 H                     0.88338  -2.04328   0.99941 
 O                     1.32611  -0.36767   2.07422 
 H                     0.42315   0.01172   2.05443 
 C                     3.08745  -1.71488   1.0318 
 H                     3.2617   -2.54858   1.74297 
 O                     3.88832  -0.61701   1.4463 
 H                     4.83919  -0.79362   1.38799 
 C                     1.64325  -0.45376  -0.37339 
 H                     2.26676   0.45756  -0.2868 
 C                     3.40526  -2.05578  -0.47117 
 H                     4.32741  -1.54552  -0.81852 
 O                     2.32647  -1.41058  -1.20856 
 N                     0.3897   -0.1017   -0.95457 
 C                    -0.56216  -1.10221  -1.22391 
 H                    -0.1834   -2.10909  -1.06335 
 C                    -1.75746  -0.79704  -1.6955 
 H                    -2.45975  -1.5955   -1.92614 
 C                    -2.19336   0.63701  -1.90862 
 H                    -2.87947   0.73903  -2.76393 
 H                    -2.75576   1.04864  -0.94429 
 C                    -0.95531   1.53098  -2.04074 
 C                     0.21629   1.1664   -1.51424 
 H                     1.11895   1.77655  -1.55452 
 C                    -1.16383   2.90281  -2.58339 
 O                    -0.80103   3.90147  -2.02205 
 N                    -1.97986   3.01629  -3.68181 
 H                    -1.96911   3.94149  -4.08006 
 H                    -1.97152   2.24641  -4.32865 
 C                     0.9257    2.13423   3.79763 
 C                    -0.91436   2.07577   1.73075 
 C                    -1.82872   2.6842    0.7964 
 C                    -4.04824   2.98269  -0.3359 
 C                    -3.02636   2.15938   0.43893 
 O                    -0.9592    0.88661   2.09998 
 S                     0.22024   3.15269   2.44994 
 H                     0.08041   1.67543   4.32865 
 H                     1.55614   1.35523   3.34598 
 H                    -4.83919   2.33638  -0.72909 
 H                    -3.54649   3.52457  -1.14768 
 H                    -4.50237   3.72173   0.34259 
 H                    -3.394     1.27114   0.97245 
 H                    -1.48701   3.63237   0.36977 
 H                     2.6242   -4.09597  -0.3744 
 H                     1.51863   2.7486    4.47519 
 
 ITRead=  0  0  0  0  0  0  0  0  0  0  0  0  0  0  0  0  0  0  0  0
 ITRead=  0  0  0  0  0  0  0  0  0  0  0  0  0  0  0  0  0  0  0  0
 ITRead=  0  0  0  0  0  0  0  0
 MicOpt= -1 -1 -1 -1 -1 -1 -1 -1 -1 -1 -1 -1 -1 -1 -1 -1 -1 -1 -1 -1
 MicOpt= -1 -1 -1 -1 -1 -1 -1 -1 -1 -1 -1 -1 -1 -1 -1 -1 -1 -1 -1 -1
 MicOpt= -1 -1 -1 -1 -1 -1 -1 -1
 NAtoms=     48 NQM=       48 NQMF=       0 NMMI=      0 NMMIF=      0
                NMic=       0 NMicF=      0.
                    Isotopes and Nuclear Properties:
 (Nuclear quadrupole moments (NQMom) in fm**2, nuclear magnetic moments (NMagM)
  in nuclear magnetons)

  Atom         1           2           3           4           5           6           7           8           9          10
 IAtWgt=          12           1           1          12           1          16           1          12           1          16
 AtmWgt=  12.0000000   1.0078250   1.0078250  12.0000000   1.0078250  15.9949146   1.0078250  12.0000000   1.0078250  15.9949146
 NucSpn=           0           1           1           0           1           0           1           0           1           0
 AtZEff=  -0.0000000  -0.0000000  -0.0000000  -0.0000000  -0.0000000  -0.0000000  -0.0000000  -0.0000000  -0.0000000  -0.0000000
 NQMom=    0.0000000   0.0000000   0.0000000   0.0000000   0.0000000   0.0000000   0.0000000   0.0000000   0.0000000   0.0000000
 NMagM=    0.0000000   2.7928460   2.7928460   0.0000000   2.7928460   0.0000000   2.7928460   0.0000000   2.7928460   0.0000000
 AtZNuc=   6.0000000   1.0000000   1.0000000   6.0000000   1.0000000   8.0000000   1.0000000   6.0000000   1.0000000   8.0000000

  Atom        11          12          13          14          15          16          17          18          19          20
 IAtWgt=           1          12           1          12           1          16          14          12           1          12
 AtmWgt=   1.0078250  12.0000000   1.0078250  12.0000000   1.0078250  15.9949146  14.0030740  12.0000000   1.0078250  12.0000000
 NucSpn=           1           0           1           0           1           0           2           0           1           0
 AtZEff=  -0.0000000  -0.0000000  -0.0000000  -0.0000000  -0.0000000  -0.0000000  -0.0000000  -0.0000000  -0.0000000  -0.0000000
 NQMom=    0.0000000   0.0000000   0.0000000   0.0000000   0.0000000   0.0000000   2.0440000   0.0000000   0.0000000   0.0000000
 NMagM=    2.7928460   0.0000000   2.7928460   0.0000000   2.7928460   0.0000000   0.4037610   0.0000000   2.7928460   0.0000000
 AtZNuc=   1.0000000   6.0000000   1.0000000   6.0000000   1.0000000   8.0000000   7.0000000   6.0000000   1.0000000   6.0000000

  Atom        21          22          23          24          25          26          27          28          29          30
 IAtWgt=           1          12           1           1          12          12           1          12          16          14
 AtmWgt=   1.0078250  12.0000000   1.0078250   1.0078250  12.0000000  12.0000000   1.0078250  12.0000000  15.9949146  14.0030740
 NucSpn=           1           0           1           1           0           0           1           0           0           2
 AtZEff=  -0.0000000  -0.0000000  -0.0000000  -0.0000000  -0.0000000  -0.0000000  -0.0000000  -0.0000000  -0.0000000  -0.0000000
 NQMom=    0.0000000   0.0000000   0.0000000   0.0000000   0.0000000   0.0000000   0.0000000   0.0000000   0.0000000   2.0440000
 NMagM=    2.7928460   0.0000000   2.7928460   2.7928460   0.0000000   0.0000000   2.7928460   0.0000000   0.0000000   0.4037610
 AtZNuc=   1.0000000   6.0000000   1.0000000   1.0000000   6.0000000   6.0000000   1.0000000   6.0000000   8.0000000   7.0000000

  Atom        31          32          33          34          35          36          37          38          39          40
 IAtWgt=           1           1          12          12          12          12          12          16          32           1
 AtmWgt=   1.0078250   1.0078250  12.0000000  12.0000000  12.0000000  12.0000000  12.0000000  15.9949146  31.9720718   1.0078250
 NucSpn=           1           1           0           0           0           0           0           0           0           1
 AtZEff=  -0.0000000  -0.0000000  -0.0000000  -0.0000000  -0.0000000  -0.0000000  -0.0000000  -0.0000000  -0.0000000  -0.0000000
 NQMom=    0.0000000   0.0000000   0.0000000   0.0000000   0.0000000   0.0000000   0.0000000   0.0000000   0.0000000   0.0000000
 NMagM=    2.7928460   2.7928460   0.0000000   0.0000000   0.0000000   0.0000000   0.0000000   0.0000000   0.0000000   2.7928460
 AtZNuc=   1.0000000   1.0000000   6.0000000   6.0000000   6.0000000   6.0000000   6.0000000   8.0000000  16.0000000   1.0000000

  Atom        41          42          43          44          45          46          47          48
 IAtWgt=           1           1           1           1           1           1           1           1
 AtmWgt=   1.0078250   1.0078250   1.0078250   1.0078250   1.0078250   1.0078250   1.0078250   1.0078250
 NucSpn=           1           1           1           1           1           1           1           1
 AtZEff=  -0.0000000  -0.0000000  -0.0000000  -0.0000000  -0.0000000  -0.0000000  -0.0000000  -0.0000000
 NQMom=    0.0000000   0.0000000   0.0000000   0.0000000   0.0000000   0.0000000   0.0000000   0.0000000
 NMagM=    2.7928460   2.7928460   2.7928460   2.7928460   2.7928460   2.7928460   2.7928460   2.7928460
 AtZNuc=   1.0000000   1.0000000   1.0000000   1.0000000   1.0000000   1.0000000   1.0000000   1.0000000
 Background charge distribution read from input stream:
 Leave Link  101 at Wed Mar  8 14:24:51 2023, MaxMem=  2684354560 cpu:               5.4 elap:               0.4
 (Enter /opt/gaussian/g16/l103.exe)

 GradGradGradGradGradGradGradGradGradGradGradGradGradGradGradGradGradGrad
 Berny optimization.
 Initialization pass.
 Trust Radius=3.00D-01 FncErr=1.00D-07 GrdErr=1.00D-07 EigMax=2.50D+02 EigMin=1.00D-04
 Number of steps in this run=      2 maximum allowed number of steps=      2.
 GradGradGradGradGradGradGradGradGradGradGradGradGradGradGradGradGradGrad

 Leave Link  103 at Wed Mar  8 14:24:51 2023, MaxMem=  2684354560 cpu:               0.8 elap:               0.1
 (Enter /opt/gaussian/g16/l202.exe)
 ---------------------------------------------------------------------------------------------------
                            Z-MATRIX (ANGSTROMS AND DEGREES)
   CD    Cent   Atom    N1       Length/X        N2       Alpha/Y        N3        Beta/Z          J
 ---------------------------------------------------------------------------------------------------
      1      1  C        0   3.464443         -3.567532         -0.824775
      2      2  H        0   3.431387         -3.649274         -1.919209
      3      3  H        0   4.423119         -3.941489         -0.437119
      4      4  C        0   1.616280         -1.207778          0.980918
      5      5  H        0   0.883384         -2.043284          0.999407
      6      6  O        0   1.326111         -0.367672          2.074218
      7      7  H        0   0.423147          0.011720          2.054426
      8      8  C        0   3.087449         -1.714877          1.031802
      9      9  H        0   3.261699         -2.548576          1.742975
     10     10  O        0   3.888316         -0.617011          1.446299
     11     11  H        0   4.839194         -0.793623          1.387993
     12     12  C        0   1.643252         -0.453755         -0.373390
     13     13  H        0   2.266765          0.457563         -0.286800
     14     14  C        0   3.405259         -2.055776         -0.471166
     15     15  H        0   4.327406         -1.545524         -0.818524
     16     16  O        0   2.326474         -1.410581         -1.208562
     17     17  N        0   0.389697         -0.101702         -0.954569
     18     18  C        0  -0.562163         -1.102211         -1.223913
     19     19  H        0  -0.183399         -2.109090         -1.063351
     20     20  C        0  -1.757459         -0.797039         -1.695504
     21     21  H        0  -2.459752         -1.595500         -1.926142
     22     22  C        0  -2.193357          0.637006         -1.908624
     23     23  H        0  -2.879472          0.739028         -2.763934
     24     24  H        0  -2.755760          1.048639         -0.944289
     25     25  C        0  -0.955306          1.530977         -2.040741
     26     26  C        0   0.216290          1.166400         -1.514240
     27     27  H        0   1.118951          1.776547         -1.554517
     28     28  C        0  -1.163834          2.902807         -2.583393
     29     29  O        0  -0.801033          3.901465         -2.022047
     30     30  N        0  -1.979860          3.016287         -3.681806
     31     31  H        0  -1.969109          3.941489         -4.080062
     32     32  H        0  -1.971522          2.246410         -4.328647
     33     33  C        0   0.925703          2.134234          3.797631
     34     34  C        0  -0.914360          2.075774          1.730751
     35     35  C        0  -1.828724          2.684197          0.796397
     36     36  C        0  -4.048243          2.982690         -0.335895
     37     37  C        0  -3.026361          2.159376          0.438932
     38     38  O        0  -0.959201          0.886612          2.099983
     39     39  S        0   0.220235          3.152686          2.449941
     40     40  H        0   0.080409          1.675429          4.328647
     41     41  H        0   1.556142          1.355232          3.345982
     42     42  H        0  -4.839194          2.336385         -0.729090
     43     43  H        0  -3.546485          3.524570         -1.147678
     44     44  H        0  -4.502369          3.721732          0.342586
     45     45  H        0  -3.393996          1.271138          0.972454
     46     46  H        0  -1.487014          3.632367          0.369768
     47     47  H        0   2.624198         -4.095974         -0.374400
     48     48  H        0   1.518635          2.748597          4.475193
 ---------------------------------------------------------------------------------------------------
                         Z-Matrix orientation:                         
 ---------------------------------------------------------------------
 Center     Atomic      Atomic             Coordinates (Angstroms)
 Number     Number       Type             X           Y           Z
 ---------------------------------------------------------------------
      1          6           0        3.464443   -3.567532   -0.824775
      2          1           0        3.431387   -3.649274   -1.919209
      3          1           0        4.423119   -3.941489   -0.437119
      4          6           0        1.616280   -1.207778    0.980918
      5          1           0        0.883384   -2.043284    0.999407
      6          8           0        1.326111   -0.367672    2.074218
      7          1           0        0.423147    0.011720    2.054426
      8          6           0        3.087449   -1.714877    1.031802
      9          1           0        3.261699   -2.548576    1.742975
     10          8           0        3.888316   -0.617011    1.446299
     11          1           0        4.839194   -0.793623    1.387993
     12          6           0        1.643252   -0.453755   -0.373390
     13          1           0        2.266765    0.457563   -0.286800
     14          6           0        3.405259   -2.055776   -0.471166
     15          1           0        4.327406   -1.545524   -0.818524
     16          8           0        2.326474   -1.410581   -1.208562
     17          7           0        0.389697   -0.101702   -0.954569
     18          6           0       -0.562163   -1.102211   -1.223913
     19          1           0       -0.183399   -2.109090   -1.063351
     20          6           0       -1.757459   -0.797039   -1.695504
     21          1           0       -2.459752   -1.595500   -1.926142
     22          6           0       -2.193357    0.637006   -1.908624
     23          1           0       -2.879472    0.739028   -2.763934
     24          1           0       -2.755760    1.048639   -0.944289
     25          6           0       -0.955306    1.530977   -2.040741
     26          6           0        0.216290    1.166400   -1.514240
     27          1           0        1.118951    1.776547   -1.554517
     28          6           0       -1.163834    2.902807   -2.583393
     29          8           0       -0.801033    3.901465   -2.022047
     30          7           0       -1.979860    3.016287   -3.681806
     31          1           0       -1.969109    3.941489   -4.080062
     32          1           0       -1.971522    2.246410   -4.328647
     33          6           0        0.925703    2.134234    3.797631
     34          6           0       -0.914360    2.075774    1.730751
     35          6           0       -1.828724    2.684197    0.796397
     36          6           0       -4.048243    2.982690   -0.335895
     37          6           0       -3.026361    2.159376    0.438932
     38          8           0       -0.959201    0.886612    2.099983
     39         16           0        0.220235    3.152686    2.449941
     40          1           0        0.080409    1.675429    4.328647
     41          1           0        1.556142    1.355232    3.345982
     42          1           0       -4.839194    2.336385   -0.729090
     43          1           0       -3.546485    3.524570   -1.147678
     44          1           0       -4.502369    3.721732    0.342586
     45          1           0       -3.393996    1.271138    0.972454
     46          1           0       -1.487014    3.632367    0.369768
     47          1           0        2.624198   -4.095974   -0.374400
     48          1           0        1.518635    2.748597    4.475193
 ---------------------------------------------------------------------
                    Distance matrix (angstroms):
                    1          2          3          4          5
     1  C    0.000000
     2  H    1.097980   0.000000
     3  H    1.099628   1.807073   0.000000
     4  C    3.499238   4.203124   4.166815   0.000000
     5  H    3.508964   4.194024   4.265736   1.111552   0.000000
     6  O    4.818269   5.581088   5.354478   1.409000   2.039339
     7  H    5.509112   6.184024   6.151051   2.015728   2.355403
     8  C    2.649779   3.545229   2.983210   1.556944   2.228632
     9  H    2.769966   3.827782   2.835826   2.255187   2.542556
    10  O    3.747401   4.553025   3.858164   2.393268   3.356126
    11  H    3.805371   4.590670   3.662405   3.274814   4.166663
    12  C    3.635393   3.974710   4.460494   1.550300   2.233511
    13  H    4.233820   4.570253   4.901440   2.191712   3.134056
    14  C    1.553689   2.153311   2.143155   2.455218   2.919348
    15  H    2.198467   2.537739   2.428020   3.271432   3.926057
    16  O    2.468745   2.595688   3.375877   2.310698   2.712553
    17  N    4.634963   4.771548   5.592871   2.544410   2.798480
    18  C    4.738214   4.787422   5.790819   3.101296   2.813961
    19  H    3.935826   4.021360   4.996985   2.868841   2.323215
    20  C    5.975120   5.925319   7.047740   4.325974   3.973628
    21  H    6.340190   6.238874   7.422585   5.021490   4.464964
    22  C    7.131869   7.071778   8.179590   5.125038   5.010682
    23  H    7.908986   7.732897   8.980487   6.166503   6.005255
    24  H    7.746886   7.829537   8.757563   5.283236   5.155707
    25  C    6.856204   6.789171   7.838810   4.821230   5.039704
    26  C    5.782385   5.804444   6.704337   3.717864   4.131042
    27  H    5.881584   5.909305   6.697913   3.947400   4.600992
    28  C    8.147329   8.030377   9.092025   6.109849   6.441380
    29  O    8.684104   8.656652   9.555925   6.400435   6.877971
    30  N    9.008314   8.764590   9.996838   7.246789   7.463992
    31  H    9.823736   9.563176  10.782994   8.061234   8.351960
    32  H    8.696479   8.352000   9.712132   7.279781   7.412160
    33  C    7.766722   8.509387   8.190204   4.424908   5.028271
    34  C    7.586272   8.061259   8.330414   4.212850   4.553393
    35  C    8.350444   8.669264   9.192759   5.200920   5.453973
    36  C    9.979221  10.121003  10.941594   7.168043   7.166896
    37  C    8.747855   9.000208   9.668649   5.760694   5.767373
    38  O    6.925477   7.483677   7.662690   3.503124   3.631898
    39  S    8.149232   8.698714   8.736514   4.808391   5.435249
    40  H    8.093088   8.866635   8.551106   4.677507   5.055436
    41  H    6.728330   7.502257   7.112430   3.488003   4.184368
    42  H   10.189002  10.278473  11.193185   7.560315   7.410607
    43  H    9.977739  10.037430  10.943561   7.319849   7.432006
    44  H   10.861224  11.063089  11.789709   7.883236   7.916639
    45  H    8.583760   8.897079   9.500824   5.589988   5.411294
    46  H    8.819433   9.080329   9.640749   5.781950   6.182900
    47  H    1.090000   1.799314   1.806631   3.345812   3.021806
    48  H    8.471677   9.245526   8.793412   5.279431   5.953718
                    6          7          8          9         10
     6  O    0.000000
     7  H    0.979630   0.000000
     8  C    2.450286   3.335476   0.000000
     9  H    2.934717   3.835295   1.109587   0.000000
    10  O    2.649782   3.573866   1.420742   2.052220   0.000000
    11  H    3.604731   4.538081   2.011018   2.386286   0.968896
    12  C    2.469569   2.756740   2.377119   3.389195   2.894518
    13  H    2.672124   3.013145   2.670529   3.761216   2.605335
    14  C    3.694797   4.421102   1.573572   2.272858   2.445416
    15  H    4.331635   5.091374   2.233804   2.950105   2.486837
    16  O    3.586785   4.036419   2.385562   3.298673   3.180784
    17  N    3.181377   3.011317   3.718315   4.638138   4.274347
    18  C    3.870761   3.599886   4.333967   5.051367   5.212697
    19  H    3.893007   3.819197   3.904295   4.465122   5.010341
    20  C    4.889127   4.412607   5.635046   6.331110   6.463599
    21  H    5.642978   5.170994   6.287695   6.863364   7.254569
    22  C    5.409164   4.789868   6.485704   7.296556   7.057961
    23  H    6.505339   5.886668   7.485546   8.296659   8.085039
    24  H    5.270579   4.491431   6.759072   7.508073   7.254864
    25  C    5.073718   4.580247   6.026603   6.981574   6.343025
    26  C    4.057352   3.756521   4.798712   5.803879   5.042730
    27  H    4.219989   4.077159   4.770122   5.845640   4.733223
    28  C    6.212020   5.690892   7.243344   8.247446   7.358788
    29  O    6.287262   5.765966   7.482619   8.502012   7.378079
    30  N    7.450666   6.906969   8.383294   9.373893   8.598477
    31  H    8.203811   7.667980   9.148465  10.168090   9.253649
    32  H    7.661885   7.174392   8.367758   9.340400   8.711307
    33  C    3.064313   2.792202   5.209473   5.622028   4.677092
    34  C    3.332883   2.480728   5.556261   6.230909   5.513411
    35  C    4.571621   3.714256   6.601213   7.361408   6.633619
    36  C    6.776227   5.876532   8.651926   9.399567   8.895113
    37  C    5.291895   4.372798   7.262231   7.962728   7.519035
    38  O    2.607018   1.636581   4.927893   5.453803   5.117285
    39  S    3.709050   3.172267   5.824535   6.500361   5.354693
    40  H    3.287626   2.838570   5.604074   5.886299   5.297487
    41  H    2.153764   2.181014   4.138345   4.551733   3.596885
    42  H    7.292561   6.390952   9.074421   9.777444   9.467011
    43  H    7.019427   6.192864   8.729892   9.570284   8.897060
    44  H    7.327548   6.399633   9.361468  10.077629   9.510336
    45  H    5.116541   4.162617   7.136450   7.712469   7.538017
    46  H    5.178720   4.426723   7.068028   7.914545   6.936160
    47  H    4.645534   5.255184   2.803858   2.698911   4.125059
    48  H    3.938640   3.814539   5.851557   6.209938   5.110471
                   11         12         13         14         15
    11  H    0.000000
    12  C    3.664972   0.000000
    13  H    3.314784   1.107595   0.000000
    14  C    2.665647   2.383421   2.765326   0.000000
    15  H    2.386629   2.931686   2.922555   1.109671   0.000000
    16  O    3.665583   1.442158   2.084027   1.457328   2.043054
    17  N    5.075862   1.425872   2.069318   3.625699   4.196270
    18  C    6.007656   2.451069   3.363615   4.149259   4.926333
    19  H    5.741602   2.559851   3.632361   3.637581   4.552463
    20  C    7.281744   3.664787   4.444417   5.453171   6.193134
    21  H    8.056122   4.533129   5.407630   6.060294   6.877124
    22  C    7.897541   4.273906   4.749231   6.376665   6.962191
    23  H    8.897490   5.252853   5.718319   7.250211   7.806593
    24  H    8.155783   4.683421   5.099747   6.915157   7.544319
    25  C    7.122935   3.670385   3.822337   5.860280   6.234238
    26  C    5.799646   2.441857   2.492691   4.651875   4.973915
    27  H    5.394844   2.577634   2.159699   4.592118   4.676754
    28  C    8.091467   4.902077   4.798183   7.065809   7.283964
    29  O    8.092243   5.259329   4.927771   7.455658   7.577536
    30  N    9.312238   6.009472   6.008906   8.064337   8.293980
    31  H    9.933474   6.790195   6.668524   8.824690   8.966106
    32  H    9.397213   6.000128   6.123689   7.892954   8.147160
    33  C    5.449231   4.960845   4.614353   6.475107   6.813303
    34  C    6.438502   4.167410   4.099838   6.370027   6.862121
    35  C    7.543629   4.823874   4.785838   7.174164   7.641757
    36  C    9.809122   6.648585   6.801324   8.997729   9.533580
    37  C    8.455051   5.412357   5.607142   7.743482   8.329788
    38  O    6.078775   3.832352   4.035799   5.858068   6.510083
    39  S    6.167323   4.796102   4.352210   6.767963   7.044494
    40  H    6.114711   5.393056   5.250305   6.929265   7.409783
    41  H    4.385171   4.136877   3.808924   5.442870   5.782508
    42  H   10.389908   7.066365   7.363440   9.344977   9.955088
    43  H    9.767089   6.584829   6.628840   8.940060   9.370825
    44  H   10.428140   7.464314   7.541360   9.827125  10.346840
    45  H    8.498313   5.491850   5.855923   7.705988   8.411970
    46  H    7.787623   5.200697   4.959972   7.549601   7.875918
    47  H    4.349454   3.772003   4.568383   2.186739   3.098864
    48  H    5.753628   5.812000   5.337145   7.148973   7.372388
                   16         17         18         19         20
    16  O    0.000000
    17  N    2.351336   0.000000
    18  C    2.905090   1.406983   0.000000
    19  H    2.609303   2.090426   1.087680   0.000000
    20  C    4.158371   2.375448   1.320704   2.144471   0.000000
    21  H    4.843250   3.360765   2.082619   2.487964   1.088094
    22  C    5.011144   2.850978   2.480826   3.506488   1.513906
    23  H    5.843105   3.829895   3.336427   4.274642   2.181733
    24  H    5.652142   3.349223   3.084836   4.074613   2.228779
    25  C    4.485015   2.377907   2.784860   3.847235   2.486422
    26  C    3.344719   1.396920   2.415962   3.330449   2.789917
    27  H    3.425723   2.102277   3.350028   4.127413   3.862247
    28  C    5.716443   3.754144   4.272044   5.328310   3.850922
    29  O    6.217788   4.310765   5.072558   6.117789   4.805967
    30  N    6.652714   4.772261   5.001312   6.029350   4.305382
    31  H    7.439234   5.628505   5.964562   6.992769   5.308914
    32  H    6.448354   4.740610   4.779008   5.729739   4.030117
    33  C    6.292046   5.279216   6.156641   6.547141   6.779841
    34  C    5.594393   3.694984   4.353580   5.084722   4.550064
    35  C    6.168690   3.968439   4.474674   5.398274   4.281781
    36  C    7.790981   5.439811   5.443137   6.433695   4.624130
    37  C    6.641662   4.327097   4.413079   5.344070   3.860870
    38  O    5.198002   3.482324   3.893756   4.425244   4.228193
    39  S    6.216453   4.712797   5.675694   6.339751   6.057748
    40  H    6.725246   5.582672   6.241722   6.592862   6.766184
    41  H    5.383958   4.688069   5.604479   5.871095   6.405373
    42  H    8.100397   5.773769   5.510152   6.445960   4.499932
    43  H    7.671445   5.355434   5.506277   6.561676   4.709250
    44  H    8.682154   6.342994   6.422583   7.391120   5.666360
    45  H    6.683728   4.462560   4.298382   5.087079   3.751481
    46  H    6.516528   4.383969   5.080491   6.059503   4.894704
    47  H    2.827685   4.613436   4.453896   3.507843   5.641560
    48  H    7.089177   6.235465   7.185976   7.561053   7.834655
                   21         22         23         24         25
    21  H    0.000000
    22  C    2.248412   0.000000
    23  H    2.515568   1.101235   0.000000
    24  H    2.836041   1.189824   1.849938   0.000000
    25  C    3.471505   1.532778   2.202863   2.162520   0.000000
    26  C    3.867681   2.498438   3.365728   3.028497   1.335199
    27  H    4.931117   3.520700   4.304245   3.989438   2.144588
    28  C    4.727171   2.578582   2.767300   2.942589   1.489924
    29  O    5.742575   3.550792   3.856334   3.622311   2.375577
    30  N    4.957946   2.975018   2.614899   3.459430   2.439047
    31  H    5.961405   3.960434   3.580043   4.338257   3.316203
    32  H    4.557484   2.914773   2.354761   3.674719   2.603661
    33  C    7.624552   6.673198   7.712334   6.100614   6.163497
    34  C    5.407342   4.117151   5.084363   3.406112   3.810857
    35  C    5.111381   3.411903   4.190908   2.562115   3.184670
    36  C    5.100197   3.378803   3.506482   2.404414   3.818407
    37  C    4.473668   2.919336   3.506752   1.794508   3.291342
    38  O    4.962078   4.201711   5.231340   3.538569   4.190563
    39  S    6.991259   5.581322   6.528279   4.980398   4.917119
    40  H    7.501585   6.719514   7.742251   6.020015   6.454663
    41  H    7.254620   6.495034   7.575319   6.090397   5.946011
    42  H    4.749147   3.358518   3.245404   2.458718   4.177762
    43  H    5.291702   3.278418   3.288835   2.607076   3.389128
    44  H    6.131262   4.462625   4.602259   3.442690   4.802220
    45  H    4.182378   3.185007   3.808999   2.032426   3.885109
    46  H    5.792065   3.829122   4.486695   3.164192   3.241775
    47  H    5.874251   6.925588   7.705680   7.465639   6.874017
    48  H    8.699185   7.680547   8.705554   7.108523   7.075335
                   26         27         28         29         30
    26  C    0.000000
    27  H    1.090274   0.000000
    28  C    2.462303   2.745570   0.000000
    29  O    2.961991   2.901758   1.201687   0.000000
    30  N    3.597707   3.957896   1.373058   2.219903   0.000000
    31  H    4.365837   4.538884   1.991820   2.366734   1.007335
    32  H    3.724759   4.179425   2.032026   3.070774   1.005576
    33  C    5.445727   5.367567   6.758279   6.322450   8.072316
    34  C    3.554615   3.875161   4.399779   4.174863   5.596036
    35  C    3.438725   3.878068   3.451499   3.237517   4.493042
    36  C    4.782640   5.444237   3.657519   3.772483   3.933759
    37  C    3.913523   4.615627   3.627140   3.747449   4.337043
    38  O    3.810862   4.297217   5.103031   5.109353   6.245506
    39  S    4.433968   4.328641   5.226140   4.647832   6.515930
    40  H    5.866591   5.974982   7.129578   6.787009   8.379138
    41  H    5.045059   4.937969   6.704532   6.391816   8.040660
    42  H    5.248165   6.041046   4.155424   4.519730   4.166124
    43  H    4.455761   4.998740   2.850420   2.905869   3.022329
    44  H    5.678315   6.243556   4.514179   4.395871   4.801712
    45  H    4.385063   5.196894   4.503334   4.754904   5.167926
    46  H    3.540017   3.733363   3.059062   2.502751   4.127675
    47  H    5.898291   6.176159   8.259041   8.854715   9.095083
    48  H    6.330304   6.120623   7.552685   6.994576   8.879625
                   31         32         33         34         35
    31  H    0.000000
    32  H    1.713212   0.000000
    33  C    8.585113   8.628029   0.000000
    34  C    6.193459   6.153292   2.767895   0.000000
    35  C    5.037891   5.145689   4.110564   1.441963   0.000000
    36  C    4.388722   4.560367   6.522734   3.861961   2.509472
    37  C    4.971420   4.883653   5.186551   2.477163   1.355565
    38  O    6.967435   6.648393   2.826912   1.245973   2.384685
    39  S    6.932271   7.181531   1.830628   1.721709   2.674308
    40  H    8.946616   8.915446   1.098636   2.810499   4.139951
    41  H    8.617555   8.493441   1.099220   3.038344   4.441154
    42  H    4.694972   4.603091   7.332537   4.639294   3.392788
    43  H    3.355713   3.772634   6.810990   4.160823   2.726969
    44  H    5.101521   5.513817   6.627327   4.184494   2.903585
    45  H    5.889737   5.574609   5.233197   2.714967   2.116083
    46  H    4.486531   4.922472   4.451500   2.145504   1.094442
    47  H    9.971520   8.773969   7.688056   7.419132   8.195730
    48  H    9.315564   9.483721   1.090000   3.728823   4.974183
                   36         37         38         39         40
    36  C    0.000000
    37  C    1.523957   0.000000
    38  O    4.457491   2.941458   0.000000
    39  S    5.099970   3.946038   2.578494   0.000000
    40  H    6.364955   5.001611   2.582627   2.394029   0.000000
    41  H    6.900288   5.486067   2.845886   2.412132   1.801650
    42  H    1.094493   2.163785   5.015959   6.030788   7.086611
    43  H    1.097446   2.156760   4.919367   5.222006   6.823769
    44  H    1.101250   2.151474   4.866251   5.202668   6.409204
    45  H    2.251495   1.099440   2.710610   4.334265   4.847573
    46  H    2.734947   2.131684   3.288070   2.733480   4.686058
    47  H    9.727817   8.468750   6.617362   8.142420   7.867566
    48  H    7.361487   6.107010   3.904904   2.439421   1.800461
                   41         42         43         44         45
    41  H    0.000000
    42  H    7.646515   0.000000
    43  H    7.136933   1.805020   0.000000
    44  H    7.164236   1.783572   1.781425   0.000000
    45  H    5.490407   2.473581   3.097769   2.762361   0.000000
    46  H    4.827421   3.758213   2.560407   3.016801   3.094384
    47  H    6.685628   9.859171   9.836055  10.602762   8.175485
    48  H    1.793876   8.226570   7.607513   7.367355   6.211763
                   46         47         48
    46  H    0.000000
    47  H    8.785391   0.000000
    48  H    5.164251   8.461026   0.000000
 Symmetry turned off by external request.
 Stoichiometry    C16H24N2O5S
 Framework group  C1[X(C16H24N2O5S)]
 Deg. of freedom   138
 Full point group                 C1      NOp   1
 Rotational constants (GHZ):           0.2931287           0.1683549           0.1275800
 Leave Link  202 at Wed Mar  8 14:24:51 2023, MaxMem=  2684354560 cpu:               0.1 elap:               0.0
 (Enter /opt/gaussian/g16/l301.exe)
 Standard basis: def2TZVP (5D, 7F)
 Ernie: Thresh=  0.10000D-02 Tol=  0.10000D-05 Strict=F.
   894 basis functions,  1434 primitive gaussians,  1014 cartesian basis functions
    95 alpha electrons       95 beta electrons
       nuclear repulsion energy      2439.6839395987 Hartrees.
 IExCor= 4336 DFT=T Ex+Corr=M062X ExCW=0 ScaHFX=  0.540000
 ScaDFX=  1.000000  1.000000  1.000000  1.000000 ScalE2=  1.000000  1.000000
 IRadAn=      5 IRanWt=     -1 IRanGd=            0 ICorTp=0 IEmpDi=131
 NAtoms=   48 NActive=   48 NUniq=   48 SFac= 1.00D+00 NAtFMM=   60 NAOKFM=F Big=F
 Integral buffers will be    131072 words long.
 Raffenetti 2 integral format.
 Two-electron integral symmetry is turned off.
 R6Disp:  Grimme-D3 Dispersion energy=       -0.0042073560 Hartrees.
 Nuclear repulsion after empirical dispersion term =     2439.6797322428 Hartrees.
 Leave Link  301 at Wed Mar  8 14:24:51 2023, MaxMem=  2684354560 cpu:               0.9 elap:               0.1
 (Enter /opt/gaussian/g16/l302.exe)
 NPDir=0 NMtPBC=     1 NCelOv=     1 NCel=       1 NClECP=     1 NCelD=      1
         NCelK=      1 NCelE2=     1 NClLst=     1 CellRange=     0.0.
 One-electron integrals computed using PRISM.
   1 Symmetry operations used in ECPInt.
 ECPInt:  NShTT=   65703 NPrTT=  200010 LenC2=   56166 LenP2D=  118921.
 LDataN:  DoStor=T MaxTD1= 6 Len=  172
 NBasis=   894 RedAO= T EigKep=  3.01D-05  NBF=   894
 NBsUse=   894 1.00D-06 EigRej= -1.00D+00 NBFU=   894
 Precomputing XC quadrature grid using
 IXCGrd= 4 IRadAn=           5 IRanWt=          -1 IRanGd=           0 AccXCQ= 0.00D+00.
 Generated NRdTot=       0 NPtTot=           0 NUsed=           0 NTot=          32
 NSgBfM=   998   998   998   998   998 MxSgAt=    48 MxSgA2=    48.
 Leave Link  302 at Wed Mar  8 14:24:53 2023, MaxMem=  2684354560 cpu:              37.2 elap:               2.4
 (Enter /opt/gaussian/g16/l303.exe)
 DipDrv:  MaxL=1.
 Leave Link  303 at Wed Mar  8 14:24:54 2023, MaxMem=  2684354560 cpu:               4.6 elap:               0.3
 (Enter /opt/gaussian/g16/l401.exe)
 ExpMin= 9.52D-02 ExpMax= 6.07D+04 ExpMxC= 2.07D+03 IAcc=3 IRadAn=         5 AccDes= 0.00D+00
 Harris functional with IExCor= 1009 and IRadAn=       5 diagonalized for initial guess.
 HarFok:  IExCor= 1009 AccDes= 0.00D+00 IRadAn=         5 IDoV= 1 UseB2=F ITyADJ=14
 ICtDFT=  3500011 ScaDFX=  1.000000  1.000000  1.000000  1.000000
 FoFCou: FMM=F IPFlag=           0 FMFlag=      100000 FMFlg1=           0
         NFxFlg=           0 DoJE=T BraDBF=F KetDBF=T FulRan=T
         wScrn=  0.000000 ICntrl=       500 IOpCl=  0 I1Cent=   200000004 NGrid=           0
         NMat0=    1 NMatS0=      1 NMatT0=    0 NMatD0=    1 NMtDS0=    0 NMtDT0=    0
 Symmetry not used in FoFCou.
 Harris En= -1507.19597428288    
 JPrj=0 DoOrth=F DoCkMO=F.
 Leave Link  401 at Wed Mar  8 14:25:02 2023, MaxMem=  2684354560 cpu:             131.3 elap:               8.3
 (Enter /opt/gaussian/g16/l502.exe)
 Two-electron integral symmetry not used.
 Closed shell SCF:
 Using DIIS extrapolation, IDIIS=  1040.
 NGot=  2684354560 LenX=  2682275214 LenY=  2681246004
 Requested convergence on RMS density matrix=1.00D-08 within 128 cycles.
 Requested convergence on MAX density matrix=1.00D-06.
 Requested convergence on             energy=1.00D-06.
 No special actions if energy rises.
 Fock matrices will be formed incrementally for  20 cycles.
 Integral accuracy reduced to 1.0D-05 until final iterations.

 Cycle   1  Pass 0  IDiag  1:
 FoFJK:  IHMeth= 1 ICntrl=       0 DoSepK=F KAlg= 0 I1Cent=           0 FoldK=F
 IRaf= 780000000 NMat=       1 IRICut=       1 DoRegI=T DoRafI=F ISym2E= 0 IDoP0=0 IntGTp=1.
 FoFCou: FMM=F IPFlag=           0 FMFlag=      100000 FMFlg1=           0
         NFxFlg=           0 DoJE=F BraDBF=F KetDBF=F FulRan=T
         wScrn=  0.000000 ICntrl=         0 IOpCl=  0 I1Cent=           0 NGrid=           0
         NMat0=    1 NMatS0=      1 NMatT0=    0 NMatD0=    1 NMtDS0=    0 NMtDT0=    0
 Symmetry not used in FoFCou.
 E= -1507.13557106171    
 DIIS: error= 1.58D-02 at cycle   1 NSaved=   1.
 NSaved= 1 IEnMin= 1 EnMin= -1507.13557106171     IErMin= 1 ErrMin= 1.58D-02
 ErrMax= 1.58D-02  0.00D+00 EMaxC= 1.00D-01 BMatC= 9.96D-01 BMatP= 9.96D-01
 IDIUse=3 WtCom= 8.42D-01 WtEn= 1.58D-01
 Coeff-Com:  0.100D+01
 Coeff-En:   0.100D+01
 Coeff:      0.100D+01
 Gap=     0.282 Goal=   None    Shift=    0.000
 GapD=    0.282 DampG=1.000 DampE=0.500 DampFc=0.5000 IDamp=-1.
 Damping current iteration by 5.00D-01
 RMSDP=3.77D-03 MaxDP=9.76D-01              OVMax= 2.39D-01

 Cycle   2  Pass 0  IDiag  1:
 RMSU=  1.88D-03    CP:  1.01D+00
 E= -1507.46801802397     Delta-E=       -0.332446962264 Rises=F Damp=T
 DIIS: error= 3.71D-03 at cycle   2 NSaved=   2.
 NSaved= 2 IEnMin= 2 EnMin= -1507.46801802397     IErMin= 2 ErrMin= 3.71D-03
 ErrMax= 3.71D-03  0.00D+00 EMaxC= 1.00D-01 BMatC= 9.00D-02 BMatP= 9.96D-01
 IDIUse=3 WtCom= 9.63D-01 WtEn= 3.71D-02
 Coeff-Com:  0.610D-02 0.994D+00
 Coeff-En:   0.611D-01 0.939D+00
 Coeff:      0.813D-02 0.992D+00
 Gap=     0.341 Goal=   None    Shift=    0.000
 RMSDP=1.19D-03 MaxDP=2.84D-01 DE=-3.32D-01 OVMax= 1.86D-01

 Cycle   3  Pass 0  IDiag  1:
 RMSU=  9.53D-04    CP:  9.96D-01  6.28D-01
 E= -1507.83149862007     Delta-E=       -0.363480596093 Rises=F Damp=F
 DIIS: error= 4.90D-03 at cycle   3 NSaved=   3.
 NSaved= 3 IEnMin= 3 EnMin= -1507.83149862007     IErMin= 2 ErrMin= 3.71D-03
 ErrMax= 4.90D-03  0.00D+00 EMaxC= 1.00D-01 BMatC= 5.58D-02 BMatP= 9.00D-02
 IDIUse=3 WtCom= 9.51D-01 WtEn= 4.90D-02
 Coeff-Com: -0.755D-01 0.456D+00 0.620D+00
 Coeff-En:   0.000D+00 0.000D+00 0.100D+01
 Coeff:     -0.718D-01 0.433D+00 0.638D+00
 Gap=     0.214 Goal=   None    Shift=    0.000
 RMSDP=3.49D-04 MaxDP=2.97D-02 DE=-3.63D-01 OVMax= 7.14D-02

 Cycle   4  Pass 0  IDiag  1:
 RMSU=  3.15D-04    CP:  9.98D-01  7.00D-01  9.27D-01
 E= -1507.86804461700     Delta-E=       -0.036545996935 Rises=F Damp=F
 DIIS: error= 2.33D-03 at cycle   4 NSaved=   4.
 NSaved= 4 IEnMin= 4 EnMin= -1507.86804461700     IErMin= 4 ErrMin= 2.33D-03
 ErrMax= 2.33D-03  0.00D+00 EMaxC= 1.00D-01 BMatC= 1.15D-02 BMatP= 5.58D-02
 IDIUse=3 WtCom= 9.77D-01 WtEn= 2.33D-02
 Coeff-Com: -0.356D-01 0.975D-01 0.348D+00 0.590D+00
 Coeff-En:   0.000D+00 0.000D+00 0.143D+00 0.857D+00
 Coeff:     -0.347D-01 0.953D-01 0.343D+00 0.596D+00
 Gap=     0.214 Goal=   None    Shift=    0.000
 RMSDP=1.19D-04 MaxDP=1.13D-02 DE=-3.65D-02 OVMax= 1.90D-02

 Cycle   5  Pass 0  IDiag  1:
 RMSU=  7.66D-05    CP:  9.97D-01  6.99D-01  9.58D-01  7.26D-01
 E= -1507.87658373113     Delta-E=       -0.008539114127 Rises=F Damp=F
 DIIS: error= 4.12D-04 at cycle   5 NSaved=   5.
 NSaved= 5 IEnMin= 5 EnMin= -1507.87658373113     IErMin= 5 ErrMin= 4.12D-04
 ErrMax= 4.12D-04  0.00D+00 EMaxC= 1.00D-01 BMatC= 5.05D-04 BMatP= 1.15D-02
 IDIUse=3 WtCom= 9.96D-01 WtEn= 4.12D-03
 Coeff-Com: -0.102D-01 0.166D-01 0.122D+00 0.273D+00 0.599D+00
 Coeff-En:   0.000D+00 0.000D+00 0.000D+00 0.000D+00 0.100D+01
 Coeff:     -0.101D-01 0.165D-01 0.122D+00 0.271D+00 0.600D+00
 Gap=     0.214 Goal=   None    Shift=    0.000
 RMSDP=4.46D-05 MaxDP=9.66D-03 DE=-8.54D-03 OVMax= 4.83D-03

 Cycle   6  Pass 0  IDiag  1:
 RMSU=  3.08D-05    CP:  9.97D-01  6.84D-01  9.69D-01  7.51D-01  8.79D-01
 E= -1507.87699003210     Delta-E=       -0.000406300967 Rises=F Damp=F
 DIIS: error= 1.24D-04 at cycle   6 NSaved=   6.
 NSaved= 6 IEnMin= 6 EnMin= -1507.87699003210     IErMin= 6 ErrMin= 1.24D-04
 ErrMax= 1.24D-04  0.00D+00 EMaxC= 1.00D-01 BMatC= 5.63D-05 BMatP= 5.05D-04
 IDIUse=3 WtCom= 9.99D-01 WtEn= 1.24D-03
 Coeff-Com:  0.645D-03-0.565D-02 0.907D-02 0.368D-01 0.256D+00 0.703D+00
 Coeff-En:   0.000D+00 0.000D+00 0.000D+00 0.000D+00 0.000D+00 0.100D+01
 Coeff:      0.644D-03-0.564D-02 0.906D-02 0.368D-01 0.255D+00 0.704D+00
 Gap=     0.215 Goal=   None    Shift=    0.000
 RMSDP=1.78D-05 MaxDP=1.03D-03 DE=-4.06D-04 OVMax= 2.33D-03

 Cycle   7  Pass 0  IDiag  1:
 RMSU=  1.60D-05    CP:  9.96D-01  6.83D-01  9.74D-01  7.56D-01  9.54D-01
                    CP:  1.01D+00
 E= -1507.87706303883     Delta-E=       -0.000073006729 Rises=F Damp=F
 DIIS: error= 5.29D-05 at cycle   7 NSaved=   7.
 NSaved= 7 IEnMin= 7 EnMin= -1507.87706303883     IErMin= 7 ErrMin= 5.29D-05
 ErrMax= 5.29D-05  0.00D+00 EMaxC= 1.00D-01 BMatC= 9.09D-06 BMatP= 5.63D-05
 IDIUse=1 WtCom= 1.00D+00 WtEn= 0.00D+00
 Coeff-Com:  0.193D-02-0.511D-02-0.133D-01-0.280D-01 0.539D-02 0.278D+00
 Coeff-Com:  0.761D+00
 Coeff:      0.193D-02-0.511D-02-0.133D-01-0.280D-01 0.539D-02 0.278D+00
 Coeff:      0.761D+00
 Gap=     0.215 Goal=   None    Shift=    0.000
 RMSDP=1.52D-05 MaxDP=3.20D-03 DE=-7.30D-05 OVMax= 2.05D-03

 Cycle   8  Pass 0  IDiag  1:
 RMSU=  1.04D-05    CP:  9.96D-01  6.79D-01  9.76D-01  7.63D-01  1.01D+00
                    CP:  1.18D+00  1.21D+00
 E= -1507.87707811561     Delta-E=       -0.000015076786 Rises=F Damp=F
 DIIS: error= 2.51D-05 at cycle   8 NSaved=   8.
 NSaved= 8 IEnMin= 8 EnMin= -1507.87707811561     IErMin= 8 ErrMin= 2.51D-05
 ErrMax= 2.51D-05  0.00D+00 EMaxC= 1.00D-01 BMatC= 2.23D-06 BMatP= 9.09D-06
 IDIUse=1 WtCom= 1.00D+00 WtEn= 0.00D+00
 Coeff-Com:  0.886D-03-0.156D-02-0.751D-02-0.217D-01-0.431D-01 0.452D-02
 Coeff-Com:  0.369D+00 0.700D+00
 Coeff:      0.886D-03-0.156D-02-0.751D-02-0.217D-01-0.431D-01 0.452D-02
 Coeff:      0.369D+00 0.700D+00
 Gap=     0.215 Goal=   None    Shift=    0.000
 RMSDP=1.24D-05 MaxDP=1.00D-03 DE=-1.51D-05 OVMax= 5.73D-04

 Cycle   9  Pass 0  IDiag  1:
 RMSU=  7.65D-06    CP:  9.96D-01  6.78D-01  9.77D-01  7.62D-01  1.05D+00
                    CP:  1.27D+00  1.62D+00  1.56D+00
 E= -1507.87707188527     Delta-E=        0.000006230340 Rises=F Damp=F
 DIIS: error= 1.83D-05 at cycle   9 NSaved=   9.
 NSaved= 9 IEnMin= 8 EnMin= -1507.87707811561     IErMin= 9 ErrMin= 1.83D-05
 ErrMax= 1.83D-05  0.00D+00 EMaxC= 1.00D-01 BMatC= 3.58D-07 BMatP= 2.23D-06
 IDIUse=1 WtCom= 1.00D+00 WtEn= 0.00D+00
 Coeff-Com:  0.165D-03-0.128D-03-0.125D-02-0.622D-02-0.177D-01-0.301D-01
 Coeff-Com:  0.708D-01 0.290D+00 0.694D+00
 Coeff:      0.165D-03-0.128D-03-0.125D-02-0.622D-02-0.177D-01-0.301D-01
 Coeff:      0.708D-01 0.290D+00 0.694D+00
 Gap=     0.215 Goal=   None    Shift=    0.000
 RMSDP=1.51D-05 MaxDP=1.15D-03 DE= 6.23D-06 OVMax= 2.04D-04

 Cycle  10  Pass 0  IDiag  1:
 RMSU=  4.78D-06    CP:  9.96D-01  6.78D-01  9.78D-01  7.63D-01  1.07D+00
                    CP:  1.35D+00  2.00D+00  2.44D+00  2.11D+00
 E= -1507.87705822882     Delta-E=        0.000013656451 Rises=F Damp=F
 DIIS: error= 3.15D-05 at cycle  10 NSaved=  10.
 NSaved=10 IEnMin= 8 EnMin= -1507.87707811561     IErMin= 9 ErrMin= 1.83D-05
 ErrMax= 3.15D-05  0.00D+00 EMaxC= 1.00D-01 BMatC= 3.63D-07 BMatP= 3.58D-07
 IDIUse=1 WtCom= 1.00D+00 WtEn= 0.00D+00
 Coeff-Com:  0.172D-03-0.132D-03-0.132D-02-0.650D-02-0.185D-01-0.316D-01
 Coeff-Com:  0.739D-01 0.305D+00 0.729D+00-0.503D-01
 Coeff:      0.172D-03-0.132D-03-0.132D-02-0.650D-02-0.185D-01-0.316D-01
 Coeff:      0.739D-01 0.305D+00 0.729D+00-0.503D-01
 Gap=     0.215 Goal=   None    Shift=    0.000
 RMSDP=1.50D-06 MaxDP=9.85D-05 DE= 1.37D-05 OVMax= 4.04D-06

 Initial convergence to 1.0D-05 achieved.  Increase integral accuracy.
 Cycle  11  Pass 1  IDiag  1:
 E= -1507.87692407526     Delta-E=        0.000134153565 Rises=F Damp=F
 DIIS: error= 3.16D-04 at cycle   1 NSaved=   1.
 NSaved= 1 IEnMin= 1 EnMin= -1507.87692407526     IErMin= 1 ErrMin= 3.16D-04
 ErrMax= 3.16D-04  0.00D+00 EMaxC= 1.00D-01 BMatC= 8.02D-05 BMatP= 8.02D-05
 IDIUse=3 WtCom= 9.97D-01 WtEn= 3.16D-03
 Coeff-Com:  0.100D+01
 Coeff-En:   0.100D+01
 Coeff:      0.100D+01
 Gap=     0.215 Goal=   None    Shift=    0.000
 RMSDP=1.50D-06 MaxDP=9.85D-05 DE= 1.34D-04 OVMax= 8.13D-04

 Cycle  12  Pass 1  IDiag  1:
 RMSU=  3.97D-04    CP:  9.97D-01
 E= -1507.87697511682     Delta-E=       -0.000051041565 Rises=F Damp=F
 DIIS: error= 7.62D-06 at cycle   2 NSaved=   2.
 NSaved= 2 IEnMin= 2 EnMin= -1507.87697511682     IErMin= 2 ErrMin= 7.62D-06
 ErrMax= 7.62D-06  0.00D+00 EMaxC= 1.00D-01 BMatC= 1.14D-07 BMatP= 8.02D-05
 IDIUse=1 WtCom= 1.00D+00 WtEn= 0.00D+00
 Coeff-Com: -0.154D-01 0.102D+01
 Coeff:     -0.154D-01 0.102D+01
 Gap=     0.215 Goal=   None    Shift=    0.000
 RMSDP=1.40D-05 MaxDP=9.89D-04 DE=-5.10D-05 OVMax= 1.16D-04

 Cycle  13  Pass 1  IDiag  1:
 RMSU=  4.62D-06    CP:  9.97D-01  1.03D+00
 E= -1507.87697513763     Delta-E=       -0.000000020812 Rises=F Damp=F
 DIIS: error= 4.82D-06 at cycle   3 NSaved=   3.
 NSaved= 3 IEnMin= 3 EnMin= -1507.87697513763     IErMin= 3 ErrMin= 4.82D-06
 ErrMax= 4.82D-06  0.00D+00 EMaxC= 1.00D-01 BMatC= 1.39D-07 BMatP= 1.14D-07
 IDIUse=1 WtCom= 1.00D+00 WtEn= 0.00D+00
 Coeff-Com: -0.952D-02 0.561D+00 0.448D+00
 Coeff:     -0.952D-02 0.561D+00 0.448D+00
 Gap=     0.215 Goal=   None    Shift=    0.000
 RMSDP=5.24D-07 MaxDP=8.77D-05 DE=-2.08D-08 OVMax= 7.37D-05

 Cycle  14  Pass 1  IDiag  1:
 RMSU=  4.92D-07    CP:  9.97D-01  1.03D+00  1.01D+00
 E= -1507.87697524174     Delta-E=       -0.000000104107 Rises=F Damp=F
 DIIS: error= 1.02D-06 at cycle   4 NSaved=   4.
 NSaved= 4 IEnMin= 4 EnMin= -1507.87697524174     IErMin= 4 ErrMin= 1.02D-06
 ErrMax= 1.02D-06  0.00D+00 EMaxC= 1.00D-01 BMatC= 4.32D-09 BMatP= 1.14D-07
 IDIUse=1 WtCom= 1.00D+00 WtEn= 0.00D+00
 Coeff-Com: -0.169D-02 0.888D-01 0.161D+00 0.752D+00
 Coeff:     -0.169D-02 0.888D-01 0.161D+00 0.752D+00
 Gap=     0.215 Goal=   None    Shift=    0.000
 RMSDP=2.76D-07 MaxDP=2.63D-05 DE=-1.04D-07 OVMax= 2.34D-05

 Cycle  15  Pass 1  IDiag  1:
 RMSU=  1.63D-07    CP:  9.97D-01  1.03D+00  1.04D+00  9.44D-01
 E= -1507.87697524490     Delta-E=       -0.000000003164 Rises=F Damp=F
 DIIS: error= 9.08D-07 at cycle   5 NSaved=   5.
 NSaved= 5 IEnMin= 5 EnMin= -1507.87697524490     IErMin= 5 ErrMin= 9.08D-07
 ErrMax= 9.08D-07  0.00D+00 EMaxC= 1.00D-01 BMatC= 1.30D-09 BMatP= 4.32D-09
 IDIUse=1 WtCom= 1.00D+00 WtEn= 0.00D+00
 Coeff-Com:  0.409D-03-0.303D-01 0.217D-01 0.414D+00 0.595D+00
 Coeff:      0.409D-03-0.303D-01 0.217D-01 0.414D+00 0.595D+00
 Gap=     0.215 Goal=   None    Shift=    0.000
 RMSDP=9.83D-08 MaxDP=6.07D-06 DE=-3.16D-09 OVMax= 6.23D-06

 Cycle  16  Pass 1  IDiag  1:
 RMSU=  6.48D-08    CP:  9.97D-01  1.03D+00  1.05D+00  9.75D-01  1.06D+00
 E= -1507.87697524611     Delta-E=       -0.000000001208 Rises=F Damp=F
 DIIS: error= 1.25D-07 at cycle   6 NSaved=   6.
 NSaved= 6 IEnMin= 6 EnMin= -1507.87697524611     IErMin= 6 ErrMin= 1.25D-07
 ErrMax= 1.25D-07  0.00D+00 EMaxC= 1.00D-01 BMatC= 4.36D-11 BMatP= 1.30D-09
 IDIUse=1 WtCom= 1.00D+00 WtEn= 0.00D+00
 Coeff-Com:  0.257D-03-0.166D-01-0.454D-02 0.985D-01 0.194D+00 0.729D+00
 Coeff:      0.257D-03-0.166D-01-0.454D-02 0.985D-01 0.194D+00 0.729D+00
 Gap=     0.215 Goal=   None    Shift=    0.000
 RMSDP=2.31D-08 MaxDP=3.30D-06 DE=-1.21D-09 OVMax= 3.20D-06

 Cycle  17  Pass 1  IDiag  1:
 RMSU=  1.83D-08    CP:  9.97D-01  1.03D+00  1.05D+00  9.78D-01  1.14D+00
                    CP:  1.08D+00
 E= -1507.87697524619     Delta-E=       -0.000000000082 Rises=F Damp=F
 DIIS: error= 8.16D-08 at cycle   7 NSaved=   7.
 NSaved= 7 IEnMin= 7 EnMin= -1507.87697524619     IErMin= 7 ErrMin= 8.16D-08
 ErrMax= 8.16D-08  0.00D+00 EMaxC= 1.00D-01 BMatC= 1.21D-11 BMatP= 4.36D-11
 IDIUse=1 WtCom= 1.00D+00 WtEn= 0.00D+00
 Coeff-Com:  0.131D-04 0.367D-04-0.753D-02-0.487D-01-0.623D-01 0.313D+00
 Coeff-Com:  0.806D+00
 Coeff:      0.131D-04 0.367D-04-0.753D-02-0.487D-01-0.623D-01 0.313D+00
 Coeff:      0.806D+00
 Gap=     0.215 Goal=   None    Shift=    0.000
 RMSDP=1.22D-08 MaxDP=2.15D-06 DE=-8.23D-11 OVMax= 2.04D-06

 Cycle  18  Pass 1  IDiag  1:
 RMSU=  6.97D-09    CP:  9.97D-01  1.03D+00  1.05D+00  9.76D-01  1.17D+00
                    CP:  1.19D+00  1.16D+00
 E= -1507.87697524622     Delta-E=       -0.000000000025 Rises=F Damp=F
 DIIS: error= 3.32D-08 at cycle   8 NSaved=   8.
 NSaved= 8 IEnMin= 8 EnMin= -1507.87697524622     IErMin= 8 ErrMin= 3.32D-08
 ErrMax= 3.32D-08  0.00D+00 EMaxC= 1.00D-01 BMatC= 1.62D-12 BMatP= 1.21D-11
 IDIUse=1 WtCom= 1.00D+00 WtEn= 0.00D+00
 Coeff-Com: -0.256D-04 0.205D-02-0.293D-02-0.322D-01-0.531D-01 0.498D-01
 Coeff-Com:  0.359D+00 0.678D+00
 Coeff:     -0.256D-04 0.205D-02-0.293D-02-0.322D-01-0.531D-01 0.498D-01
 Coeff:      0.359D+00 0.678D+00
 Gap=     0.215 Goal=   None    Shift=    0.000
 RMSDP=3.27D-09 MaxDP=2.53D-07 DE=-2.46D-11 OVMax= 5.00D-07

 SCF Done:  E(RM062X) =  -1507.87697525     A.U. after   18 cycles
            NFock= 18  Conv=0.33D-08     -V/T= 2.0042
 KE= 1.501569662858D+03 PE=-8.418509998917D+03 EE= 2.969383628570D+03
 Leave Link  502 at Wed Mar  8 14:44:32 2023, MaxMem=  2684354560 cpu:           18592.0 elap:            1169.9
 (Enter /opt/gaussian/g16/l601.exe)
 Copying SCF densities to generalized density rwf, IOpCl= 0 IROHF=0.

 **********************************************************************

            Population analysis using the SCF density.

 **********************************************************************

 Alpha  occ. eigenvalues --  -89.90903 -19.62709 -19.62507 -19.61320 -19.59683
 Alpha  occ. eigenvalues --  -19.59371 -14.78785 -14.76339 -10.64604 -10.64326
 Alpha  occ. eigenvalues --  -10.62482 -10.60118 -10.60051 -10.59457 -10.58779
 Alpha  occ. eigenvalues --  -10.57216 -10.56747 -10.55758 -10.55469 -10.54364
 Alpha  occ. eigenvalues --  -10.54104 -10.54067 -10.53945 -10.53453  -8.26848
 Alpha  occ. eigenvalues --   -6.18779  -6.18555  -6.18378  -1.17379  -1.17241
 Alpha  occ. eigenvalues --   -1.15875  -1.14220  -1.11718  -1.07354  -1.01349
 Alpha  occ. eigenvalues --   -0.91782  -0.90867  -0.88418  -0.87388  -0.86674
 Alpha  occ. eigenvalues --   -0.84558  -0.81430  -0.78135  -0.75170  -0.74708
 Alpha  occ. eigenvalues --   -0.72672  -0.69576  -0.67373  -0.66761  -0.65795
 Alpha  occ. eigenvalues --   -0.62660  -0.62354  -0.61119  -0.59874  -0.58189
 Alpha  occ. eigenvalues --   -0.57392  -0.55796  -0.55298  -0.54597  -0.54026
 Alpha  occ. eigenvalues --   -0.52924  -0.52631  -0.51877  -0.50595  -0.50421
 Alpha  occ. eigenvalues --   -0.50050  -0.49474  -0.49033  -0.48145  -0.48095
 Alpha  occ. eigenvalues --   -0.47659  -0.47545  -0.46816  -0.46324  -0.45673
 Alpha  occ. eigenvalues --   -0.44771  -0.44260  -0.43827  -0.43188  -0.42417
 Alpha  occ. eigenvalues --   -0.42232  -0.41133  -0.40838  -0.39513  -0.37077
 Alpha  occ. eigenvalues --   -0.35365  -0.35053  -0.34580  -0.34096  -0.32959
 Alpha  occ. eigenvalues --   -0.32458  -0.32292  -0.31411  -0.29630  -0.24640
 Alpha virt. eigenvalues --   -0.03135   0.01444   0.05340   0.05564   0.05769
 Alpha virt. eigenvalues --    0.06502   0.06732   0.07310   0.08176   0.08452
 Alpha virt. eigenvalues --    0.09420   0.09647   0.10206   0.10918   0.11462
 Alpha virt. eigenvalues --    0.11883   0.12004   0.12686   0.13207   0.13264
 Alpha virt. eigenvalues --    0.13685   0.14480   0.14741   0.14952   0.15251
 Alpha virt. eigenvalues --    0.15635   0.15951   0.16336   0.17174   0.17590
 Alpha virt. eigenvalues --    0.18005   0.18944   0.19100   0.19525   0.20108
 Alpha virt. eigenvalues --    0.20350   0.21230   0.21427   0.21642   0.22274
 Alpha virt. eigenvalues --    0.23159   0.23662   0.23811   0.24001   0.24569
 Alpha virt. eigenvalues --    0.25144   0.25232   0.25738   0.25986   0.26395
 Alpha virt. eigenvalues --    0.26957   0.27229   0.27747   0.28504   0.29135
 Alpha virt. eigenvalues --    0.29695   0.30186   0.30404   0.30679   0.30998
 Alpha virt. eigenvalues --    0.31874   0.32660   0.32882   0.33190   0.33822
 Alpha virt. eigenvalues --    0.34218   0.34338   0.34987   0.35655   0.36299
 Alpha virt. eigenvalues --    0.36487   0.37356   0.37593   0.38012   0.38270
 Alpha virt. eigenvalues --    0.39166   0.39365   0.39972   0.40339   0.40669
 Alpha virt. eigenvalues --    0.41094   0.41242   0.41954   0.42255   0.42430
 Alpha virt. eigenvalues --    0.42773   0.43139   0.43347   0.43899   0.44088
 Alpha virt. eigenvalues --    0.44505   0.44812   0.45205   0.45337   0.45749
 Alpha virt. eigenvalues --    0.45993   0.46387   0.46798   0.47269   0.47690
 Alpha virt. eigenvalues --    0.48065   0.48681   0.48811   0.48976   0.49195
 Alpha virt. eigenvalues --    0.49482   0.49673   0.50171   0.50490   0.50852
 Alpha virt. eigenvalues --    0.51069   0.51503   0.51800   0.51827   0.52214
 Alpha virt. eigenvalues --    0.52741   0.53276   0.53489   0.53740   0.54237
 Alpha virt. eigenvalues --    0.54901   0.55094   0.55928   0.56401   0.57010
 Alpha virt. eigenvalues --    0.57403   0.58194   0.58764   0.58908   0.59325
 Alpha virt. eigenvalues --    0.59868   0.60134   0.60426   0.61480   0.61722
 Alpha virt. eigenvalues --    0.62156   0.63225   0.63395   0.63730   0.64323
 Alpha virt. eigenvalues --    0.65102   0.65852   0.66492   0.66969   0.67472
 Alpha virt. eigenvalues --    0.68903   0.69109   0.69434   0.69874   0.70640
 Alpha virt. eigenvalues --    0.71337   0.72407   0.72949   0.73345   0.73650
 Alpha virt. eigenvalues --    0.74289   0.74946   0.75975   0.77327   0.77642
 Alpha virt. eigenvalues --    0.78729   0.79055   0.79761   0.80392   0.81422
 Alpha virt. eigenvalues --    0.81840   0.82128   0.82709   0.83344   0.84282
 Alpha virt. eigenvalues --    0.85240   0.85421   0.86108   0.86827   0.87932
 Alpha virt. eigenvalues --    0.88333   0.88835   0.88968   0.90158   0.90826
 Alpha virt. eigenvalues --    0.91826   0.92558   0.93176   0.93920   0.94320
 Alpha virt. eigenvalues --    0.94802   0.95365   0.95971   0.96530   0.96887
 Alpha virt. eigenvalues --    0.97454   0.98533   0.98697   0.99130   0.99555
 Alpha virt. eigenvalues --    1.00620   1.01624   1.02298   1.03288   1.03570
 Alpha virt. eigenvalues --    1.04489   1.04632   1.05497   1.05825   1.06692
 Alpha virt. eigenvalues --    1.07140   1.07953   1.09031   1.09356   1.10087
 Alpha virt. eigenvalues --    1.10452   1.10993   1.11640   1.12214   1.13042
 Alpha virt. eigenvalues --    1.14142   1.14225   1.14734   1.15062   1.15830
 Alpha virt. eigenvalues --    1.16762   1.17687   1.18137   1.18195   1.19418
 Alpha virt. eigenvalues --    1.20185   1.21149   1.22252   1.22622   1.22842
 Alpha virt. eigenvalues --    1.23958   1.25526   1.26160   1.27156   1.27234
 Alpha virt. eigenvalues --    1.27991   1.29252   1.30281   1.31447   1.31954
 Alpha virt. eigenvalues --    1.32879   1.33461   1.34213   1.34521   1.34645
 Alpha virt. eigenvalues --    1.35818   1.36791   1.37527   1.39263   1.39833
 Alpha virt. eigenvalues --    1.41181   1.41866   1.42631   1.43319   1.44470
 Alpha virt. eigenvalues --    1.45810   1.46597   1.46834   1.49470   1.49895
 Alpha virt. eigenvalues --    1.50049   1.51151   1.51635   1.52887   1.53416
 Alpha virt. eigenvalues --    1.53806   1.54025   1.54888   1.55361   1.55870
 Alpha virt. eigenvalues --    1.56421   1.56721   1.57225   1.57333   1.57522
 Alpha virt. eigenvalues --    1.58116   1.58573   1.59317   1.59975   1.60419
 Alpha virt. eigenvalues --    1.61402   1.61650   1.62196   1.62293   1.62821
 Alpha virt. eigenvalues --    1.63152   1.64354   1.64438   1.64724   1.65501
 Alpha virt. eigenvalues --    1.66279   1.66980   1.67224   1.67546   1.68430
 Alpha virt. eigenvalues --    1.68694   1.69289   1.70061   1.70459   1.71275
 Alpha virt. eigenvalues --    1.71797   1.72276   1.72905   1.73272   1.73728
 Alpha virt. eigenvalues --    1.74491   1.75491   1.76173   1.76927   1.77524
 Alpha virt. eigenvalues --    1.78229   1.78440   1.79367   1.80082   1.80883
 Alpha virt. eigenvalues --    1.81584   1.82145   1.82977   1.83520   1.83928
 Alpha virt. eigenvalues --    1.85345   1.85662   1.86920   1.87108   1.88574
 Alpha virt. eigenvalues --    1.88588   1.89320   1.89744   1.90298   1.91697
 Alpha virt. eigenvalues --    1.92110   1.92849   1.93070   1.94081   1.95060
 Alpha virt. eigenvalues --    1.95436   1.96019   1.97036   1.97793   1.98144
 Alpha virt. eigenvalues --    1.98772   1.99352   2.00210   2.00350   2.01236
 Alpha virt. eigenvalues --    2.02157   2.02425   2.02888   2.03586   2.04874
 Alpha virt. eigenvalues --    2.05365   2.06523   2.06983   2.07855   2.08905
 Alpha virt. eigenvalues --    2.09524   2.10342   2.10592   2.11456   2.12147
 Alpha virt. eigenvalues --    2.12753   2.13498   2.14331   2.15384   2.15908
 Alpha virt. eigenvalues --    2.17083   2.17531   2.18377   2.18930   2.19424
 Alpha virt. eigenvalues --    2.19960   2.20115   2.20973   2.21213   2.21919
 Alpha virt. eigenvalues --    2.23019   2.23633   2.23943   2.25453   2.25476
 Alpha virt. eigenvalues --    2.25729   2.27854   2.28311   2.29205   2.29925
 Alpha virt. eigenvalues --    2.30230   2.30848   2.31376   2.31980   2.32830
 Alpha virt. eigenvalues --    2.33205   2.33703   2.34231   2.34872   2.35050
 Alpha virt. eigenvalues --    2.36704   2.37082   2.37564   2.37665   2.38465
 Alpha virt. eigenvalues --    2.39297   2.39433   2.40792   2.41464   2.42433
 Alpha virt. eigenvalues --    2.43650   2.44243   2.46086   2.46606   2.47343
 Alpha virt. eigenvalues --    2.47637   2.48409   2.49567   2.50305   2.50793
 Alpha virt. eigenvalues --    2.51305   2.52027   2.53148   2.54412   2.54790
 Alpha virt. eigenvalues --    2.55470   2.56407   2.56952   2.57540   2.57998
 Alpha virt. eigenvalues --    2.58316   2.58742   2.59226   2.59642   2.60824
 Alpha virt. eigenvalues --    2.60969   2.61272   2.61961   2.63491   2.64105
 Alpha virt. eigenvalues --    2.64452   2.65123   2.65852   2.66257   2.66926
 Alpha virt. eigenvalues --    2.67729   2.68479   2.68689   2.69330   2.69967
 Alpha virt. eigenvalues --    2.71360   2.71411   2.71955   2.72124   2.73731
 Alpha virt. eigenvalues --    2.74409   2.74596   2.75565   2.76320   2.76918
 Alpha virt. eigenvalues --    2.77618   2.79046   2.80490   2.80597   2.81191
 Alpha virt. eigenvalues --    2.81429   2.81843   2.82780   2.83915   2.84543
 Alpha virt. eigenvalues --    2.85027   2.86097   2.87034   2.88048   2.89038
 Alpha virt. eigenvalues --    2.89950   2.91083   2.91195   2.91871   2.93015
 Alpha virt. eigenvalues --    2.94019   2.94455   2.95243   2.96541   2.96674
 Alpha virt. eigenvalues --    2.97956   2.98949   2.99283   2.99782   3.00972
 Alpha virt. eigenvalues --    3.01490   3.02108   3.02457   3.03505   3.03941
 Alpha virt. eigenvalues --    3.04202   3.04498   3.05734   3.06072   3.07152
 Alpha virt. eigenvalues --    3.07422   3.07687   3.09091   3.09866   3.10065
 Alpha virt. eigenvalues --    3.10676   3.10905   3.11278   3.11967   3.12592
 Alpha virt. eigenvalues --    3.13270   3.14351   3.14823   3.15632   3.16391
 Alpha virt. eigenvalues --    3.16609   3.16946   3.17526   3.18540   3.19141
 Alpha virt. eigenvalues --    3.20324   3.20524   3.21386   3.21998   3.22446
 Alpha virt. eigenvalues --    3.22709   3.23663   3.23925   3.24045   3.24280
 Alpha virt. eigenvalues --    3.25159   3.26179   3.26762   3.27213   3.27734
 Alpha virt. eigenvalues --    3.28604   3.29089   3.30318   3.30741   3.30785
 Alpha virt. eigenvalues --    3.31977   3.32103   3.32606   3.32858   3.33505
 Alpha virt. eigenvalues --    3.33957   3.34510   3.34937   3.35450   3.36797
 Alpha virt. eigenvalues --    3.37465   3.37614   3.37937   3.38218   3.38808
 Alpha virt. eigenvalues --    3.39212   3.39886   3.40761   3.41346   3.42351
 Alpha virt. eigenvalues --    3.42379   3.42766   3.43825   3.44867   3.45446
 Alpha virt. eigenvalues --    3.45791   3.46654   3.47226   3.48166   3.48784
 Alpha virt. eigenvalues --    3.49259   3.49617   3.50764   3.51058   3.52259
 Alpha virt. eigenvalues --    3.53022   3.53689   3.54555   3.54882   3.55762
 Alpha virt. eigenvalues --    3.56979   3.57433   3.57479   3.59001   3.59255
 Alpha virt. eigenvalues --    3.59725   3.61144   3.61262   3.62964   3.63643
 Alpha virt. eigenvalues --    3.64455   3.64679   3.66545   3.67390   3.68229
 Alpha virt. eigenvalues --    3.68899   3.69887   3.70865   3.71045   3.72468
 Alpha virt. eigenvalues --    3.73867   3.75085   3.75293   3.76020   3.76950
 Alpha virt. eigenvalues --    3.77862   3.78272   3.79325   3.80179   3.81186
 Alpha virt. eigenvalues --    3.81291   3.83238   3.84174   3.87061   3.87724
 Alpha virt. eigenvalues --    3.89291   3.89799   3.90396   3.91822   3.92496
 Alpha virt. eigenvalues --    3.93014   3.94197   3.96805   3.97135   3.98650
 Alpha virt. eigenvalues --    4.00315   4.00911   4.01784   4.01912   4.04697
 Alpha virt. eigenvalues --    4.05732   4.06394   4.07513   4.08558   4.10014
 Alpha virt. eigenvalues --    4.11201   4.12025   4.13857   4.15103   4.15205
 Alpha virt. eigenvalues --    4.16597   4.18843   4.19348   4.20451   4.22827
 Alpha virt. eigenvalues --    4.24917   4.25951   4.26854   4.28076   4.28339
 Alpha virt. eigenvalues --    4.30804   4.31821   4.34255   4.35206   4.36989
 Alpha virt. eigenvalues --    4.38021   4.38828   4.39316   4.40130   4.42051
 Alpha virt. eigenvalues --    4.43315   4.44281   4.45185   4.47046   4.47514
 Alpha virt. eigenvalues --    4.49276   4.50685   4.52038   4.54255   4.55157
 Alpha virt. eigenvalues --    4.58962   4.62659   4.66459   4.67314   4.68043
 Alpha virt. eigenvalues --    4.69062   4.71273   4.72528   4.72928   4.74445
 Alpha virt. eigenvalues --    4.76184   4.76878   4.79278   4.79540   4.81039
 Alpha virt. eigenvalues --    4.84147   4.86033   4.87166   4.88613   4.91666
 Alpha virt. eigenvalues --    4.93178   4.93778   4.94274   4.95859   4.97435
 Alpha virt. eigenvalues --    4.98622   4.98848   4.99872   5.04352   5.05264
 Alpha virt. eigenvalues --    5.08413   5.08659   5.12909   5.15476   5.20550
 Alpha virt. eigenvalues --    5.22276   5.22548   5.25130   5.25874   5.28152
 Alpha virt. eigenvalues --    5.28913   5.30234   5.32451   5.33884   5.34802
 Alpha virt. eigenvalues --    5.37720   5.40923   5.41894   5.42632   5.44858
 Alpha virt. eigenvalues --    5.48283   5.51934   5.54068   5.55397   5.58946
 Alpha virt. eigenvalues --    5.60969   5.67775   5.72877   5.73828   5.76598
 Alpha virt. eigenvalues --    5.79425   5.80225   5.83066   5.83632   5.85346
 Alpha virt. eigenvalues --    5.86072   5.88348   5.89413   5.90672   5.94734
 Alpha virt. eigenvalues --    5.95686   5.97730   6.02955   6.17398   6.21561
 Alpha virt. eigenvalues --    6.22179   6.22692   6.30197   6.33347   6.37535
 Alpha virt. eigenvalues --    6.37946   6.47567   6.51101   6.52865   6.53585
 Alpha virt. eigenvalues --    6.59156   6.63793   6.68539   6.72595   6.73347
 Alpha virt. eigenvalues --    6.75529   6.80729   6.85308   6.87133   6.88340
 Alpha virt. eigenvalues --    6.91302   6.92374   6.99751   7.07558   7.08118
 Alpha virt. eigenvalues --    7.10175   7.11051   7.13396   7.18715   7.25175
 Alpha virt. eigenvalues --    7.31058   7.36132   9.00271   9.40296   9.53862
 Alpha virt. eigenvalues --   20.03631  22.28671  22.39628  22.44998  22.47083
 Alpha virt. eigenvalues --   22.56400  22.59665  22.62844  22.67572  22.73954
 Alpha virt. eigenvalues --   22.78201  22.90165  22.95010  23.03058  23.06541
 Alpha virt. eigenvalues --   23.18996  23.45757  32.12603  33.15407  44.15586
 Alpha virt. eigenvalues --   44.19772  44.23447  44.30095  44.51691
          Condensed to atoms (all electrons):
               1          2          3          4          5          6
     1  C    5.110907   0.416183   0.407398  -0.010568   0.000590  -0.000213
     2  H    0.416183   0.512218  -0.020972  -0.001087   0.000217  -0.000005
     3  H    0.407398  -0.020972   0.543391   0.001697  -0.000048  -0.000001
     4  C   -0.010568  -0.001087   0.001697   5.328941   0.467472   0.256277
     5  H    0.000590   0.000217  -0.000048   0.467472   0.535521  -0.037741
     6  O   -0.000213  -0.000005  -0.000001   0.256277  -0.037741   8.130776
     7  H   -0.000053  -0.000002   0.000003  -0.028503  -0.012586   0.286250
     8  C   -0.008681   0.012186  -0.007924   0.016973  -0.052265  -0.043560
     9  H    0.011279  -0.000018  -0.001032  -0.096408   0.002907   0.003659
    10  O    0.008979  -0.000411   0.000120  -0.041100   0.001417  -0.006618
    11  H   -0.000679  -0.000103   0.000314   0.013320  -0.000613  -0.000328
    12  C   -0.002809   0.000348   0.000161   0.080372  -0.066023  -0.037589
    13  H    0.000235   0.000019   0.000100  -0.093787   0.005209   0.008562
    14  C    0.187454  -0.047536  -0.038527   0.078816   0.006888   0.005867
    15  H   -0.062075  -0.005202  -0.002845  -0.009145  -0.000011   0.000083
    16  O   -0.034136   0.001779   0.005160  -0.072522  -0.000736   0.006806
    17  N   -0.000336  -0.000101  -0.000028   0.014427  -0.010206  -0.000479
    18  C   -0.000581   0.000116  -0.000018  -0.005608   0.000989   0.001848
    19  H   -0.000565  -0.000116   0.000087  -0.016678  -0.003087   0.001104
    20  C    0.000042   0.000002  -0.000002   0.006651   0.004930  -0.001227
    21  H    0.000006   0.000000  -0.000000   0.000079   0.000072  -0.000011
    22  C   -0.000010   0.000000   0.000000  -0.000224  -0.000182   0.000036
    23  H    0.000000   0.000000  -0.000000   0.000013   0.000004   0.000000
    24  H    0.000000  -0.000000  -0.000000  -0.000113  -0.000092   0.000019
    25  C   -0.000066  -0.000005   0.000001  -0.005446  -0.000228  -0.000116
    26  C   -0.000343   0.000046  -0.000004   0.013862  -0.000705  -0.006884
    27  H   -0.000015   0.000001  -0.000000   0.000604  -0.000107  -0.000130
    28  C    0.000000   0.000000  -0.000000   0.000013   0.000002  -0.000020
    29  O    0.000000  -0.000000  -0.000000   0.000006   0.000000   0.000000
    30  N   -0.000000   0.000000   0.000000   0.000001   0.000000  -0.000000
    31  H   -0.000000   0.000000  -0.000000  -0.000000   0.000000  -0.000000
    32  H    0.000000   0.000000  -0.000000   0.000000  -0.000000   0.000000
    33  C    0.000002  -0.000000  -0.000000   0.000797  -0.000416  -0.019798
    34  C    0.000002  -0.000000  -0.000000  -0.000025   0.000278   0.012712
    35  C    0.000000   0.000000   0.000000  -0.000166   0.000264   0.001805
    36  C   -0.000000   0.000000   0.000000   0.000002   0.000001   0.000002
    37  C   -0.000000   0.000000   0.000000   0.000156  -0.000011  -0.000052
    38  O   -0.000000   0.000000  -0.000000   0.006787   0.000146  -0.048091
    39  S    0.000000  -0.000000  -0.000000  -0.000563   0.000009   0.000734
    40  H   -0.000000   0.000000  -0.000000   0.000110   0.000030  -0.000013
    41  H   -0.000007   0.000000  -0.000000   0.000187   0.000545   0.011028
    42  H   -0.000000   0.000000   0.000000   0.000000  -0.000000  -0.000000
    43  H    0.000000   0.000000  -0.000000   0.000000  -0.000000  -0.000000
    44  H    0.000000  -0.000000  -0.000000  -0.000000  -0.000000   0.000000
    45  H   -0.000000  -0.000000   0.000000   0.000016   0.000010   0.000023
    46  H    0.000000  -0.000000  -0.000000  -0.000016   0.000001   0.000041
    47  H    0.384731  -0.022974  -0.024769   0.000554  -0.000105  -0.000000
    48  H    0.000000   0.000000  -0.000000  -0.000025   0.000005   0.000701
               7          8          9         10         11         12
     1  C   -0.000053  -0.008681   0.011279   0.008979  -0.000679  -0.002809
     2  H   -0.000002   0.012186  -0.000018  -0.000411  -0.000103   0.000348
     3  H    0.000003  -0.007924  -0.001032   0.000120   0.000314   0.000161
     4  C   -0.028503   0.016973  -0.096408  -0.041100   0.013320   0.080372
     5  H   -0.012586  -0.052265   0.002907   0.001417  -0.000613  -0.066023
     6  O    0.286250  -0.043560   0.003659  -0.006618  -0.000328  -0.037589
     7  H    0.342640   0.009799  -0.000238  -0.000446   0.000126   0.005084
     8  C    0.009799   5.325945   0.490344   0.279799  -0.039683  -0.035275
     9  H   -0.000238   0.490344   0.583588  -0.059596  -0.005348   0.011939
    10  O   -0.000446   0.279799  -0.059596   8.038528   0.292896  -0.025138
    11  H    0.000126  -0.039683  -0.005348   0.292896   0.427049  -0.002939
    12  C    0.005084  -0.035275   0.011939  -0.025138  -0.002939   5.510325
    13  H   -0.001020   0.022814   0.002797   0.017726  -0.001076   0.447112
    14  C   -0.000944   0.146584  -0.102505  -0.053196   0.000379  -0.063263
    15  H    0.000053  -0.025296   0.008890  -0.004783   0.002888  -0.003481
    16  O   -0.000199  -0.048028   0.004593   0.009260   0.000147   0.231577
    17  N    0.002197  -0.004028  -0.000785  -0.000273  -0.000006   0.176842
    18  C    0.000404  -0.003208  -0.000247  -0.000309   0.000007  -0.084547
    19  H    0.000266   0.001588   0.000054  -0.000010   0.000004   0.017309
    20  C   -0.001239  -0.000812   0.000020   0.000008  -0.000001   0.013154
    21  H   -0.000013   0.000001   0.000000   0.000000  -0.000000   0.000138
    22  C    0.000218   0.000022  -0.000002  -0.000003   0.000000  -0.009804
    23  H   -0.000002   0.000000   0.000000   0.000000  -0.000000   0.000102
    24  H    0.000110   0.000010  -0.000000   0.000000   0.000000   0.000448
    25  C    0.000513  -0.000497  -0.000003  -0.000054  -0.000001  -0.018512
    26  C    0.000735  -0.003888  -0.000075  -0.000683  -0.000051  -0.057672
    27  H    0.000062   0.000028  -0.000011  -0.000167   0.000008  -0.002123
    28  C    0.000053  -0.000009  -0.000000  -0.000000  -0.000000  -0.001526
    29  O    0.000008   0.000000   0.000000  -0.000000   0.000000   0.000301
    30  N    0.000000  -0.000000  -0.000000  -0.000000  -0.000000  -0.000015
    31  H   -0.000000  -0.000000   0.000000  -0.000000  -0.000000  -0.000005
    32  H   -0.000000  -0.000000  -0.000000   0.000000  -0.000000  -0.000008
    33  C    0.001257   0.000747   0.000021  -0.001120   0.000075  -0.000388
    34  C   -0.009077  -0.000097  -0.000027   0.000030   0.000001  -0.000472
    35  C   -0.001150  -0.000107  -0.000001   0.000000  -0.000000   0.000690
    36  C   -0.000011  -0.000000  -0.000000   0.000000  -0.000000   0.000026
    37  C    0.000122   0.000004   0.000000  -0.000000  -0.000000  -0.000690
    38  O    0.034564  -0.000493   0.000004  -0.000002  -0.000001   0.000317
    39  S    0.001365   0.000007   0.000001   0.000012  -0.000003  -0.000339
    40  H   -0.001819  -0.000022   0.000002   0.000023  -0.000001   0.000033
    41  H   -0.009647  -0.001147   0.000004   0.003334  -0.000230  -0.000019
    42  H   -0.000000   0.000000  -0.000000  -0.000000  -0.000000  -0.000000
    43  H    0.000001   0.000000  -0.000000   0.000000   0.000000   0.000003
    44  H    0.000000   0.000000  -0.000000   0.000000   0.000000  -0.000000
    45  H    0.000003   0.000000   0.000000  -0.000000  -0.000000  -0.000040
    46  H   -0.000106   0.000000  -0.000000   0.000000   0.000000   0.000090
    47  H    0.000008  -0.009062   0.000678   0.000172   0.000099  -0.000830
    48  H    0.000397  -0.000031   0.000002   0.000004  -0.000003   0.000017
              13         14         15         16         17         18
     1  C    0.000235   0.187454  -0.062075  -0.034136  -0.000336  -0.000581
     2  H    0.000019  -0.047536  -0.005202   0.001779  -0.000101   0.000116
     3  H    0.000100  -0.038527  -0.002845   0.005160  -0.000028  -0.000018
     4  C   -0.093787   0.078816  -0.009145  -0.072522   0.014427  -0.005608
     5  H    0.005209   0.006888  -0.000011  -0.000736  -0.010206   0.000989
     6  O    0.008562   0.005867   0.000083   0.006806  -0.000479   0.001848
     7  H   -0.001020  -0.000944   0.000053  -0.000199   0.002197   0.000404
     8  C    0.022814   0.146584  -0.025296  -0.048028  -0.004028  -0.003208
     9  H    0.002797  -0.102505   0.008890   0.004593  -0.000785  -0.000247
    10  O    0.017726  -0.053196  -0.004783   0.009260  -0.000273  -0.000309
    11  H   -0.001076   0.000379   0.002888   0.000147  -0.000006   0.000007
    12  C    0.447112  -0.063263  -0.003481   0.231577   0.176842  -0.084547
    13  H    0.520059  -0.013819   0.006442  -0.033919  -0.061474   0.012275
    14  C   -0.013819   5.263540   0.404923   0.208332   0.015156  -0.000248
    15  H    0.006442   0.404923   0.606083  -0.039358  -0.001409   0.000116
    16  O   -0.033919   0.208332  -0.039358   8.128317  -0.080784   0.005640
    17  N   -0.061474   0.015156  -0.001409  -0.080784   6.574619   0.317690
    18  C    0.012275  -0.000248   0.000116   0.005640   0.317690   5.033792
    19  H    0.001512  -0.003585   0.000286   0.016901  -0.050600   0.406955
    20  C   -0.000407   0.000350   0.000006  -0.000802  -0.090814   0.532459
    21  H    0.000007  -0.000002  -0.000000  -0.000089   0.004599  -0.032111
    22  C    0.000105  -0.000048   0.000001   0.000585  -0.003434  -0.022871
    23  H   -0.000004  -0.000000   0.000000  -0.000005  -0.001437   0.004153
    24  H   -0.000034   0.000003   0.000000   0.000037   0.011460   0.002425
    25  C    0.008325   0.000097   0.000030  -0.001467  -0.062848   0.051193
    26  C   -0.019590   0.000073  -0.000441   0.001058   0.304204  -0.158581
    27  H   -0.000703  -0.000004  -0.000029   0.001177  -0.037201   0.007255
    28  C   -0.000023  -0.000001  -0.000001   0.000028   0.003062   0.000367
    29  O   -0.000013  -0.000000   0.000000  -0.000000  -0.000439   0.000199
    30  N   -0.000000   0.000000  -0.000000  -0.000000  -0.000492   0.000041
    31  H   -0.000000  -0.000000  -0.000000   0.000000   0.000027  -0.000006
    32  H    0.000000   0.000000  -0.000000   0.000000   0.000027   0.000071
    33  C   -0.000371  -0.000079   0.000000   0.000002   0.000129  -0.000011
    34  C    0.000264   0.000078  -0.000001   0.000122   0.008883  -0.002078
    35  C    0.000151   0.000003   0.000000  -0.000024  -0.009186   0.000638
    36  C    0.000002   0.000000   0.000000  -0.000000  -0.000203   0.000211
    37  C   -0.000034  -0.000002  -0.000000  -0.000001  -0.000286   0.001671
    38  O   -0.000474   0.000051  -0.000001   0.000007   0.000496   0.001611
    39  S    0.001393  -0.000005   0.000001   0.000002  -0.000009   0.000167
[...]
      4        6          -0.002192796    0.016832435    0.014149793
      5        1           0.011250212    0.003640513   -0.010314904
      6        8           0.015687644   -0.009085526   -0.004641463
      7        1          -0.000554887   -0.005270568   -0.004394037
      8        6           0.013685258    0.000227492   -0.002808555
      9        1          -0.007061823    0.003142660   -0.010964050
     10        8          -0.000850010    0.007306375    0.002491465
     11        1          -0.010714621   -0.005977212   -0.001941362
     12        6           0.017030294   -0.018720437   -0.002142521
     13        1          -0.008291846   -0.006240381    0.004219479
     14        6          -0.020295015    0.001762980   -0.002700490
     15        1          -0.004475753   -0.006758516    0.010373013
     16        8           0.002163069   -0.004922879    0.000157016
     17        7           0.001241534    0.007389540   -0.002715078
     18        6           0.017007212    0.005531655    0.006622291
     19        1          -0.005085028    0.003509776   -0.000901138
     20        6          -0.018047358    0.003417012   -0.007198085
     21        1           0.003608203    0.002912687    0.000514619
     22        6           0.003238797    0.007758117    0.022444952
     23        1           0.003908827   -0.000220202    0.007288824
     24        1           0.015045321   -0.019649849   -0.037032334
     25        6          -0.018389807   -0.002025633   -0.005817756
     26        6           0.004277997   -0.017090752    0.004818410
     27        1          -0.007163372    0.000593233    0.002669655
     28        6          -0.012290859   -0.010645561    0.001943709
     29        8           0.017044445    0.018351942    0.011702548
     30        7           0.003364515   -0.007733546   -0.004155395
     31        1          -0.001680461    0.000597791   -0.002059899
     32        1          -0.002721524   -0.000622410   -0.003322712
     33        6          -0.006371773   -0.010529325   -0.010287893
     34        6          -0.002826454   -0.047009869    0.023494938
     35        6          -0.012429718    0.007039412   -0.020832843
     36        6           0.008809287   -0.006192376    0.003474635
     37        6          -0.001040973    0.020001152    0.026590907
     38        8          -0.010692810    0.023703627   -0.013808545
     39       16           0.016667325    0.016228493    0.010743206
     40        1           0.006777062    0.002032048   -0.002401924
     41        1          -0.004034187    0.005062551    0.005415527
     42        1           0.002703591    0.004302692   -0.001173463
     43        1          -0.004335351   -0.002004101    0.002038074
     44        1           0.001832417   -0.004856912   -0.003936156
     45        1           0.006217757    0.004295622   -0.005859870
     46        1          -0.004942023   -0.004094307    0.001084718
     47        1           0.001176017   -0.001237607   -0.001066194
     48        1          -0.003857960    0.004420837   -0.005164643
 -------------------------------------------------------------------
 Cartesian Forces:  Max     0.047009869 RMS     0.010638584
 Leave Link  716 at Wed Mar  8 14:51:15 2023, MaxMem=  2684354560 cpu:               0.9 elap:               0.1
 (Enter /opt/gaussian/g16/l103.exe)

 GradGradGradGradGradGradGradGradGradGradGradGradGradGradGradGradGradGrad
 Berny optimization.
 Search for a local minimum.
 Step number   1 out of a maximum of    2
 All quantities printed in internal units (Hartrees-Bohrs-Radians)
 Second derivative matrix not updated -- first step.
 ITU=  0
     Eigenvalues ---    0.00026   0.00065   0.00085   0.00099   0.00143
     Eigenvalues ---    0.00189   0.00214   0.00274   0.00309   0.00441
     Eigenvalues ---    0.00469   0.00652   0.00759   0.00844   0.00941
     Eigenvalues ---    0.01025   0.01135   0.01258   0.01323   0.01416
     Eigenvalues ---    0.01577   0.01764   0.01904   0.02266   0.02560
     Eigenvalues ---    0.02829   0.02932   0.03123   0.03245   0.03711
     Eigenvalues ---    0.04000   0.04328   0.04469   0.04797   0.04948
     Eigenvalues ---    0.05049   0.05159   0.05407   0.05610   0.05743
     Eigenvalues ---    0.05837   0.05868   0.05940   0.06347   0.06652
     Eigenvalues ---    0.07000   0.07127   0.07437   0.07569   0.07732
     Eigenvalues ---    0.08454   0.08612   0.09072   0.09497   0.10250
     Eigenvalues ---    0.10535   0.10931   0.11685   0.11933   0.12123
     Eigenvalues ---    0.12753   0.12875   0.13014   0.13068   0.13627
     Eigenvalues ---    0.13719   0.14024   0.14588   0.15414   0.15957
     Eigenvalues ---    0.16272   0.17120   0.17489   0.18428   0.18961
     Eigenvalues ---    0.19425   0.19879   0.20949   0.21168   0.21711
     Eigenvalues ---    0.24329   0.25953   0.26271   0.26647   0.30712
     Eigenvalues ---    0.32178   0.32651   0.34109   0.35032   0.36422
     Eigenvalues ---    0.36757   0.36757   0.36757   0.36757   0.40809
     Eigenvalues ---    0.41701   0.43592   0.46400   0.52036   0.55094
     Eigenvalues ---    0.59424   0.64040   0.66144   0.69170   0.73832
     Eigenvalues ---    0.74238   0.78022   0.78458   0.83962   0.87046
     Eigenvalues ---    0.88263   0.89367   0.89702   0.90555   0.91814
     Eigenvalues ---    0.92505   0.93532   0.95404   0.98094   0.99287
     Eigenvalues ---    1.00088   1.01627   1.03885   1.06243   1.11094
     Eigenvalues ---    1.12384   1.14996   1.22413   1.25105   1.27749
     Eigenvalues ---    1.29878   1.39119   1.49012   1.53479   1.65731
     Eigenvalues ---    1.78482   1.96602   2.37339
 Quadratic step=1.678D+01 exceeds max=3.000D-01 adjusted using Lamda=-1.169D-01.
 Angle between NR and scaled steps=  78.16 degrees.
 Angle between quadratic step and forces=  42.52 degrees.
 Linear search not attempted -- first point.
 Variable       Old X    -DE/DX   Delta X   Delta X   Delta X     New X
                                 (Linear)    (Quad)   (Total)
    X1        6.54685   0.00386   0.00000  -0.00922  -0.00922   6.53763
    Y1       -6.74166   0.02766   0.00000   0.05544   0.05544  -6.68622
    Z1       -1.55860   0.00224   0.00000   0.01352   0.01352  -1.54508
    X2        6.48438   0.00081   0.00000   0.00092   0.00092   6.48530
    Y2       -6.89613  -0.00350   0.00000   0.00289   0.00289  -6.89323
    Z2       -3.62678   0.00658   0.00000   0.02729   0.02729  -3.59948
    X3        8.35848  -0.00706   0.00000  -0.03152  -0.03152   8.32697
    Y3       -7.44834  -0.00333   0.00000   0.00471   0.00471  -7.44362
    Z3       -0.82603  -0.00342   0.00000  -0.00414  -0.00414  -0.83018
    X4        3.05433  -0.00219   0.00000   0.02570   0.02570   3.08003
    Y4       -2.28237   0.01683   0.00000   0.02424   0.02424  -2.25813
    Z4        1.85367   0.01415   0.00000   0.00734   0.00734   1.86100
    X5        1.66935   0.01125   0.00000   0.05793   0.05793   1.72728
    Y5       -3.86125   0.00364   0.00000   0.01394   0.01394  -3.84731
    Z5        1.88860  -0.01031   0.00000  -0.04739  -0.04739   1.84122
    X6        2.50599   0.01569   0.00000   0.04626   0.04626   2.55225
    Y6       -0.69480  -0.00909   0.00000  -0.00863  -0.00863  -0.70343
    Z6        3.91970  -0.00464   0.00000   0.00309   0.00309   3.92280
    X7        0.79963  -0.00055   0.00000   0.02544   0.02544   0.82507
    Y7        0.02215  -0.00527   0.00000  -0.04200  -0.04200  -0.01986
    Z7        3.88230  -0.00439   0.00000  -0.01665  -0.01665   3.86566
    X8        5.83443   0.01369   0.00000   0.00952   0.00952   5.84396
    Y8       -3.24065   0.00023   0.00000   0.02193   0.02193  -3.21872
    Z8        1.94982  -0.00281   0.00000  -0.01088  -0.01088   1.93895
    X9        6.16372  -0.00706   0.00000  -0.03308  -0.03308   6.13064
    Y9       -4.81611   0.00314   0.00000   0.00561   0.00561  -4.81050
    Z9        3.29374  -0.01096   0.00000  -0.04743  -0.04743   3.24631
   X10        7.34785  -0.00085   0.00000  -0.01716  -0.01716   7.33070
   Y10       -1.16598   0.00731   0.00000   0.02790   0.02790  -1.13808
   Z10        2.73311   0.00249   0.00000   0.00735   0.00735   2.74046
   X11        9.14475  -0.01071   0.00000  -0.03912  -0.03912   9.10564
   Y11       -1.49973  -0.00598   0.00000  -0.02788  -0.02788  -1.52761
   Z11        2.62293  -0.00194   0.00000  -0.00524  -0.00524   2.61768
   X12        3.10530   0.01703   0.00000   0.02213   0.02213   3.12743
   Y12       -0.85747  -0.01872   0.00000  -0.03382  -0.03382  -0.89129
   Z12       -0.70561  -0.00214   0.00000  -0.00921  -0.00921  -0.71481
   X13        4.28356  -0.00829   0.00000  -0.02286  -0.02286   4.26071
   Y13        0.86467  -0.00624   0.00000  -0.02561  -0.02561   0.83906
   Z13       -0.54197   0.00422   0.00000   0.01949   0.01949  -0.52249
   X14        6.43501  -0.02030   0.00000  -0.04331  -0.04331   6.39170
   Y14       -3.88485   0.00176   0.00000   0.01439   0.01439  -3.87046
   Z14       -0.89038  -0.00270   0.00000   0.00319   0.00319  -0.88718
   X15        8.17761  -0.00448   0.00000  -0.02206  -0.02206   8.15556
   Y15       -2.92062  -0.00676   0.00000  -0.02170  -0.02170  -2.94232
   Z15       -1.54679   0.01037   0.00000   0.05410   0.05410  -1.49268
   X16        4.39640   0.00216   0.00000  -0.00791  -0.00791   4.38849
   Y16       -2.66561  -0.00492   0.00000  -0.02074  -0.02074  -2.68635
   Z16       -2.28385   0.00016   0.00000  -0.01988  -0.01988  -2.30373
   X17        0.73642   0.00124   0.00000   0.01601   0.01601   0.75243
   Y17       -0.19219   0.00739   0.00000  -0.00585  -0.00585  -0.19804
   Z17       -1.80387  -0.00272   0.00000  -0.00037  -0.00037  -1.80424
   X18       -1.06233   0.01701   0.00000   0.01028   0.01028  -1.05206
   Y18       -2.08288   0.00553   0.00000   0.01443   0.01443  -2.06844
   Z18       -2.31286   0.00662   0.00000   0.00476   0.00476  -2.30810
   X19       -0.34657  -0.00509   0.00000  -0.01928  -0.01928  -0.36586
   Y19       -3.98560   0.00351   0.00000   0.01352   0.01352  -3.97208
   Z19       -2.00944  -0.00090   0.00000   0.00256   0.00256  -2.00689
   X20       -3.32112  -0.01805   0.00000  -0.00553  -0.00553  -3.32664
   Y20       -1.50619   0.00342   0.00000   0.00561   0.00561  -1.50058
   Z20       -3.20404  -0.00720   0.00000  -0.00872  -0.00872  -3.21276
   X21       -4.64826   0.00361   0.00000   0.00551   0.00551  -4.64275
   Y21       -3.01506   0.00291   0.00000   0.00934   0.00934  -3.00572
   Z21       -3.63988   0.00051   0.00000  -0.00286  -0.00286  -3.64274
   X22       -4.14484   0.00324   0.00000   0.01709   0.01709  -4.12775
   Y22        1.20377   0.00776   0.00000  -0.01051  -0.01051   1.19326
   Z22       -3.60678   0.02244   0.00000   0.00064   0.00064  -3.60614
   X23       -5.44141   0.00391   0.00000   0.01642   0.01642  -5.42499
   Y23        1.39656  -0.00022   0.00000  -0.00015  -0.00015   1.39641
   Z23       -5.22308   0.00729   0.00000   0.02211   0.02211  -5.20097
   X24       -5.20763   0.01505   0.00000   0.03140   0.03140  -5.17624
   Y24        1.98164  -0.01965   0.00000  -0.07188  -0.07188   1.90976
   Z24       -1.78445  -0.03703   0.00000  -0.10476  -0.10476  -1.88921
   X25       -1.80527  -0.01839   0.00000  -0.02490  -0.02490  -1.83017
   Y25        2.89313  -0.00203   0.00000  -0.01283  -0.01283   2.88029
   Z25       -3.85644  -0.00582   0.00000   0.00175   0.00175  -3.85469
   X26        0.40873   0.00428   0.00000  -0.01268  -0.01268   0.39605
   Y26        2.20418  -0.01709   0.00000  -0.02674  -0.02674   2.17743
   Z26       -2.86150   0.00482   0.00000   0.00161   0.00161  -2.85989
   X27        2.11451  -0.00716   0.00000  -0.03956  -0.03956   2.07495
   Y27        3.35719   0.00059   0.00000   0.00493   0.00493   3.36212
   Z27       -2.93761   0.00267   0.00000   0.02156   0.02156  -2.91605
   X28       -2.19933  -0.01229   0.00000  -0.02795  -0.02795  -2.22728
   Y28        5.48551  -0.01065   0.00000   0.00216   0.00216   5.48767
   Z28       -4.88190   0.00194   0.00000   0.03129   0.03129  -4.85062
   X29       -1.51373   0.01704   0.00000   0.05883   0.05883  -1.45491
   Y29        7.37270   0.01835   0.00000   0.00711   0.00711   7.37981
   Z29       -3.82112   0.01170   0.00000   0.01066   0.01066  -3.81046
   X30       -3.74139   0.00336   0.00000   0.01044   0.01044  -3.73095
   Y30        5.69996  -0.00773   0.00000  -0.01172  -0.01172   5.68824
   Z30       -6.95760  -0.00416   0.00000  -0.00969  -0.00969  -6.96729
   X31       -3.72108  -0.00168   0.00000  -0.00472  -0.00472  -3.72580
   Y31        7.44834   0.00060   0.00000  -0.00578  -0.00578   7.44256
   Z31       -7.71020  -0.00206   0.00000  -0.00764  -0.00764  -7.71784
   X32       -3.72564  -0.00272   0.00000  -0.00946  -0.00946  -3.73509
   Y32        4.24510  -0.00062   0.00000  -0.00752  -0.00752   4.23758
   Z32       -8.17996  -0.00332   0.00000  -0.01465  -0.01465  -8.19461
   X33        1.74933  -0.00637   0.00000  -0.00991  -0.00991   1.73942
   Y33        4.03312  -0.01053   0.00000  -0.01478  -0.01478   4.01834
   Z33        7.17648  -0.01029   0.00000  -0.02612  -0.02612   7.15036
   X34       -1.72789  -0.00283   0.00000  -0.01690  -0.01690  -1.74479
   Y34        3.92264  -0.04701   0.00000  -0.02856  -0.02856   3.89408
   Z34        3.27064   0.02349   0.00000   0.02542   0.02542   3.29607
   X35       -3.45579  -0.01243   0.00000  -0.00341  -0.00341  -3.45920
   Y35        5.07240   0.00704   0.00000   0.01311   0.01311   5.08551
   Z35        1.50497  -0.02083   0.00000  -0.00805  -0.00805   1.49692
   X36       -7.65007   0.00881   0.00000   0.01775   0.01775  -7.63232
   Y36        5.63647  -0.00619   0.00000  -0.01336  -0.01336   5.62311
   Z36       -0.63475   0.00347   0.00000   0.00651   0.00651  -0.62824
   X37       -5.71899  -0.00104   0.00000  -0.01610  -0.01610  -5.73510
   Y37        4.08063   0.02000   0.00000   0.05611   0.05611   4.13674
   Z37        0.82946   0.02659   0.00000   0.07478   0.07478   0.90424
   X38       -1.81263  -0.01069   0.00000  -0.07026  -0.07026  -1.88288
   Y38        1.67545   0.02370   0.00000  -0.01019  -0.01019   1.66526
   Z38        3.96839  -0.01381   0.00000  -0.02615  -0.02615   3.94225
   X39        0.41618   0.01667   0.00000   0.02936   0.02936   0.44555
   Y39        5.95771   0.01623   0.00000   0.00878   0.00878   5.96650
   Z39        4.62972   0.01074   0.00000   0.00357   0.00357   4.63329
   X40        0.15195   0.00678   0.00000   0.01499   0.01499   0.16694
   Y40        3.16610   0.00203   0.00000  -0.00324  -0.00324   3.16286
   Z40        8.17996  -0.00240   0.00000  -0.01084  -0.01084   8.16912
   X41        2.94068  -0.00403   0.00000  -0.00120  -0.00120   2.93949
   Y41        2.56102   0.00506   0.00000   0.00024   0.00024   2.56125
   Z41        6.32299   0.00542   0.00000   0.01158   0.01158   6.33457
   X42       -9.14475   0.00270   0.00000   0.02398   0.02398  -9.12077
   Y42        4.41513   0.00430   0.00000  -0.00079  -0.00079   4.41434
   Z42       -1.37778  -0.00117   0.00000  -0.00788  -0.00788  -1.38566
   X43       -6.70189  -0.00434   0.00000  -0.00009  -0.00009  -6.70197
   Y43        6.66047  -0.00200   0.00000  -0.01635  -0.01635   6.64412
   Z43       -2.16880   0.00204   0.00000   0.00482   0.00482  -2.16398
   X44       -8.50824   0.00183   0.00000   0.00095   0.00095  -8.50730
   Y44        7.03305  -0.00486   0.00000  -0.01735  -0.01735   7.01571
   Z44        0.64739  -0.00394   0.00000  -0.02211  -0.02211   0.62528
   X45       -6.41372   0.00622   0.00000   0.02724   0.02724  -6.38649
   Y45        2.40210   0.00430   0.00000   0.01588   0.01588   2.41798
   Z45        1.83767  -0.00586   0.00000   0.00227   0.00227   1.83994
   X46       -2.81005  -0.00494   0.00000  -0.00936  -0.00936  -2.81940
   Y46        6.86418  -0.00409   0.00000  -0.00507  -0.00507   6.85911
   Z46        0.69876   0.00108   0.00000  -0.01254  -0.01254   0.68622
   X47        4.95902   0.00118   0.00000   0.00361   0.00361   4.96263
   Y47       -7.74027  -0.00124   0.00000   0.01629   0.01629  -7.72398
   Z47       -0.70751  -0.00107   0.00000  -0.00341  -0.00341  -0.71093
   X48        2.86980  -0.00386   0.00000  -0.02596  -0.02596   2.84385
   Y48        5.19410   0.00442   0.00000   0.01852   0.01852   5.21261
   Z48        8.45689  -0.00516   0.00000  -0.03951  -0.03951   8.41738
         Item               Value     Threshold  Converged?
 Maximum Force            0.047010     0.000450     NO 
 RMS     Force            0.010639     0.000300     NO 
 Maximum Displacement     0.104757     0.001800     NO 
 RMS     Displacement     0.025003     0.001200     NO 
 Predicted change in Energy=-1.937625D-02
 GradGradGradGradGradGradGradGradGradGradGradGradGradGradGradGradGradGrad

 Leave Link  103 at Wed Mar  8 14:51:15 2023, MaxMem=  2684354560 cpu:               1.7 elap:               0.1
 (Enter /opt/gaussian/g16/l9999.exe)

 Test job not archived.
 1\1\GINC-JULIO-SYS\Force\RM062X\def2TZVP\C16H24N2O5S1\JVELAZQUEZ\08-Ma
 r-2023\0\\#P M062X/Def2TZVP scf=(direct,conver=8) EmpiricalDispersion=
 GD3 NoSymm Force pop=(NBORead) Charge Prop=(Field,Read)\\Gaussian run 
 using SANDER external interface, route from template gau_job.tpl\\0,1\
 C,3.4644429248,-3.5675315515,-0.8247746924\H,3.43138698,-3.6492739036,
 -1.9192087666\H,4.4231187616,-3.9414893831,-0.4371186477\C,1.616280291
 5,-1.2077782244,0.9809181783\H,0.883384276,-2.0432843339,0.9994066699\
 O,1.3261114824,-0.3676722217,2.0742176195\H,0.4231474144,0.0117196255,
 2.0544258323\C,3.0874485226,-1.7148772487,1.0318016376\H,3.261698815,-
 2.5485759246,1.7429745127\O,3.8883164095,-0.6170113129,1.4462985777\H,
 4.839193893,-0.7936231208,1.3879932211\C,1.6432524179,-0.453755273,-0.
 3733901307\H,2.2667648761,0.4575626264,-0.2868003052\C,3.4052591408,-2
 .0557755111,-0.4711662697\H,4.3274061803,-1.5455241738,-0.818523767\O,
 2.3264737045,-1.4105809618,-1.2085618797\N,0.389696925,-0.1017024004,-
 0.9545689301\C,-0.5621630445,-1.1022105643,-1.2239128241\H,-0.18339946
 29,-2.1090903211,-1.0633514338\C,-1.7574587472,-0.797038905,-1.6955035
 774\H,-2.4597518203,-1.5954997078,-1.9261420775\C,-2.1933565017,0.6370
 060536,-1.9086236229\H,-2.8794719572,0.7390282656,-2.76393399\H,-2.755
 7603089,1.048639254,-0.9442891842\C,-0.9553056861,1.5309767872,-2.0407
 407685\C,0.2162898146,1.1664004519,-1.514239529\H,1.1189511618,1.77654
 6763,-1.5545169472\C,-1.1638338172,2.9028069791,-2.5833925992\O,-0.801
 0331999,3.9014650868,-2.0220470555\N,-1.9798597127,3.0162869544,-3.681
 8058317\H,-1.9691092452,3.9414893831,-4.0800619746\H,-1.971521641,2.24
 64096548,-4.3286467156\C,0.9257029964,2.1342339555,3.7976312258\C,-0.9
 143600807,2.075773536,1.7307507501\C,-1.8287235547,2.6841971881,0.7963
 96728\C,-4.0482431468,2.9826899352,-0.3358950445\C,-3.0263613556,2.159
 3757933,0.4389315028\O,-0.9592008636,0.8866118489,2.0999833374\S,0.220
 235053,3.1526861227,2.4499413058\H,0.0804092475,1.675428736,4.32864671
 56\H,1.5561421551,1.3552319917,3.3459822502\H,-4.839193893,2.336384586
 6,-0.7290895901\H,-3.5464850198,3.5245702406,-1.147677905\H,-4.5023692
 608,3.721732289,0.3425859922\H,-3.3939955104,1.2711379582,0.9724544396
 \H,-1.4870143438,3.632366836,0.369768319\H,2.6241981499,-4.0959735213,
 -0.3743995122\H,1.5186347385,2.7485973004,4.4751927579\\Version=ES64L-
 G16RevA.03\HF=-1507.8769752\RMSD=3.267e-09\RMSF=1.064e-02\Dipole=-0.00
 05869,-0.91276,-0.8690111\Quadrupole=10.0247939,-9.3373902,-0.6874037,
 -7.5092527,6.7361744,-2.0609366\PG=C01 [X(C16H24N2O5S1)]\\@


 A MAN THINKING OR WORKING IS ALWAYS ALONE, 
 LET HIM BE WHERE HE WILL.

                                    -- THOREAU
 Job cpu time:       0 days  6 hours 58 minutes 51.9 seconds.
 Elapsed time:       0 days  0 hours 26 minutes 21.1 seconds.
 File lengths (MBytes):  RWF=    435 Int=      0 D2E=      0 Chk=     48 Scr=      1
 Normal termination of Gaussian 16 at Wed Mar  8 14:51:15 2023.
