 Entering Gaussian System, Link 0=g16
 Initial command:
 /opt/gaussian/g16/l1.exe "/opt/gaussian/scratch16/Gau-2691364.inp" -scrdir="/opt/gaussian/scratch16/"
 Entering Link 1 = /opt/gaussian/g16/l1.exe PID=   2691366.
  
 Copyright (c) 1988,1990,1992,1993,1995,1998,2003,2009,2016,
            Gaussian, Inc.  All Rights Reserved.
  
 This is part of the Gaussian(R) 16 program.  It is based on
 the Gaussian(R) 09 system (copyright 2009, Gaussian, Inc.),
 the Gaussian(R) 03 system (copyright 2003, Gaussian, Inc.),
 the Gaussian(R) 98 system (copyright 1998, Gaussian, Inc.),
 the Gaussian(R) 94 system (copyright 1995, Gaussian, Inc.),
 the Gaussian 92(TM) system (copyright 1992, Gaussian, Inc.),
 the Gaussian 90(TM) system (copyright 1990, Gaussian, Inc.),
 the Gaussian 88(TM) system (copyright 1988, Gaussian, Inc.),
 the Gaussian 86(TM) system (copyright 1986, Carnegie Mellon
 University), and the Gaussian 82(TM) system (copyright 1983,
 Carnegie Mellon University). Gaussian is a federally registered
 trademark of Gaussian, Inc.
  
 This software contains proprietary and confidential information,
 including trade secrets, belonging to Gaussian, Inc.
  
 This software is provided under written license and may be
 used, copied, transmitted, or stored only in accord with that
 written license.
  
 The following legend is applicable only to US Government
 contracts under FAR:
  
                    RESTRICTED RIGHTS LEGEND
  
 Use, reproduction and disclosure by the US Government is
 subject to restrictions as set forth in subparagraphs (a)
 and (c) of the Commercial Computer Software - Restricted
 Rights clause in FAR 52.227-19.
  
 Gaussian, Inc.
 340 Quinnipiac St., Bldg. 40, Wallingford CT 06492
  
  
 ---------------------------------------------------------------
 Warning -- This program may not be used in any manner that
 competes with the business of Gaussian, Inc. or will provide
 assistance to any competitor of Gaussian, Inc.  The licensee
 of this program is prohibited from giving any competitor of
 Gaussian, Inc. access to this program.  By using this program,
 the user acknowledges that Gaussian, Inc. is engaged in the
 business of creating and licensing software in the field of
 computational chemistry and represents and warrants to the
 licensee that it is not a competitor of Gaussian, Inc. and that
 it will not use this program in any manner prohibited above.
 ---------------------------------------------------------------
  

 Cite this work as:
 Gaussian 16, Revision A.03,
 M. J. Frisch, G. W. Trucks, H. B. Schlegel, G. E. Scuseria, 
 M. A. Robb, J. R. Cheeseman, G. Scalmani, V. Barone, 
 G. A. Petersson, H. Nakatsuji, X. Li, M. Caricato, A. V. Marenich, 
 J. Bloino, B. G. Janesko, R. Gomperts, B. Mennucci, H. P. Hratchian, 
 J. V. Ortiz, A. F. Izmaylov, J. L. Sonnenberg, D. Williams-Young, 
 F. Ding, F. Lipparini, F. Egidi, J. Goings, B. Peng, A. Petrone, 
 T. Henderson, D. Ranasinghe, V. G. Zakrzewski, J. Gao, N. Rega, 
 G. Zheng, W. Liang, M. Hada, M. Ehara, K. Toyota, R. Fukuda, 
 J. Hasegawa, M. Ishida, T. Nakajima, Y. Honda, O. Kitao, H. Nakai, 
 T. Vreven, K. Throssell, J. A. Montgomery, Jr., J. E. Peralta, 
 F. Ogliaro, M. J. Bearpark, J. J. Heyd, E. N. Brothers, K. N. Kudin, 
 V. N. Staroverov, T. A. Keith, R. Kobayashi, J. Normand, 
 K. Raghavachari, A. P. Rendell, J. C. Burant, S. S. Iyengar, 
 J. Tomasi, M. Cossi, J. M. Millam, M. Klene, C. Adamo, R. Cammi, 
 J. W. Ochterski, R. L. Martin, K. Morokuma, O. Farkas, 
 J. B. Foresman, and D. J. Fox, Gaussian, Inc., Wallingford CT, 2016.
 
 ******************************************
 Gaussian 16:  ES64L-G16RevA.03 25-Dec-2016
                 8-Mar-2023 
 ******************************************
 %chk=14.chk
 %NProcShared=16
 Will use up to   16 processors via shared memory.
 %mem=20GB
 ----------------------------------------------------------------------
 #P M062X/Def2TZVP scf=(direct,conver=8) EmpiricalDispersion=GD3 NoSymm
  Force pop=(NBORead) Charge Prop=(Field,Read)
 ----------------------------------------------------------------------
 1/10=7,18=10,28=-2,30=1,38=1,125=101/1,3;
 2/12=2,15=1,17=6,18=5,29=2,40=1/2;
 3/5=44,7=101,11=2,25=1,30=1,71=1,74=-55,124=31/1,2,3;
 4//1;
 5/5=2,6=8,38=5/2;
 6/7=2,8=2,9=2,10=2,14=2,15=1,28=1,40=2/1,2,7;
 7/7=1,16=-2,29=1,30=1/1,2,3,16;
 1/10=7,18=10,28=-2,30=1/3;
 99/12=1/99;
 Leave Link    1 at Wed Mar  8 14:25:54 2023, MaxMem=  2684354560 cpu:               1.2 elap:               0.1
 (Enter /opt/gaussian/g16/l101.exe)
 ----------------------------------------------------------------------
 Gaussian run using SANDER external interface, route from template gau_
 job.tpl
 ----------------------------------------------------------------------
 Symbolic Z-matrix:
 Charge =  0 Multiplicity = 1
 C                     3.46743  -3.56864  -0.81997 
 H                     3.43421  -3.64979  -1.91452 
 H                     4.42615  -3.94288  -0.43252 
 C                     1.61652  -1.20685   0.98269 
 H                     0.88328  -2.04208   1.00066 
 O                     1.32703  -0.36796   2.07584 
 H                     0.42514   0.01739   2.05468 
 C                     3.08759  -1.71447   1.03545 
 H                     3.2606   -2.54734   1.74801 
 O                     3.88847  -0.6166    1.44995 
 H                     4.83935  -0.79296   1.39307 
 C                     1.64566  -0.45321  -0.37157 
 H                     2.27258   0.45523  -0.28569 
 C                     3.40743  -2.05639  -0.46673 
 H                     4.3301   -1.5467   -0.81382 
 O                     2.32911  -1.41361  -1.2057 
 N                     0.39582  -0.09826  -0.95661 
 C                    -0.56265  -1.0932   -1.21519 
 H                    -0.19309  -2.10345  -1.05232 
 C                    -1.75979  -0.78329  -1.68355 
 H                    -2.47527  -1.5761   -1.89451 
 C                    -2.1825    0.65065  -1.89843 
 H                    -2.89708   0.76522  -2.72909 
 H                    -2.72459   1.07504  -0.90642 
 C                    -0.94317   1.53558  -2.04721 
 C                     0.22726   1.17046  -1.51643 
 H                     1.13062   1.78171  -1.55041 
 C                    -1.15667   2.91079  -2.58747 
 O                    -0.79829   3.90728  -2.02404 
 N                    -1.9746    3.01817  -3.68453 
 H                    -1.96738   3.94288  -4.0844 
 H                    -1.9643    2.24769  -4.33048 
 C                     0.92323   2.13089   3.79882 
 C                    -0.91082   2.06187   1.72316 
 C                    -1.822     2.6645    0.79361 
 C                    -4.03882   2.97025  -0.33849 
 C                    -3.01419   2.12624   0.41351 
 O                    -0.95152   0.86777   2.09541 
 S                     0.22089   3.14294   2.4455 
 H                     0.07624   1.67606   4.33048 
 H                     1.55243   1.34945   3.35027 
 H                    -4.83935   2.3381   -0.7349 
 H                    -3.54269   3.52065  -1.14859 
 H                    -4.47551   3.70073   0.36044 
 H                    -3.38728   1.24053   0.94804 
 H                    -1.48751   3.61557   0.36714 
 H                     2.62703  -4.09713  -0.36994 
 H                     1.51672   2.74655   4.47472 
 
 ITRead=  0  0  0  0  0  0  0  0  0  0  0  0  0  0  0  0  0  0  0  0
 ITRead=  0  0  0  0  0  0  0  0  0  0  0  0  0  0  0  0  0  0  0  0
 ITRead=  0  0  0  0  0  0  0  0
 MicOpt= -1 -1 -1 -1 -1 -1 -1 -1 -1 -1 -1 -1 -1 -1 -1 -1 -1 -1 -1 -1
 MicOpt= -1 -1 -1 -1 -1 -1 -1 -1 -1 -1 -1 -1 -1 -1 -1 -1 -1 -1 -1 -1
 MicOpt= -1 -1 -1 -1 -1 -1 -1 -1
 NAtoms=     48 NQM=       48 NQMF=       0 NMMI=      0 NMMIF=      0
                NMic=       0 NMicF=      0.
                    Isotopes and Nuclear Properties:
 (Nuclear quadrupole moments (NQMom) in fm**2, nuclear magnetic moments (NMagM)
  in nuclear magnetons)

  Atom         1           2           3           4           5           6           7           8           9          10
 IAtWgt=          12           1           1          12           1          16           1          12           1          16
 AtmWgt=  12.0000000   1.0078250   1.0078250  12.0000000   1.0078250  15.9949146   1.0078250  12.0000000   1.0078250  15.9949146
 NucSpn=           0           1           1           0           1           0           1           0           1           0
 AtZEff=  -0.0000000  -0.0000000  -0.0000000  -0.0000000  -0.0000000  -0.0000000  -0.0000000  -0.0000000  -0.0000000  -0.0000000
 NQMom=    0.0000000   0.0000000   0.0000000   0.0000000   0.0000000   0.0000000   0.0000000   0.0000000   0.0000000   0.0000000
 NMagM=    0.0000000   2.7928460   2.7928460   0.0000000   2.7928460   0.0000000   2.7928460   0.0000000   2.7928460   0.0000000
 AtZNuc=   6.0000000   1.0000000   1.0000000   6.0000000   1.0000000   8.0000000   1.0000000   6.0000000   1.0000000   8.0000000

  Atom        11          12          13          14          15          16          17          18          19          20
 IAtWgt=           1          12           1          12           1          16          14          12           1          12
 AtmWgt=   1.0078250  12.0000000   1.0078250  12.0000000   1.0078250  15.9949146  14.0030740  12.0000000   1.0078250  12.0000000
 NucSpn=           1           0           1           0           1           0           2           0           1           0
 AtZEff=  -0.0000000  -0.0000000  -0.0000000  -0.0000000  -0.0000000  -0.0000000  -0.0000000  -0.0000000  -0.0000000  -0.0000000
 NQMom=    0.0000000   0.0000000   0.0000000   0.0000000   0.0000000   0.0000000   2.0440000   0.0000000   0.0000000   0.0000000
 NMagM=    2.7928460   0.0000000   2.7928460   0.0000000   2.7928460   0.0000000   0.4037610   0.0000000   2.7928460   0.0000000
 AtZNuc=   1.0000000   6.0000000   1.0000000   6.0000000   1.0000000   8.0000000   7.0000000   6.0000000   1.0000000   6.0000000

  Atom        21          22          23          24          25          26          27          28          29          30
 IAtWgt=           1          12           1           1          12          12           1          12          16          14
 AtmWgt=   1.0078250  12.0000000   1.0078250   1.0078250  12.0000000  12.0000000   1.0078250  12.0000000  15.9949146  14.0030740
 NucSpn=           1           0           1           1           0           0           1           0           0           2
 AtZEff=  -0.0000000  -0.0000000  -0.0000000  -0.0000000  -0.0000000  -0.0000000  -0.0000000  -0.0000000  -0.0000000  -0.0000000
 NQMom=    0.0000000   0.0000000   0.0000000   0.0000000   0.0000000   0.0000000   0.0000000   0.0000000   0.0000000   2.0440000
 NMagM=    2.7928460   0.0000000   2.7928460   2.7928460   0.0000000   0.0000000   2.7928460   0.0000000   0.0000000   0.4037610
 AtZNuc=   1.0000000   6.0000000   1.0000000   1.0000000   6.0000000   6.0000000   1.0000000   6.0000000   8.0000000   7.0000000

  Atom        31          32          33          34          35          36          37          38          39          40
 IAtWgt=           1           1          12          12          12          12          12          16          32           1
 AtmWgt=   1.0078250   1.0078250  12.0000000  12.0000000  12.0000000  12.0000000  12.0000000  15.9949146  31.9720718   1.0078250
 NucSpn=           1           1           0           0           0           0           0           0           0           1
 AtZEff=  -0.0000000  -0.0000000  -0.0000000  -0.0000000  -0.0000000  -0.0000000  -0.0000000  -0.0000000  -0.0000000  -0.0000000
 NQMom=    0.0000000   0.0000000   0.0000000   0.0000000   0.0000000   0.0000000   0.0000000   0.0000000   0.0000000   0.0000000
 NMagM=    2.7928460   2.7928460   0.0000000   0.0000000   0.0000000   0.0000000   0.0000000   0.0000000   0.0000000   2.7928460
 AtZNuc=   1.0000000   1.0000000   6.0000000   6.0000000   6.0000000   6.0000000   6.0000000   8.0000000  16.0000000   1.0000000

  Atom        41          42          43          44          45          46          47          48
 IAtWgt=           1           1           1           1           1           1           1           1
 AtmWgt=   1.0078250   1.0078250   1.0078250   1.0078250   1.0078250   1.0078250   1.0078250   1.0078250
 NucSpn=           1           1           1           1           1           1           1           1
 AtZEff=  -0.0000000  -0.0000000  -0.0000000  -0.0000000  -0.0000000  -0.0000000  -0.0000000  -0.0000000
 NQMom=    0.0000000   0.0000000   0.0000000   0.0000000   0.0000000   0.0000000   0.0000000   0.0000000
 NMagM=    2.7928460   2.7928460   2.7928460   2.7928460   2.7928460   2.7928460   2.7928460   2.7928460
 AtZNuc=   1.0000000   1.0000000   1.0000000   1.0000000   1.0000000   1.0000000   1.0000000   1.0000000
 Background charge distribution read from input stream:
 Leave Link  101 at Wed Mar  8 14:25:54 2023, MaxMem=  2684354560 cpu:               4.0 elap:               0.3
 (Enter /opt/gaussian/g16/l103.exe)

 GradGradGradGradGradGradGradGradGradGradGradGradGradGradGradGradGradGrad
 Berny optimization.
 Initialization pass.
 Trust Radius=3.00D-01 FncErr=1.00D-07 GrdErr=1.00D-07 EigMax=2.50D+02 EigMin=1.00D-04
 Number of steps in this run=      2 maximum allowed number of steps=      2.
 GradGradGradGradGradGradGradGradGradGradGradGradGradGradGradGradGradGrad

 Leave Link  103 at Wed Mar  8 14:25:54 2023, MaxMem=  2684354560 cpu:               0.4 elap:               0.0
 (Enter /opt/gaussian/g16/l202.exe)
 ---------------------------------------------------------------------------------------------------
                            Z-MATRIX (ANGSTROMS AND DEGREES)
   CD    Cent   Atom    N1       Length/X        N2       Alpha/Y        N3        Beta/Z          J
 ---------------------------------------------------------------------------------------------------
      1      1  C        0   3.467431         -3.568636         -0.819971
      2      2  H        0   3.434206         -3.649789         -1.914522
      3      3  H        0   4.426147         -3.942883         -0.432523
      4      4  C        0   1.616523         -1.206850          0.982693
      5      5  H        0   0.883280         -2.042084          1.000661
      6      6  O        0   1.327033         -0.367965          2.075844
      7      7  H        0   0.425145          0.017395          2.054678
      8      8  C        0   3.087591         -1.714473          1.035450
      9      9  H        0   3.260602         -2.547340          1.748015
     10     10  O        0   3.888466         -0.616602          1.449952
     11     11  H        0   4.839353         -0.792962          1.393070
     12     12  C        0   1.645657         -0.453214         -0.371566
     13     13  H        0   2.272580          0.455225         -0.285692
     14     14  C        0   3.407433         -2.056391         -0.466727
     15     15  H        0   4.330103         -1.546702         -0.813816
     16     16  O        0   2.329109         -1.413605         -1.205698
     17     17  N        0   0.395820         -0.098258         -0.956612
     18     18  C        0  -0.562649         -1.093195         -1.215194
     19     19  H        0  -0.193093         -2.103445         -1.052316
     20     20  C        0  -1.759794         -0.783285         -1.683546
     21     21  H        0  -2.475272         -1.576098         -1.894507
     22     22  C        0  -2.182505          0.650653         -1.898430
     23     23  H        0  -2.897085          0.765221         -2.729086
     24     24  H        0  -2.724585          1.075041         -0.906422
     25     25  C        0  -0.943167          1.535584         -2.047207
     26     26  C        0   0.227261          1.170464         -1.516432
     27     27  H        0   1.130616          1.781711         -1.550408
     28     28  C        0  -1.156669          2.910793         -2.587465
     29     29  O        0  -0.798293          3.907282         -2.024038
     30     30  N        0  -1.974605          3.018169         -3.684532
     31     31  H        0  -1.967382          3.942883         -4.084397
     32     32  H        0  -1.964304          2.247688         -4.330480
     33     33  C        0   0.923234          2.130889          3.798823
     34     34  C        0  -0.910818          2.061873          1.723158
     35     35  C        0  -1.821997          2.664497          0.793607
     36     36  C        0  -4.038822          2.970251         -0.338486
     37     37  C        0  -3.014193          2.126236          0.413510
     38     38  O        0  -0.951516          0.867774          2.095413
     39     39  S        0   0.220893          3.142938          2.445503
     40     40  H        0   0.076242          1.676062          4.330480
     41     41  H        0   1.552427          1.349451          3.350268
     42     42  H        0  -4.839353          2.338103         -0.734902
     43     43  H        0  -3.542692          3.520647         -1.148591
     44     44  H        0  -4.475508          3.700732          0.360444
     45     45  H        0  -3.387279          1.240532          0.948037
     46     46  H        0  -1.487510          3.615574          0.367135
     47     47  H        0   2.627034         -4.097130         -0.369941
     48     48  H        0   1.516716          2.746549          4.474723
 ---------------------------------------------------------------------------------------------------
                         Z-Matrix orientation:                         
 ---------------------------------------------------------------------
 Center     Atomic      Atomic             Coordinates (Angstroms)
 Number     Number       Type             X           Y           Z
 ---------------------------------------------------------------------
      1          6           0        3.467431   -3.568636   -0.819971
      2          1           0        3.434206   -3.649789   -1.914522
      3          1           0        4.426147   -3.942883   -0.432523
      4          6           0        1.616523   -1.206850    0.982693
      5          1           0        0.883280   -2.042084    1.000661
      6          8           0        1.327033   -0.367965    2.075844
      7          1           0        0.425145    0.017395    2.054678
      8          6           0        3.087591   -1.714473    1.035450
      9          1           0        3.260602   -2.547340    1.748015
     10          8           0        3.888466   -0.616602    1.449952
     11          1           0        4.839353   -0.792962    1.393070
     12          6           0        1.645657   -0.453214   -0.371566
     13          1           0        2.272580    0.455225   -0.285692
     14          6           0        3.407433   -2.056391   -0.466727
     15          1           0        4.330103   -1.546702   -0.813816
     16          8           0        2.329109   -1.413605   -1.205698
     17          7           0        0.395820   -0.098258   -0.956612
     18          6           0       -0.562649   -1.093195   -1.215194
     19          1           0       -0.193093   -2.103445   -1.052316
     20          6           0       -1.759794   -0.783285   -1.683546
     21          1           0       -2.475272   -1.576098   -1.894507
     22          6           0       -2.182505    0.650653   -1.898430
     23          1           0       -2.897085    0.765221   -2.729086
     24          1           0       -2.724585    1.075041   -0.906422
     25          6           0       -0.943167    1.535584   -2.047207
     26          6           0        0.227261    1.170464   -1.516432
     27          1           0        1.130616    1.781711   -1.550408
     28          6           0       -1.156669    2.910793   -2.587465
     29          8           0       -0.798293    3.907282   -2.024038
     30          7           0       -1.974605    3.018169   -3.684532
     31          1           0       -1.967382    3.942883   -4.084397
     32          1           0       -1.964304    2.247688   -4.330480
     33          6           0        0.923234    2.130889    3.798823
     34          6           0       -0.910818    2.061873    1.723158
     35          6           0       -1.821997    2.664497    0.793607
     36          6           0       -4.038822    2.970251   -0.338486
     37          6           0       -3.014193    2.126236    0.413510
     38          8           0       -0.951516    0.867774    2.095413
     39         16           0        0.220893    3.142938    2.445503
     40          1           0        0.076242    1.676062    4.330480
     41          1           0        1.552427    1.349451    3.350268
     42          1           0       -4.839353    2.338103   -0.734902
     43          1           0       -3.542692    3.520647   -1.148591
     44          1           0       -4.475508    3.700732    0.360444
     45          1           0       -3.387279    1.240532    0.948037
     46          1           0       -1.487510    3.615574    0.367135
     47          1           0        2.627034   -4.097130   -0.369941
     48          1           0        1.516716    2.746549    4.474723
 ---------------------------------------------------------------------
                    Distance matrix (angstroms):
                    1          2          3          4          5
     1  C    0.000000
     2  H    1.098059   0.000000
     3  H    1.099688   1.807256   0.000000
     4  C    3.500499   4.203069   4.169257   0.000000
     5  H    3.510399   4.194071   4.268367   1.111568   0.000000
     6  O    4.817815   5.579747   5.355040   1.408016   2.038532
     7  H    5.511690   6.185244   6.154510   2.016757   2.358452
     8  C    2.650431   3.545127   2.985379   1.557083   2.228795
     9  H    2.771349   3.828800   2.839151   2.255134   2.542731
    10  O    3.747576   4.552611   3.859658   2.393418   3.356338
    11  H    3.805796   4.590868   3.664087   3.275110   4.167110
    12  C    3.636727   3.974634   4.462357   1.550108   2.233547
    13  H    4.231381   4.566575   4.899262   2.191280   3.133913
    14  C    1.554112   2.153078   2.144249   2.455585   2.919723
    15  H    2.198285   2.537156   2.428229   3.272073   3.926617
    16  O    2.467533   2.593105   3.375295   2.310754   2.711720
    17  N    4.636484   4.771033   5.594582   2.545584   2.801249
    18  C    4.746110   4.795840   5.798395   3.097163   2.810892
    19  H    3.949710   4.036320   5.010495   2.867029   2.318848
    20  C    5.985635   5.936988   7.057902   4.322933   3.971823
    21  H    6.359289   6.262789   7.441011   5.015716   4.458588
    22  C    7.133530   7.074002   8.180693   5.117011   5.005456
    23  H    7.933102   7.761512   9.003898   6.167578   6.006923
    24  H    7.740302   7.827579   8.748549   5.255568   5.135185
    25  C    6.856569   6.787274   7.839026   4.822162   5.042332
    26  C    5.782978   5.803259   6.704612   3.718507   4.133592
    27  H    5.883915   5.911032   6.699341   3.947683   4.603318
    28  C    8.154099   8.035560   9.098598   6.114867   6.447250
    29  O    8.691118   8.662296   9.563096   6.405163   6.882692
    30  N    9.011518   8.766403  10.000071   7.247756   7.464897
    31  H    9.829374   9.567350  10.788824   8.064709   8.354874
    32  H    8.698106   8.352305   9.713656   7.279146   7.411608
    33  C    7.764714   8.506676   8.189347   4.421734   5.024441
    34  C    7.572265   8.045809   8.317888   4.197652   4.536877
    35  C    8.332685   8.650541   9.176065   5.181361   5.432614
    36  C    9.966579  10.107174  10.929591   7.153783   7.151496
    37  C    8.715761   8.964599   9.638912   5.733843   5.736717
    38  O    6.907118   7.464751   7.645400   3.483824   3.610018
    39  S    8.139321   8.687712   8.727889   4.796691   5.423170
    40  H    8.095318   8.867958   8.554556   4.678816   5.056048
    41  H    6.726493   7.500101   7.111721   3.484852   4.179823
    42  H   10.193109  10.280960  11.197844   7.562748   7.412607
    43  H    9.975357  10.033888  10.941637   7.314991   7.426472
    44  H   10.831776  11.034909  11.759810   7.847572   7.880763
    45  H    8.558096   8.868041   9.477519   5.570360   5.386651
    46  H    8.807584   9.067235   9.630216   5.767989   6.166935
    47  H    1.090000   1.799270   1.806797   3.347308   3.023647
    48  H    8.468804   9.241882   8.791721   5.275756   5.949904
                    6          7          8          9         10
     6  O    0.000000
     7  H    0.980996   0.000000
     8  C    2.448483   3.335688   0.000000
     9  H    2.931866   3.835587   1.109662   0.000000
    10  O    2.648490   3.572428   1.420751   2.052025   0.000000
    11  H    3.603220   4.536479   2.011404   2.386689   0.968774
    12  C    2.469535   2.756408   2.376897   3.389105   2.893927
    13  H    2.673677   3.013643   2.667817   3.758664   2.602376
    14  C    3.693713   4.421777   1.573449   2.273252   2.445004
    15  H    4.331049   5.091499   2.234226   2.950947   2.486921
    16  O    3.586926   4.037684   2.385070   3.298099   3.181083
    17  N    3.183660   3.013653   3.718345   4.638964   4.273033
    18  C    3.863650   3.591826   4.333086   5.050980   5.209854
    19  H    3.886909   3.812295   3.908062   4.468434   5.013100
    20  C    4.882008   4.403336   5.635352   6.331814   6.461380
    21  H    5.628569   5.152446   6.288818   6.863783   7.252806
    22  C    5.399008   4.777857   6.478841   7.290482   7.047999
    23  H    6.497278   5.872039   7.492460   8.302686   8.088108
    24  H    5.233716   4.450565   6.733026   7.482656   7.221261
    25  C    5.077091   4.582864   6.025998   6.981809   6.340876
    26  C    4.059644   3.757866   4.797546   5.803433   5.039589
    27  H    4.220117   4.075187   4.768617   5.844409   4.728615
    28  C    6.218157   5.694153   7.247920   8.252266   7.361837
    29  O    6.293154   5.767491   7.487636   8.506772   7.382402
    30  N    7.453096   6.906662   8.384626   9.375225   8.599424
    31  H    8.208846   7.669543   9.152664  10.172111   9.257910
    32  H    7.662606   7.173139   8.367411   9.340238   8.710481
    33  C    3.062022   2.785137   5.206485   5.617378   4.675308
    34  C    3.322119   2.464669   5.542653   6.216608   5.502908
    35  C    4.555913   3.694198   6.583154   7.342136   6.618594
    36  C    6.764989   5.862899   8.638292   9.385035   8.882900
    37  C    5.275474   4.355420   7.236685   7.937019   7.499605
    38  O    2.592146   1.618641   4.909776   5.433749   5.103471
    39  S    3.699544   3.156498   5.813832   6.488881   5.345685
    40  H    3.290275   2.837637   5.605460   5.886120   5.299699
    41  H    2.150460   2.173405   4.135547   4.546434   3.596338
    42  H    7.297083   6.393933   9.077112   9.779658   9.469884
    43  H    7.016587   6.186876   8.725661   9.565333   8.893333
    44  H    7.291528   6.360330   9.326336  10.040476   9.475361
    45  H    5.107245   4.153949   7.117839   7.693001   7.525778
    46  H    5.168164   4.410549   7.056032   7.901450   6.927115
    47  H    4.645271   5.258936   2.804334   2.699814   4.125202
    48  H    3.935835   3.807418   5.847818   6.204945   5.107370
                   11         12         13         14         15
    11  H    0.000000
    12  C    3.664568   0.000000
    13  H    3.311274   1.107099   0.000000
    14  C    2.665613   2.383922   2.762043   0.000000
    15  H    2.387008   2.932158   2.918909   1.109763   0.000000
    16  O    3.666077   1.444034   2.083779   1.456720   2.043346
    17  N    5.074308   1.424909   2.068503   3.625477   4.194873
    18  C    6.006231   2.449062   3.361563   4.153252   4.930091
    19  H    5.746546   2.562750   3.635114   3.648138   4.563567
    20  C    7.281099   3.664333   4.443866   5.459091   6.198877
    21  H    8.057617   4.534564   5.408943   6.072516   6.890710
    22  C    7.888250   4.266692   4.742035   6.373795   6.958363
    23  H    8.903514   5.261082   5.726404   7.268198   7.825949
    24  H    8.123439   4.660542   5.073572   6.899336   7.526668
    25  C    7.120054   3.669482   3.822452   5.859003   6.231301
    26  C    5.795829   2.441085   2.491910   4.650587   4.970912
    27  H    5.389595   2.578725   2.159433   4.592307   4.675213
    28  C    8.094118   4.907116   4.804968   7.071172   7.288330
    29  O    8.096418   5.264740   4.936477   7.461819   7.583602
    30  N    9.313258   6.011034   6.013266   8.066706   8.296288
    31  H    9.937934   6.794471   6.676166   8.829919   8.971653
    32  H    9.396506   5.999974   6.125718   7.893620   8.147630
    33  C    5.447251   4.958994   4.616475   6.472980   6.812332
    34  C    6.428336   4.153203   4.092777   6.356334   6.850205
    35  C    7.529075   4.806493   4.776121   7.156966   7.626686
    36  C    9.797043   6.635850   6.794257   8.985003   9.521959
    37  C    8.435605   5.383688   5.588481   7.714043   8.302739
    38  O    6.065104   3.817892   4.029225   5.840868   6.495291
    39  S    6.158660   4.785199   4.346566   6.757820   7.035729
    40  H    6.116509   5.395008   5.255796   6.931179   7.412511
    41  H    4.384569   4.136465   3.812934   5.441531   5.782974
    42  H   10.392747   7.069570   7.370659   9.348421   9.958758
    43  H    9.763500   6.581360   6.630143   8.937143   9.368617
    44  H   10.393567   7.433692   7.515817   9.796399  10.317618
    45  H    8.485907   5.471798   5.845750   7.683708   8.392305
    46  H    7.779262   5.188203   4.955024   7.538367   7.866915
    47  H    4.349723   3.773755   4.566911   2.187008   3.098734
    48  H    5.750187   5.808754   5.336951   7.145697   7.369925
                   16         17         18         19         20
    16  O    0.000000
    17  N    2.351550   0.000000
    18  C    2.909470   1.405499   0.000000
    19  H    2.619334   2.092069   1.087983   0.000000
    20  C    4.164705   2.375788   1.322329   2.143788   0.000000
    21  H    4.856226   3.362562   2.086333   2.489120   1.088561
    22  C    5.009560   2.845285   2.476237   3.501246   1.510311
    23  H    5.863539   3.838031   3.345918   4.283967   2.187340
    24  H    5.641166   3.334078   3.077427   4.066019   2.233410
    25  C    4.484823   2.377335   2.783436   3.846420   2.485213
    26  C    3.345405   1.396949   2.416373   3.333255   2.791676
    27  H    3.430052   2.103997   3.353297   4.134579   3.866705
    28  C    5.723666   3.758230   4.274098   5.331768   3.850591
    29  O    6.225927   4.313891   5.070950   6.118771   4.800192
    30  N    6.656364   4.772062   4.999456   6.027709   4.301296
    31  H    7.445718   5.630150   5.963865   6.992833   5.305078
    32  H    6.450017   4.738843   4.778194   5.728517   4.029253
    33  C    6.291673   5.278392   6.143528   6.535237   6.763684
    34  C    5.581601   3.681663   4.325459   5.056507   4.518995
    35  C    6.153034   3.951556   4.443140   5.366007   4.245864
    36  C    7.779511   5.428064   5.418855   6.406370   4.592623
    37  C    6.610838   4.295788   4.362050   5.291261   3.799535
    38  O    5.183100   3.473239   3.867394   4.394490   4.202361
    39  S    6.207892   4.702163   5.653270   6.319071   6.032196
    40  H    6.728352   5.586026   6.231490   6.582682   6.751883
    41  H    5.384658   4.688584   5.593167   5.861065   6.392077
    42  H    8.104555   5.778585   5.504061   6.435514   4.486276
    43  H    7.669951   5.352122   5.492962   6.546716   4.689215
    44  H    8.655176   6.316392   6.385518   7.350064   5.626670
    45  H    6.660339   4.442059   4.254925   5.038494   3.697266
    46  H    6.506383   4.369415   5.052884   6.033037   4.861008
    47  H    2.826403   4.616652   4.462304   3.520445   5.652556
    48  H    7.087599   6.232876   7.172347   7.549441   7.817898
                   21         22         23         24         25
    21  H    0.000000
    22  C    2.245918   0.000000
    23  H    2.521155   1.101698   0.000000
    24  H    2.840248   1.207492   1.856838   0.000000
    25  C    3.471776   1.530097   2.208215   2.164935   0.000000
    26  C    3.871722   2.494614   3.375839   3.015728   1.336015
    27  H    4.939202   3.518122   4.317975   3.971987   2.146617
    28  C    4.727695   2.575916   2.766331   2.941811   1.492871
    29  O    5.735547   3.540827   3.843770   3.602951   2.376232
    30  N    4.956021   2.972964   2.615267   3.472191   2.437777
    31  H    5.959256   3.957715   3.577535   4.347114   3.315758
    32  H    4.562498   2.917704   2.373236   3.698283   2.600605
    33  C    7.596420   6.655480   7.685927   6.046547   6.165542
    34  C    5.363753   4.089576   5.044704   3.343394   3.807057
    35  C    5.063139   3.381213   4.143963   2.496224   3.180726
    36  C    5.053235   3.355574   3.446837   2.375203   3.815899
    37  C    4.395982   2.866028   3.426657   1.712046   3.270038
    38  O    4.920752   4.184885   5.203032   3.492527   4.196111
    39  S    6.955163   5.554958   6.492433   4.918073   4.911524
    40  H    7.472431   6.704679   7.714128   5.969171   6.460172
    41  H    7.231104   6.479728   7.556323   6.040492   5.949401
    42  H    4.717472   3.355612   3.197363   2.469208   4.188848
    43  H    5.260474   3.263317   3.241473   2.590161   3.391979
    44  H    6.077063   4.434339   4.544650   3.400726   4.791878
    45  H    4.104293   3.146715   3.739979   1.976251   3.877142
    46  H    5.748405   3.795598   4.438242   3.099453   3.232912
    47  H    5.891810   6.928880   7.728125   7.461836   6.876556
    48  H    8.671121   7.661208   8.677682   7.052609   7.074817
                   26         27         28         29         30
    26  C    0.000000
    27  H    1.091250   0.000000
    28  C    2.468019   2.753541   0.000000
    29  O    2.966412   2.909136   1.199530   0.000000
    30  N    3.600400   3.965566   1.372627   2.220692   0.000000
    31  H    4.370036   4.548556   1.990797   2.369201   1.007493
    32  H    3.725887   4.186224   2.032261   3.071402   1.005483
    33  C    5.445983   5.364625   6.761577   6.326527   8.073744
    34  C    3.547503   3.868098   4.400294   4.178478   5.593680
    35  C    3.430434   3.871904   3.454703   3.245244   4.494675
    36  C    4.777683   5.440999   3.656262   3.770960   3.931834
    37  C    3.891683   4.599468   3.615491   3.744860   4.320907
    38  O    3.811373   4.296809   5.113254   5.121715   6.251294
    39  S    4.425790   4.318314   5.223249   4.647554   6.512535
    40  H    5.870674   5.975593   7.134605   6.791396   8.381386
    41  H    5.047066   4.937752   6.710713   6.399340   8.044438
    42  H    5.257828   6.051046   4.161986   4.522649   4.167684
    43  H    4.457714   5.002516   2.852260   2.906479   3.023637
    44  H    5.660474   6.225964   4.508755   4.387520   4.804398
    45  H    4.375319   5.191000   4.501685   4.758953   5.159102
    46  H    3.530839   3.727547   3.055460   2.505559   4.124338
    47  H    5.900924   6.180092   8.267092   8.862253   9.098850
    48  H    6.327770   6.114097   7.553043   6.995747   8.878994
                   31         32         33         34         35
    31  H    0.000000
    32  H    1.712967   0.000000
    33  C    8.589770   8.627693   0.000000
    34  C    6.195339   6.147430   2.770721   0.000000
    35  C    5.044832   5.142981   4.105162   1.434388   0.000000
    36  C    4.389616   4.556505   6.514894   3.854859   2.507874
    37  C    4.962579   4.860294   5.192658   2.478610   1.362178
    38  O    6.976986   6.649963   2.830504   1.251440   2.383412
    39  S    6.933113   7.175689   1.830027   1.723733   2.670406
    40  H    8.951259   8.916435   1.098600   2.814474   4.133979
    41  H    8.624917   8.495182   1.098968   3.036874   4.433125
    42  H    4.694960   4.604591   7.335190   4.642386   3.398133
    43  H    3.358399   3.773083   6.808291   4.159534   2.732383
    44  H    5.109398   5.515637   6.590392   4.153296   2.881412
    45  H    5.885933   5.558953   5.244066   2.721814   2.121705
    46  H    4.489271   4.915896   4.448871   2.141345   1.094672
    47  H    9.977357   8.776273   7.685685   7.404781   8.177244
    48  H    9.318192   9.481454   1.090000   3.732668   4.970347
                   36         37         38         39         40
    36  C    0.000000
    37  C    1.525688   0.000000
    38  O    4.458221   2.944004   0.000000
    39  S    5.091717   3.953285   2.583307   0.000000
    40  H    6.356722   5.009600   2.589429   2.392862   0.000000
    41  H    6.891731   5.484702   2.841901   2.410016   1.801836
    42  H    1.094352   2.166783   5.028700   6.030657   7.089391
    43  H    1.097885   2.159595   4.927016   5.217734   6.820512
    44  H    1.101272   2.148790   4.842963   5.168635   6.370157
    45  H    2.252016   1.099720   2.718154   4.345164   4.860718
    46  H    2.724617   2.133316   3.290082   2.731600   4.681359
    47  H    9.715066   8.436084   6.598050   8.132331   7.869577
    48  H    7.353980   6.116157   3.909359   2.440085   1.800476
                   41         42         43         44         45
    41  H    0.000000
    42  H    7.649895   0.000000
    43  H    7.135409   1.803019   0.000000
    44  H    7.127662   1.785756   1.783189   0.000000
    45  H    5.493930   2.479005   3.101439   2.753560   0.000000
    46  H    4.824480   3.752502   2.555427   2.989219   3.096351
    47  H    6.682812   9.863689   9.833735  10.572901   8.148599
    48  H    1.793755   8.228404   7.603847   7.331064   6.225332
                   46         47         48
    46  H    0.000000
    47  H    8.772602   0.000000
    48  H    5.162640   8.458104   0.000000
 Symmetry turned off by external request.
 Stoichiometry    C16H24N2O5S
 Framework group  C1[X(C16H24N2O5S)]
 Deg. of freedom   138
 Full point group                 C1      NOp   1
 Rotational constants (GHZ):           0.2940359           0.1685500           0.1279350
 Leave Link  202 at Wed Mar  8 14:25:54 2023, MaxMem=  2684354560 cpu:               0.1 elap:               0.0
 (Enter /opt/gaussian/g16/l301.exe)
 Standard basis: def2TZVP (5D, 7F)
 Ernie: Thresh=  0.10000D-02 Tol=  0.10000D-05 Strict=F.
   894 basis functions,  1434 primitive gaussians,  1014 cartesian basis functions
    95 alpha electrons       95 beta electrons
       nuclear repulsion energy      2441.9591422274 Hartrees.
 IExCor= 4336 DFT=T Ex+Corr=M062X ExCW=0 ScaHFX=  0.540000
 ScaDFX=  1.000000  1.000000  1.000000  1.000000 ScalE2=  1.000000  1.000000
 IRadAn=      5 IRanWt=     -1 IRanGd=            0 ICorTp=0 IEmpDi=131
 NAtoms=   48 NActive=   48 NUniq=   48 SFac= 1.00D+00 NAtFMM=   60 NAOKFM=F Big=F
 Integral buffers will be    131072 words long.
 Raffenetti 2 integral format.
 Two-electron integral symmetry is turned off.
 R6Disp:  Grimme-D3 Dispersion energy=       -0.0042054467 Hartrees.
 Nuclear repulsion after empirical dispersion term =     2441.9549367807 Hartrees.
 Leave Link  301 at Wed Mar  8 14:25:54 2023, MaxMem=  2684354560 cpu:               0.9 elap:               0.1
 (Enter /opt/gaussian/g16/l302.exe)
 NPDir=0 NMtPBC=     1 NCelOv=     1 NCel=       1 NClECP=     1 NCelD=      1
         NCelK=      1 NCelE2=     1 NClLst=     1 CellRange=     0.0.
 One-electron integrals computed using PRISM.
   1 Symmetry operations used in ECPInt.
 ECPInt:  NShTT=   65703 NPrTT=  200010 LenC2=   56184 LenP2D=  119021.
 LDataN:  DoStor=T MaxTD1= 6 Len=  172
 NBasis=   894 RedAO= T EigKep=  2.98D-05  NBF=   894
 NBsUse=   894 1.00D-06 EigRej= -1.00D+00 NBFU=   894
 Precomputing XC quadrature grid using
 IXCGrd= 4 IRadAn=           5 IRanWt=          -1 IRanGd=           0 AccXCQ= 0.00D+00.
 Generated NRdTot=       0 NPtTot=           0 NUsed=           0 NTot=          32
 NSgBfM=   998   998   998   998   998 MxSgAt=    48 MxSgA2=    48.
 Leave Link  302 at Wed Mar  8 14:25:56 2023, MaxMem=  2684354560 cpu:              39.9 elap:               2.5
 (Enter /opt/gaussian/g16/l303.exe)
 DipDrv:  MaxL=1.
 Leave Link  303 at Wed Mar  8 14:25:57 2023, MaxMem=  2684354560 cpu:               4.3 elap:               0.3
 (Enter /opt/gaussian/g16/l401.exe)
 ExpMin= 9.52D-02 ExpMax= 6.07D+04 ExpMxC= 2.07D+03 IAcc=3 IRadAn=         5 AccDes= 0.00D+00
 Harris functional with IExCor= 1009 and IRadAn=       5 diagonalized for initial guess.
 HarFok:  IExCor= 1009 AccDes= 0.00D+00 IRadAn=         5 IDoV= 1 UseB2=F ITyADJ=14
 ICtDFT=  3500011 ScaDFX=  1.000000  1.000000  1.000000  1.000000
 FoFCou: FMM=F IPFlag=           0 FMFlag=      100000 FMFlg1=           0
         NFxFlg=           0 DoJE=T BraDBF=F KetDBF=T FulRan=T
         wScrn=  0.000000 ICntrl=       500 IOpCl=  0 I1Cent=   200000004 NGrid=           0
         NMat0=    1 NMatS0=      1 NMatT0=    0 NMatD0=    1 NMtDS0=    0 NMtDT0=    0
 Symmetry not used in FoFCou.
 Harris En= -1507.19096452836    
 JPrj=0 DoOrth=F DoCkMO=F.
 Leave Link  401 at Wed Mar  8 14:26:05 2023, MaxMem=  2684354560 cpu:             136.4 elap:               8.6
 (Enter /opt/gaussian/g16/l502.exe)
 Two-electron integral symmetry not used.
 Closed shell SCF:
 Using DIIS extrapolation, IDIIS=  1040.
 NGot=  2684354560 LenX=  2682275214 LenY=  2681246004
 Requested convergence on RMS density matrix=1.00D-08 within 128 cycles.
 Requested convergence on MAX density matrix=1.00D-06.
 Requested convergence on             energy=1.00D-06.
 No special actions if energy rises.
 Fock matrices will be formed incrementally for  20 cycles.
 Integral accuracy reduced to 1.0D-05 until final iterations.

 Cycle   1  Pass 0  IDiag  1:
 FoFJK:  IHMeth= 1 ICntrl=       0 DoSepK=F KAlg= 0 I1Cent=           0 FoldK=F
 IRaf= 780000000 NMat=       1 IRICut=       1 DoRegI=T DoRafI=F ISym2E= 0 IDoP0=0 IntGTp=1.
 FoFCou: FMM=F IPFlag=           0 FMFlag=      100000 FMFlg1=           0
         NFxFlg=           0 DoJE=F BraDBF=F KetDBF=F FulRan=T
         wScrn=  0.000000 ICntrl=         0 IOpCl=  0 I1Cent=           0 NGrid=           0
         NMat0=    1 NMatS0=      1 NMatT0=    0 NMatD0=    1 NMtDS0=    0 NMtDT0=    0
 Symmetry not used in FoFCou.
 E= -1507.13057645455    
 DIIS: error= 1.41D-02 at cycle   1 NSaved=   1.
 NSaved= 1 IEnMin= 1 EnMin= -1507.13057645455     IErMin= 1 ErrMin= 1.41D-02
 ErrMax= 1.41D-02  0.00D+00 EMaxC= 1.00D-01 BMatC= 9.95D-01 BMatP= 9.95D-01
 IDIUse=3 WtCom= 8.59D-01 WtEn= 1.41D-01
 Coeff-Com:  0.100D+01
 Coeff-En:   0.100D+01
 Coeff:      0.100D+01
 Gap=     0.277 Goal=   None    Shift=    0.000
 GapD=    0.277 DampG=1.000 DampE=0.500 DampFc=0.5000 IDamp=-1.
 Damping current iteration by 5.00D-01
 RMSDP=3.77D-03 MaxDP=9.60D-01              OVMax= 2.28D-01

 Cycle   2  Pass 0  IDiag  1:
 RMSU=  1.88D-03    CP:  1.01D+00
 E= -1507.46250601591     Delta-E=       -0.331929561357 Rises=F Damp=T
 DIIS: error= 3.64D-03 at cycle   2 NSaved=   2.
 NSaved= 2 IEnMin= 2 EnMin= -1507.46250601591     IErMin= 2 ErrMin= 3.64D-03
 ErrMax= 3.64D-03  0.00D+00 EMaxC= 1.00D-01 BMatC= 9.01D-02 BMatP= 9.95D-01
 IDIUse=3 WtCom= 9.64D-01 WtEn= 3.64D-02
 Coeff-Com:  0.708D-02 0.993D+00
 Coeff-En:   0.634D-01 0.937D+00
 Coeff:      0.914D-02 0.991D+00
 Gap=     0.337 Goal=   None    Shift=    0.000
 RMSDP=1.19D-03 MaxDP=2.78D-01 DE=-3.32D-01 OVMax= 1.87D-01

 Cycle   3  Pass 0  IDiag  1:
 RMSU=  9.60D-04    CP:  9.96D-01  6.29D-01
 E= -1507.82635254206     Delta-E=       -0.363846526147 Rises=F Damp=F
 DIIS: error= 4.79D-03 at cycle   3 NSaved=   3.
 NSaved= 3 IEnMin= 3 EnMin= -1507.82635254206     IErMin= 2 ErrMin= 3.64D-03
 ErrMax= 4.79D-03  0.00D+00 EMaxC= 1.00D-01 BMatC= 5.58D-02 BMatP= 9.01D-02
 IDIUse=3 WtCom= 9.52D-01 WtEn= 4.79D-02
 Coeff-Com: -0.750D-01 0.455D+00 0.620D+00
 Coeff-En:   0.000D+00 0.000D+00 0.100D+01
 Coeff:     -0.714D-01 0.433D+00 0.638D+00
 Gap=     0.211 Goal=   None    Shift=    0.000
 RMSDP=3.54D-04 MaxDP=2.96D-02 DE=-3.64D-01 OVMax= 7.18D-02

 Cycle   4  Pass 0  IDiag  1:
 RMSU=  3.19D-04    CP:  9.98D-01  7.01D-01  9.25D-01
 E= -1507.86299404088     Delta-E=       -0.036641498823 Rises=F Damp=F
 DIIS: error= 2.41D-03 at cycle   4 NSaved=   4.
 NSaved= 4 IEnMin= 4 EnMin= -1507.86299404088     IErMin= 4 ErrMin= 2.41D-03
 ErrMax= 2.41D-03  0.00D+00 EMaxC= 1.00D-01 BMatC= 1.16D-02 BMatP= 5.58D-02
 IDIUse=3 WtCom= 9.76D-01 WtEn= 2.41D-02
 Coeff-Com: -0.356D-01 0.978D-01 0.349D+00 0.589D+00
 Coeff-En:   0.000D+00 0.000D+00 0.145D+00 0.855D+00
 Coeff:     -0.347D-01 0.954D-01 0.344D+00 0.595D+00
 Gap=     0.211 Goal=   None    Shift=    0.000
 RMSDP=1.22D-04 MaxDP=1.16D-02 DE=-3.66D-02 OVMax= 1.86D-02

 Cycle   5  Pass 0  IDiag  1:
 RMSU=  7.82D-05    CP:  9.97D-01  7.00D-01  9.57D-01  7.22D-01
 E= -1507.87164320771     Delta-E=       -0.008649166828 Rises=F Damp=F
 DIIS: error= 3.84D-04 at cycle   5 NSaved=   5.
 NSaved= 5 IEnMin= 5 EnMin= -1507.87164320771     IErMin= 5 ErrMin= 3.84D-04
 ErrMax= 3.84D-04  0.00D+00 EMaxC= 1.00D-01 BMatC= 5.20D-04 BMatP= 1.16D-02
 IDIUse=3 WtCom= 9.96D-01 WtEn= 3.84D-03
 Coeff-Com: -0.103D-01 0.167D-01 0.123D+00 0.274D+00 0.596D+00
 Coeff-En:   0.000D+00 0.000D+00 0.000D+00 0.000D+00 0.100D+01
 Coeff:     -0.102D-01 0.167D-01 0.123D+00 0.273D+00 0.598D+00
 Gap=     0.210 Goal=   None    Shift=    0.000
 RMSDP=4.53D-05 MaxDP=9.87D-03 DE=-8.65D-03 OVMax= 4.98D-03

 Cycle   6  Pass 0  IDiag  1:
 RMSU=  3.15D-05    CP:  9.96D-01  6.85D-01  9.68D-01  7.49D-01  8.85D-01
 E= -1507.87206396584     Delta-E=       -0.000420758134 Rises=F Damp=F
 DIIS: error= 1.19D-04 at cycle   6 NSaved=   6.
 NSaved= 6 IEnMin= 6 EnMin= -1507.87206396584     IErMin= 6 ErrMin= 1.19D-04
 ErrMax= 1.19D-04  0.00D+00 EMaxC= 1.00D-01 BMatC= 5.76D-05 BMatP= 5.20D-04
 IDIUse=3 WtCom= 9.99D-01 WtEn= 1.19D-03
 Coeff-Com:  0.675D-03-0.577D-02 0.904D-02 0.367D-01 0.255D+00 0.705D+00
 Coeff-En:   0.000D+00 0.000D+00 0.000D+00 0.000D+00 0.000D+00 0.100D+01
 Coeff:      0.674D-03-0.576D-02 0.903D-02 0.367D-01 0.254D+00 0.705D+00
 Gap=     0.212 Goal=   None    Shift=    0.000
 RMSDP=1.84D-05 MaxDP=1.27D-03 DE=-4.21D-04 OVMax= 2.49D-03

 Cycle   7  Pass 0  IDiag  1:
 RMSU=  1.64D-05    CP:  9.96D-01  6.84D-01  9.73D-01  7.54D-01  9.62D-01
                    CP:  1.00D+00
 E= -1507.87213901490     Delta-E=       -0.000075049059 Rises=F Damp=F
 DIIS: error= 5.31D-05 at cycle   7 NSaved=   7.
 NSaved= 7 IEnMin= 7 EnMin= -1507.87213901490     IErMin= 7 ErrMin= 5.31D-05
 ErrMax= 5.31D-05  0.00D+00 EMaxC= 1.00D-01 BMatC= 9.48D-06 BMatP= 5.76D-05
 IDIUse=1 WtCom= 1.00D+00 WtEn= 0.00D+00
 Coeff-Com:  0.196D-02-0.520D-02-0.135D-01-0.284D-01 0.557D-02 0.281D+00
 Coeff-Com:  0.758D+00
 Coeff:      0.196D-02-0.520D-02-0.135D-01-0.284D-01 0.557D-02 0.281D+00
 Coeff:      0.758D+00
 Gap=     0.212 Goal=   None    Shift=    0.000
 RMSDP=1.56D-05 MaxDP=3.37D-03 DE=-7.50D-05 OVMax= 2.06D-03

 Cycle   8  Pass 0  IDiag  1:
 RMSU=  1.08D-05    CP:  9.96D-01  6.80D-01  9.75D-01  7.61D-01  1.02D+00
                    CP:  1.17D+00  1.21D+00
 E= -1507.87215507171     Delta-E=       -0.000016056807 Rises=F Damp=F
 DIIS: error= 2.56D-05 at cycle   8 NSaved=   8.
 NSaved= 8 IEnMin= 8 EnMin= -1507.87215507171     IErMin= 8 ErrMin= 2.56D-05
 ErrMax= 2.56D-05  0.00D+00 EMaxC= 1.00D-01 BMatC= 2.30D-06 BMatP= 9.48D-06
 IDIUse=1 WtCom= 1.00D+00 WtEn= 0.00D+00
 Coeff-Com:  0.898D-03-0.159D-02-0.761D-02-0.220D-01-0.432D-01 0.565D-02
 Coeff-Com:  0.368D+00 0.700D+00
 Coeff:      0.898D-03-0.159D-02-0.761D-02-0.220D-01-0.432D-01 0.565D-02
 Coeff:      0.368D+00 0.700D+00
 Gap=     0.212 Goal=   None    Shift=    0.000
 RMSDP=1.27D-05 MaxDP=1.20D-03 DE=-1.61D-05 OVMax= 6.47D-04

 Cycle   9  Pass 0  IDiag  1:
 RMSU=  7.76D-06    CP:  9.96D-01  6.79D-01  9.76D-01  7.60D-01  1.06D+00
                    CP:  1.26D+00  1.63D+00  1.54D+00
 E= -1507.87214904045     Delta-E=        0.000006031259 Rises=F Damp=F
 DIIS: error= 2.12D-05 at cycle   9 NSaved=   9.
 NSaved= 9 IEnMin= 8 EnMin= -1507.87215507171     IErMin= 9 ErrMin= 2.12D-05
 ErrMax= 2.12D-05  0.00D+00 EMaxC= 1.00D-01 BMatC= 3.97D-07 BMatP= 2.30D-06
 IDIUse=1 WtCom= 1.00D+00 WtEn= 0.00D+00
 Coeff-Com:  0.190D-03-0.174D-03-0.146D-02-0.675D-02-0.184D-01-0.282D-01
 Coeff-Com:  0.797D-01 0.302D+00 0.673D+00
 Coeff:      0.190D-03-0.174D-03-0.146D-02-0.675D-02-0.184D-01-0.282D-01
 Coeff:      0.797D-01 0.302D+00 0.673D+00
 Gap=     0.212 Goal=   None    Shift=    0.000
 RMSDP=1.53D-05 MaxDP=1.25D-03 DE= 6.03D-06 OVMax= 2.02D-04

 Cycle  10  Pass 0  IDiag  1:
 RMSU=  5.00D-06    CP:  9.96D-01  6.78D-01  9.76D-01  7.61D-01  1.09D+00
                    CP:  1.33D+00  1.98D+00  2.42D+00  2.10D+00
 E= -1507.87213543649     Delta-E=        0.000013603953 Rises=F Damp=F
 DIIS: error= 3.44D-05 at cycle  10 NSaved=  10.
 NSaved=10 IEnMin= 8 EnMin= -1507.87215507171     IErMin= 9 ErrMin= 2.12D-05
 ErrMax= 3.44D-05  0.00D+00 EMaxC= 1.00D-01 BMatC= 4.62D-07 BMatP= 3.97D-07
 IDIUse=1 WtCom= 1.00D+00 WtEn= 0.00D+00
 Coeff-Com:  0.209D-03-0.179D-03-0.165D-02-0.760D-02-0.210D-01-0.331D-01
 Coeff-Com:  0.884D-01 0.346D+00 0.791D+00-0.162D+00
 Coeff:      0.209D-03-0.179D-03-0.165D-02-0.760D-02-0.210D-01-0.331D-01
 Coeff:      0.884D-01 0.346D+00 0.791D+00-0.162D+00
 Gap=     0.212 Goal=   None    Shift=    0.000
 RMSDP=5.11D-06 MaxDP=4.07D-04 DE= 1.36D-05 OVMax= 1.44D-05

 Initial convergence to 1.0D-05 achieved.  Increase integral accuracy.
 Cycle  11  Pass 1  IDiag  1:
 E= -1507.87201549077     Delta-E=        0.000119945726 Rises=F Damp=F
 DIIS: error= 3.15D-04 at cycle   1 NSaved=   1.
 NSaved= 1 IEnMin= 1 EnMin= -1507.87201549077     IErMin= 1 ErrMin= 3.15D-04
 ErrMax= 3.15D-04  0.00D+00 EMaxC= 1.00D-01 BMatC= 7.98D-05 BMatP= 7.98D-05
 IDIUse=3 WtCom= 9.97D-01 WtEn= 3.15D-03
 Coeff-Com:  0.100D+01
 Coeff-En:   0.100D+01
 Coeff:      0.100D+01
 Gap=     0.212 Goal=   None    Shift=    0.000
 RMSDP=5.11D-06 MaxDP=4.07D-04 DE= 1.20D-04 OVMax= 8.19D-04

 Cycle  12  Pass 1  IDiag  1:
 RMSU=  3.90D-04    CP:  9.97D-01
 E= -1507.87206577324     Delta-E=       -0.000050282467 Rises=F Damp=F
 DIIS: error= 7.56D-06 at cycle   2 NSaved=   2.
 NSaved= 2 IEnMin= 2 EnMin= -1507.87206577324     IErMin= 2 ErrMin= 7.56D-06
 ErrMax= 7.56D-06  0.00D+00 EMaxC= 1.00D-01 BMatC= 1.39D-07 BMatP= 7.98D-05
 IDIUse=1 WtCom= 1.00D+00 WtEn= 0.00D+00
 Coeff-Com: -0.146D-01 0.101D+01
 Coeff:     -0.146D-01 0.101D+01
 Gap=     0.212 Goal=   None    Shift=    0.000
 RMSDP=1.38D-05 MaxDP=9.57D-04 DE=-5.03D-05 OVMax= 1.75D-04

 Cycle  13  Pass 1  IDiag  1:
 RMSU=  4.61D-06    CP:  9.97D-01  1.03D+00
 E= -1507.87206574712     Delta-E=        0.000000026114 Rises=F Damp=F
 DIIS: error= 6.83D-06 at cycle   3 NSaved=   3.
 NSaved= 3 IEnMin= 2 EnMin= -1507.87206577324     IErMin= 3 ErrMin= 6.83D-06
 ErrMax= 6.83D-06  0.00D+00 EMaxC= 1.00D-01 BMatC= 2.15D-07 BMatP= 1.39D-07
 IDIUse=1 WtCom= 1.00D+00 WtEn= 0.00D+00
 Coeff-Com: -0.980D-02 0.585D+00 0.425D+00
 Coeff:     -0.980D-02 0.585D+00 0.425D+00
 Gap=     0.212 Goal=   None    Shift=    0.000
 RMSDP=5.86D-07 MaxDP=7.66D-05 DE= 2.61D-08 OVMax= 1.14D-04

 Cycle  14  Pass 1  IDiag  1:
 RMSU=  5.58D-07    CP:  9.97D-01  1.03D+00  1.00D+00
 E= -1507.87206591903     Delta-E=       -0.000000171906 Rises=F Damp=F
 DIIS: error= 1.30D-06 at cycle   4 NSaved=   4.
 NSaved= 4 IEnMin= 4 EnMin= -1507.87206591903     IErMin= 4 ErrMin= 1.30D-06
 ErrMax= 1.30D-06  0.00D+00 EMaxC= 1.00D-01 BMatC= 4.33D-09 BMatP= 1.39D-07
 IDIUse=1 WtCom= 1.00D+00 WtEn= 0.00D+00
 Coeff-Com: -0.209D-02 0.113D+00 0.146D+00 0.742D+00
 Coeff:     -0.209D-02 0.113D+00 0.146D+00 0.742D+00
 Gap=     0.212 Goal=   None    Shift=    0.000
 RMSDP=2.74D-07 MaxDP=2.03D-05 DE=-1.72D-07 OVMax= 2.38D-05

 Cycle  15  Pass 1  IDiag  1:
 RMSU=  1.65D-07    CP:  9.97D-01  1.03D+00  1.03D+00  9.57D-01
 E= -1507.87206592250     Delta-E=       -0.000000003475 Rises=F Damp=F
 DIIS: error= 9.06D-07 at cycle   5 NSaved=   5.
 NSaved= 5 IEnMin= 5 EnMin= -1507.87206592250     IErMin= 5 ErrMin= 9.06D-07
 ErrMax= 9.06D-07  0.00D+00 EMaxC= 1.00D-01 BMatC= 1.28D-09 BMatP= 4.33D-09
 IDIUse=1 WtCom= 1.00D+00 WtEn= 0.00D+00
 Coeff-Com:  0.389D-03-0.294D-01 0.908D-02 0.393D+00 0.626D+00
 Coeff:      0.389D-03-0.294D-01 0.908D-02 0.393D+00 0.626D+00
 Gap=     0.212 Goal=   None    Shift=    0.000
 RMSDP=1.09D-07 MaxDP=6.31D-06 DE=-3.47D-09 OVMax= 8.85D-06

 Cycle  16  Pass 1  IDiag  1:
 RMSU=  6.58D-08    CP:  9.97D-01  1.03D+00  1.04D+00  1.00D+00  1.09D+00
 E= -1507.87206592372     Delta-E=       -0.000000001217 Rises=F Damp=F
 DIIS: error= 1.56D-07 at cycle   6 NSaved=   6.
 NSaved= 6 IEnMin= 6 EnMin= -1507.87206592372     IErMin= 6 ErrMin= 1.56D-07
 ErrMax= 1.56D-07  0.00D+00 EMaxC= 1.00D-01 BMatC= 5.46D-11 BMatP= 1.28D-09
 IDIUse=1 WtCom= 1.00D+00 WtEn= 0.00D+00
 Coeff-Com:  0.280D-03-0.182D-01-0.759D-02 0.978D-01 0.220D+00 0.708D+00
 Coeff:      0.280D-03-0.182D-01-0.759D-02 0.978D-01 0.220D+00 0.708D+00
 Gap=     0.212 Goal=   None    Shift=    0.000
 RMSDP=2.45D-08 MaxDP=3.29D-06 DE=-1.22D-09 OVMax= 3.27D-06

 Cycle  17  Pass 1  IDiag  1:
 RMSU=  1.87D-08    CP:  9.97D-01  1.03D+00  1.04D+00  1.01D+00  1.17D+00
                    CP:  1.05D+00
 E= -1507.87206592382     Delta-E=       -0.000000000101 Rises=F Damp=F
 DIIS: error= 1.01D-07 at cycle   7 NSaved=   7.
 NSaved= 7 IEnMin= 7 EnMin= -1507.87206592382     IErMin= 7 ErrMin= 1.01D-07
 ErrMax= 1.01D-07  0.00D+00 EMaxC= 1.00D-01 BMatC= 1.19D-11 BMatP= 5.46D-11
 IDIUse=1 WtCom= 1.00D+00 WtEn= 0.00D+00
 Coeff-Com:  0.141D-04 0.543D-04-0.590D-02-0.539D-01-0.684D-01 0.282D+00
 Coeff-Com:  0.846D+00
 Coeff:      0.141D-04 0.543D-04-0.590D-02-0.539D-01-0.684D-01 0.282D+00
 Coeff:      0.846D+00
 Gap=     0.212 Goal=   None    Shift=    0.000
 RMSDP=1.24D-08 MaxDP=1.64D-06 DE=-1.01D-10 OVMax= 2.86D-06

 Cycle  18  Pass 1  IDiag  1:
 RMSU=  7.25D-09    CP:  9.97D-01  1.03D+00  1.04D+00  1.01D+00  1.21D+00
                    CP:  1.16D+00  1.18D+00
 E= -1507.87206592385     Delta-E=       -0.000000000026 Rises=F Damp=F
 DIIS: error= 3.01D-08 at cycle   8 NSaved=   8.
 NSaved= 8 IEnMin= 8 EnMin= -1507.87206592385     IErMin= 8 ErrMin= 3.01D-08
 ErrMax= 3.01D-08  0.00D+00 EMaxC= 1.00D-01 BMatC= 1.92D-12 BMatP= 1.19D-11
 IDIUse=1 WtCom= 1.00D+00 WtEn= 0.00D+00
 Coeff-Com: -0.284D-04 0.228D-02-0.182D-02-0.348D-01-0.575D-01 0.321D-01
 Coeff-Com:  0.380D+00 0.679D+00
 Coeff:     -0.284D-04 0.228D-02-0.182D-02-0.348D-01-0.575D-01 0.321D-01
 Coeff:      0.380D+00 0.679D+00
 Gap=     0.212 Goal=   None    Shift=    0.000
 RMSDP=3.63D-09 MaxDP=2.68D-07 DE=-2.59D-11 OVMax= 5.61D-07

 SCF Done:  E(RM062X) =  -1507.87206592     A.U. after   18 cycles
            NFock= 18  Conv=0.36D-08     -V/T= 2.0042
 KE= 1.501549171943D+03 PE=-8.423022904919D+03 EE= 2.971646730271D+03
 Leave Link  502 at Wed Mar  8 14:45:50 2023, MaxMem=  2684354560 cpu:           18847.4 elap:            1184.5
 (Enter /opt/gaussian/g16/l601.exe)
 Copying SCF densities to generalized density rwf, IOpCl= 0 IROHF=0.

 **********************************************************************

            Population analysis using the SCF density.

 **********************************************************************

 Alpha  occ. eigenvalues --  -89.90809 -19.62709 -19.62469 -19.61154 -19.59514
 Alpha  occ. eigenvalues --  -19.59507 -14.78971 -14.76431 -10.64479 -10.64436
 Alpha  occ. eigenvalues --  -10.62507 -10.60084 -10.60027 -10.59420 -10.58959
 Alpha  occ. eigenvalues --  -10.57346 -10.56925 -10.55947 -10.55379 -10.54532
 Alpha  occ. eigenvalues --  -10.54141 -10.53952 -10.53926 -10.53582  -8.26749
 Alpha  occ. eigenvalues --   -6.18681  -6.18458  -6.18279  -1.17595  -1.17219
 Alpha  occ. eigenvalues --   -1.15513  -1.14186  -1.11578  -1.07509  -1.01486
 Alpha  occ. eigenvalues --   -0.91909  -0.90866  -0.88348  -0.87492  -0.86635
 Alpha  occ. eigenvalues --   -0.84546  -0.81451  -0.78165  -0.75084  -0.74760
 Alpha  occ. eigenvalues --   -0.72725  -0.69613  -0.67344  -0.66862  -0.65879
 Alpha  occ. eigenvalues --   -0.62749  -0.62348  -0.61154  -0.59883  -0.58229
 Alpha  occ. eigenvalues --   -0.57440  -0.55888  -0.55210  -0.54587  -0.54066
 Alpha  occ. eigenvalues --   -0.52964  -0.52636  -0.51931  -0.50660  -0.50375
 Alpha  occ. eigenvalues --   -0.50137  -0.49412  -0.49074  -0.48192  -0.48110
 Alpha  occ. eigenvalues --   -0.47599  -0.47518  -0.46739  -0.46237  -0.45631
 Alpha  occ. eigenvalues --   -0.44668  -0.44266  -0.43861  -0.43162  -0.42471
 Alpha  occ. eigenvalues --   -0.42265  -0.41210  -0.40835  -0.39441  -0.36997
 Alpha  occ. eigenvalues --   -0.35469  -0.35019  -0.34593  -0.34079  -0.32900
 Alpha  occ. eigenvalues --   -0.32440  -0.32298  -0.31301  -0.29488  -0.24556
 Alpha virt. eigenvalues --   -0.03378   0.01322   0.05359   0.05536   0.05767
 Alpha virt. eigenvalues --    0.06452   0.06708   0.07284   0.08130   0.08406
 Alpha virt. eigenvalues --    0.09418   0.09650   0.10234   0.10924   0.11474
 Alpha virt. eigenvalues --    0.11881   0.12024   0.12702   0.13238   0.13266
 Alpha virt. eigenvalues --    0.13679   0.14417   0.14757   0.14956   0.15244
 Alpha virt. eigenvalues --    0.15666   0.15942   0.16330   0.17158   0.17585
 Alpha virt. eigenvalues --    0.18006   0.18937   0.19102   0.19543   0.20105
 Alpha virt. eigenvalues --    0.20405   0.21208   0.21420   0.21667   0.22333
 Alpha virt. eigenvalues --    0.23181   0.23656   0.23813   0.24040   0.24611
 Alpha virt. eigenvalues --    0.25172   0.25288   0.25749   0.26051   0.26414
 Alpha virt. eigenvalues --    0.26980   0.27197   0.27789   0.28558   0.29106
 Alpha virt. eigenvalues --    0.29651   0.30147   0.30416   0.30690   0.31006
 Alpha virt. eigenvalues --    0.31904   0.32695   0.32896   0.33212   0.33848
 Alpha virt. eigenvalues --    0.34184   0.34439   0.34976   0.35647   0.36335
 Alpha virt. eigenvalues --    0.36480   0.37360   0.37565   0.38021   0.38306
 Alpha virt. eigenvalues --    0.39155   0.39342   0.39929   0.40330   0.40673
 Alpha virt. eigenvalues --    0.41050   0.41201   0.41975   0.42219   0.42411
 Alpha virt. eigenvalues --    0.42739   0.43175   0.43380   0.43893   0.44089
 Alpha virt. eigenvalues --    0.44522   0.44915   0.45249   0.45332   0.45726
 Alpha virt. eigenvalues --    0.46019   0.46418   0.46791   0.47231   0.47697
 Alpha virt. eigenvalues --    0.48063   0.48721   0.48790   0.48940   0.49180
 Alpha virt. eigenvalues --    0.49456   0.49689   0.50158   0.50445   0.50904
 Alpha virt. eigenvalues --    0.51081   0.51512   0.51719   0.51880   0.52219
 Alpha virt. eigenvalues --    0.52717   0.53203   0.53429   0.53720   0.54300
 Alpha virt. eigenvalues --    0.54886   0.55045   0.55967   0.56393   0.57056
 Alpha virt. eigenvalues --    0.57449   0.58121   0.58699   0.58973   0.59397
 Alpha virt. eigenvalues --    0.59844   0.60160   0.60411   0.61435   0.61750
 Alpha virt. eigenvalues --    0.62225   0.63299   0.63482   0.63756   0.64392
 Alpha virt. eigenvalues --    0.65112   0.65823   0.66446   0.67170   0.67613
 Alpha virt. eigenvalues --    0.68928   0.69102   0.69402   0.69878   0.70757
 Alpha virt. eigenvalues --    0.71385   0.72334   0.73019   0.73551   0.73724
 Alpha virt. eigenvalues --    0.74243   0.74830   0.75978   0.77568   0.77864
 Alpha virt. eigenvalues --    0.78739   0.79011   0.80083   0.80455   0.81616
 Alpha virt. eigenvalues --    0.82032   0.82096   0.82716   0.83488   0.84244
 Alpha virt. eigenvalues --    0.85489   0.85685   0.86136   0.86927   0.88036
 Alpha virt. eigenvalues --    0.88362   0.88870   0.89083   0.90260   0.90821
 Alpha virt. eigenvalues --    0.91875   0.92663   0.93193   0.94030   0.94345
 Alpha virt. eigenvalues --    0.94786   0.95347   0.96072   0.96555   0.96986
 Alpha virt. eigenvalues --    0.97669   0.98603   0.98716   0.99242   0.99607
 Alpha virt. eigenvalues --    1.00637   1.01627   1.02307   1.03289   1.03573
 Alpha virt. eigenvalues --    1.04441   1.04595   1.05554   1.05930   1.06696
 Alpha virt. eigenvalues --    1.07238   1.07959   1.09049   1.09474   1.10200
 Alpha virt. eigenvalues --    1.10476   1.11088   1.11647   1.12151   1.13075
 Alpha virt. eigenvalues --    1.14078   1.14141   1.14826   1.15101   1.15757
 Alpha virt. eigenvalues --    1.16985   1.17636   1.18200   1.18470   1.19469
 Alpha virt. eigenvalues --    1.20212   1.21127   1.22136   1.22695   1.22845
 Alpha virt. eigenvalues --    1.23929   1.25620   1.26270   1.27112   1.27192
 Alpha virt. eigenvalues --    1.28108   1.29322   1.30305   1.31217   1.31953
 Alpha virt. eigenvalues --    1.32872   1.33337   1.34221   1.34546   1.34628
 Alpha virt. eigenvalues --    1.35995   1.37028   1.37420   1.39351   1.39694
 Alpha virt. eigenvalues --    1.41157   1.41797   1.42652   1.43279   1.44481
 Alpha virt. eigenvalues --    1.45802   1.46542   1.46816   1.49572   1.49912
 Alpha virt. eigenvalues --    1.50122   1.51196   1.51670   1.52843   1.53581
 Alpha virt. eigenvalues --    1.53933   1.54094   1.54920   1.55369   1.55979
 Alpha virt. eigenvalues --    1.56463   1.56795   1.57243   1.57319   1.57499
 Alpha virt. eigenvalues --    1.58105   1.58689   1.59408   1.60008   1.60485
 Alpha virt. eigenvalues --    1.61381   1.61709   1.62177   1.62312   1.62836
 Alpha virt. eigenvalues --    1.63220   1.64285   1.64512   1.64771   1.65685
 Alpha virt. eigenvalues --    1.66271   1.66981   1.67258   1.67569   1.68514
 Alpha virt. eigenvalues --    1.68767   1.69317   1.70239   1.70711   1.71374
 Alpha virt. eigenvalues --    1.71838   1.72310   1.73036   1.73375   1.73738
 Alpha virt. eigenvalues --    1.74542   1.75496   1.76178   1.76918   1.77542
 Alpha virt. eigenvalues --    1.78473   1.78521   1.79440   1.80092   1.80979
 Alpha virt. eigenvalues --    1.81615   1.82263   1.83170   1.83646   1.84066
 Alpha virt. eigenvalues --    1.85376   1.85720   1.86896   1.87188   1.88575
 Alpha virt. eigenvalues --    1.88679   1.89325   1.90062   1.90526   1.91726
 Alpha virt. eigenvalues --    1.92177   1.92795   1.93155   1.94166   1.95065
 Alpha virt. eigenvalues --    1.95539   1.96109   1.97122   1.97867   1.98246
 Alpha virt. eigenvalues --    1.98800   1.99255   2.00291   2.00384   2.01242
 Alpha virt. eigenvalues --    2.02414   2.02491   2.02977   2.03663   2.04995
 Alpha virt. eigenvalues --    2.05396   2.06640   2.06969   2.07977   2.08912
 Alpha virt. eigenvalues --    2.09884   2.10333   2.10593   2.11584   2.12188
 Alpha virt. eigenvalues --    2.12830   2.13511   2.14557   2.15484   2.16015
 Alpha virt. eigenvalues --    2.17225   2.17638   2.18492   2.18979   2.19506
 Alpha virt. eigenvalues --    2.20023   2.20145   2.20977   2.21171   2.22093
 Alpha virt. eigenvalues --    2.23169   2.23681   2.23900   2.25335   2.25559
 Alpha virt. eigenvalues --    2.25993   2.28004   2.28367   2.29255   2.30058
 Alpha virt. eigenvalues --    2.30263   2.30886   2.31455   2.32012   2.33112
 Alpha virt. eigenvalues --    2.33322   2.33810   2.34363   2.34967   2.35004
 Alpha virt. eigenvalues --    2.37000   2.37233   2.37792   2.37833   2.38645
 Alpha virt. eigenvalues --    2.39285   2.39378   2.41059   2.41469   2.42565
 Alpha virt. eigenvalues --    2.43755   2.44271   2.46081   2.46765   2.47232
 Alpha virt. eigenvalues --    2.47739   2.48442   2.49718   2.50149   2.51107
 Alpha virt. eigenvalues --    2.51278   2.52129   2.53260   2.54598   2.54768
 Alpha virt. eigenvalues --    2.55739   2.56256   2.57214   2.57450   2.58060
 Alpha virt. eigenvalues --    2.58680   2.58758   2.59255   2.59738   2.60922
 Alpha virt. eigenvalues --    2.60989   2.61537   2.62116   2.63782   2.64224
 Alpha virt. eigenvalues --    2.64741   2.65273   2.66090   2.66828   2.67518
 Alpha virt. eigenvalues --    2.67859   2.68606   2.68836   2.69533   2.70188
 Alpha virt. eigenvalues --    2.71730   2.71752   2.72077   2.72609   2.73891
 Alpha virt. eigenvalues --    2.74368   2.74506   2.75645   2.76506   2.76997
 Alpha virt. eigenvalues --    2.77595   2.79109   2.80341   2.80892   2.81438
 Alpha virt. eigenvalues --    2.81606   2.81834   2.82627   2.83907   2.84449
 Alpha virt. eigenvalues --    2.85259   2.86154   2.86917   2.88089   2.89112
 Alpha virt. eigenvalues --    2.89840   2.90715   2.91204   2.91965   2.93199
 Alpha virt. eigenvalues --    2.93854   2.94678   2.95450   2.96385   2.96527
 Alpha virt. eigenvalues --    2.97853   2.99024   2.99301   2.99886   3.01035
 Alpha virt. eigenvalues --    3.01663   3.02257   3.02511   3.03541   3.03817
 Alpha virt. eigenvalues --    3.04265   3.04683   3.05719   3.06263   3.07129
 Alpha virt. eigenvalues --    3.07512   3.07826   3.09366   3.09858   3.10126
 Alpha virt. eigenvalues --    3.10710   3.11230   3.11473   3.12046   3.12652
 Alpha virt. eigenvalues --    3.13326   3.14516   3.15317   3.15920   3.16646
 Alpha virt. eigenvalues --    3.16751   3.17189   3.17659   3.18800   3.19106
 Alpha virt. eigenvalues --    3.20063   3.20711   3.21511   3.22452   3.22717
 Alpha virt. eigenvalues --    3.22928   3.23779   3.23897   3.24221   3.24524
 Alpha virt. eigenvalues --    3.25288   3.26297   3.26911   3.27299   3.27656
 Alpha virt. eigenvalues --    3.28845   3.29207   3.30383   3.30847   3.30901
 Alpha virt. eigenvalues --    3.32063   3.32288   3.32724   3.32952   3.33512
 Alpha virt. eigenvalues --    3.34271   3.34728   3.35181   3.35493   3.36947
 Alpha virt. eigenvalues --    3.37463   3.37570   3.38206   3.38585   3.38933
 Alpha virt. eigenvalues --    3.39372   3.40076   3.40885   3.41503   3.42225
 Alpha virt. eigenvalues --    3.42547   3.42760   3.44137   3.44836   3.45490
 Alpha virt. eigenvalues --    3.45809   3.46832   3.47320   3.48102   3.48793
 Alpha virt. eigenvalues --    3.49120   3.49672   3.50667   3.51332   3.52160
 Alpha virt. eigenvalues --    3.52884   3.53798   3.54461   3.54933   3.55938
 Alpha virt. eigenvalues --    3.56880   3.57486   3.57830   3.58933   3.59500
 Alpha virt. eigenvalues --    3.59902   3.61238   3.61592   3.62940   3.63754
 Alpha virt. eigenvalues --    3.64546   3.64798   3.66519   3.67465   3.68568
 Alpha virt. eigenvalues --    3.69033   3.69761   3.71037   3.71394   3.72577
 Alpha virt. eigenvalues --    3.74011   3.75187   3.75328   3.76137   3.77054
 Alpha virt. eigenvalues --    3.77826   3.78469   3.79371   3.80248   3.81101
 Alpha virt. eigenvalues --    3.81312   3.83356   3.84229   3.87120   3.87890
 Alpha virt. eigenvalues --    3.89415   3.89799   3.90425   3.91723   3.92468
 Alpha virt. eigenvalues --    3.93381   3.94341   3.96674   3.97353   3.98499
 Alpha virt. eigenvalues --    4.00374   4.01095   4.01345   4.02797   4.04927
 Alpha virt. eigenvalues --    4.05698   4.06578   4.07903   4.09024   4.10120
 Alpha virt. eigenvalues --    4.11300   4.11896   4.14051   4.14887   4.15383
 Alpha virt. eigenvalues --    4.16452   4.19050   4.19236   4.20371   4.22462
 Alpha virt. eigenvalues --    4.24872   4.25848   4.26972   4.28142   4.28923
 Alpha virt. eigenvalues --    4.30674   4.31784   4.34389   4.35070   4.37222
 Alpha virt. eigenvalues --    4.38020   4.38744   4.39413   4.40231   4.42067
 Alpha virt. eigenvalues --    4.43329   4.44149   4.45171   4.46947   4.47651
 Alpha virt. eigenvalues --    4.49349   4.50592   4.52129   4.54178   4.55506
 Alpha virt. eigenvalues --    4.58987   4.62324   4.66639   4.67588   4.68300
 Alpha virt. eigenvalues --    4.69126   4.71307   4.72674   4.72976   4.74518
 Alpha virt. eigenvalues --    4.76181   4.76973   4.79419   4.79623   4.81532
 Alpha virt. eigenvalues --    4.85665   4.85870   4.87089   4.88788   4.91508
 Alpha virt. eigenvalues --    4.92642   4.93787   4.94133   4.95803   4.97103
 Alpha virt. eigenvalues --    4.98313   4.98748   4.99932   5.04240   5.05048
 Alpha virt. eigenvalues --    5.08131   5.08594   5.12885   5.15224   5.20522
 Alpha virt. eigenvalues --    5.22291   5.22502   5.25565   5.25896   5.28082
 Alpha virt. eigenvalues --    5.28976   5.30140   5.32411   5.33960   5.34738
 Alpha virt. eigenvalues --    5.37645   5.40998   5.41708   5.42601   5.44831
 Alpha virt. eigenvalues --    5.48273   5.51945   5.54161   5.55394   5.59065
 Alpha virt. eigenvalues --    5.60476   5.67872   5.72946   5.73822   5.76687
 Alpha virt. eigenvalues --    5.79495   5.80303   5.83140   5.83714   5.85492
 Alpha virt. eigenvalues --    5.86014   5.88422   5.89599   5.90829   5.94917
 Alpha virt. eigenvalues --    5.95789   5.97888   6.02111   6.17384   6.20643
 Alpha virt. eigenvalues --    6.22129   6.23058   6.30332   6.33051   6.37800
 Alpha virt. eigenvalues --    6.38430   6.47482   6.51218   6.53041   6.53913
 Alpha virt. eigenvalues --    6.59014   6.64736   6.68609   6.72914   6.73716
 Alpha virt. eigenvalues --    6.75585   6.80717   6.85406   6.87079   6.88432
 Alpha virt. eigenvalues --    6.91505   6.92321   6.99780   7.07493   7.08068
 Alpha virt. eigenvalues --    7.10989   7.11200   7.13747   7.18821   7.25267
 Alpha virt. eigenvalues --    7.31382   7.36500   9.00417   9.40285   9.54082
 Alpha virt. eigenvalues --   20.03051  22.28803  22.39586  22.45310  22.47504
 Alpha virt. eigenvalues --   22.56544  22.60635  22.63064  22.68385  22.74035
 Alpha virt. eigenvalues --   22.78431  22.88542  22.95050  23.03388  23.06339
 Alpha virt. eigenvalues --   23.18345  23.45799  32.12567  33.15598  44.15830
 Alpha virt. eigenvalues --   44.19969  44.23557  44.30577  44.51679
          Condensed to atoms (all electrons):
               1          2          3          4          5          6
     1  C    5.111053   0.416121   0.407228  -0.010602   0.000617  -0.000212
     2  H    0.416121   0.512560  -0.021010  -0.001090   0.000217  -0.000005
     3  H    0.407228  -0.021010   0.543533   0.001699  -0.000048  -0.000001
     4  C   -0.010602  -0.001090   0.001699   5.333592   0.468650   0.256943
     5  H    0.000617   0.000217  -0.000048   0.468650   0.536508  -0.037957
     6  O   -0.000212  -0.000005  -0.000001   0.256943  -0.037957   8.135916
     7  H   -0.000054  -0.000002   0.000003  -0.028770  -0.012489   0.285882
     8  C   -0.008481   0.012211  -0.007967   0.014508  -0.052629  -0.043976
     9  H    0.011292  -0.000017  -0.001017  -0.096646   0.002873   0.003698
    10  O    0.009006  -0.000412   0.000118  -0.041279   0.001415  -0.006734
    11  H   -0.000674  -0.000103   0.000313   0.013356  -0.000612  -0.000327
    12  C   -0.002947   0.000338   0.000167   0.074648  -0.067514  -0.037883
    13  H    0.000271   0.000019   0.000100  -0.093675   0.005235   0.008566
    14  C    0.187312  -0.047537  -0.038409   0.079513   0.006977   0.005929
    15  H   -0.062035  -0.005225  -0.002800  -0.009150  -0.000016   0.000084
    16  O   -0.034056   0.001785   0.005159  -0.071651  -0.000653   0.006803
    17  N   -0.000370  -0.000101  -0.000027   0.014470  -0.010115  -0.000500
    18  C   -0.000615   0.000113  -0.000016  -0.005644   0.000924   0.001899
    19  H   -0.000531  -0.000110   0.000084  -0.016657  -0.003073   0.001107
    20  C    0.000040   0.000002  -0.000002   0.007086   0.005025  -0.001237
    21  H    0.000006   0.000000  -0.000000   0.000088   0.000077  -0.000012
    22  C   -0.000010   0.000000   0.000000  -0.000198  -0.000168   0.000021
    23  H    0.000000   0.000000  -0.000000   0.000014   0.000003   0.000000
    24  H    0.000000  -0.000000  -0.000000  -0.000154  -0.000108   0.000021
    25  C   -0.000066  -0.000005   0.000001  -0.005681  -0.000253  -0.000106
    26  C   -0.000347   0.000047  -0.000004   0.014130  -0.000675  -0.006815
    27  H   -0.000014   0.000001  -0.000000   0.000600  -0.000103  -0.000120
    28  C    0.000000   0.000000  -0.000000   0.000000   0.000001  -0.000019
    29  O    0.000000  -0.000000  -0.000000   0.000005   0.000000   0.000000
    30  N   -0.000000   0.000000   0.000000   0.000001   0.000000  -0.000000
    31  H   -0.000000   0.000000  -0.000000  -0.000000   0.000000  -0.000000
    32  H    0.000000   0.000000  -0.000000   0.000000  -0.000000   0.000000
    33  C    0.000002  -0.000000  -0.000000   0.000839  -0.000428  -0.020144
    34  C    0.000002  -0.000000  -0.000000  -0.000039   0.000278   0.012856
    35  C    0.000000   0.000000   0.000000  -0.000162   0.000300   0.002037
    36  C   -0.000000   0.000000   0.000000   0.000003   0.000001   0.000002
    37  C   -0.000000   0.000000   0.000000   0.000155  -0.000009  -0.000052
    38  O   -0.000000   0.000000  -0.000000   0.007319   0.000155  -0.051100
    39  S    0.000000  -0.000000  -0.000000  -0.000665   0.000007   0.000759
    40  H   -0.000000   0.000000  -0.000000   0.000111   0.000031   0.000014
    41  H   -0.000007   0.000000  -0.000000   0.000238   0.000557   0.011227
    42  H   -0.000000   0.000000   0.000000   0.000000  -0.000000  -0.000000
    43  H    0.000000   0.000000  -0.000000   0.000000  -0.000000  -0.000000
    44  H    0.000000  -0.000000  -0.000000  -0.000000  -0.000000   0.000000
    45  H   -0.000000  -0.000000   0.000000   0.000019   0.000011   0.000026
    46  H    0.000000  -0.000000  -0.000000  -0.000017   0.000001   0.000046
    47  H    0.384773  -0.023017  -0.024712   0.000548  -0.000102   0.000000
    48  H    0.000000   0.000000  -0.000000  -0.000026   0.000005   0.000687
               7          8          9         10         11         12
     1  C   -0.000054  -0.008481   0.011292   0.009006  -0.000674  -0.002947
     2  H   -0.000002   0.012211  -0.000017  -0.000412  -0.000103   0.000338
     3  H    0.000003  -0.007967  -0.001017   0.000118   0.000313   0.000167
     4  C   -0.028770   0.014508  -0.096646  -0.041279   0.013356   0.074648
     5  H   -0.012489  -0.052629   0.002873   0.001415  -0.000612  -0.067514
     6  O    0.285882  -0.043976   0.003698  -0.006734  -0.000327  -0.037883
     7  H    0.339647   0.009735  -0.000234  -0.000461   0.000127   0.005547
     8  C    0.009735   5.328186   0.490597   0.280153  -0.039682  -0.033171
     9  H   -0.000234   0.490597   0.583546  -0.059651  -0.005324   0.011891
    10  O   -0.000461   0.280153  -0.059651   8.038525   0.292860  -0.025282
    11  H    0.000127  -0.039682  -0.005324   0.292860   0.427164  -0.002948
    12  C    0.005547  -0.033171   0.011891  -0.025282  -0.002948   5.518397
    13  H   -0.000995   0.022644   0.002823   0.017979  -0.001089   0.446371
    14  C   -0.000937   0.145756  -0.102433  -0.053352   0.000360  -0.062986
    15  H    0.000054  -0.025556   0.008871  -0.004798   0.002886  -0.003422
    16  O   -0.000205  -0.048742   0.004618   0.009306   0.000145   0.231519
    17  N    0.002147  -0.004138  -0.000784  -0.000290  -0.000007   0.177323
    18  C    0.000357  -0.003246  -0.000250  -0.000313   0.000007  -0.086470
    19  H    0.000264   0.001580   0.000055  -0.000009   0.000004   0.017255
    20  C   -0.001280  -0.000856   0.000020   0.000007  -0.000001   0.012980
    21  H   -0.000014   0.000001   0.000000   0.000000  -0.000000   0.000149
    22  C    0.000209   0.000019  -0.000002  -0.000003   0.000000  -0.010229
    23  H   -0.000002   0.000000   0.000000   0.000000  -0.000000   0.000085
    24  H    0.000142   0.000012  -0.000000   0.000000   0.000000   0.000632
    25  C    0.000543  -0.000478  -0.000003  -0.000054  -0.000001  -0.018233
    26  C    0.000676  -0.003855  -0.000075  -0.000690  -0.000052  -0.058705
    27  H    0.000058   0.000022  -0.000010  -0.000168   0.000008  -0.001935
    28  C    0.000055  -0.000009  -0.000000  -0.000000  -0.000000  -0.001359
    29  O    0.000008   0.000000   0.000000  -0.000000   0.000000   0.000313
    30  N    0.000000  -0.000000  -0.000000  -0.000000  -0.000000  -0.000016
    31  H   -0.000000  -0.000000  -0.000000  -0.000000  -0.000000  -0.000005
    32  H   -0.000000  -0.000000  -0.000000   0.000000  -0.000000  -0.000009
    33  C    0.001246   0.000759   0.000022  -0.001118   0.000076  -0.000400
    34  C   -0.008912  -0.000113  -0.000028   0.000032   0.000001  -0.000568
    35  C   -0.001284  -0.000120  -0.000001   0.000000  -0.000000   0.000639
    36  C   -0.000010  -0.000000  -0.000000   0.000000  -0.000000   0.000021
    37  C    0.000098   0.000005   0.000000  -0.000000  -0.000000  -0.000673
    38  O    0.036475  -0.000518   0.000004  -0.000002  -0.000001   0.000320
    39  S    0.001517   0.000016   0.000000   0.000013  -0.000003  -0.000221
    40  H   -0.001863  -0.000023   0.000001   0.000023  -0.000001   0.000035
    41  H   -0.009798  -0.001189   0.000004   0.003328  -0.000230  -0.000047
    42  H   -0.000000   0.000000  -0.000000  -0.000000  -0.000000  -0.000001
    43  H    0.000001   0.000000  -0.000000   0.000000   0.000000   0.000004
    44  H    0.000000   0.000000  -0.000000   0.000000   0.000000  -0.000000
    45  H   -0.000003   0.000000   0.000000  -0.000000  -0.000000  -0.000043
    46  H   -0.000113   0.000000  -0.000000   0.000000   0.000000   0.000106
    47  H    0.000008  -0.009051   0.000674   0.000172   0.000099  -0.000826
    48  H    0.000420  -0.000031   0.000002   0.000004  -0.000003   0.000016
              13         14         15         16         17         18
     1  C    0.000271   0.187312  -0.062035  -0.034056  -0.000370  -0.000615
     2  H    0.000019  -0.047537  -0.005225   0.001785  -0.000101   0.000113
     3  H    0.000100  -0.038409  -0.002800   0.005159  -0.000027  -0.000016
     4  C   -0.093675   0.079513  -0.009150  -0.071651   0.014470  -0.005644
     5  H    0.005235   0.006977  -0.000016  -0.000653  -0.010115   0.000924
     6  O    0.008566   0.005929   0.000084   0.006803  -0.000500   0.001899
     7  H   -0.000995  -0.000937   0.000054  -0.000205   0.002147   0.000357
     8  C    0.022644   0.145756  -0.025556  -0.048742  -0.004138  -0.003246
     9  H    0.002823  -0.102433   0.008871   0.004618  -0.000784  -0.000250
    10  O    0.017979  -0.053352  -0.004798   0.009306  -0.000290  -0.000313
    11  H   -0.001089   0.000360   0.002886   0.000145  -0.000007   0.000007
    12  C    0.446371  -0.062986  -0.003422   0.231519   0.177323  -0.086470
    13  H    0.519784  -0.013785   0.006463  -0.033782  -0.061293   0.012415
    14  C   -0.013785   5.263681   0.404914   0.208338   0.015058  -0.000240
    15  H    0.006463   0.404914   0.606516  -0.039466  -0.001401   0.000129
    16  O   -0.033782   0.208338  -0.039466   8.128031  -0.081126   0.006325
    17  N   -0.061293   0.015058  -0.001401  -0.081126   6.567791   0.318643
    18  C    0.012415  -0.000240   0.000129   0.006325   0.318643   5.038835
    19  H    0.001507  -0.003516   0.000280   0.016675  -0.050198   0.407607
    20  C   -0.000389   0.000352   0.000006  -0.000889  -0.090702   0.528483
    21  H    0.000006  -0.000001  -0.000000  -0.000091   0.004591  -0.032040
    22  C    0.000125  -0.000047   0.000001   0.000599  -0.004538  -0.024380
    23  H   -0.000005  -0.000000   0.000000  -0.000005  -0.001451   0.003742
    24  H   -0.000039   0.000004   0.000000   0.000040   0.012786   0.003349
    25  C    0.008437   0.000096   0.000032  -0.001525  -0.062025   0.055359
    26  C   -0.019705   0.000043  -0.000438   0.001118   0.306354  -0.163469
    27  H   -0.000641  -0.000002  -0.000028   0.001154  -0.036989   0.007326
    28  C   -0.000023  -0.000001  -0.000001   0.000028   0.003187   0.000495
    29  O   -0.000013  -0.000000   0.000000  -0.000000  -0.000408   0.000205
    30  N   -0.000000   0.000000  -0.000000  -0.000000  -0.000491   0.000056
    31  H   -0.000000  -0.000000  -0.000000   0.000000   0.000027  -0.000007
    32  H    0.000000   0.000000  -0.000000   0.000000   0.000025   0.000075
    33  C   -0.000375  -0.000080   0.000000   0.000002   0.000136  -0.000014
    34  C    0.000242   0.000079  -0.000001   0.000123   0.008708  -0.001919
    35  C    0.000176   0.000003   0.000000  -0.000028  -0.010641   0.000633
    36  C    0.000002   0.000000   0.000000  -0.000000  -0.000211   0.000225
    37  C   -0.000031  -0.000002  -0.000000  -0.000001  -0.000330   0.002020
    38  O   -0.000477   0.000056  -0.000001   0.000009   0.001225   0.001701
    39  S    0.001402  -0.000005   0.000001   0.000003   0.000045   0.000171
[...]
      6        8           0.016092928   -0.009148174   -0.004631258
      7        1          -0.000708809   -0.005377972   -0.004273042
      8        6           0.013871525    0.000135408   -0.002915535
      9        1          -0.007085560    0.003140856   -0.011040331
     10        8          -0.000992209    0.007436484    0.002512176
     11        1          -0.010627853   -0.006074026   -0.001978515
     12        6           0.018443346   -0.019616431   -0.002397209
     13        1          -0.008260452   -0.005951923    0.004297081
     14        6          -0.020152130    0.001290137   -0.002732648
     15        1          -0.004554512   -0.006675120    0.010406059
     16        8           0.001519493   -0.004183401    0.000334893
     17        7           0.000892957    0.007951393   -0.002964840
     18        6           0.015425651    0.004726113    0.005587262
     19        1          -0.004773352    0.003984470   -0.000590089
     20        6          -0.017391349    0.003372433   -0.006369581
     21        1           0.004259184    0.002961936    0.000098150
     22        6           0.002717062    0.008589723    0.023509302
     23        1           0.005016206   -0.000566277    0.007082870
     24        1           0.015578798   -0.020553167   -0.039686331
     25        6          -0.019618992   -0.000975738   -0.004867127
     26        6           0.004338388   -0.017077669    0.005027433
     27        1          -0.007605367   -0.000065196    0.002347984
     28        6          -0.012571626   -0.014730928    0.001363980
     29        8           0.017633770    0.020820552    0.012602173
     30        7           0.003456639   -0.006701226   -0.004478015
     31        1          -0.001891586    0.000530052   -0.002111725
     32        1          -0.002600112   -0.000782953   -0.003263876
     33        6          -0.006473322   -0.010792063   -0.010313141
     34        6          -0.000938827   -0.051283265    0.026781991
     35        6          -0.015450249    0.006758081   -0.024194693
     36        6           0.008911111   -0.006552361    0.003000627
     37        6           0.000110309    0.022082404    0.028912443
     38        8          -0.010860316    0.028203767   -0.015197709
     39       16           0.016064217    0.015869833    0.010288856
     40        1           0.006837439    0.001924749   -0.002338066
     41        1          -0.003885609    0.004924024    0.005559120
     42        1           0.002617611    0.004108247   -0.000872465
     43        1          -0.004216255   -0.002007977    0.002495469
     44        1           0.001553460   -0.004778267   -0.004486446
     45        1           0.006345487    0.004406249   -0.005653297
     46        1          -0.005011360   -0.003978133    0.001830303
     47        1           0.001188581   -0.001235588   -0.001054521
     48        1          -0.003872255    0.004492272   -0.005249006
 -------------------------------------------------------------------
 Cartesian Forces:  Max     0.051283265 RMS     0.011239620
 Leave Link  716 at Wed Mar  8 14:52:34 2023, MaxMem=  2684354560 cpu:               0.8 elap:               0.1
 (Enter /opt/gaussian/g16/l103.exe)

 GradGradGradGradGradGradGradGradGradGradGradGradGradGradGradGradGradGrad
 Berny optimization.
 Search for a local minimum.
 Step number   1 out of a maximum of    2
 All quantities printed in internal units (Hartrees-Bohrs-Radians)
 Second derivative matrix not updated -- first step.
 ITU=  0
     Eigenvalues ---    0.00026   0.00065   0.00084   0.00099   0.00144
     Eigenvalues ---    0.00188   0.00212   0.00268   0.00312   0.00438
     Eigenvalues ---    0.00466   0.00647   0.00771   0.00847   0.00936
     Eigenvalues ---    0.01024   0.01140   0.01250   0.01319   0.01413
     Eigenvalues ---    0.01574   0.01773   0.01903   0.02249   0.02559
     Eigenvalues ---    0.02815   0.02942   0.03104   0.03233   0.03708
     Eigenvalues ---    0.03991   0.04312   0.04466   0.04766   0.04915
     Eigenvalues ---    0.05049   0.05141   0.05408   0.05604   0.05748
     Eigenvalues ---    0.05846   0.05864   0.05969   0.06370   0.06657
     Eigenvalues ---    0.06984   0.07121   0.07432   0.07558   0.07731
     Eigenvalues ---    0.08460   0.08603   0.09044   0.09475   0.10252
     Eigenvalues ---    0.10544   0.10920   0.11669   0.11926   0.12082
     Eigenvalues ---    0.12714   0.12866   0.13000   0.13039   0.13615
     Eigenvalues ---    0.13697   0.14024   0.14590   0.15355   0.15900
     Eigenvalues ---    0.16228   0.17067   0.17465   0.18329   0.18828
     Eigenvalues ---    0.19402   0.19884   0.20833   0.21147   0.21701
     Eigenvalues ---    0.24305   0.25943   0.26268   0.26565   0.30708
     Eigenvalues ---    0.32190   0.32577   0.34097   0.35000   0.36382
     Eigenvalues ---    0.36700   0.36700   0.36700   0.36700   0.40759
     Eigenvalues ---    0.41610   0.43493   0.46356   0.51931   0.54944
     Eigenvalues ---    0.59432   0.63825   0.66079   0.69161   0.72710
     Eigenvalues ---    0.73774   0.77839   0.78050   0.83952   0.87014
     Eigenvalues ---    0.88281   0.89356   0.89655   0.90545   0.91903
     Eigenvalues ---    0.92558   0.93386   0.95569   0.98171   0.99125
     Eigenvalues ---    1.00027   1.01751   1.03833   1.06333   1.11201
     Eigenvalues ---    1.12191   1.14818   1.22442   1.25151   1.27866
     Eigenvalues ---    1.29960   1.38967   1.49147   1.51407   1.65359
     Eigenvalues ---    1.78113   1.93285   2.39402
 Quadratic step=1.798D+01 exceeds max=3.000D-01 adjusted using Lamda=-1.239D-01.
 Angle between NR and scaled steps=  78.04 degrees.
 Angle between quadratic step and forces=  42.78 degrees.
 Linear search not attempted -- first point.
 Variable       Old X    -DE/DX   Delta X   Delta X   Delta X     New X
                                 (Linear)    (Quad)   (Total)
    X1        6.55250   0.00386   0.00000  -0.00853  -0.00853   6.54397
    Y1       -6.74374   0.02774   0.00000   0.05441   0.05441  -6.68933
    Z1       -1.54952   0.00224   0.00000   0.01291   0.01291  -1.53661
    X2        6.48971   0.00083   0.00000   0.00123   0.00123   6.49094
    Y2       -6.89710  -0.00353   0.00000   0.00245   0.00245  -6.89465
    Z2       -3.61792   0.00662   0.00000   0.02650   0.02650  -3.59142
    X3        8.36421  -0.00710   0.00000  -0.03048  -0.03048   8.33373
    Y3       -7.45097  -0.00327   0.00000   0.00474   0.00474  -7.44623
    Z3       -0.81735  -0.00341   0.00000  -0.00429  -0.00429  -0.82164
    X4        3.05478  -0.00218   0.00000   0.02536   0.02536   3.08014
    Y4       -2.28062   0.01689   0.00000   0.02341   0.02341  -2.25720
    Z4        1.85702   0.01455   0.00000   0.00817   0.00817   1.86520
    X5        1.66916   0.01126   0.00000   0.05607   0.05607   1.72523
    Y5       -3.85898   0.00357   0.00000   0.01355   0.01355  -3.84543
    Z5        1.89097  -0.01037   0.00000  -0.04568  -0.04568   1.84530
    X6        2.50773   0.01609   0.00000   0.04571   0.04571   2.55344
    Y6       -0.69535  -0.00915   0.00000  -0.00849  -0.00849  -0.70384
    Z6        3.92278  -0.00463   0.00000   0.00341   0.00341   3.92618
    X7        0.80341  -0.00071   0.00000   0.02412   0.02412   0.82752
    Y7        0.03287  -0.00538   0.00000  -0.04173  -0.04173  -0.00886
    Z7        3.88278  -0.00427   0.00000  -0.01503  -0.01503   3.86775
    X8        5.83470   0.01387   0.00000   0.01013   0.01013   5.84484
    Y8       -3.23988   0.00014   0.00000   0.02073   0.02073  -3.21915
    Z8        1.95672  -0.00292   0.00000  -0.01059  -0.01059   1.94613
    X9        6.16164  -0.00709   0.00000  -0.03188  -0.03188   6.12976
    Y9       -4.81378   0.00314   0.00000   0.00526   0.00526  -4.80852
    Z9        3.30327  -0.01104   0.00000  -0.04600  -0.04600   3.25727
   X10        7.34814  -0.00099   0.00000  -0.01671  -0.01671   7.33143
   Y10       -1.16521   0.00744   0.00000   0.02717   0.02717  -1.13804
   Z10        2.74001   0.00251   0.00000   0.00738   0.00738   2.74740
   X11        9.14505  -0.01063   0.00000  -0.03801  -0.03801   9.10704
   Y11       -1.49848  -0.00607   0.00000  -0.02713  -0.02713  -1.52561
   Z11        2.63252  -0.00198   0.00000  -0.00489  -0.00489   2.62763
   X12        3.10984   0.01844   0.00000   0.02335   0.02335   3.13319
   Y12       -0.85645  -0.01962   0.00000  -0.03389  -0.03389  -0.89034
   Z12       -0.70216  -0.00240   0.00000  -0.00903  -0.00903  -0.71119
   X13        4.29455  -0.00826   0.00000  -0.02225  -0.02225   4.27231
   Y13        0.86025  -0.00595   0.00000  -0.02401  -0.02401   0.83624
   Z13       -0.53988   0.00430   0.00000   0.01954   0.01954  -0.52034
   X14        6.43911  -0.02015   0.00000  -0.04232  -0.04232   6.39680
   Y14       -3.88602   0.00129   0.00000   0.01346   0.01346  -3.87256
   Z14       -0.88199  -0.00273   0.00000   0.00275   0.00275  -0.87924
   X15        8.18271  -0.00455   0.00000  -0.02199  -0.02199   8.16072
   Y15       -2.92284  -0.00668   0.00000  -0.02086  -0.02086  -2.94370
   Z15       -1.53789   0.01041   0.00000   0.05248   0.05248  -1.48541
   X16        4.40138   0.00152   0.00000  -0.00772  -0.00772   4.39365
   Y16       -2.67133  -0.00418   0.00000  -0.01943  -0.01943  -2.69076
   Z16       -2.27844   0.00033   0.00000  -0.01931  -0.01931  -2.29774
   X17        0.74799   0.00089   0.00000   0.01526   0.01526   0.76325
   Y17       -0.18568   0.00795   0.00000  -0.00594  -0.00594  -0.19162
   Z17       -1.80773  -0.00296   0.00000  -0.00066  -0.00066  -1.80840
   X18       -1.06325   0.01543   0.00000   0.00915   0.00915  -1.05410
   Y18       -2.06584   0.00473   0.00000   0.01336   0.01336  -2.05248
   Z18       -2.29638   0.00559   0.00000   0.00347   0.00347  -2.29291
   X19       -0.36489  -0.00477   0.00000  -0.01757  -0.01757  -0.38247
   Y19       -3.97494   0.00398   0.00000   0.01448   0.01448  -3.96045
   Z19       -1.98859  -0.00059   0.00000   0.00326   0.00326  -1.98532
   X20       -3.32553  -0.01739   0.00000  -0.00569  -0.00569  -3.33122
   Y20       -1.48020   0.00337   0.00000   0.00568   0.00568  -1.47452
   Z20       -3.18144  -0.00637   0.00000  -0.00769  -0.00769  -3.18913
   X21       -4.67759   0.00426   0.00000   0.00786   0.00786  -4.66973
   Y21       -2.97839   0.00296   0.00000   0.00883   0.00883  -2.96956
   Z21       -3.58010   0.00010   0.00000  -0.00507  -0.00507  -3.58517
   X22       -4.12434   0.00272   0.00000   0.01550   0.01550  -4.10883
   Y22        1.22956   0.00859   0.00000  -0.00963  -0.00963   1.21992
   Z22       -3.58751   0.02351   0.00000   0.00206   0.00206  -3.58545
   X23       -5.47470   0.00502   0.00000   0.01991   0.01991  -5.45479
   Y23        1.44606  -0.00057   0.00000  -0.00120  -0.00120   1.44486
   Z23       -5.15722   0.00708   0.00000   0.02048   0.02048  -5.13674
   X24       -5.14872   0.01558   0.00000   0.03301   0.03301  -5.11571
   Y24        2.03153  -0.02055   0.00000  -0.07250  -0.07250   1.95903
   Z24       -1.71289  -0.03969   0.00000  -0.11211  -0.11211  -1.82500
   X25       -1.78233  -0.01962   0.00000  -0.02736  -0.02736  -1.80969
   Y25        2.90183  -0.00098   0.00000  -0.01133  -0.01133   2.89050
   Z25       -3.86866  -0.00487   0.00000   0.00586   0.00586  -3.86281
   X26        0.42946   0.00434   0.00000  -0.01382  -0.01382   0.41564
   Y26        2.21186  -0.01708   0.00000  -0.02661  -0.02661   2.18525
   Z26       -2.86564   0.00503   0.00000   0.00253   0.00253  -2.86311
   X27        2.13656  -0.00761   0.00000  -0.03987  -0.03987   2.09669
   Y27        3.36695  -0.00007   0.00000   0.00183   0.00183   3.36878
   Z27       -2.92985   0.00235   0.00000   0.01869   0.01869  -2.91116
   X28       -2.18579  -0.01257   0.00000  -0.02759  -0.02759  -2.21337
   Y28        5.50060  -0.01473   0.00000  -0.00034  -0.00034   5.50026
   Z28       -4.88960   0.00136   0.00000   0.03149   0.03149  -4.85811
   X29       -1.50856   0.01763   0.00000   0.05712   0.05712  -1.45143
   Y29        7.38369   0.02082   0.00000   0.00885   0.00885   7.39255
   Z29       -3.82488   0.01260   0.00000   0.00972   0.00972  -3.81516
   X30       -3.73146   0.00346   0.00000   0.01130   0.01130  -3.72016
   Y30        5.70351  -0.00670   0.00000  -0.01049  -0.01049   5.69302
   Z30       -6.96276  -0.00448   0.00000  -0.01001  -0.01001  -6.97277
   X31       -3.71781  -0.00189   0.00000  -0.00529  -0.00529  -3.72311
   Y31        7.45097   0.00053   0.00000  -0.00472  -0.00472   7.44625
   Z31       -7.71839  -0.00211   0.00000  -0.00756  -0.00756  -7.72595
   X32       -3.71200  -0.00260   0.00000  -0.00875  -0.00875  -3.72074
   Y32        4.24751  -0.00078   0.00000  -0.00716  -0.00716   4.24036
   Z32       -8.18342  -0.00326   0.00000  -0.01408  -0.01408  -8.19750
   X33        1.74466  -0.00647   0.00000  -0.00993  -0.00993   1.73473
   Y33        4.02680  -0.01079   0.00000  -0.01559  -0.01559   4.01121
   Z33        7.17874  -0.01031   0.00000  -0.02572  -0.02572   7.15302
   X34       -1.72120  -0.00094   0.00000  -0.01477  -0.01477  -1.73597
   Y34        3.89637  -0.05128   0.00000  -0.02962  -0.02962   3.86676
   Z34        3.25630   0.02678   0.00000   0.02545   0.02545   3.28174
   X35       -3.44308  -0.01545   0.00000  -0.00403  -0.00403  -3.44710
   Y35        5.03517   0.00676   0.00000   0.01201   0.01201   5.04718
   Z35        1.49970  -0.02419   0.00000  -0.01183  -0.01183   1.48787
   X36       -7.63227   0.00891   0.00000   0.01699   0.01699  -7.61528
   Y36        5.61296  -0.00655   0.00000  -0.01383  -0.01383   5.59913
   Z36       -0.63965   0.00300   0.00000   0.00491   0.00491  -0.63474
   X37       -5.69600   0.00011   0.00000  -0.01708  -0.01708  -5.71308
   Y37        4.01800   0.02208   0.00000   0.05825   0.05825   4.07626
   Z37        0.78142   0.02891   0.00000   0.07835   0.07835   0.85977
   X38       -1.79810  -0.01086   0.00000  -0.06797  -0.06797  -1.86607
   Y38        1.63985   0.02820   0.00000  -0.00562  -0.00562   1.63424
   Z38        3.95976  -0.01520   0.00000  -0.02660  -0.02660   3.93315
   X39        0.41743   0.01606   0.00000   0.02859   0.02859   0.44602
   Y39        5.93929   0.01587   0.00000   0.00775   0.00775   5.94704
   Z39        4.62133   0.01029   0.00000   0.00279   0.00279   4.62412
   X40        0.14408   0.00684   0.00000   0.01484   0.01484   0.15892
   Y40        3.16730   0.00192   0.00000  -0.00394  -0.00394   3.16335
   Z40        8.18342  -0.00234   0.00000  -0.01025  -0.01025   8.17317
   X41        2.93366  -0.00389   0.00000  -0.00066  -0.00066   2.93300
   Y41        2.55009   0.00492   0.00000  -0.00068  -0.00068   2.54941
   Z41        6.33109   0.00556   0.00000   0.01230   0.01230   6.34339
   X42       -9.14505   0.00262   0.00000   0.02306   0.02306  -9.12199
   Y42        4.41838   0.00411   0.00000  -0.00237  -0.00237   4.41601
   Z42       -1.38876  -0.00087   0.00000  -0.00751  -0.00751  -1.39627
   X43       -6.69472  -0.00422   0.00000   0.00093   0.00093  -6.69379
   Y43        6.65306  -0.00201   0.00000  -0.01646  -0.01646   6.63659
   Z43       -2.17052   0.00250   0.00000   0.00523   0.00523  -2.16529
   X44       -8.45748   0.00155   0.00000  -0.00098  -0.00098  -8.45847
   Y44        6.99337  -0.00478   0.00000  -0.01619  -0.01619   6.97718
   Z44        0.68114  -0.00449   0.00000  -0.02511  -0.02511   0.65603
   X45       -6.40103   0.00635   0.00000   0.02716   0.02716  -6.37387
   Y45        2.34427   0.00441   0.00000   0.01575   0.01575   2.36001
   Z45        1.79153  -0.00565   0.00000   0.00345   0.00345   1.79498
   X46       -2.81099  -0.00501   0.00000  -0.01004  -0.01004  -2.82103
   Y46        6.83244  -0.00398   0.00000  -0.00389  -0.00389   6.82856
   Z46        0.69379   0.00183   0.00000  -0.01002  -0.01002   0.68376
   X47        4.96438   0.00119   0.00000   0.00407   0.00407   4.96845
   Y47       -7.74245  -0.00124   0.00000   0.01560   0.01560  -7.72685
   Z47       -0.69909  -0.00105   0.00000  -0.00352  -0.00352  -0.70260
   X48        2.86618  -0.00387   0.00000  -0.02559  -0.02559   2.84058
   Y48        5.19023   0.00449   0.00000   0.01770   0.01770   5.20792
   Z48        8.45600  -0.00525   0.00000  -0.03888  -0.03888   8.41712
         Item               Value     Threshold  Converged?
 Maximum Force            0.051283     0.000450     NO 
 RMS     Force            0.011240     0.000300     NO 
 Maximum Displacement     0.112110     0.001800     NO 
 RMS     Displacement     0.025008     0.001200     NO 
 Predicted change in Energy=-2.043287D-02
 GradGradGradGradGradGradGradGradGradGradGradGradGradGradGradGradGradGrad

 Leave Link  103 at Wed Mar  8 14:52:34 2023, MaxMem=  2684354560 cpu:               2.3 elap:               0.1
 (Enter /opt/gaussian/g16/l9999.exe)

 Test job not archived.
 1\1\GINC-JULIO-SYS\Force\RM062X\def2TZVP\C16H24N2O5S1\JVELAZQUEZ\08-Ma
 r-2023\0\\#P M062X/Def2TZVP scf=(direct,conver=8) EmpiricalDispersion=
 GD3 NoSymm Force pop=(NBORead) Charge Prop=(Field,Read)\\Gaussian run 
 using SANDER external interface, route from template gau_job.tpl\\0,1\
 C,3.4674313345,-3.5686357705,-0.8199706455\H,3.434205993,-3.649789361,
 -1.9145222778\H,4.4261470063,-3.9428833083,-0.4325227729\C,1.616522555
 3,-1.2068495992,0.9826934514\H,0.8832798601,-2.0420839177,1.0006607696
 \O,1.3270332028,-0.3679646419,2.0758437272\H,0.4251445016,0.0173949551
 ,2.0546782899\C,3.0875908574,-1.7144731593,1.0354496445\H,3.2606018282
 ,-2.5473404478,1.7480149424\O,3.8884661548,-0.616602187,1.4499522273\H
 ,4.8393528847,-0.7929622857,1.3930701509\C,1.6456570148,-0.4532138246,
 -0.3715657366\H,2.2725800749,0.4552254638,-0.2856918803\C,3.4074326811
 ,-2.0563909139,-0.4667271876\H,4.3301028497,-1.5467017594,-0.813816019
 1\O,2.3291089682,-1.4136051334,-1.2056979829\N,0.3958200257,-0.0982580
 427,-0.9566121285\C,-0.5626492546,-1.0931953411,-1.2151944343\H,-0.193
 0931484,-2.1034452746,-1.0523157399\C,-1.7597941116,-0.7832854634,-1.6
 83545617\H,-2.4752717409,-1.5760983837,-1.8945068287\C,-2.1825045766,0
 .6506526338,-1.8984304815\H,-2.8970847813,0.7652210516,-2.7290855091\H
 ,-2.7245850754,1.0750412539,-0.9064221533\C,-0.943166553,1.5355835663,
 -2.0472074908\C,0.2272614827,1.1704643594,-1.5164319801\H,1.1306162576
 ,1.7817112458,-1.5504075425\C,-1.1566686855,2.9107932245,-2.5874650695
 \O,-0.798293245,3.9072823221,-2.0240382059\N,-1.9746045447,3.018168631
 5,-3.6845320515\H,-1.9673821504,3.9428833083,-4.0843971334\H,-1.964304
 4299,2.2476875001,-4.330480045\C,0.9232338503,2.1308888358,3.798823051
 2\C,-0.910818258,2.0618727139,1.7231584953\C,-1.8219971025,2.664497171
 1,0.7936072534\C,-4.0388217992,2.9702510768,-0.3384857023\C,-3.0141925
 746,2.1262357102,0.4135096808\O,-0.9515160148,0.867773694,2.0954129068
 \S,0.2208933156,3.1429375993,2.4455028569\H,0.0762415422,1.6760620708,
 4.330480045\H,1.552426536,1.3494508356,3.3502684279\H,-4.8393528847,2.
 3381034536,-0.7349020561\H,-3.5426917414,3.520647041,-1.1485907374\H,-
 4.4755080826,3.7007324252,0.3604441434\H,-3.3872787172,1.2405323728,0.
 9480372624\H,-1.4875098516,3.6155738127,0.3671353405\H,2.6270341645,-4
 .0971298659,-0.3699411046\H,1.5167158435,2.7465494184,4.4747233181\\Ve
 rsion=ES64L-G16RevA.03\HF=-1507.8720659\RMSD=3.625e-09\RMSF=1.124e-02\
 Dipole=-0.024624,-0.9086884,-0.9339682\Quadrupole=10.1099544,-9.382228
 6,-0.7277258,-7.4293955,6.8291733,-2.3296842\PG=C01 [X(C16H24N2O5S1)]\
 \@


      LET US REMEMBER, PLEASE, THAT THE SEARCH FOR THE CONSTITUTION
      OF THE WORLD IS ONE OF THE GREATEST AND NOBLEST PROBLEMS PRESENTED 
      BY NATURE.

                                                  -- GALILEO
 Job cpu time:       0 days  7 hours  3 minutes 34.3 seconds.
 Elapsed time:       0 days  0 hours 26 minutes 38.2 seconds.
 File lengths (MBytes):  RWF=    435 Int=      0 D2E=      0 Chk=     48 Scr=      1
 Normal termination of Gaussian 16 at Wed Mar  8 14:52:34 2023.
