 Entering Gaussian System, Link 0=g16
 Initial command:
 /storage/apps/GAUSSIAN/G16_RevA03/g16/l1.exe "/scratch/tmp/1267148/Gau-99049.inp" -scrdir="/scratch/tmp/1267148/"
 Entering Link 1 = /storage/apps/GAUSSIAN/G16_RevA03/g16/l1.exe PID=     99050.
  
 Copyright (c) 1988,1990,1992,1993,1995,1998,2003,2009,2016,
            Gaussian, Inc.  All Rights Reserved.
  
 This is part of the Gaussian(R) 16 program.  It is based on
 the Gaussian(R) 09 system (copyright 2009, Gaussian, Inc.),
 the Gaussian(R) 03 system (copyright 2003, Gaussian, Inc.),
 the Gaussian(R) 98 system (copyright 1998, Gaussian, Inc.),
 the Gaussian(R) 94 system (copyright 1995, Gaussian, Inc.),
 the Gaussian 92(TM) system (copyright 1992, Gaussian, Inc.),
 the Gaussian 90(TM) system (copyright 1990, Gaussian, Inc.),
 the Gaussian 88(TM) system (copyright 1988, Gaussian, Inc.),
 the Gaussian 86(TM) system (copyright 1986, Carnegie Mellon
 University), and the Gaussian 82(TM) system (copyright 1983,
 Carnegie Mellon University). Gaussian is a federally registered
 trademark of Gaussian, Inc.
  
 This software contains proprietary and confidential information,
 including trade secrets, belonging to Gaussian, Inc.
  
 This software is provided under written license and may be
 used, copied, transmitted, or stored only in accord with that
 written license.
  
 The following legend is applicable only to US Government
 contracts under FAR:
  
                    RESTRICTED RIGHTS LEGEND
  
 Use, reproduction and disclosure by the US Government is
 subject to restrictions as set forth in subparagraphs (a)
 and (c) of the Commercial Computer Software - Restricted
 Rights clause in FAR 52.227-19.
  
 Gaussian, Inc.
 340 Quinnipiac St., Bldg. 40, Wallingford CT 06492
  
  
 ---------------------------------------------------------------
 Warning -- This program may not be used in any manner that
 competes with the business of Gaussian, Inc. or will provide
 assistance to any competitor of Gaussian, Inc.  The licensee
 of this program is prohibited from giving any competitor of
 Gaussian, Inc. access to this program.  By using this program,
 the user acknowledges that Gaussian, Inc. is engaged in the
 business of creating and licensing software in the field of
 computational chemistry and represents and warrants to the
 licensee that it is not a competitor of Gaussian, Inc. and that
 it will not use this program in any manner prohibited above.
 ---------------------------------------------------------------
  

 Cite this work as:
 Gaussian 16, Revision A.03,
 M. J. Frisch, G. W. Trucks, H. B. Schlegel, G. E. Scuseria, 
 M. A. Robb, J. R. Cheeseman, G. Scalmani, V. Barone, 
 G. A. Petersson, H. Nakatsuji, X. Li, M. Caricato, A. V. Marenich, 
 J. Bloino, B. G. Janesko, R. Gomperts, B. Mennucci, H. P. Hratchian, 
 J. V. Ortiz, A. F. Izmaylov, J. L. Sonnenberg, D. Williams-Young, 
 F. Ding, F. Lipparini, F. Egidi, J. Goings, B. Peng, A. Petrone, 
 T. Henderson, D. Ranasinghe, V. G. Zakrzewski, J. Gao, N. Rega, 
 G. Zheng, W. Liang, M. Hada, M. Ehara, K. Toyota, R. Fukuda, 
 J. Hasegawa, M. Ishida, T. Nakajima, Y. Honda, O. Kitao, H. Nakai, 
 T. Vreven, K. Throssell, J. A. Montgomery, Jr., J. E. Peralta, 
 F. Ogliaro, M. J. Bearpark, J. J. Heyd, E. N. Brothers, K. N. Kudin, 
 V. N. Staroverov, T. A. Keith, R. Kobayashi, J. Normand, 
 K. Raghavachari, A. P. Rendell, J. C. Burant, S. S. Iyengar, 
 J. Tomasi, M. Cossi, J. M. Millam, M. Klene, C. Adamo, R. Cammi, 
 J. W. Ochterski, R. L. Martin, K. Morokuma, O. Farkas, 
 J. B. Foresman, and D. J. Fox, Gaussian, Inc., Wallingford CT, 2016.
 
 ******************************************
 Gaussian 16:  ES64L-G16RevA.03 25-Dec-2016
                19-Feb-2023 
 ******************************************
 %chk=gau_job.chk
 %NProcShared=16
 Will use up to   16 processors via shared memory.
 %mem=20GB
 ----------------------------------------------------------------------
 #P M062X/Def2TZVP scf=(direct,conver=8) EmpiricalDispersion=GD3 NoSymm
  Force pop=(NBORead) Charge Prop=(Field,Read)
 ----------------------------------------------------------------------
 1/10=7,18=10,28=-2,30=1,38=1,125=101/1,3;
 2/12=2,15=1,17=6,18=5,29=2,40=1/2;
 3/5=44,7=101,11=2,25=1,30=1,71=1,74=-55,124=31/1,2,3;
 4//1;
 5/5=2,6=8,38=5/2;
 6/7=2,8=2,9=2,10=2,14=2,15=1,28=1,40=2/1,2,7;
 7/7=1,16=-2,29=1,30=1/1,2,3,16;
 1/10=7,18=10,28=-2,30=1/3;
 99/12=1/99;
 Leave Link    1 at Sun Feb 19 04:00:34 2023, MaxMem=  2684354560 cpu:               0.6 elap:               0.0
 (Enter /storage/apps/GAUSSIAN/G16_RevA03/g16/l101.exe)
 ----------------------------------------------------------------------
 Gaussian run using SANDER external interface, route from template gau_
 job.tpl
 ----------------------------------------------------------------------
 Symbolic Z-matrix:
 Charge =  0 Multiplicity = 1
 C                     3.41855  -3.818    -0.72662 
 H                     3.4877   -3.95569  -1.81407 
 H                     4.3202   -4.21846  -0.24251 
 C                     1.588    -1.53352   0.99193 
 H                     0.9697   -2.44383   0.86791 
 O                     1.11197  -0.76531   2.05734 
 H                     0.5201   -0.07725   1.7052 
 C                     3.04579  -1.98786   1.0822 
 H                     3.16842  -2.87601   1.72848 
 O                     3.83097  -0.92611   1.54434 
 H                     4.7737   -1.10391   1.30274 
 C                     1.60712  -0.8067   -0.35303 
 H                     2.16061   0.13573  -0.20887 
 C                     3.33266  -2.33192  -0.40901 
 H                     4.3012   -1.88671  -0.68392 
 O                     2.30813  -1.71065  -1.17725 
 N                     0.33112  -0.48099  -0.89601 
 C                    -0.60844  -1.49578  -1.09195 
 H                    -0.29566  -2.49667  -0.79805 
 C                    -1.79367  -1.27575  -1.66937 
 H                    -2.47275  -2.11674  -1.81237 
 C                    -2.22276   0.08956  -2.12906 
 H                    -2.70363   0.02052  -3.11544 
 H                    -3.01417   0.49946  -1.45868 
 C                    -1.04439   1.03312  -2.14991 
 C                     0.11683   0.73479  -1.5376 
 H                     0.95796   1.43509  -1.56065 
 C                    -1.16248   2.36864  -2.80235 
 O                    -0.43718   3.30652  -2.49869 
 N                    -2.1564    2.50169  -3.72071 
 H                    -2.10934   3.37258  -4.24374 
 H                    -2.49856   1.69569  -4.24692 
 C                     0.51675   2.12621   3.71994 
 C                    -1.09097   2.22812   1.48374 
 C                    -1.82601   2.98502   0.45104 
 C                    -3.85137   3.34504  -0.95879 
 C                    -3.00046   2.55107  -0.02256 
 O                    -1.15594   1.02749   1.66922 
 S                    -0.15211   3.298     2.52032 
 H                    -0.31735   1.64462   4.24692 
 H                     1.09429   1.35238   3.19775 
 H                    -4.1468    2.75099  -1.83274 
 H                    -3.30321   4.21846  -1.33341 
 H                    -4.7737    3.67762  -0.45263 
 H                    -3.38303   1.59257   0.34937 
 H                    -1.39405   3.93388   0.11184 
 H                     2.52283  -4.31027  -0.34785 
 H                     1.15242   2.64288   4.43902 
 
 ITRead=  0  0  0  0  0  0  0  0  0  0  0  0  0  0  0  0  0  0  0  0
 ITRead=  0  0  0  0  0  0  0  0  0  0  0  0  0  0  0  0  0  0  0  0
 ITRead=  0  0  0  0  0  0  0  0
 MicOpt= -1 -1 -1 -1 -1 -1 -1 -1 -1 -1 -1 -1 -1 -1 -1 -1 -1 -1 -1 -1
 MicOpt= -1 -1 -1 -1 -1 -1 -1 -1 -1 -1 -1 -1 -1 -1 -1 -1 -1 -1 -1 -1
 MicOpt= -1 -1 -1 -1 -1 -1 -1 -1
 NAtoms=     48 NQM=       48 NQMF=       0 NMMI=      0 NMMIF=      0
                NMic=       0 NMicF=      0.
                    Isotopes and Nuclear Properties:
 (Nuclear quadrupole moments (NQMom) in fm**2, nuclear magnetic moments (NMagM)
  in nuclear magnetons)

  Atom         1           2           3           4           5           6           7           8           9          10
 IAtWgt=          12           1           1          12           1          16           1          12           1          16
 AtmWgt=  12.0000000   1.0078250   1.0078250  12.0000000   1.0078250  15.9949146   1.0078250  12.0000000   1.0078250  15.9949146
 NucSpn=           0           1           1           0           1           0           1           0           1           0
 AtZEff=  -0.0000000  -0.0000000  -0.0000000  -0.0000000  -0.0000000  -0.0000000  -0.0000000  -0.0000000  -0.0000000  -0.0000000
 NQMom=    0.0000000   0.0000000   0.0000000   0.0000000   0.0000000   0.0000000   0.0000000   0.0000000   0.0000000   0.0000000
 NMagM=    0.0000000   2.7928460   2.7928460   0.0000000   2.7928460   0.0000000   2.7928460   0.0000000   2.7928460   0.0000000
 AtZNuc=   6.0000000   1.0000000   1.0000000   6.0000000   1.0000000   8.0000000   1.0000000   6.0000000   1.0000000   8.0000000

  Atom        11          12          13          14          15          16          17          18          19          20
 IAtWgt=           1          12           1          12           1          16          14          12           1          12
 AtmWgt=   1.0078250  12.0000000   1.0078250  12.0000000   1.0078250  15.9949146  14.0030740  12.0000000   1.0078250  12.0000000
 NucSpn=           1           0           1           0           1           0           2           0           1           0
 AtZEff=  -0.0000000  -0.0000000  -0.0000000  -0.0000000  -0.0000000  -0.0000000  -0.0000000  -0.0000000  -0.0000000  -0.0000000
 NQMom=    0.0000000   0.0000000   0.0000000   0.0000000   0.0000000   0.0000000   2.0440000   0.0000000   0.0000000   0.0000000
 NMagM=    2.7928460   0.0000000   2.7928460   0.0000000   2.7928460   0.0000000   0.4037610   0.0000000   2.7928460   0.0000000
 AtZNuc=   1.0000000   6.0000000   1.0000000   6.0000000   1.0000000   8.0000000   7.0000000   6.0000000   1.0000000   6.0000000

  Atom        21          22          23          24          25          26          27          28          29          30
 IAtWgt=           1          12           1           1          12          12           1          12          16          14
 AtmWgt=   1.0078250  12.0000000   1.0078250   1.0078250  12.0000000  12.0000000   1.0078250  12.0000000  15.9949146  14.0030740
 NucSpn=           1           0           1           1           0           0           1           0           0           2
 AtZEff=  -0.0000000  -0.0000000  -0.0000000  -0.0000000  -0.0000000  -0.0000000  -0.0000000  -0.0000000  -0.0000000  -0.0000000
 NQMom=    0.0000000   0.0000000   0.0000000   0.0000000   0.0000000   0.0000000   0.0000000   0.0000000   0.0000000   2.0440000
 NMagM=    2.7928460   0.0000000   2.7928460   2.7928460   0.0000000   0.0000000   2.7928460   0.0000000   0.0000000   0.4037610
 AtZNuc=   1.0000000   6.0000000   1.0000000   1.0000000   6.0000000   6.0000000   1.0000000   6.0000000   8.0000000   7.0000000

  Atom        31          32          33          34          35          36          37          38          39          40
 IAtWgt=           1           1          12          12          12          12          12          16          32           1
 AtmWgt=   1.0078250   1.0078250  12.0000000  12.0000000  12.0000000  12.0000000  12.0000000  15.9949146  31.9720718   1.0078250
 NucSpn=           1           1           0           0           0           0           0           0           0           1
 AtZEff=  -0.0000000  -0.0000000  -0.0000000  -0.0000000  -0.0000000  -0.0000000  -0.0000000  -0.0000000  -0.0000000  -0.0000000
 NQMom=    0.0000000   0.0000000   0.0000000   0.0000000   0.0000000   0.0000000   0.0000000   0.0000000   0.0000000   0.0000000
 NMagM=    2.7928460   2.7928460   0.0000000   0.0000000   0.0000000   0.0000000   0.0000000   0.0000000   0.0000000   2.7928460
 AtZNuc=   1.0000000   1.0000000   6.0000000   6.0000000   6.0000000   6.0000000   6.0000000   8.0000000  16.0000000   1.0000000

  Atom        41          42          43          44          45          46          47          48
 IAtWgt=           1           1           1           1           1           1           1           1
 AtmWgt=   1.0078250   1.0078250   1.0078250   1.0078250   1.0078250   1.0078250   1.0078250   1.0078250
 NucSpn=           1           1           1           1           1           1           1           1
 AtZEff=  -0.0000000  -0.0000000  -0.0000000  -0.0000000  -0.0000000  -0.0000000  -0.0000000  -0.0000000
 NQMom=    0.0000000   0.0000000   0.0000000   0.0000000   0.0000000   0.0000000   0.0000000   0.0000000
 NMagM=    2.7928460   2.7928460   2.7928460   2.7928460   2.7928460   2.7928460   2.7928460   2.7928460
 AtZNuc=   1.0000000   1.0000000   1.0000000   1.0000000   1.0000000   1.0000000   1.0000000   1.0000000
 Background charge distribution read from input stream:
 Leave Link  101 at Sun Feb 19 04:00:34 2023, MaxMem=  2684354560 cpu:               1.5 elap:               0.1
 (Enter /storage/apps/GAUSSIAN/G16_RevA03/g16/l103.exe)

 GradGradGradGradGradGradGradGradGradGradGradGradGradGradGradGradGradGrad
 Berny optimization.
 Initialization pass.
 Trust Radius=3.00D-01 FncErr=1.00D-07 GrdErr=1.00D-07 EigMax=2.50D+02 EigMin=1.00D-04
 Number of steps in this run=      2 maximum allowed number of steps=      2.
 GradGradGradGradGradGradGradGradGradGradGradGradGradGradGradGradGradGrad

 Leave Link  103 at Sun Feb 19 04:00:34 2023, MaxMem=  2684354560 cpu:               0.3 elap:               0.0
 (Enter /storage/apps/GAUSSIAN/G16_RevA03/g16/l202.exe)
 ---------------------------------------------------------------------------------------------------
                            Z-MATRIX (ANGSTROMS AND DEGREES)
   CD    Cent   Atom    N1       Length/X        N2       Alpha/Y        N3        Beta/Z          J
 ---------------------------------------------------------------------------------------------------
      1      1  C        0   3.418548         -3.817998         -0.726616
      2      2  H        0   3.487697         -3.955694         -1.814073
      3      3  H        0   4.320202         -4.218460         -0.242511
      4      4  C        0   1.588001         -1.533519          0.991926
      5      5  H        0   0.969699         -2.443827          0.867913
      6      6  O        0   1.111973         -0.765310          2.057338
      7      7  H        0   0.520105         -0.077250          1.705204
      8      8  C        0   3.045792         -1.987862          1.082205
      9      9  H        0   3.168422         -2.876013          1.728479
     10     10  O        0   3.830968         -0.926109          1.544339
     11     11  H        0   4.773705         -1.103915          1.302737
     12     12  C        0   1.607116         -0.806698         -0.353032
     13     13  H        0   2.160610          0.135726         -0.208867
     14     14  C        0   3.332658         -2.331920         -0.409008
     15     15  H        0   4.301199         -1.886713         -0.683921
     16     16  O        0   2.308130         -1.710649         -1.177246
     17     17  N        0   0.331119         -0.480987         -0.896010
     18     18  C        0  -0.608440         -1.495781         -1.091947
     19     19  H        0  -0.295664         -2.496671         -0.798048
     20     20  C        0  -1.793665         -1.275746         -1.669372
     21     21  H        0  -2.472749         -2.116739         -1.812372
     22     22  C        0  -2.222759          0.089556         -2.129058
     23     23  H        0  -2.703627          0.020524         -3.115440
     24     24  H        0  -3.014171          0.499462         -1.458683
     25     25  C        0  -1.044394          1.033118         -2.149913
     26     26  C        0   0.116827          0.734792         -1.537602
     27     27  H        0   0.957960          1.435093         -1.560648
     28     28  C        0  -1.162484          2.368645         -2.802350
     29     29  O        0  -0.437184          3.306518         -2.498687
     30     30  N        0  -2.156397          2.501686         -3.720712
     31     31  H        0  -2.109336          3.372584         -4.243741
     32     32  H        0  -2.498563          1.695693         -4.246917
     33     33  C        0   0.516752          2.126206          3.719939
     34     34  C        0  -1.090973          2.228122          1.483738
     35     35  C        0  -1.826008          2.985023          0.451037
     36     36  C        0  -3.851373          3.345038         -0.958793
     37     37  C        0  -3.000457          2.551074         -0.022560
     38     38  O        0  -1.155943          1.027494          1.669222
     39     39  S        0  -0.152106          3.298001          2.520322
     40     40  H        0  -0.317348          1.644617          4.246917
     41     41  H        0   1.094286          1.352382          3.197749
     42     42  H        0  -4.146797          2.750994         -1.832744
     43     43  H        0  -3.303208          4.218460         -1.333411
     44     44  H        0  -4.773705          3.677623         -0.452628
     45     45  H        0  -3.383031          1.592574          0.349366
     46     46  H        0  -1.394053          3.933876          0.111843
     47     47  H        0   2.522830         -4.310265         -0.347853
     48     48  H        0   1.152417          2.642875          4.439023
 ---------------------------------------------------------------------------------------------------
                         Z-Matrix orientation:                         
 ---------------------------------------------------------------------
 Center     Atomic      Atomic             Coordinates (Angstroms)
 Number     Number       Type             X           Y           Z
 ---------------------------------------------------------------------
      1          6           0        3.418548   -3.817998   -0.726616
      2          1           0        3.487697   -3.955694   -1.814073
      3          1           0        4.320202   -4.218460   -0.242511
      4          6           0        1.588001   -1.533519    0.991926
      5          1           0        0.969699   -2.443827    0.867913
      6          8           0        1.111973   -0.765310    2.057338
      7          1           0        0.520105   -0.077250    1.705204
      8          6           0        3.045792   -1.987862    1.082205
      9          1           0        3.168422   -2.876013    1.728479
     10          8           0        3.830968   -0.926109    1.544339
     11          1           0        4.773705   -1.103915    1.302737
     12          6           0        1.607116   -0.806698   -0.353032
     13          1           0        2.160610    0.135726   -0.208867
     14          6           0        3.332658   -2.331920   -0.409008
     15          1           0        4.301199   -1.886713   -0.683921
     16          8           0        2.308130   -1.710649   -1.177246
     17          7           0        0.331119   -0.480987   -0.896010
     18          6           0       -0.608440   -1.495781   -1.091947
     19          1           0       -0.295664   -2.496671   -0.798048
     20          6           0       -1.793665   -1.275746   -1.669372
     21          1           0       -2.472749   -2.116739   -1.812372
     22          6           0       -2.222759    0.089556   -2.129058
     23          1           0       -2.703627    0.020524   -3.115440
     24          1           0       -3.014171    0.499462   -1.458683
     25          6           0       -1.044394    1.033118   -2.149913
     26          6           0        0.116827    0.734792   -1.537602
     27          1           0        0.957960    1.435093   -1.560648
     28          6           0       -1.162484    2.368645   -2.802350
     29          8           0       -0.437184    3.306518   -2.498687
     30          7           0       -2.156397    2.501686   -3.720712
     31          1           0       -2.109336    3.372584   -4.243741
     32          1           0       -2.498563    1.695693   -4.246917
     33          6           0        0.516752    2.126206    3.719939
     34          6           0       -1.090973    2.228122    1.483738
     35          6           0       -1.826008    2.985023    0.451037
     36          6           0       -3.851373    3.345038   -0.958793
     37          6           0       -3.000457    2.551074   -0.022560
     38          8           0       -1.155943    1.027494    1.669222
     39         16           0       -0.152106    3.298001    2.520322
     40          1           0       -0.317348    1.644617    4.246917
     41          1           0        1.094286    1.352382    3.197749
     42          1           0       -4.146797    2.750994   -1.832744
     43          1           0       -3.303208    4.218460   -1.333411
     44          1           0       -4.773705    3.677623   -0.452628
     45          1           0       -3.383031    1.592574    0.349366
     46          1           0       -1.394053    3.933876    0.111843
     47          1           0        2.522830   -4.310265   -0.347853
     48          1           0        1.152417    2.642875    4.439023
 ---------------------------------------------------------------------
                    Distance matrix (angstroms):
                    1          2          3          4          5
     1  C    0.000000
     2  H    1.098319   0.000000
     3  H    1.098957   1.797754   0.000000
     4  C    3.394575   4.165263   4.024632   0.000000
     5  H    3.229200   3.977324   3.950725   1.107400   0.000000
     6  O    4.731764   5.550715   5.244642   1.397086   2.062132
     7  H    5.320519   6.019489   5.948441   1.941620   2.550270
     8  C    2.600034   3.529316   2.890425   1.529619   2.136349
     9  H    2.641475   3.717167   2.648313   2.200575   2.400363
    10  O    3.700047   4.535985   3.777798   2.388516   3.308758
    11  H    3.649791   4.415991   3.506259   3.229532   4.056464
    12  C    3.533947   3.948089   4.360409   1.528904   2.139438
    13  H    4.181197   4.591031   4.860442   2.134517   3.038390
    14  C    1.522065   2.152879   2.135883   2.375687   2.688238
    15  H    2.123855   2.493936   2.373236   3.208528   3.717184
    16  O    2.424256   2.614795   3.348324   2.292437   2.551788
    17  N    4.549347   4.783348   5.505320   2.500376   2.715134
    18  C    4.662917   4.832285   5.694386   3.027921   2.688934
    19  H    3.942890   4.180296   4.957761   2.771257   2.092693
    20  C    5.875288   5.924175   6.933604   4.310988   3.929175
    21  H    6.227401   6.237682   7.281886   4.969298   4.375084
    22  C    7.004297   7.005182   8.057816   5.186213   5.058820
    23  H    7.610635   7.472373   8.692346   6.140324   5.952601
    24  H    7.781790   7.889804   8.805162   5.596291   5.472405
    25  C    6.743660   6.748398   7.745717   4.836143   5.025235
    26  C    5.682162   5.782721   6.624223   3.702446   4.076459
    27  H    5.860467   5.960234   6.708563   3.965507   4.576469
    28  C    7.973022   7.911898   8.944415   6.098244   6.416924
    29  O    8.292505   8.283303   9.184135   6.301723   6.810271
    30  N    8.943323   8.785717   9.960149   7.246541   7.435460
    31  H    9.727906   9.535918  10.722535   8.071701   8.333073
    32  H    8.820743   8.584416   9.874615   7.387373   7.438142
    33  C    7.970310   8.743072   8.391783   4.688626   5.405961
    34  C    7.859835   8.371342   8.591808   4.644214   5.143220
    35  C    8.670256   9.029936   9.494581   5.689046   6.120636
    36  C   10.208563  10.387211  11.157697   7.562567   7.751810
    37  C    9.069973   9.361821   9.973315   6.226317   6.442369
    38  O    7.081300   7.650418   7.820672   3.814019   4.148556
    39  S    8.598234   9.200612   9.172348   5.357943   6.079268
    40  H    8.278473   9.087214   8.719949   4.932126   5.457979
    41  H    6.894612   7.682608   7.299055   3.665766   4.455879
    42  H   10.080160  10.161964  11.081164   7.695695   7.775490
    43  H   10.494516  10.637867  11.423137   7.900404   8.215207
    44  H   11.107314  11.330129  12.045390   8.349493   8.497215
    45  H    8.757483   9.092340   9.667380   5.907326   5.958833
    46  H    9.162734   9.475545   9.961870   6.289642   6.843541
    47  H    1.090000   1.790668   1.802796   3.221681   2.715491
    48  H    8.576833   9.385940   8.889856   5.432723   6.217777
                    6          7          8          9         10
     6  O    0.000000
     7  H    0.973516   0.000000
     8  C    2.487000   3.227640   0.000000
     9  H    2.965164   3.853206   1.105224   0.000000
    10  O    2.771634   3.421733   1.399067   2.067607   0.000000
    11  H    3.753978   4.394216   1.953377   2.428687   0.989313
    12  C    2.461049   2.439267   2.350498   3.324519   2.925713
    13  H    2.654654   2.529878   2.638188   3.720156   2.644111
    14  C    3.669955   4.178981   1.557043   2.211755   2.457678
    15  H    4.352379   4.824805   2.169211   2.842810   2.471643
    16  O    3.575890   3.764777   2.392929   3.246754   3.215830
    17  N    3.068035   2.639135   3.681502   4.546909   4.289800
    18  C    3.662158   3.333151   4.280478   4.911673   5.194504
    19  H    3.623849   3.575661   3.867760   4.304316   4.998253
    20  C    4.753067   4.263530   5.612364   6.223227   6.487425
    21  H    5.445295   5.048765   6.232934   6.703501   7.240301
    22  C    5.420069   4.717276   6.510415   7.262233   7.153533
    23  H    6.475644   5.800053   7.396597   8.144596   8.081496
    24  H    5.566607   4.778481   7.026097   7.731512   7.609620
    25  C    5.058183   4.306100   6.025157   6.933328   6.423023
    26  C    4.020475   3.367171   4.780698   5.746080   5.104096
    27  H    4.237371   3.625560   4.802118   5.855778   4.844626
    28  C    6.213806   5.397365   7.195728   8.172612   7.394841
    29  O    6.303732   5.480784   7.279036   8.312221   7.244192
    30  N    7.398741   6.576864   8.383723   9.325611   8.678657
    31  H    8.197719   7.362422   9.147427  10.127542   9.341726
    32  H    7.670471   6.905318   8.526897   9.419159   8.970811
    33  C    3.388126   2.985697   5.502658   6.001621   5.003388
    34  C    3.760668   2.821233   5.920183   6.652408   5.846225
    35  C    5.027618   4.056439   6.990164   7.805635   6.963738
    36  C    7.115253   6.157821   8.954127   9.757071   9.139297
    37  C    5.677716   4.720976   7.640652   8.400862   7.823959
    38  O    2.916886   2.007707   5.204953   5.825891   5.357372
    39  S    4.280509   3.536751   6.343113   7.054883   5.887320
    40  H    3.555976   3.182210   5.875459   6.239329   5.578628
    41  H    2.405301   2.145046   4.409211   4.933571   3.926158
    42  H    7.426425   6.503538   9.093240   9.892317   9.411191
    43  H    7.471878   6.504154   9.201273  10.079122   9.254431
    44  H    7.789788   6.839571   9.777421  10.525434   9.961055
    45  H    5.355544   4.456577   7.395021   8.049333   7.733919
    46  H    5.669874   4.721433   7.464637   8.354895   7.278210
    47  H    4.510229   5.113156   2.777069   2.604808   4.091959
    48  H    4.158100   3.908026   6.024685   6.470661   5.318974
                   11         12         13         14         15
    11  H    0.000000
    12  C    3.585694   0.000000
    13  H    3.263422   1.102408   0.000000
    14  C    2.552388   2.303678   2.739166   0.000000
    15  H    2.186972   2.921301   2.982961   1.100844   0.000000
    16  O    3.549296   1.409921   2.090124   1.423315   2.060750
    17  N    4.995908   1.424458   2.049277   3.559826   4.216939
    18  C    5.903859   2.435059   3.333058   4.086292   4.942050
    19  H    5.661411   2.583528   3.648278   3.652837   4.638558
    20  C    7.210639   3.676692   4.445404   5.383606   6.204173
    21  H    7.952409   4.526718   5.395631   5.976494   6.871148
    22  C    7.883660   4.315725   4.785727   6.299585   6.968219
    23  H    8.757576   5.186299   5.667648   7.021076   7.656201
    24  H    8.417082   4.927962   5.335981   7.028569   7.733609
    25  C    7.094926   3.693806   3.852924   5.789025   6.264974
    26  C    5.756291   2.449563   2.510272   4.584759   5.010990
    27  H    5.404207   2.627807   2.227563   4.599550   4.793776
    28  C    8.009291   4.873668   4.770223   6.930346   7.242074
    29  O    7.813841   5.069669   4.695289   7.097214   7.260530
    30  N    9.287718   6.037442   6.047096   8.028752   8.377391
    31  H    9.908518   6.812931   6.707451   8.767089   9.023718
    32  H    9.566731   6.187156   6.359814   8.059426   8.471442
    33  C    5.864997   5.136138   4.701042   6.697195   7.058295
    34  C    6.747568   4.456853   4.220879   6.629101   7.120823
    35  C    7.810315   5.177839   4.944400   7.457975   7.909779
    36  C    9.964923   6.884691   6.856094   9.172809   9.690779
    37  C    8.692120   5.710829   5.701336   8.006330   8.570036
    38  O    6.311730   3.884362   3.914331   5.979318   6.618933
    39  S    6.717365   5.310328   4.774633   7.240205   7.548534
    40  H    6.491644   5.556261   5.317052   7.128326   7.623282
    41  H    4.812753   4.187203   3.771251   5.620773   5.986935
    42  H   10.211117   6.924899   7.018546   9.154523   9.705501
    43  H   10.025641   7.093986   6.912787   9.369990   9.773534
    44  H   10.821157   7.799611   7.790326  10.091067  10.647497
    45  H    8.643628   5.581347   5.758991   7.815194   8.498265
    46  H    8.052254   5.629935   5.211950   7.865957   8.182199
    47  H    4.251067   3.621262   4.462886   2.138554   3.024755
    48  H    6.081813   5.922002   5.376350   7.280484   7.528383
                   16         17         18         19         20
    16  O    0.000000
    17  N    2.345151   0.000000
    18  C    2.925718   1.396770   0.000000
    19  H    2.746155   2.113158   1.089030   0.000000
    20  C    4.154041   2.396756   1.336635   2.119875   0.000000
    21  H    4.839948   3.372992   2.092905   2.431645   1.090355
    22  C    4.967458   2.892787   2.488959   3.489105   1.503157
    23  H    5.645464   3.793028   3.283826   4.183881   2.144635
    24  H    5.769808   3.531125   3.146908   4.099211   2.164575
    25  C    4.440017   2.399338   2.775729   3.853251   2.474505
    26  C    3.303309   1.391288   2.387483   3.340576   2.776618
    27  H    3.444656   2.122743   3.356085   4.196654   3.864183
    28  C    5.597032   3.739703   4.262185   5.332907   3.868283
    29  O    5.869832   4.183785   5.007027   6.048901   4.850252
    30  N    6.644170   4.802397   5.028550   6.081765   4.313764
    31  H    7.399775   5.658015   5.990615   7.043462   5.322969
    32  H    6.643067   4.896285   4.869487   5.858615   3.996256
    33  C    6.474018   5.304611   6.126915   6.514846   6.779084
    34  C    5.843685   3.876186   4.553509   5.306857   4.765813
    35  C    6.464653   4.298949   4.892942   5.826761   4.759342
    36  C    7.971649   5.668832   5.828197   6.840649   5.107909
    37  C    6.904830   4.588650   4.821034   5.779015   4.337383
    38  O    5.253533   3.326753   3.780308   4.387168   4.105827
    39  S    6.694128   5.117186   6.019724   6.679103   6.416184
    40  H    6.897281   5.602535   6.200831   6.527052   6.760955
    41  H    5.476875   4.550004   5.423357   5.719578   6.239887
    42  H    7.874136   5.601330   5.577082   6.590888   4.666750
    43  H    8.164915   5.956883   6.322391   7.377325   5.707704
    44  H    8.928098   6.599231   6.672501   7.635056   5.907365
    45  H    6.755083   4.432328   4.394733   5.250745   3.850798
    46  H    6.872305   4.845926   5.616713   6.586828   5.520197
    47  H    2.737150   4.446059   4.275494   3.381672   5.439379
    48  H    7.199398   6.236636   7.128866   7.479224   7.832464
                   21         22         23         24         25
    21  H    0.000000
    22  C    2.242883   0.000000
    23  H    2.513800   1.099522   0.000000
    24  H    2.694947   1.115240   1.752331   0.000000
    25  C    3.475015   1.509731   2.170401   2.154671   0.000000
    26  C    3.861688   2.497962   3.309790   3.140821   1.346238
    27  H    4.944557   3.500076   4.222037   4.082110   2.125615
    28  C    4.776560   2.602259   2.826096   2.954324   1.491057
    29  O    5.833205   3.697803   4.039171   3.949941   2.378802
    30  N    5.007165   2.890699   2.611892   3.140296   2.420879
    31  H    6.014674   3.906792   3.586440   4.102451   3.315316
    32  H    4.523529   2.672278   2.031866   3.077511   2.636482
    33  C    7.585919   6.772269   7.843924   6.475479   6.171481
    34  C    5.625963   4.348184   5.350381   3.917243   3.825392
    35  C    5.618654   3.898466   4.719982   3.352130   3.344517
    36  C    5.697387   3.823620   4.125632   3.008007   3.826601
    37  C    5.026966   3.331850   4.007206   2.504347   3.264353
    38  O    4.872543   4.055214   5.128577   3.676359   3.820767
    39  S    7.312799   6.016516   7.000995   5.644087   5.266590
    40  H    7.450405   6.833876   7.907990   6.413899   6.466989
    41  H    7.061151   6.400968   7.486945   6.268113   5.768307
    42  H    5.147589   3.297420   3.344176   2.547972   3.560421
    43  H    6.407325   4.341460   4.599760   3.732316   3.989401
    44  H    6.381061   4.710835   4.974954   3.769458   4.876673
    45  H    4.388705   3.122160   3.864947   2.144759   3.468228
    46  H    6.440197   4.526278   5.238766   4.109323   3.694888
    47  H    5.649086   6.712058   7.330152   7.417937   6.672649
    48  H    8.653075   7.813511   8.877822   7.532438   7.129613
                   26         27         28         29         30
    26  C    0.000000
    27  H    1.094740   0.000000
    28  C    2.430164   2.628616   0.000000
    29  O    2.800783   2.515666   1.223878   0.000000
    30  N    3.613230   3.937349   1.359762   2.257608   0.000000
    31  H    4.385993   4.512335   1.995503   2.417782   1.016974
    32  H    3.886384   4.385373   2.079602   3.146481   1.021564
    33  C    5.453229   5.343865   6.739351   6.401128   7.915175
    34  C    3.580128   3.754371   4.288987   4.177331   5.319424
    35  C    3.576707   3.768240   3.377086   3.276135   4.212631
    36  C    4.784874   5.209588   3.403259   3.745590   3.348490
    37  C    3.913016   4.390921   3.337462   3.643113   3.793575
    38  O    3.462563   3.881595   4.668370   4.804376   5.676755
    39  S    4.807194   4.621362   5.496854   5.027106   6.603167
    40  H    5.871708   5.949632   7.136570   6.948341   8.221909
    41  H    4.874464   4.761068   6.490530   6.213971   7.730003
    42  H    4.725534   5.278652   3.161084   3.809635   2.754682
    43  H    4.886131   5.094734   3.187836   3.225461   3.156216
    44  H    5.809882   6.253689   4.502836   4.809313   4.348966
    45  H    4.067609   4.745224   3.932737   4.441511   4.347028
    46  H    3.903532   3.817473   3.316036   2.850271   4.161829
    47  H    5.714626   6.076910   8.013359   8.450039   8.926030
    48  H    6.358717   6.123121   7.607329   7.148362   8.806218
                   31         32         33         34         35
    31  H    0.000000
    32  H    1.721473   0.000000
    33  C    8.477617   8.529259   0.000000
    34  C    5.928817   5.924964   2.756040   0.000000
    35  C    4.719260   4.917873   4.112397   1.476363   0.000000
    36  C    3.718377   3.919463   6.515874   3.851399   2.493860
    37  C    4.391736   4.339213   5.153403   2.453439   1.338632
    38  O    6.432071   6.103263   2.865400   1.216606   2.401017
    39  S    7.041936   7.339535   1.805424   1.760858   2.679896
    40  H    8.848071   8.769579   1.097888   2.928161   4.299005
    41  H    8.349861   8.273420   1.097739   2.912062   4.328748
    42  H    3.217223   3.107823   7.278141   4.539880   3.264428
    43  H    3.257431   3.937045   6.671279   4.097775   2.624450
    44  H    4.643753   4.847777   6.914199   4.406028   3.159940
    45  H    5.087962   4.681744   5.182068   2.635195   2.091309
    46  H    4.449471   5.022768   4.465109   2.209876   1.096339
    47  H    9.780648   8.745777   7.873972   7.691866   8.530642
    48  H    9.303865   9.469549   1.090000   3.733434   4.989200
                   36         37         38         39         40
    36  C    0.000000
    37  C    1.493644   0.000000
    38  O    4.420727   2.930129   0.000000
    39  S    5.078488   3.890662   2.624359   0.000000
    40  H    6.517682   5.123394   2.780034   2.396271   0.000000
    41  H    6.760700   5.345481   2.739612   2.407869   1.782937
    42  H    1.097248   2.151936   4.917258   5.933461   7.269871
    43  H    1.097127   2.142466   4.879428   5.062405   6.832282
    44  H    1.103409   2.144407   4.961213   5.508332   6.788074
    45  H    2.236460   1.097002   2.649766   4.249754   4.959034
    46  H    2.744343   2.123850   3.305931   2.783440   4.847559
    47  H    9.980350   8.814221   6.789229   8.559640   8.039847
    48  H    7.393739   6.095943   3.950922   2.410889   1.787074
                   41         42         43         44         45
    41  H    0.000000
    42  H    7.398035   0.000000
    43  H    6.934245   1.764776   0.000000
    44  H    7.291455   1.776619   1.797399   0.000000
    45  H    5.312000   2.585900   3.119837   2.631463   0.000000
    46  H    4.730619   3.571867   2.411352   3.436036   3.081257
    47  H    6.832101   9.825996  10.375606  10.819277   8.379070
    48  H    1.791511   8.211481   7.460299   7.753572   6.196670
                   46         47         48
    46  H    0.000000
    47  H    9.138881   0.000000
    48  H    5.184176   8.552098   0.000000
 Symmetry turned off by external request.
 Stoichiometry    C16H24N2O5S
 Framework group  C1[X(C16H24N2O5S)]
 Deg. of freedom   138
 Full point group                 C1      NOp   1
 Rotational constants (GHZ):           0.2874504           0.1634206           0.1211760
 Leave Link  202 at Sun Feb 19 04:00:34 2023, MaxMem=  2684354560 cpu:               0.2 elap:               0.0
 (Enter /storage/apps/GAUSSIAN/G16_RevA03/g16/l301.exe)
 Standard basis: def2TZVP (5D, 7F)
 Ernie: Thresh=  0.10000D-02 Tol=  0.10000D-05 Strict=F.
   894 basis functions,  1434 primitive gaussians,  1014 cartesian basis functions
    95 alpha electrons       95 beta electrons
       nuclear repulsion energy      2417.4202630849 Hartrees.
 IExCor= 4336 DFT=T Ex+Corr=M062X ExCW=0 ScaHFX=  0.540000
 ScaDFX=  1.000000  1.000000  1.000000  1.000000 ScalE2=  1.000000  1.000000
 IRadAn=      5 IRanWt=     -1 IRanGd=            0 ICorTp=0 IEmpDi=131
 NAtoms=   48 NActive=   48 NUniq=   48 SFac= 1.00D+00 NAtFMM=   60 NAOKFM=F Big=F
 Integral buffers will be    131072 words long.
 Raffenetti 2 integral format.
 Two-electron integral symmetry is turned off.
 R6Disp:  Grimme-D3 Dispersion energy=       -0.0041355146 Hartrees.
 Nuclear repulsion after empirical dispersion term =     2417.4161275702 Hartrees.
 Leave Link  301 at Sun Feb 19 04:00:34 2023, MaxMem=  2684354560 cpu:               0.8 elap:               0.1
 (Enter /storage/apps/GAUSSIAN/G16_RevA03/g16/l302.exe)
 NPDir=0 NMtPBC=     1 NCelOv=     1 NCel=       1 NClECP=     1 NCelD=      1
         NCelK=      1 NCelE2=     1 NClLst=     1 CellRange=     0.0.
 One-electron integrals computed using PRISM.
   1 Symmetry operations used in ECPInt.
 ECPInt:  NShTT=   65703 NPrTT=  200010 LenC2=   55742 LenP2D=  117912.
 LDataN:  DoStor=T MaxTD1= 6 Len=  172
 NBasis=   894 RedAO= T EigKep=  3.12D-05  NBF=   894
 NBsUse=   894 1.00D-06 EigRej= -1.00D+00 NBFU=   894
 Precomputing XC quadrature grid using
 IXCGrd= 4 IRadAn=           5 IRanWt=          -1 IRanGd=           0 AccXCQ= 0.00D+00.
 Generated NRdTot=       0 NPtTot=           0 NUsed=           0 NTot=          32
 NSgBfM=   997   994   995   997   997 MxSgAt=    48 MxSgA2=    48.
 Leave Link  302 at Sun Feb 19 04:00:35 2023, MaxMem=  2684354560 cpu:              18.2 elap:               1.2
 (Enter /storage/apps/GAUSSIAN/G16_RevA03/g16/l303.exe)
 DipDrv:  MaxL=1.
 Leave Link  303 at Sun Feb 19 04:00:35 2023, MaxMem=  2684354560 cpu:               2.0 elap:               0.2
 (Enter /storage/apps/GAUSSIAN/G16_RevA03/g16/l401.exe)
 ExpMin= 9.52D-02 ExpMax= 6.07D+04 ExpMxC= 2.07D+03 IAcc=3 IRadAn=         5 AccDes= 0.00D+00
 Harris functional with IExCor= 1009 and IRadAn=       5 diagonalized for initial guess.
 HarFok:  IExCor= 1009 AccDes= 0.00D+00 IRadAn=         5 IDoV= 1 UseB2=F ITyADJ=14
 ICtDFT=  3500011 ScaDFX=  1.000000  1.000000  1.000000  1.000000
 FoFCou: FMM=F IPFlag=           0 FMFlag=      100000 FMFlg1=           0
         NFxFlg=           0 DoJE=T BraDBF=F KetDBF=T FulRan=T
         wScrn=  0.000000 ICntrl=       500 IOpCl=  0 I1Cent=   200000004 NGrid=           0
         NMat0=    1 NMatS0=      1 NMatT0=    0 NMatD0=    1 NMtDS0=    0 NMtDT0=    0
 Symmetry not used in FoFCou.
 Harris En= -1507.22871301999    
 JPrj=0 DoOrth=F DoCkMO=F.
 Leave Link  401 at Sun Feb 19 04:00:39 2023, MaxMem=  2684354560 cpu:              57.7 elap:               3.6
 (Enter /storage/apps/GAUSSIAN/G16_RevA03/g16/l502.exe)
 Two-electron integral symmetry not used.
 Closed shell SCF:
 Using DIIS extrapolation, IDIIS=  1040.
 NGot=  2684354560 LenX=  2682275214 LenY=  2681246004
 Requested convergence on RMS density matrix=1.00D-08 within 128 cycles.
 Requested convergence on MAX density matrix=1.00D-06.
 Requested convergence on             energy=1.00D-06.
 No special actions if energy rises.
 Fock matrices will be formed incrementally for  20 cycles.
 Integral accuracy reduced to 1.0D-05 until final iterations.

 Cycle   1  Pass 0  IDiag  1:
 FoFJK:  IHMeth= 1 ICntrl=       0 DoSepK=F KAlg= 0 I1Cent=           0 FoldK=F
 IRaf= 770000000 NMat=       1 IRICut=       1 DoRegI=T DoRafI=F ISym2E= 0 IDoP0=0 IntGTp=1.
 FoFCou: FMM=F IPFlag=           0 FMFlag=      100000 FMFlg1=           0
         NFxFlg=           0 DoJE=F BraDBF=F KetDBF=F FulRan=T
         wScrn=  0.000000 ICntrl=         0 IOpCl=  0 I1Cent=           0 NGrid=           0
         NMat0=    1 NMatS0=      1 NMatT0=    0 NMatD0=    1 NMtDS0=    0 NMtDT0=    0
 Symmetry not used in FoFCou.
 E= -1507.16196919962    
 DIIS: error= 1.57D-02 at cycle   1 NSaved=   1.
 NSaved= 1 IEnMin= 1 EnMin= -1507.16196919962     IErMin= 1 ErrMin= 1.57D-02
 ErrMax= 1.57D-02  0.00D+00 EMaxC= 1.00D-01 BMatC= 9.96D-01 BMatP= 9.96D-01
 IDIUse=3 WtCom= 8.43D-01 WtEn= 1.57D-01
 Coeff-Com:  0.100D+01
 Coeff-En:   0.100D+01
 Coeff:      0.100D+01
 Gap=     0.382 Goal=   None    Shift=    0.000
 GapD=    0.382 DampG=1.000 DampE=0.500 DampFc=0.5000 IDamp=-1.
 Damping current iteration by 5.00D-01
 RMSDP=4.55D-03 MaxDP=1.58D+00              OVMax= 2.07D-01

 Cycle   2  Pass 0  IDiag  1:
 RMSU=  2.27D-03    CP:  1.03D+00
 E= -1507.49613377411     Delta-E=       -0.334164574496 Rises=F Damp=T
 DIIS: error= 4.81D-03 at cycle   2 NSaved=   2.
 NSaved= 2 IEnMin= 2 EnMin= -1507.49613377411     IErMin= 2 ErrMin= 4.81D-03
 ErrMax= 4.81D-03  0.00D+00 EMaxC= 1.00D-01 BMatC= 9.06D-02 BMatP= 9.96D-01
 IDIUse=3 WtCom= 9.52D-01 WtEn= 4.81D-02
 Coeff-Com:  0.497D-02 0.995D+00
 Coeff-En:   0.582D-01 0.942D+00
 Coeff:      0.753D-02 0.992D+00
 Gap=     0.345 Goal=   None    Shift=    0.000
 RMSDP=1.41D-03 MaxDP=5.20D-01 DE=-3.34D-01 OVMax= 1.71D-01

 Cycle   3  Pass 0  IDiag  1:
 RMSU=  1.03D-03    CP:  1.01D+00  5.80D-01
 E= -1507.86014893753     Delta-E=       -0.364015163421 Rises=F Damp=F
 DIIS: error= 5.81D-03 at cycle   3 NSaved=   3.
 NSaved= 3 IEnMin= 3 EnMin= -1507.86014893753     IErMin= 2 ErrMin= 4.81D-03
 ErrMax= 5.81D-03  0.00D+00 EMaxC= 1.00D-01 BMatC= 5.83D-02 BMatP= 9.06D-02
 IDIUse=3 WtCom= 9.42D-01 WtEn= 5.81D-02
 Coeff-Com: -0.774D-01 0.463D+00 0.614D+00
 Coeff-En:   0.000D+00 0.000D+00 0.100D+01
 Coeff:     -0.729D-01 0.436D+00 0.636D+00
 Gap=     0.223 Goal=   None    Shift=    0.000
 RMSDP=3.78D-04 MaxDP=5.81D-02 DE=-3.64D-01 OVMax= 7.04D-02

 Cycle   4  Pass 0  IDiag  1:
 RMSU=  3.20D-04    CP:  1.01D+00  6.62D-01  9.28D-01
 E= -1507.89792092377     Delta-E=       -0.037771986237 Rises=F Damp=F
 DIIS: error= 3.00D-03 at cycle   4 NSaved=   4.
 NSaved= 4 IEnMin= 4 EnMin= -1507.89792092377     IErMin= 4 ErrMin= 3.00D-03
 ErrMax= 3.00D-03  0.00D+00 EMaxC= 1.00D-01 BMatC= 1.14D-02 BMatP= 5.83D-02
 IDIUse=3 WtCom= 9.70D-01 WtEn= 3.00D-02
 Coeff-Com: -0.353D-01 0.959D-01 0.343D+00 0.596D+00
 Coeff-En:   0.000D+00 0.000D+00 0.136D+00 0.864D+00
 Coeff:     -0.342D-01 0.930D-01 0.337D+00 0.604D+00
 Gap=     0.224 Goal=   None    Shift=    0.000
 RMSDP=1.19D-04 MaxDP=1.42D-02 DE=-3.78D-02 OVMax= 1.79D-02

 Cycle   5  Pass 0  IDiag  1:
 RMSU=  7.74D-05    CP:  1.01D+00  6.57D-01  9.56D-01  7.34D-01
 E= -1507.90631804618     Delta-E=       -0.008397122409 Rises=F Damp=F
 DIIS: error= 5.00D-04 at cycle   5 NSaved=   5.
 NSaved= 5 IEnMin= 5 EnMin= -1507.90631804618     IErMin= 5 ErrMin= 5.00D-04
 ErrMax= 5.00D-04  0.00D+00 EMaxC= 1.00D-01 BMatC= 4.42D-04 BMatP= 1.14D-02
 IDIUse=3 WtCom= 9.95D-01 WtEn= 5.00D-03
 Coeff-Com: -0.100D-01 0.167D-01 0.118D+00 0.269D+00 0.607D+00
 Coeff-En:   0.000D+00 0.000D+00 0.000D+00 0.000D+00 0.100D+01
 Coeff:     -0.996D-02 0.167D-01 0.117D+00 0.267D+00 0.609D+00
 Gap=     0.223 Goal=   None    Shift=    0.000
 RMSDP=5.35D-05 MaxDP=1.74D-02 DE=-8.40D-03 OVMax= 4.32D-03

 Cycle   6  Pass 0  IDiag  1:
 RMSU=  3.25D-05    CP:  1.01D+00  6.40D-01  9.68D-01  7.59D-01  8.69D-01
 E= -1507.90666434260     Delta-E=       -0.000346296422 Rises=F Damp=F
 DIIS: error= 1.68D-04 at cycle   6 NSaved=   6.
 NSaved= 6 IEnMin= 6 EnMin= -1507.90666434260     IErMin= 6 ErrMin= 1.68D-04
 ErrMax= 1.68D-04  0.00D+00 EMaxC= 1.00D-01 BMatC= 5.77D-05 BMatP= 4.42D-04
 IDIUse=3 WtCom= 9.98D-01 WtEn= 1.68D-03
 Coeff-Com:  0.329D-03-0.473D-02 0.104D-01 0.414D-01 0.277D+00 0.675D+00
 Coeff-En:   0.000D+00 0.000D+00 0.000D+00 0.000D+00 0.000D+00 0.100D+01
 Coeff:      0.329D-03-0.472D-02 0.104D-01 0.413D-01 0.277D+00 0.676D+00
 Gap=     0.224 Goal=   None    Shift=    0.000
 RMSDP=2.02D-05 MaxDP=1.87D-03 DE=-3.46D-04 OVMax= 2.39D-03

 Cycle   7  Pass 0  IDiag  1:
 RMSU=  1.83D-05    CP:  1.01D+00  6.39D-01  9.73D-01  7.67D-01  9.53D-01
                    CP:  1.00D+00
 E= -1507.90673697313     Delta-E=       -0.000072630523 Rises=F Damp=F
 DIIS: error= 5.49D-05 at cycle   7 NSaved=   7.
 NSaved= 7 IEnMin= 7 EnMin= -1507.90673697313     IErMin= 7 ErrMin= 5.49D-05
 ErrMax= 5.49D-05  0.00D+00 EMaxC= 1.00D-01 BMatC= 8.37D-06 BMatP= 5.77D-05
 IDIUse=1 WtCom= 1.00D+00 WtEn= 0.00D+00
 Coeff-Com:  0.174D-02-0.476D-02-0.120D-01-0.248D-01 0.146D-01 0.270D+00
 Coeff-Com:  0.755D+00
 Coeff:      0.174D-02-0.476D-02-0.120D-01-0.248D-01 0.146D-01 0.270D+00
 Coeff:      0.755D+00
 Gap=     0.225 Goal=   None    Shift=    0.000
 RMSDP=1.84D-05 MaxDP=4.90D-03 DE=-7.26D-05 OVMax= 2.08D-03

 Cycle   8  Pass 0  IDiag  1:
 RMSU=  1.07D-05    CP:  1.01D+00  6.35D-01  9.75D-01  7.73D-01  1.03D+00
                    CP:  1.18D+00  1.32D+00
 E= -1507.90675419066     Delta-E=       -0.000017217530 Rises=F Damp=F
 DIIS: error= 3.81D-05 at cycle   8 NSaved=   8.
 NSaved= 8 IEnMin= 8 EnMin= -1507.90675419066     IErMin= 8 ErrMin= 3.81D-05
 ErrMax= 3.81D-05  0.00D+00 EMaxC= 1.00D-01 BMatC= 1.97D-06 BMatP= 8.37D-06
 IDIUse=1 WtCom= 1.00D+00 WtEn= 0.00D+00
 Coeff-Com:  0.839D-03-0.149D-02-0.719D-02-0.210D-01-0.432D-01 0.711D-03
 Coeff-Com:  0.358D+00 0.714D+00
 Coeff:      0.839D-03-0.149D-02-0.719D-02-0.210D-01-0.432D-01 0.711D-03
 Coeff:      0.358D+00 0.714D+00
 Gap=     0.225 Goal=   None    Shift=    0.000
 RMSDP=1.80D-05 MaxDP=2.81D-03 DE=-1.72D-05 OVMax= 6.62D-04

 Cycle   9  Pass 0  IDiag  1:
 RMSU=  1.01D-05    CP:  1.01D+00  6.34D-01  9.77D-01  7.75D-01  1.09D+00
                    CP:  1.29D+00  1.93D+00  1.72D+00
 E= -1507.90675117282     Delta-E=        0.000003017840 Rises=F Damp=F
 DIIS: error= 2.31D-05 at cycle   9 NSaved=   9.
 NSaved= 9 IEnMin= 8 EnMin= -1507.90675419066     IErMin= 9 ErrMin= 2.31D-05
 ErrMax= 2.31D-05  0.00D+00 EMaxC= 1.00D-01 BMatC= 4.06D-07 BMatP= 1.97D-06
 IDIUse=1 WtCom= 1.00D+00 WtEn= 0.00D+00
 Coeff-Com:  0.217D-03-0.259D-03-0.175D-02-0.724D-02-0.197D-01-0.260D-01
 Coeff-Com:  0.905D-01 0.318D+00 0.646D+00
 Coeff:      0.217D-03-0.259D-03-0.175D-02-0.724D-02-0.197D-01-0.260D-01
 Coeff:      0.905D-01 0.318D+00 0.646D+00
 Gap=     0.225 Goal=   None    Shift=    0.000
 RMSDP=2.15D-05 MaxDP=3.62D-03 DE= 3.02D-06 OVMax= 2.16D-04

 Cycle  10  Pass 0  IDiag  1:
 RMSU=  4.44D-06    CP:  1.01D+00  6.34D-01  9.80D-01  7.80D-01  1.15D+00
                    CP:  1.38D+00  2.56D+00  2.71D+00  2.27D+00
 E= -1507.90674920672     Delta-E=        0.000001966094 Rises=F Damp=F
 DIIS: error= 3.16D-05 at cycle  10 NSaved=  10.
 NSaved=10 IEnMin= 8 EnMin= -1507.90675419066     IErMin= 9 ErrMin= 2.31D-05
 ErrMax= 3.16D-05  0.00D+00 EMaxC= 1.00D-01 BMatC= 5.44D-07 BMatP= 4.06D-07
 IDIUse=1 WtCom= 1.00D+00 WtEn= 0.00D+00
 Coeff-Com:  0.236D-03-0.222D-03-0.197D-02-0.866D-02-0.253D-01-0.385D-01
 Coeff-Com:  0.995D-01 0.407D+00 0.958D+00-0.390D+00
 Coeff:      0.236D-03-0.222D-03-0.197D-02-0.866D-02-0.253D-01-0.385D-01
 Coeff:      0.995D-01 0.407D+00 0.958D+00-0.390D+00
 Gap=     0.225 Goal=   None    Shift=    0.000
 RMSDP=1.75D-05 MaxDP=3.14D-03 DE= 1.97D-06 OVMax= 3.15D-05

 Cycle  11  Pass 0  IDiag  1:
 RMSU=  3.06D-06    CP:  1.01D+00  6.33D-01  9.79D-01  7.76D-01  1.11D+00
                    CP:  1.33D+00  2.09D+00  2.07D+00  1.13D+00 -1.54D-02
 E= -1507.90674467946     Delta-E=        0.000004527263 Rises=F Damp=F
 DIIS: error= 2.41D-05 at cycle  11 NSaved=  11.
 NSaved=11 IEnMin= 8 EnMin= -1507.90675419066     IErMin= 9 ErrMin= 2.31D-05
 ErrMax= 2.41D-05  0.00D+00 EMaxC= 1.00D-01 BMatC= 2.97D-07 BMatP= 4.06D-07
 IDIUse=1 WtCom= 1.00D+00 WtEn= 0.00D+00
 Coeff-Com: -0.744D-04 0.284D-03 0.867D-03-0.231D-03-0.611D-02-0.312D-01
 Coeff-Com: -0.337D-01 0.888D-01 0.750D+00-0.158D+01 0.181D+01
 Coeff:     -0.744D-04 0.284D-03 0.867D-03-0.231D-03-0.611D-02-0.312D-01
 Coeff:     -0.337D-01 0.888D-01 0.750D+00-0.158D+01 0.181D+01
 Gap=     0.225 Goal=   None    Shift=    0.000
 RMSDP=3.01D-05 MaxDP=7.06D-03 DE= 4.53D-06 OVMax= 1.18D-04

 Cycle  12  Pass 0  IDiag  1:
 RMSU=  8.64D-06    CP:  1.01D+00  6.27D-01  9.78D-01  7.70D-01  1.08D+00
                    CP:  1.32D+00  1.50D+00  1.60D+00 -5.27D-01 -2.41D+00
                    CP:  3.00D+00
 E= -1507.90672181957     Delta-E=        0.000022859888 Rises=F Damp=F
 DIIS: error= 1.84D-05 at cycle  12 NSaved=  12.
 NSaved=12 IEnMin= 8 EnMin= -1507.90675419066     IErMin=12 ErrMin= 1.84D-05
 ErrMax= 1.84D-05  0.00D+00 EMaxC= 1.00D-01 BMatC= 1.42D-07 BMatP= 2.97D-07
 IDIUse=1 WtCom= 1.00D+00 WtEn= 0.00D+00
 Coeff-Com: -0.661D-04 0.253D-03 0.790D-03-0.203D-03-0.544D-02-0.281D-01
 Coeff-Com: -0.303D-01 0.785D-01 0.673D+00-0.143D+01 0.164D+01 0.103D+00
 Coeff:     -0.661D-04 0.253D-03 0.790D-03-0.203D-03-0.544D-02-0.281D-01
 Coeff:     -0.303D-01 0.785D-01 0.673D+00-0.143D+01 0.164D+01 0.103D+00
 Gap=     0.225 Goal=   None    Shift=    0.000
 RMSDP=2.19D-06 MaxDP=5.52D-04 DE= 2.29D-05 OVMax= 5.76D-06

 Initial convergence to 1.0D-05 achieved.  Increase integral accuracy.
 Cycle  13  Pass 1  IDiag  1:
 E= -1507.90660345933     Delta-E=        0.000118360237 Rises=F Damp=F
 DIIS: error= 3.28D-04 at cycle   1 NSaved=   1.
 NSaved= 1 IEnMin= 1 EnMin= -1507.90660345933     IErMin= 1 ErrMin= 3.28D-04
 ErrMax= 3.28D-04  0.00D+00 EMaxC= 1.00D-01 BMatC= 8.41D-05 BMatP= 8.41D-05
 IDIUse=3 WtCom= 9.97D-01 WtEn= 3.28D-03
 Coeff-Com:  0.100D+01
 Coeff-En:   0.100D+01
 Coeff:      0.100D+01
 Gap=     0.225 Goal=   None    Shift=    0.000
 RMSDP=2.19D-06 MaxDP=5.52D-04 DE= 1.18D-04 OVMax= 9.48D-04

 Cycle  14  Pass 1  IDiag  1:
 RMSU=  4.48D-04    CP:  9.94D-01
 E= -1507.90666105077     Delta-E=       -0.000057591441 Rises=F Damp=F
 DIIS: error= 7.57D-06 at cycle   2 NSaved=   2.
 NSaved= 2 IEnMin= 2 EnMin= -1507.90666105077     IErMin= 2 ErrMin= 7.57D-06
 ErrMax= 7.57D-06  0.00D+00 EMaxC= 1.00D-01 BMatC= 6.97D-08 BMatP= 8.41D-05
 IDIUse=1 WtCom= 1.00D+00 WtEn= 0.00D+00
 Coeff-Com: -0.171D-01 0.102D+01
 Coeff:     -0.171D-01 0.102D+01
 Gap=     0.225 Goal=   None    Shift=    0.000
 RMSDP=1.59D-05 MaxDP=1.62D-03 DE=-5.76D-05 OVMax= 6.99D-05

 Cycle  15  Pass 1  IDiag  1:
 RMSU=  4.82D-06    CP:  9.94D-01  1.03D+00
 E= -1507.90666112422     Delta-E=       -0.000000073442 Rises=F Damp=F
 DIIS: error= 4.86D-06 at cycle   3 NSaved=   3.
 NSaved= 3 IEnMin= 3 EnMin= -1507.90666112422     IErMin= 3 ErrMin= 4.86D-06
 ErrMax= 4.86D-06  0.00D+00 EMaxC= 1.00D-01 BMatC= 2.32D-08 BMatP= 6.97D-08
 IDIUse=1 WtCom= 1.00D+00 WtEn= 0.00D+00
 Coeff-Com: -0.716D-02 0.401D+00 0.606D+00
 Coeff:     -0.716D-02 0.401D+00 0.606D+00
 Gap=     0.225 Goal=   None    Shift=    0.000
 RMSDP=4.55D-07 MaxDP=3.85D-05 DE=-7.34D-08 OVMax= 4.21D-05

 Cycle  16  Pass 1  IDiag  1:
 RMSU=  3.15D-07    CP:  9.94D-01  1.03D+00  1.03D+00
 E= -1507.90666114172     Delta-E=       -0.000000017503 Rises=F Damp=F
 DIIS: error= 2.25D-06 at cycle   4 NSaved=   4.
 NSaved= 4 IEnMin= 4 EnMin= -1507.90666114172     IErMin= 4 ErrMin= 2.25D-06
 ErrMax= 2.25D-06  0.00D+00 EMaxC= 1.00D-01 BMatC= 4.19D-09 BMatP= 2.32D-08
 IDIUse=1 WtCom= 1.00D+00 WtEn= 0.00D+00
 Coeff-Com: -0.507D-03 0.190D-01 0.291D+00 0.691D+00
 Coeff:     -0.507D-03 0.190D-01 0.291D+00 0.691D+00
 Gap=     0.225 Goal=   None    Shift=    0.000
 RMSDP=2.49D-07 MaxDP=2.01D-05 DE=-1.75D-08 OVMax= 1.48D-05

 Cycle  17  Pass 1  IDiag  1:
 RMSU=  1.13D-07    CP:  9.94D-01  1.03D+00  1.06D+00  1.00D+00
 E= -1507.90666114522     Delta-E=       -0.000000003503 Rises=F Damp=F
 DIIS: error= 6.43D-07 at cycle   5 NSaved=   5.
 NSaved= 5 IEnMin= 5 EnMin= -1507.90666114522     IErMin= 5 ErrMin= 6.43D-07
 ErrMax= 6.43D-07  0.00D+00 EMaxC= 1.00D-01 BMatC= 5.17D-10 BMatP= 4.19D-09
 IDIUse=1 WtCom= 1.00D+00 WtEn= 0.00D+00
 Coeff-Com:  0.392D-03-0.268D-01 0.985D-01 0.359D+00 0.569D+00
 Coeff:      0.392D-03-0.268D-01 0.985D-01 0.359D+00 0.569D+00
 Gap=     0.225 Goal=   None    Shift=    0.000
 RMSDP=5.22D-08 MaxDP=4.31D-06 DE=-3.50D-09 OVMax= 4.95D-06

 Cycle  18  Pass 1  IDiag  1:
 RMSU=  3.22D-08    CP:  9.94D-01  1.03D+00  1.07D+00  1.05D+00  1.07D+00
 E= -1507.90666114568     Delta-E=       -0.000000000455 Rises=F Damp=F
 DIIS: error= 1.56D-07 at cycle   6 NSaved=   6.
 NSaved= 6 IEnMin= 6 EnMin= -1507.90666114568     IErMin= 6 ErrMin= 1.56D-07
 ErrMax= 1.56D-07  0.00D+00 EMaxC= 1.00D-01 BMatC= 2.57D-11 BMatP= 5.17D-10
 IDIUse=1 WtCom= 1.00D+00 WtEn= 0.00D+00
 Coeff-Com:  0.174D-03-0.106D-01 0.827D-02 0.579D-01 0.192D+00 0.752D+00
 Coeff:      0.174D-03-0.106D-01 0.827D-02 0.579D-01 0.192D+00 0.752D+00
 Gap=     0.225 Goal=   None    Shift=    0.000
 RMSDP=1.49D-08 MaxDP=1.83D-06 DE=-4.55D-10 OVMax= 2.74D-06

 Cycle  19  Pass 1  IDiag  1:
 RMSU=  9.86D-09    CP:  9.94D-01  1.03D+00  1.07D+00  1.08D+00  1.14D+00
                    CP:  1.08D+00
 E= -1507.90666114576     Delta-E=       -0.000000000086 Rises=F Damp=F
 DIIS: error= 9.11D-08 at cycle   7 NSaved=   7.
 NSaved= 7 IEnMin= 7 EnMin= -1507.90666114576     IErMin= 7 ErrMin= 9.11D-08
 ErrMax= 9.11D-08  0.00D+00 EMaxC= 1.00D-01 BMatC= 1.15D-11 BMatP= 2.57D-11
 IDIUse=1 WtCom= 1.00D+00 WtEn= 0.00D+00
 Coeff-Com:  0.654D-06 0.748D-03-0.202D-01-0.610D-01-0.409D-01 0.429D+00
 Coeff-Com:  0.692D+00
 Coeff:      0.654D-06 0.748D-03-0.202D-01-0.610D-01-0.409D-01 0.429D+00
 Coeff:      0.692D+00
 Gap=     0.225 Goal=   None    Shift=    0.000
 RMSDP=9.35D-09 MaxDP=8.65D-07 DE=-8.64D-11 OVMax= 1.62D-06

 SCF Done:  E(RM062X) =  -1507.90666115     A.U. after   19 cycles
            NFock= 19  Conv=0.93D-08     -V/T= 2.0040
 KE= 1.501855764845D+03 PE=-8.373656114933D+03 EE= 2.946477561373D+03
 Leave Link  502 at Sun Feb 19 04:08:16 2023, MaxMem=  2684354560 cpu:            7295.8 elap:             456.7
 (Enter /storage/apps/GAUSSIAN/G16_RevA03/g16/l601.exe)
 Copying SCF densities to generalized density rwf, IOpCl= 0 IROHF=0.

 **********************************************************************

            Population analysis using the SCF density.

 **********************************************************************

 Alpha  occ. eigenvalues --  -89.90787 -19.63914 -19.63596 -19.62249 -19.61806
 Alpha  occ. eigenvalues --  -19.58493 -14.79022 -14.76859 -10.65021 -10.64073
 Alpha  occ. eigenvalues --  -10.62903 -10.60050 -10.59795 -10.59306 -10.58555
 Alpha  occ. eigenvalues --  -10.57413 -10.55977 -10.55772 -10.55203 -10.54471
 Alpha  occ. eigenvalues --  -10.53951 -10.53875 -10.53764 -10.53570  -8.26726
 Alpha  occ. eigenvalues --   -6.18663  -6.18435  -6.18239  -1.19676  -1.17359
 Alpha  occ. eigenvalues --   -1.15713  -1.15427  -1.13944  -1.08005  -1.01363
 Alpha  occ. eigenvalues --   -0.91841  -0.91194  -0.88574  -0.88237  -0.86956
 Alpha  occ. eigenvalues --   -0.85874  -0.81276  -0.78877  -0.74998  -0.74963
 Alpha  occ. eigenvalues --   -0.72822  -0.70272  -0.68272  -0.66400  -0.66079
 Alpha  occ. eigenvalues --   -0.63350  -0.62623  -0.61133  -0.60391  -0.59683
 Alpha  occ. eigenvalues --   -0.57597  -0.56161  -0.55545  -0.54601  -0.53769
 Alpha  occ. eigenvalues --   -0.52988  -0.52805  -0.51846  -0.50950  -0.50543
 Alpha  occ. eigenvalues --   -0.50292  -0.49599  -0.49152  -0.48954  -0.48550
 Alpha  occ. eigenvalues --   -0.48148  -0.47410  -0.47011  -0.46918  -0.46641
 Alpha  occ. eigenvalues --   -0.46344  -0.44957  -0.44348  -0.43825  -0.43010
 Alpha  occ. eigenvalues --   -0.42363  -0.42140  -0.41351  -0.40050  -0.37850
 Alpha  occ. eigenvalues --   -0.35550  -0.34986  -0.34705  -0.33969  -0.33883
 Alpha  occ. eigenvalues --   -0.32779  -0.32246  -0.31901  -0.29864  -0.24635
 Alpha virt. eigenvalues --   -0.02178   0.01053   0.04768   0.04999   0.05725
 Alpha virt. eigenvalues --    0.06528   0.06743   0.07783   0.08707   0.08765
 Alpha virt. eigenvalues --    0.08952   0.09629   0.10152   0.10734   0.11413
 Alpha virt. eigenvalues --    0.11791   0.12477   0.12753   0.12921   0.13255
 Alpha virt. eigenvalues --    0.13650   0.13885   0.14315   0.14713   0.15236
 Alpha virt. eigenvalues --    0.15746   0.16073   0.16467   0.16845   0.17664
 Alpha virt. eigenvalues --    0.18169   0.18773   0.19389   0.19643   0.20170
 Alpha virt. eigenvalues --    0.20882   0.21169   0.21707   0.22030   0.22671
 Alpha virt. eigenvalues --    0.22744   0.23112   0.23860   0.24177   0.24796
 Alpha virt. eigenvalues --    0.25008   0.25276   0.25723   0.26599   0.26821
 Alpha virt. eigenvalues --    0.26988   0.27459   0.27689   0.28508   0.28766
 Alpha virt. eigenvalues --    0.29205   0.29698   0.29865   0.31056   0.31398
 Alpha virt. eigenvalues --    0.31691   0.31991   0.32303   0.32492   0.33458
 Alpha virt. eigenvalues --    0.33840   0.34298   0.34758   0.35420   0.35799
 Alpha virt. eigenvalues --    0.36805   0.37521   0.37834   0.38029   0.38435
 Alpha virt. eigenvalues --    0.38883   0.39046   0.39370   0.39811   0.40336
 Alpha virt. eigenvalues --    0.40869   0.41135   0.41286   0.41532   0.41845
 Alpha virt. eigenvalues --    0.42500   0.42933   0.43268   0.43349   0.43700
 Alpha virt. eigenvalues --    0.44087   0.44379   0.44609   0.45212   0.45479
 Alpha virt. eigenvalues --    0.45546   0.46286   0.46675   0.47098   0.47773
 Alpha virt. eigenvalues --    0.47999   0.48559   0.48831   0.49181   0.49340
 Alpha virt. eigenvalues --    0.49700   0.50128   0.50336   0.50617   0.50927
 Alpha virt. eigenvalues --    0.51191   0.51367   0.51480   0.51699   0.52265
 Alpha virt. eigenvalues --    0.52995   0.53064   0.53874   0.54407   0.54506
 Alpha virt. eigenvalues --    0.55013   0.55172   0.56153   0.56857   0.57421
 Alpha virt. eigenvalues --    0.57756   0.57859   0.58520   0.58828   0.59238
 Alpha virt. eigenvalues --    0.59416   0.60267   0.60658   0.61152   0.61817
 Alpha virt. eigenvalues --    0.62415   0.62489   0.63077   0.64004   0.64412
 Alpha virt. eigenvalues --    0.64543   0.65656   0.65857   0.66825   0.67277
 Alpha virt. eigenvalues --    0.67792   0.68178   0.68949   0.69712   0.70144
 Alpha virt. eigenvalues --    0.71333   0.71586   0.72347   0.72923   0.73585
 Alpha virt. eigenvalues --    0.74998   0.75465   0.76027   0.76098   0.76662
 Alpha virt. eigenvalues --    0.77769   0.78077   0.78568   0.79384   0.80305
 Alpha virt. eigenvalues --    0.81175   0.81490   0.81902   0.82708   0.82742
 Alpha virt. eigenvalues --    0.83818   0.84464   0.85002   0.85505   0.86247
 Alpha virt. eigenvalues --    0.86924   0.88186   0.89042   0.89823   0.90655
 Alpha virt. eigenvalues --    0.90958   0.91493   0.91750   0.92450   0.93764
 Alpha virt. eigenvalues --    0.94248   0.94731   0.95053   0.95788   0.96793
 Alpha virt. eigenvalues --    0.97004   0.97742   0.98562   0.98697   0.99532
 Alpha virt. eigenvalues --    0.99757   1.01120   1.02414   1.02679   1.03004
 Alpha virt. eigenvalues --    1.04712   1.05196   1.05697   1.05925   1.06189
 Alpha virt. eigenvalues --    1.06874   1.07965   1.08742   1.08898   1.09742
 Alpha virt. eigenvalues --    1.10439   1.11161   1.11610   1.12080   1.12683
 Alpha virt. eigenvalues --    1.13106   1.13925   1.14429   1.14596   1.15700
 Alpha virt. eigenvalues --    1.16005   1.16796   1.17232   1.18512   1.19230
 Alpha virt. eigenvalues --    1.20392   1.21075   1.22098   1.22741   1.23638
 Alpha virt. eigenvalues --    1.25243   1.25509   1.26454   1.27028   1.27628
 Alpha virt. eigenvalues --    1.28593   1.29574   1.30372   1.31791   1.32524
 Alpha virt. eigenvalues --    1.32918   1.33176   1.33952   1.34872   1.35381
 Alpha virt. eigenvalues --    1.35794   1.37149   1.38127   1.38329   1.39873
 Alpha virt. eigenvalues --    1.40538   1.41330   1.42035   1.43279   1.44678
 Alpha virt. eigenvalues --    1.45497   1.46676   1.47083   1.47610   1.48852
 Alpha virt. eigenvalues --    1.50220   1.51056   1.51687   1.52147   1.53273
 Alpha virt. eigenvalues --    1.53604   1.54009   1.54486   1.55332   1.55899
 Alpha virt. eigenvalues --    1.56452   1.56698   1.56833   1.57392   1.58017
 Alpha virt. eigenvalues --    1.58169   1.58720   1.59096   1.59593   1.59935
 Alpha virt. eigenvalues --    1.60386   1.61000   1.61337   1.61993   1.62433
 Alpha virt. eigenvalues --    1.62640   1.64105   1.64405   1.64641   1.65101
 Alpha virt. eigenvalues --    1.65426   1.66191   1.66793   1.67522   1.68168
 Alpha virt. eigenvalues --    1.68416   1.68916   1.69120   1.69601   1.70557
 Alpha virt. eigenvalues --    1.71045   1.72249   1.72864   1.73440   1.74148
 Alpha virt. eigenvalues --    1.74642   1.74910   1.75389   1.76415   1.76684
 Alpha virt. eigenvalues --    1.77646   1.78351   1.79568   1.80011   1.80491
 Alpha virt. eigenvalues --    1.80901   1.81460   1.81992   1.82455   1.83845
 Alpha virt. eigenvalues --    1.84096   1.84589   1.84972   1.85786   1.86574
 Alpha virt. eigenvalues --    1.87194   1.87763   1.88516   1.89830   1.90285
 Alpha virt. eigenvalues --    1.91086   1.91494   1.92581   1.93736   1.94277
 Alpha virt. eigenvalues --    1.94897   1.95584   1.96109   1.96317   1.96999
 Alpha virt. eigenvalues --    1.97775   1.99003   1.99362   1.99887   2.00498
 Alpha virt. eigenvalues --    2.00748   2.02421   2.02567   2.02748   2.03817
 Alpha virt. eigenvalues --    2.04285   2.05221   2.06128   2.07312   2.07901
 Alpha virt. eigenvalues --    2.09125   2.10137   2.10488   2.10860   2.11347
 Alpha virt. eigenvalues --    2.12673   2.13217   2.14343   2.15602   2.15835
 Alpha virt. eigenvalues --    2.16269   2.17736   2.18246   2.18633   2.19629
 Alpha virt. eigenvalues --    2.20510   2.21330   2.21975   2.22294   2.22839
 Alpha virt. eigenvalues --    2.23430   2.24120   2.24443   2.26860   2.27240
 Alpha virt. eigenvalues --    2.27472   2.27835   2.28602   2.29300   2.29500
 Alpha virt. eigenvalues --    2.30226   2.30918   2.31384   2.32022   2.32436
 Alpha virt. eigenvalues --    2.33371   2.33807   2.34129   2.34899   2.35365
 Alpha virt. eigenvalues --    2.35743   2.36301   2.37494   2.38001   2.38997
 Alpha virt. eigenvalues --    2.39456   2.40465   2.41171   2.42441   2.43204
 Alpha virt. eigenvalues --    2.43474   2.43608   2.43902   2.44862   2.46235
 Alpha virt. eigenvalues --    2.46946   2.47973   2.48298   2.48949   2.49742
 Alpha virt. eigenvalues --    2.51077   2.51428   2.52328   2.52409   2.53630
 Alpha virt. eigenvalues --    2.54957   2.55564   2.56494   2.57054   2.57672
 Alpha virt. eigenvalues --    2.58209   2.58614   2.59212   2.59631   2.60287
 Alpha virt. eigenvalues --    2.60827   2.61665   2.61895   2.63000   2.64143
 Alpha virt. eigenvalues --    2.64515   2.65050   2.65181   2.65760   2.66254
 Alpha virt. eigenvalues --    2.67127   2.67817   2.68297   2.68690   2.69407
 Alpha virt. eigenvalues --    2.70314   2.70596   2.71082   2.72284   2.72994
 Alpha virt. eigenvalues --    2.73357   2.74267   2.74760   2.75480   2.76637
 Alpha virt. eigenvalues --    2.77423   2.78193   2.78991   2.80121   2.81377
 Alpha virt. eigenvalues --    2.81558   2.83070   2.83088   2.84299   2.85041
 Alpha virt. eigenvalues --    2.85638   2.86311   2.86762   2.87947   2.88607
 Alpha virt. eigenvalues --    2.88964   2.89939   2.91312   2.91792   2.92671
 Alpha virt. eigenvalues --    2.93311   2.94782   2.95674   2.96151   2.96439
 Alpha virt. eigenvalues --    2.97671   2.98128   2.99633   3.00043   3.00717
 Alpha virt. eigenvalues --    3.00942   3.01484   3.01904   3.03305   3.03921
 Alpha virt. eigenvalues --    3.04131   3.04829   3.04985   3.05586   3.05968
 Alpha virt. eigenvalues --    3.06952   3.07576   3.09015   3.09311   3.09764
 Alpha virt. eigenvalues --    3.10165   3.10701   3.11193   3.11979   3.12443
 Alpha virt. eigenvalues --    3.12733   3.13925   3.14164   3.14582   3.15557
 Alpha virt. eigenvalues --    3.16000   3.16687   3.17453   3.17476   3.18371
 Alpha virt. eigenvalues --    3.18899   3.19131   3.20098   3.20606   3.21066
 Alpha virt. eigenvalues --    3.21269   3.22101   3.22548   3.23749   3.24112
 Alpha virt. eigenvalues --    3.25388   3.26087   3.26362   3.26994   3.27627
 Alpha virt. eigenvalues --    3.27796   3.28553   3.28849   3.29322   3.29684
 Alpha virt. eigenvalues --    3.30894   3.32047   3.32270   3.32986   3.33182
 Alpha virt. eigenvalues --    3.34164   3.34415   3.35694   3.35973   3.36322
 Alpha virt. eigenvalues --    3.37004   3.37990   3.38126   3.38516   3.38999
 Alpha virt. eigenvalues --    3.39630   3.40311   3.40448   3.41995   3.42656
 Alpha virt. eigenvalues --    3.42974   3.43613   3.43955   3.44576   3.45116
 Alpha virt. eigenvalues --    3.46366   3.46472   3.47505   3.47697   3.48834
 Alpha virt. eigenvalues --    3.49093   3.49289   3.51346   3.51969   3.52468
 Alpha virt. eigenvalues --    3.53109   3.53473   3.53770   3.54386   3.56094
 Alpha virt. eigenvalues --    3.56968   3.57673   3.58220   3.58612   3.59470
 Alpha virt. eigenvalues --    3.61143   3.62123   3.62498   3.63912   3.64766
 Alpha virt. eigenvalues --    3.65141   3.66016   3.66910   3.66949   3.68668
 Alpha virt. eigenvalues --    3.68842   3.70680   3.71543   3.72516   3.72919
 Alpha virt. eigenvalues --    3.74331   3.74883   3.75742   3.75924   3.76865
 Alpha virt. eigenvalues --    3.77985   3.78592   3.78804   3.79809   3.80199
 Alpha virt. eigenvalues --    3.82739   3.83937   3.85604   3.86849   3.87495
 Alpha virt. eigenvalues --    3.89197   3.90774   3.91124   3.92283   3.92805
 Alpha virt. eigenvalues --    3.93834   3.94363   3.95433   3.96348   3.98003
 Alpha virt. eigenvalues --    4.00017   4.00698   4.02850   4.03794   4.06822
 Alpha virt. eigenvalues --    4.07508   4.08894   4.09615   4.10851   4.11207
 Alpha virt. eigenvalues --    4.12004   4.12959   4.14118   4.14633   4.15940
 Alpha virt. eigenvalues --    4.18658   4.19123   4.19970   4.20891   4.21715
 Alpha virt. eigenvalues --    4.24136   4.25753   4.27291   4.28342   4.28666
 Alpha virt. eigenvalues --    4.32716   4.32968   4.34733   4.35761   4.37877
 Alpha virt. eigenvalues --    4.39334   4.40007   4.41287   4.41791   4.42057
 Alpha virt. eigenvalues --    4.42853   4.45263   4.46616   4.48399   4.49284
 Alpha virt. eigenvalues --    4.49832   4.52158   4.53606   4.55382   4.57015
 Alpha virt. eigenvalues --    4.60201   4.61966   4.64715   4.65666   4.67001
 Alpha virt. eigenvalues --    4.68811   4.69828   4.71395   4.71811   4.74081
 Alpha virt. eigenvalues --    4.75487   4.76091   4.77999   4.79323   4.80483
 Alpha virt. eigenvalues --    4.83468   4.86443   4.89386   4.90420   4.91826
 Alpha virt. eigenvalues --    4.93323   4.95179   4.96308   4.98003   4.99253
 Alpha virt. eigenvalues --    5.00261   5.00956   5.01833   5.05508   5.06728
 Alpha virt. eigenvalues --    5.10856   5.14720   5.15741   5.16964   5.21229
 Alpha virt. eigenvalues --    5.21883   5.22773   5.23725   5.25808   5.27658
 Alpha virt. eigenvalues --    5.29343   5.30590   5.31238   5.35479   5.35921
 Alpha virt. eigenvalues --    5.37699   5.41538   5.43508   5.44157   5.46975
 Alpha virt. eigenvalues --    5.47537   5.49720   5.53816   5.57564   5.58255
 Alpha virt. eigenvalues --    5.62980   5.66712   5.75066   5.76038   5.77506
 Alpha virt. eigenvalues --    5.79924   5.80312   5.83863   5.84381   5.86481
 Alpha virt. eigenvalues --    5.87962   5.90105   5.90668   5.92652   5.95029
 Alpha virt. eigenvalues --    5.99165   6.02426   6.08982   6.16360   6.20394
 Alpha virt. eigenvalues --    6.22694   6.25184   6.30087   6.31140   6.34979
 Alpha virt. eigenvalues --    6.39912   6.44405   6.44993   6.47591   6.52389
 Alpha virt. eigenvalues --    6.54317   6.59766   6.69508   6.74447   6.74776
 Alpha virt. eigenvalues --    6.78630   6.81316   6.82709   6.85733   6.86451
 Alpha virt. eigenvalues --    6.87393   6.93292   6.98799   6.99737   7.06757
 Alpha virt. eigenvalues --    7.08768   7.09370   7.11882   7.15899   7.24207
 Alpha virt. eigenvalues --    7.25900   7.34256   8.98776   9.38194   9.51437
 Alpha virt. eigenvalues --   19.87410  22.28052  22.42506  22.47761  22.48403
 Alpha virt. eigenvalues --   22.56478  22.65325  22.67423  22.72688  22.80045
 Alpha virt. eigenvalues --   22.85770  22.94073  22.99896  23.02697  23.05386
 Alpha virt. eigenvalues --   23.20273  23.48355  32.17446  33.18465  44.13232
 Alpha virt. eigenvalues --   44.18063  44.23175  44.27198  44.57345
          Condensed to atoms (all electrons):
               1          2          3          4          5          6
     1  C    5.120018   0.421291   0.412525  -0.017090  -0.000293  -0.000087
     2  H    0.421291   0.509353  -0.022358  -0.001458   0.000451  -0.000005
     3  H    0.412525  -0.022358   0.542038   0.001223  -0.000032  -0.000007
     4  C   -0.017090  -0.001458   0.001223   5.625576   0.475085   0.249136
     5  H   -0.000293   0.000451  -0.000032   0.475085   0.551643  -0.030309
     6  O   -0.000087  -0.000005  -0.000007   0.249136  -0.030309   8.012562
     7  H    0.000007  -0.000009   0.000004  -0.064385  -0.002851   0.295166
     8  C    0.006473   0.013338  -0.008899  -0.170535  -0.088303  -0.057838
     9  H    0.010113  -0.000004  -0.001957  -0.130570   0.003534   0.002173
    10  O    0.007778  -0.000366   0.000257  -0.042895   0.002163   0.000759
    11  H   -0.000635  -0.000189   0.000450   0.011523  -0.000907  -0.000579
    12  C   -0.001057  -0.000066   0.001128  -0.043358  -0.053913  -0.002712
    13  H   -0.000422   0.000050   0.000119  -0.112632   0.006002  -0.000113
    14  C    0.187409  -0.048519  -0.040772   0.158057   0.019648   0.009592
    15  H   -0.077042  -0.006628  -0.002940  -0.013700  -0.000212   0.000023
    16  O   -0.037775   0.000897   0.005502  -0.087979  -0.003059   0.005714
    17  N    0.000508  -0.000106  -0.000049   0.037471  -0.015307  -0.006457
    18  C   -0.001279   0.000002   0.000013  -0.005199  -0.002945   0.002804
    19  H   -0.000039  -0.000077   0.000052  -0.016724  -0.003054   0.001179
    20  C   -0.000046   0.000006  -0.000002   0.005586   0.005667  -0.002131
    21  H    0.000006   0.000001  -0.000000   0.000055   0.000139  -0.000027
    22  C   -0.000008  -0.000001   0.000000  -0.000054  -0.000307   0.000191
    23  H   -0.000000   0.000000   0.000000   0.000029   0.000008   0.000000
    24  H    0.000000  -0.000000  -0.000000  -0.000115  -0.000029  -0.000004
    25  C   -0.000070  -0.000007   0.000001  -0.002233  -0.000669  -0.000420
    26  C   -0.000256   0.000031  -0.000005   0.023819  -0.000461  -0.003383
    27  H   -0.000017   0.000000  -0.000000   0.000875  -0.000082   0.000097
    28  C    0.000000  -0.000000  -0.000000   0.000150  -0.000002  -0.000021
    29  O   -0.000000   0.000000   0.000000   0.000003   0.000000  -0.000000
    30  N   -0.000000   0.000000   0.000000   0.000001  -0.000000  -0.000000
    31  H   -0.000000   0.000000   0.000000   0.000000   0.000000  -0.000000
    32  H   -0.000000   0.000000  -0.000000   0.000001   0.000000  -0.000000
    33  C    0.000000  -0.000000   0.000000  -0.000193  -0.000348  -0.012709
    34  C    0.000000  -0.000000  -0.000000   0.000131   0.000006  -0.000695
    35  C    0.000000   0.000000  -0.000000  -0.000363   0.000038  -0.000100
    36  C   -0.000000   0.000000  -0.000000   0.000000   0.000000   0.000000
    37  C   -0.000000   0.000000   0.000000   0.000186  -0.000000   0.000050
    38  O    0.000000   0.000000  -0.000000  -0.000667  -0.000052  -0.017053
    39  S   -0.000000  -0.000000   0.000000   0.000746   0.000018   0.000964
    40  H   -0.000000   0.000000  -0.000000   0.000204   0.000020   0.000213
    41  H   -0.000001   0.000000  -0.000000  -0.004347   0.000536   0.014716
    42  H    0.000000   0.000000  -0.000000  -0.000000  -0.000000  -0.000000
    43  H    0.000000  -0.000000  -0.000000  -0.000000  -0.000000  -0.000000
    44  H   -0.000000  -0.000000  -0.000000   0.000000  -0.000000   0.000000
    45  H   -0.000000  -0.000000   0.000000   0.000014   0.000003   0.000008
    46  H   -0.000000  -0.000000   0.000000  -0.000007   0.000000   0.000004
    47  H    0.379248  -0.022416  -0.025120   0.003287  -0.001265   0.000046
    48  H    0.000000   0.000000  -0.000000   0.000058   0.000002   0.000428
               7          8          9         10         11         12
     1  C    0.000007   0.006473   0.010113   0.007778  -0.000635  -0.001057
     2  H   -0.000009   0.013338  -0.000004  -0.000366  -0.000189  -0.000066
     3  H    0.000004  -0.008899  -0.001957   0.000257   0.000450   0.001128
     4  C   -0.064385  -0.170535  -0.130570  -0.042895   0.011523  -0.043358
     5  H   -0.002851  -0.088303   0.003534   0.002163  -0.000907  -0.053913
     6  O    0.295166  -0.057838   0.002173   0.000759  -0.000579  -0.002712
     7  H    0.432449   0.003210  -0.000954  -0.001321   0.000291   0.000367
     8  C    0.003210   5.595506   0.528540   0.257090  -0.039526   0.027333
     9  H   -0.000954   0.528540   0.573941  -0.057050  -0.001805   0.017205
    10  O   -0.001321   0.257090  -0.057050   8.038799   0.289072  -0.011699
    11  H    0.000291  -0.039526  -0.001805   0.289072   0.428382  -0.001320
    12  C    0.000367   0.027333   0.017205  -0.011699  -0.001320   5.560287
    13  H   -0.003349   0.019403   0.002778   0.015419  -0.001478   0.482992
    14  C   -0.000224   0.040645  -0.109356  -0.046571  -0.006195  -0.114746
    15  H    0.000125  -0.035243   0.011590  -0.007631   0.005994   0.000191
    16  O    0.001530  -0.041877   0.004745   0.007361   0.000390   0.283255
    17  N    0.016598   0.002836  -0.001091  -0.000487   0.000043   0.118795
    18  C    0.000268  -0.005157  -0.000436  -0.000446   0.000021  -0.088865
    19  H    0.000500   0.001265   0.000057  -0.000005   0.000005   0.022054
    20  C   -0.001217  -0.002030   0.000019   0.000011  -0.000001   0.013467
    21  H   -0.000012  -0.000007   0.000000   0.000000  -0.000000   0.000339
    22  C    0.000458   0.000048  -0.000003  -0.000003   0.000000  -0.008027
    23  H   -0.000014  -0.000000   0.000000   0.000000  -0.000000   0.000165
    24  H    0.000190   0.000004  -0.000000   0.000000   0.000000   0.000139
    25  C   -0.001395  -0.000027  -0.000003  -0.000051   0.000001  -0.022739
    26  C   -0.003375  -0.003469  -0.000138  -0.000718  -0.000041  -0.075316
    27  H    0.000093  -0.000019  -0.000009  -0.000138   0.000007  -0.002519
    28  C    0.000071   0.000005   0.000000  -0.000000  -0.000000  -0.001660
    29  O    0.000024   0.000000   0.000000  -0.000000  -0.000000   0.000395
    30  N   -0.000000  -0.000000  -0.000000  -0.000000  -0.000000  -0.000001
    31  H   -0.000000  -0.000000   0.000000  -0.000000  -0.000000  -0.000004
    32  H   -0.000000  -0.000000   0.000000  -0.000000  -0.000000  -0.000004
    33  C    0.004808   0.000870   0.000001  -0.000552   0.000043  -0.000897
    34  C   -0.002034  -0.000065  -0.000001   0.000020  -0.000001  -0.001520
    35  C    0.002778  -0.000051  -0.000000   0.000001  -0.000000   0.001253
    36  C   -0.000006  -0.000000  -0.000000  -0.000000  -0.000000   0.000022
    37  C   -0.000969   0.000002  -0.000000  -0.000000   0.000000  -0.000478
    38  O    0.026872   0.000036   0.000004   0.000005  -0.000000  -0.000852
    39  S   -0.003338  -0.000008  -0.000000  -0.000002  -0.000000  -0.000665
    40  H   -0.001649  -0.000011   0.000000   0.000008  -0.000001   0.000004
    41  H    0.000590  -0.002073   0.000037   0.001884  -0.000144   0.002052
    42  H    0.000001   0.000000  -0.000000   0.000000   0.000000   0.000003
    43  H    0.000001   0.000000  -0.000000   0.000000   0.000000  -0.000001
    44  H   -0.000000  -0.000000  -0.000000   0.000000   0.000000  -0.000000
    45  H   -0.000072  -0.000000   0.000000  -0.000000  -0.000000  -0.000031
    46  H   -0.000023  -0.000000  -0.000000  -0.000000   0.000000   0.000043
    47  H    0.000037  -0.016368   0.001683   0.000089   0.000140  -0.001025
    48  H   -0.000170  -0.000007   0.000001   0.000006  -0.000001  -0.000010
              13         14         15         16         17         18
     1  C   -0.000422   0.187409  -0.077042  -0.037775   0.000508  -0.001279
     2  H    0.000050  -0.048519  -0.006628   0.000897  -0.000106   0.000002
     3  H    0.000119  -0.040772  -0.002940   0.005502  -0.000049   0.000013
     4  C   -0.112632   0.158057  -0.013700  -0.087979   0.037471  -0.005199
     5  H    0.006002   0.019648  -0.000212  -0.003059  -0.015307  -0.002945
     6  O   -0.000113   0.009592   0.000023   0.005714  -0.006457   0.002804
     7  H   -0.003349  -0.000224   0.000125   0.001530   0.016598   0.000268
     8  C    0.019403   0.040645  -0.035243  -0.041877   0.002836  -0.005157
     9  H    0.002778  -0.109356   0.011590   0.004745  -0.001091  -0.000436
    10  O    0.015419  -0.046571  -0.007631   0.007361  -0.000487  -0.000446
    11  H   -0.001478  -0.006195   0.005994   0.000390   0.000043   0.000021
    12  C    0.482992  -0.114746   0.000191   0.283255   0.118795  -0.088865
    13  H    0.519729  -0.008378   0.005966  -0.037532  -0.073865   0.013000
    14  C   -0.008378   5.315327   0.409504   0.214304   0.011060  -0.000297
    15  H    0.005966   0.409504   0.638902  -0.036848  -0.001802   0.000203
    16  O   -0.037532   0.214304  -0.036848   8.066790  -0.075181   0.010608
    17  N   -0.073865   0.011060  -0.001802  -0.075181   6.619110   0.299364
    18  C    0.013000  -0.000297   0.000203   0.010608   0.299364   5.054433
    19  H    0.000976  -0.003664   0.000154   0.007781  -0.049648   0.409294
    20  C   -0.000706   0.001235  -0.000004  -0.000710  -0.074013   0.483230
    21  H    0.000010   0.000004  -0.000000  -0.000061   0.004520  -0.030902
    22  C    0.000040  -0.000097   0.000001   0.000418  -0.009282   0.007132
    23  H    0.000003   0.000001   0.000000  -0.000011  -0.000558   0.002641
[...]
      3        1          -0.006308758   -0.001717835   -0.002963310
      4        6          -0.008371039   -0.002599582    0.001679250
      5        1           0.004133788    0.004214200    0.001596990
      6        8           0.006922554    0.001618637   -0.005850908
      7        1          -0.004229235   -0.005659982    0.004050486
      8        6          -0.003993761   -0.011370323   -0.001361618
      9        1          -0.001302935    0.005124626   -0.003912838
     10        8           0.026267958    0.002120353   -0.005076856
     11        1          -0.024396940    0.004718659    0.007417017
     12        6           0.004839070    0.004854164    0.006721124
     13        1          -0.001432583   -0.002494150   -0.003187818
     14        6           0.008855661   -0.001968140    0.001498165
     15        1          -0.002734316    0.003115732    0.001191799
     16        8           0.001657688   -0.001804649   -0.006142996
     17        7          -0.000803352    0.007010641   -0.005156655
     18        6          -0.009728102   -0.003189334   -0.005347348
     19        1          -0.001317579    0.006802644   -0.000528461
     20        6           0.004893894   -0.004866993    0.002163823
     21        1           0.004474442    0.004512795    0.000932333
     22        6          -0.007398604    0.003229031    0.004832330
     23        1           0.002013049   -0.001628594    0.002272496
     24        1           0.006611159   -0.004916312   -0.007104823
     25        6           0.003210386    0.001043070   -0.001653886
     26        6          -0.001696793   -0.005027076   -0.001347898
     27        1          -0.007070164   -0.004625995    0.002725235
     28        6           0.018509476   -0.004735536    0.016491479
     29        8          -0.007203658   -0.003518189   -0.005127267
     30        7          -0.008936477    0.002038993   -0.019685610
     31        1          -0.001219168   -0.005686428    0.003335945
     32        1           0.004826732    0.008956920    0.009557977
     33        6          -0.005556953   -0.012936451   -0.002637361
     34        6          -0.000455920   -0.006475138    0.005041563
     35        6          -0.006966306    0.000763774   -0.007718215
     36        6          -0.001675857    0.001250201   -0.004104625
     37        6           0.005136004    0.002143097    0.009968754
     38        8           0.000590104    0.006594805   -0.005150283
     39       16           0.006631835    0.004781145    0.003189905
     40        1           0.005230282    0.002427984   -0.002732666
     41        1          -0.001689820    0.005203515    0.004683014
     42        1           0.000012362    0.000898604    0.004121310
     43        1          -0.003028829   -0.002879156    0.002760481
     44        1           0.005960561   -0.001991834   -0.003118275
     45        1           0.002192677    0.006763235   -0.001374418
     46        1          -0.003463091   -0.006402671    0.003864250
     47        1           0.001287665   -0.004544532   -0.000989733
     48        1          -0.001984439    0.003057605   -0.004417654
 -------------------------------------------------------------------
 Cartesian Forces:  Max     0.026267958 RMS     0.006152637
 Leave Link  716 at Sun Feb 19 04:11:13 2023, MaxMem=  2684354560 cpu:               0.4 elap:               0.0
 (Enter /storage/apps/GAUSSIAN/G16_RevA03/g16/l103.exe)

 GradGradGradGradGradGradGradGradGradGradGradGradGradGradGradGradGradGrad
 Berny optimization.
 Search for a local minimum.
 Step number   1 out of a maximum of    2
 All quantities printed in internal units (Hartrees-Bohrs-Radians)
 Second derivative matrix not updated -- first step.
 ITU=  0
     Eigenvalues ---    0.00052   0.00080   0.00112   0.00142   0.00181
     Eigenvalues ---    0.00251   0.00323   0.00381   0.00449   0.00508
     Eigenvalues ---    0.00592   0.00782   0.00847   0.00901   0.00984
     Eigenvalues ---    0.01066   0.01185   0.01352   0.01415   0.01699
     Eigenvalues ---    0.01727   0.01934   0.01965   0.02542   0.02768
     Eigenvalues ---    0.03124   0.03189   0.03271   0.03527   0.03957
     Eigenvalues ---    0.04297   0.04576   0.04962   0.05025   0.05121
     Eigenvalues ---    0.05323   0.05438   0.05605   0.05763   0.05877
     Eigenvalues ---    0.06085   0.06182   0.06376   0.06544   0.06892
     Eigenvalues ---    0.07055   0.07414   0.07533   0.07909   0.08310
     Eigenvalues ---    0.08747   0.09060   0.09708   0.10128   0.10157
     Eigenvalues ---    0.10515   0.11460   0.12232   0.12329   0.12578
     Eigenvalues ---    0.12797   0.12849   0.12936   0.13508   0.13782
     Eigenvalues ---    0.13873   0.14289   0.15319   0.15845   0.16673
     Eigenvalues ---    0.17242   0.17600   0.18814   0.19109   0.19676
     Eigenvalues ---    0.19841   0.21243   0.21318   0.21920   0.24457
     Eigenvalues ---    0.26876   0.27147   0.27443   0.30734   0.32534
     Eigenvalues ---    0.33005   0.33896   0.34807   0.36899   0.37367
     Eigenvalues ---    0.37367   0.37367   0.37367   0.37367   0.39691
     Eigenvalues ---    0.42898   0.43309   0.47910   0.54265   0.55816
     Eigenvalues ---    0.60425   0.64765   0.67703   0.68842   0.72437
     Eigenvalues ---    0.77779   0.81695   0.86019   0.87378   0.87871
     Eigenvalues ---    0.89313   0.90337   0.92013   0.92252   0.92356
     Eigenvalues ---    0.92962   0.95797   0.97240   0.98102   1.00130
     Eigenvalues ---    1.01966   1.05977   1.07931   1.10295   1.12023
     Eigenvalues ---    1.17248   1.17673   1.20396   1.26569   1.30043
     Eigenvalues ---    1.36297   1.41621   1.48202   1.58090   1.63757
     Eigenvalues ---    1.74988   2.17507   2.22488
 Quadratic step=2.181D+00 exceeds max=3.000D-01 adjusted using Lamda=-2.253D-02.
 Angle between NR and scaled steps=  53.49 degrees.
 Angle between quadratic step and forces=  61.73 degrees.
 Linear search not attempted -- first point.
 Variable       Old X    -DE/DX   Delta X   Delta X   Delta X     New X
                                 (Linear)    (Quad)   (Total)
    X1        6.46012  -0.00091   0.00000  -0.02736  -0.02736   6.43276
    Y1       -7.21497   0.00858   0.00000   0.01665   0.01665  -7.19832
    Z1       -1.37311   0.00012   0.00000   0.00800   0.00800  -1.36511
    X2        6.59079  -0.00039   0.00000  -0.02250  -0.02250   6.56829
    Y2       -7.47518  -0.00079   0.00000   0.00208   0.00208  -7.47310
    Z2       -3.42810   0.00647   0.00000   0.02602   0.02602  -3.40208
    X3        8.16400  -0.00631   0.00000  -0.05284  -0.05284   8.11115
    Y3       -7.97173  -0.00172   0.00000  -0.03125  -0.03125  -8.00299
    Z3       -0.45828  -0.00296   0.00000  -0.01780  -0.01780  -0.47608
    X4        3.00089  -0.00837   0.00000   0.00380   0.00380   3.00469
    Y4       -2.89793  -0.00260   0.00000   0.00991   0.00991  -2.88802
    Z4        1.87447   0.00168   0.00000  -0.00254  -0.00254   1.87193
    X5        1.83247   0.00413   0.00000   0.02681   0.02681   1.85927
    Y5       -4.61816   0.00421   0.00000   0.01158   0.01158  -4.60658
    Z5        1.64012   0.00160   0.00000   0.03244   0.03244   1.67255
    X6        2.10132   0.00692   0.00000   0.05909   0.05909   2.16041
    Y6       -1.44623   0.00162   0.00000   0.01557   0.01557  -1.43066
    Z6        3.88780  -0.00585   0.00000   0.00474   0.00474   3.89254
    X7        0.98286  -0.00423   0.00000  -0.09130  -0.09130   0.89155
    Y7       -0.14598  -0.00566   0.00000  -0.08728  -0.08728  -0.23326
    Z7        3.22237   0.00405   0.00000   0.06870   0.06870   3.29107
    X8        5.75571  -0.00399   0.00000   0.00022   0.00022   5.75593
    Y8       -3.75651  -0.01137   0.00000   0.00988   0.00988  -3.74663
    Z8        2.04507  -0.00136   0.00000  -0.01593  -0.01593   2.02914
    X9        5.98745  -0.00130   0.00000   0.00271   0.00271   5.99016
    Y9       -5.43488   0.00512   0.00000   0.02635   0.02635  -5.40853
    Z9        3.26635  -0.00391   0.00000  -0.02556  -0.02556   3.24080
   X10        7.23948   0.02627   0.00000  -0.00237  -0.00237   7.23711
   Y10       -1.75009   0.00212   0.00000   0.02831   0.02831  -1.72178
   Z10        2.91838  -0.00508   0.00000  -0.01222  -0.01222   2.90616
   X11        9.02100  -0.02440   0.00000  -0.04348  -0.04348   8.97752
   Y11       -2.08610   0.00472   0.00000   0.03389   0.03389  -2.05221
   Z11        2.46182   0.00742   0.00000   0.01978   0.01978   2.48160
   X12        3.03701   0.00484   0.00000   0.00177   0.00177   3.03878
   Y12       -1.52444   0.00485   0.00000   0.00099   0.00099  -1.52344
   Z12       -0.66713   0.00672   0.00000  -0.00834  -0.00834  -0.67547
   X13        4.08296  -0.00143   0.00000   0.00262   0.00262   4.08558
   Y13        0.25648  -0.00249   0.00000  -0.00222  -0.00222   0.25426
   Z13       -0.39470  -0.00319   0.00000  -0.05200  -0.05200  -0.44670
   X14        6.29781   0.00886   0.00000   0.01399   0.01399   6.31180
   Y14       -4.40669  -0.00197   0.00000   0.01254   0.01254  -4.39415
   Z14       -0.77291   0.00150   0.00000  -0.00416  -0.00416  -0.77708
   X15        8.12809  -0.00273   0.00000  -0.00431  -0.00431   8.12378
   Y15       -3.56537   0.00312   0.00000   0.04312   0.04312  -3.52225
   Z15       -1.29242   0.00119   0.00000  -0.00374  -0.00374  -1.29616
   X16        4.36173   0.00166   0.00000   0.00563   0.00563   4.36737
   Y16       -3.23266  -0.00180   0.00000  -0.00424  -0.00424  -3.23690
   Z16       -2.22467  -0.00614   0.00000  -0.01405  -0.01405  -2.23872
   X17        0.62572  -0.00080   0.00000  -0.00731  -0.00731   0.61841
   Y17       -0.90893   0.00701   0.00000  -0.00756  -0.00756  -0.91650
   Z17       -1.69321  -0.00516   0.00000  -0.01213  -0.01213  -1.70534
   X18       -1.14978  -0.00973   0.00000  -0.01750  -0.01750  -1.16728
   Y18       -2.82662  -0.00319   0.00000   0.00188   0.00188  -2.82474
   Z18       -2.06348  -0.00535   0.00000  -0.00554  -0.00554  -2.06902
   X19       -0.55872  -0.00132   0.00000  -0.01579  -0.01579  -0.57451
   Y19       -4.71802   0.00680   0.00000   0.02816   0.02816  -4.68986
   Z19       -1.50809  -0.00053   0.00000   0.01427   0.01427  -1.49382
   X20       -3.38954   0.00489   0.00000  -0.00261  -0.00261  -3.39215
   Y20       -2.41081  -0.00487   0.00000  -0.00224  -0.00224  -2.41305
   Z20       -3.15466   0.00216   0.00000   0.00321   0.00321  -3.15145
   X21       -4.67282   0.00447   0.00000   0.01061   0.01061  -4.66221
   Y21       -4.00006   0.00451   0.00000   0.00909   0.00909  -3.99097
   Z21       -3.42489   0.00093   0.00000   0.01731   0.01731  -3.40757
   X22       -4.20041  -0.00740   0.00000  -0.00099  -0.00099  -4.20140
   Y22        0.16924   0.00323   0.00000  -0.01000  -0.01000   0.15924
   Z22       -4.02334   0.00483   0.00000  -0.00515  -0.00515  -4.02848
   X23       -5.10911   0.00201   0.00000   0.01752   0.01752  -5.09159
   Y23        0.03879  -0.00163   0.00000  -0.02966  -0.02966   0.00912
   Z23       -5.88733   0.00227   0.00000  -0.00253  -0.00253  -5.88986
   X24       -5.69596   0.00661   0.00000   0.01127   0.01127  -5.68469
   Y24        0.94385  -0.00492   0.00000  -0.01959  -0.01959   0.92426
   Z24       -2.75651  -0.00710   0.00000  -0.03582  -0.03582  -2.79234
   X25       -1.97362   0.00321   0.00000   0.00401   0.00401  -1.96961
   Y25        1.95231   0.00104   0.00000  -0.01982  -0.01982   1.93248
   Z25       -4.06275  -0.00165   0.00000  -0.00632  -0.00632  -4.06907
   X26        0.22077  -0.00170   0.00000  -0.01513  -0.01513   0.20564
   Y26        1.38856  -0.00503   0.00000  -0.02836  -0.02836   1.36020
   Z26       -2.90565  -0.00135   0.00000  -0.00412  -0.00412  -2.90976
   X27        1.81028  -0.00707   0.00000  -0.04151  -0.04151   1.76877
   Y27        2.71193  -0.00463   0.00000  -0.02655  -0.02655   2.68538
   Z27       -2.94920   0.00273   0.00000   0.03369   0.03369  -2.91550
   X28       -2.19678   0.01851   0.00000   0.03701   0.03701  -2.15976
   Y28        4.47609  -0.00474   0.00000  -0.02079  -0.02079   4.45530
   Z28       -5.29567   0.01649   0.00000   0.01503   0.01503  -5.28065
   X29       -0.82616  -0.00720   0.00000   0.01834   0.01834  -0.80782
   Y29        6.24841  -0.00352   0.00000  -0.01276  -0.01276   6.23566
   Z29       -4.72183  -0.00513   0.00000  -0.00155  -0.00155  -4.72338
   X30       -4.07500  -0.00894   0.00000   0.02859   0.02859  -4.04641
   Y30        4.72750   0.00204   0.00000   0.01116   0.01116   4.73866
   Z30       -7.03113  -0.01969   0.00000  -0.00044  -0.00044  -7.03157
   X31       -3.98607  -0.00122   0.00000   0.01627   0.01627  -3.96980
   Y31        6.37326  -0.00569   0.00000  -0.00458  -0.00458   6.36868
   Z31       -8.01951   0.00334   0.00000  -0.00027  -0.00027  -8.01978
   X32       -4.72160   0.00483   0.00000   0.01412   0.01412  -4.70748
   Y32        3.20440   0.00896   0.00000   0.02174   0.02174   3.22613
   Z32       -8.02551   0.00956   0.00000   0.04933   0.04933  -7.97618
   X33        0.97652  -0.00556   0.00000  -0.02175  -0.02175   0.95477
   Y33        4.01795  -0.01294   0.00000  -0.03500  -0.03500   3.98295
   Z33        7.02967  -0.00264   0.00000  -0.01968  -0.01968   7.00999
   X34       -2.06164  -0.00046   0.00000  -0.02139  -0.02139  -2.08303
   Y34        4.21054  -0.00648   0.00000   0.01246   0.01246   4.22300
   Z34        2.80386   0.00504   0.00000   0.02005   0.02005   2.82391
   X35       -3.45065  -0.00697   0.00000  -0.02178  -0.02178  -3.47244
   Y35        5.64088   0.00076   0.00000   0.01510   0.01510   5.65597
   Z35        0.85234  -0.00772   0.00000   0.02339   0.02339   0.87573
   X36       -7.27804  -0.00168   0.00000   0.01224   0.01224  -7.26580
   Y36        6.32121   0.00125   0.00000  -0.01067  -0.01067   6.31053
   Z36       -1.81186  -0.00410   0.00000  -0.00991  -0.00991  -1.82177
   X37       -5.67004   0.00514   0.00000  -0.01275  -0.01275  -5.68279
   Y37        4.82083   0.00214   0.00000   0.03076   0.03076   4.85159
   Z37       -0.04263   0.00997   0.00000   0.04266   0.04266   0.00003
   X38       -2.18441   0.00059   0.00000   0.00242   0.00242  -2.18200
   Y38        1.94168   0.00659   0.00000   0.00794   0.00794   1.94962
   Z38        3.15437  -0.00515   0.00000  -0.04502  -0.04502   3.10935
   X39       -0.28744   0.00663   0.00000   0.01375   0.01375  -0.27369
   Y39        6.23232   0.00478   0.00000   0.00201   0.00201   6.23433
   Z39        4.76272   0.00319   0.00000   0.01146   0.01146   4.77417
   X40       -0.59970   0.00523   0.00000   0.00486   0.00486  -0.59484
   Y40        3.10788   0.00243   0.00000  -0.03260  -0.03260   3.07527
   Z40        8.02551  -0.00273   0.00000  -0.01682  -0.01682   8.00869
   X41        2.06790  -0.00169   0.00000   0.01923   0.01923   2.08713
   Y41        2.55563   0.00520   0.00000   0.00112   0.00112   2.55675
   Z41        6.04287   0.00468   0.00000   0.01304   0.01304   6.05591
   X42       -7.83631   0.00001   0.00000   0.02102   0.02102  -7.81529
   Y42        5.19862   0.00090   0.00000  -0.03733  -0.03733   5.16129
   Z42       -3.46338   0.00412   0.00000   0.01837   0.01837  -3.44501
   X43       -6.24216  -0.00303   0.00000   0.00226   0.00226  -6.23990
   Y43        7.97173  -0.00288   0.00000  -0.01990  -0.01990   7.95183
   Z43       -2.51978   0.00276   0.00000  -0.00976  -0.00976  -2.52954
   X44       -9.02100   0.00596   0.00000   0.02320   0.02320  -8.99780
   Y44        6.94970  -0.00199   0.00000  -0.00537  -0.00537   6.94433
   Z44       -0.85534  -0.00312   0.00000  -0.03785  -0.03785  -0.89319
   X45       -6.39300   0.00219   0.00000  -0.00600  -0.00600  -6.39900
   Y45        3.00953   0.00676   0.00000   0.05216   0.05216   3.06169
   Z45        0.66021  -0.00137   0.00000   0.04667   0.04667   0.70688
   X46       -2.63438  -0.00346   0.00000  -0.01815  -0.01815  -2.65253
   Y46        7.43395  -0.00640   0.00000  -0.00956  -0.00956   7.42439
   Z46        0.21135   0.00386   0.00000   0.02880   0.02880   0.24016
   X47        4.76746   0.00129   0.00000  -0.01365  -0.01365   4.75381
   Y47       -8.14522  -0.00454   0.00000  -0.02249  -0.02249  -8.16771
   Z47       -0.65735  -0.00099   0.00000  -0.01090  -0.01090  -0.66825
   X48        2.17775  -0.00198   0.00000  -0.04221  -0.04221   2.13554
   Y48        4.99431   0.00306   0.00000   0.02401   0.02401   5.01832
   Z48        8.38854  -0.00442   0.00000  -0.05042  -0.05042   8.33812
         Item               Value     Threshold  Converged?
 Maximum Force            0.026268     0.000450     NO 
 RMS     Force            0.006153     0.000300     NO 
 Maximum Displacement     0.091302     0.001800     NO 
 RMS     Displacement     0.025020     0.001200     NO 
 Predicted change in Energy=-6.264219D-03
 GradGradGradGradGradGradGradGradGradGradGradGradGradGradGradGradGradGrad

 Leave Link  103 at Sun Feb 19 04:11:13 2023, MaxMem=  2684354560 cpu:               2.4 elap:               0.2
 (Enter /storage/apps/GAUSSIAN/G16_RevA03/g16/l9999.exe)

 Test job not archived.
 1\1\GINC-T044\Force\RM062X\def2TZVP\C16H24N2O5S1\LV87696\19-Feb-2023\0
 \\#P M062X/Def2TZVP scf=(direct,conver=8) EmpiricalDispersion=GD3 NoSy
 mm Force pop=(NBORead) Charge Prop=(Field,Read)\\Gaussian run using SA
 NDER external interface, route from template gau_job.tpl\\0,1\C,3.4185
 482997,-3.8179983819,-0.7266160968\H,3.4876968003,-3.9556944249,-1.814
 0734848\H,4.3202018627,-4.2184598155,-0.2425107485\C,1.5880005173,-1.5
 335193531,0.9919263229\H,0.9696992181,-2.4438269554,0.8679132926\O,1.1
 119732976,-0.7653103707,2.0573375935\H,0.5201045822,-0.0772502504,1.70
 52039939\C,3.04579192,-1.9878619869,1.0822045148\H,3.1684221764,-2.876
 0128947,1.7284790386\O,3.8309678243,-0.9261092622,1.5443392542\H,4.773
 7049928,-1.1039145775,1.3027374338\C,1.6071156313,-0.8066984806,-0.353
 0321111\H,2.1606097311,0.1357255988,-0.2088669003\C,3.3326580712,-2.33
 19200684,-0.4090079848\H,4.3011986333,-1.8867127647,-0.6839209605\O,2.
 3081302423,-1.7106491472,-1.1772458083\N,0.3311190086,-0.4809872439,-0
 .8960101926\C,-0.608439512,-1.4957806178,-1.091947426\H,-0.2956641248,
 -2.496671246,-0.7980482017\C,-1.7936650668,-1.2757459876,-1.6693722084
 \H,-2.4727488397,-2.1167394414,-1.8123715918\C,-2.2227588438,0.0895557
 914,-2.1290583795\H,-2.7036266096,0.0205242025,-3.1154402251\H,-3.0141
 707801,0.4994615554,-1.4586826497\C,-1.0443940182,1.033117532,-2.14991
 25647\C,0.1168271142,0.7347921289,-1.537602413\H,0.9579596185,1.435093
 185,-1.56064777\C,-1.1624837067,2.3686448752,-2.8023495108\O,-0.437184
 0299,3.3065180545,-2.4986871886\N,-2.1563965229,2.5016861046,-3.720712
 39\H,-2.1093363966,3.3725841192,-4.2437407015\H,-2.4985625019,1.695692
 9745,-4.2469167932\C,0.5167521475,2.1262060354,3.7199387367\C,-1.09097
 2883,2.2281215398,1.4837383106\C,-1.826007627,2.9850234797,0.451036754
 8\C,-3.8513734476,3.3450382011,-0.9587934545\C,-3.0004567381,2.5510742
 736,-0.0225598837\O,-1.1559425977,1.0274941845,1.6692219996\S,-0.15210
 6271,3.2980012662,2.5203222468\H,-0.3173483364,1.6446171761,4.24691679
 32\H,1.0942855354,1.3523822183,3.1977492889\H,-4.1467969487,2.75099364
 3,-1.8327439966\H,-3.3032080423,4.2184598155,-1.3334105761\H,-4.773704
 9928,3.6776228482,-0.452628143\H,-3.3830308415,1.5925743069,0.34936566
 79\H,-1.3940526923,3.933875907,0.1118432853\H,2.5228296941,-4.31026518
 88,-0.3478528854\H,1.152417222,2.6428752106,4.4390234859\\Version=ES64
 L-G16RevA.03\HF=-1507.9066611\RMSD=9.347e-09\RMSF=6.153e-03\Dipole=-0.
 1673851,-0.9475379,-0.8358923\Quadrupole=10.6074561,-7.4579381,-3.1495
 18,-9.8918466,9.8075051,0.3743844\PG=C01 [X(C16H24N2O5S1)]\\@


 LIFE IS SO UNCERTAIN - EAT DESSERT FIRST.
 Job cpu time:       0 days  2 hours 50 minutes  4.1 seconds.
 Elapsed time:       0 days  0 hours 10 minutes 39.2 seconds.
 File lengths (MBytes):  RWF=    435 Int=      0 D2E=      0 Chk=     48 Scr=      1
 Normal termination of Gaussian 16 at Sun Feb 19 04:11:13 2023.
