 Entering Gaussian System, Link 0=g16
 Initial command:
 /opt/gaussian/g16/l1.exe "/opt/gaussian/scratch16/Gau-2699044.inp" -scrdir="/opt/gaussian/scratch16/"
 Entering Link 1 = /opt/gaussian/g16/l1.exe PID=   2699046.
  
 Copyright (c) 1988,1990,1992,1993,1995,1998,2003,2009,2016,
            Gaussian, Inc.  All Rights Reserved.
  
 This is part of the Gaussian(R) 16 program.  It is based on
 the Gaussian(R) 09 system (copyright 2009, Gaussian, Inc.),
 the Gaussian(R) 03 system (copyright 2003, Gaussian, Inc.),
 the Gaussian(R) 98 system (copyright 1998, Gaussian, Inc.),
 the Gaussian(R) 94 system (copyright 1995, Gaussian, Inc.),
 the Gaussian 92(TM) system (copyright 1992, Gaussian, Inc.),
 the Gaussian 90(TM) system (copyright 1990, Gaussian, Inc.),
 the Gaussian 88(TM) system (copyright 1988, Gaussian, Inc.),
 the Gaussian 86(TM) system (copyright 1986, Carnegie Mellon
 University), and the Gaussian 82(TM) system (copyright 1983,
 Carnegie Mellon University). Gaussian is a federally registered
 trademark of Gaussian, Inc.
  
 This software contains proprietary and confidential information,
 including trade secrets, belonging to Gaussian, Inc.
  
 This software is provided under written license and may be
 used, copied, transmitted, or stored only in accord with that
 written license.
  
 The following legend is applicable only to US Government
 contracts under FAR:
  
                    RESTRICTED RIGHTS LEGEND
  
 Use, reproduction and disclosure by the US Government is
 subject to restrictions as set forth in subparagraphs (a)
 and (c) of the Commercial Computer Software - Restricted
 Rights clause in FAR 52.227-19.
  
 Gaussian, Inc.
 340 Quinnipiac St., Bldg. 40, Wallingford CT 06492
  
  
 ---------------------------------------------------------------
 Warning -- This program may not be used in any manner that
 competes with the business of Gaussian, Inc. or will provide
 assistance to any competitor of Gaussian, Inc.  The licensee
 of this program is prohibited from giving any competitor of
 Gaussian, Inc. access to this program.  By using this program,
 the user acknowledges that Gaussian, Inc. is engaged in the
 business of creating and licensing software in the field of
 computational chemistry and represents and warrants to the
 licensee that it is not a competitor of Gaussian, Inc. and that
 it will not use this program in any manner prohibited above.
 ---------------------------------------------------------------
  

 Cite this work as:
 Gaussian 16, Revision A.03,
 M. J. Frisch, G. W. Trucks, H. B. Schlegel, G. E. Scuseria, 
 M. A. Robb, J. R. Cheeseman, G. Scalmani, V. Barone, 
 G. A. Petersson, H. Nakatsuji, X. Li, M. Caricato, A. V. Marenich, 
 J. Bloino, B. G. Janesko, R. Gomperts, B. Mennucci, H. P. Hratchian, 
 J. V. Ortiz, A. F. Izmaylov, J. L. Sonnenberg, D. Williams-Young, 
 F. Ding, F. Lipparini, F. Egidi, J. Goings, B. Peng, A. Petrone, 
 T. Henderson, D. Ranasinghe, V. G. Zakrzewski, J. Gao, N. Rega, 
 G. Zheng, W. Liang, M. Hada, M. Ehara, K. Toyota, R. Fukuda, 
 J. Hasegawa, M. Ishida, T. Nakajima, Y. Honda, O. Kitao, H. Nakai, 
 T. Vreven, K. Throssell, J. A. Montgomery, Jr., J. E. Peralta, 
 F. Ogliaro, M. J. Bearpark, J. J. Heyd, E. N. Brothers, K. N. Kudin, 
 V. N. Staroverov, T. A. Keith, R. Kobayashi, J. Normand, 
 K. Raghavachari, A. P. Rendell, J. C. Burant, S. S. Iyengar, 
 J. Tomasi, M. Cossi, J. M. Millam, M. Klene, C. Adamo, R. Cammi, 
 J. W. Ochterski, R. L. Martin, K. Morokuma, O. Farkas, 
 J. B. Foresman, and D. J. Fox, Gaussian, Inc., Wallingford CT, 2016.
 
 ******************************************
 Gaussian 16:  ES64L-G16RevA.03 25-Dec-2016
                 8-Mar-2023 
 ******************************************
 %chk=18.chk
 %NProcShared=16
 Will use up to   16 processors via shared memory.
 %mem=20GB
 ----------------------------------------------------------------------
 #P M062X/Def2TZVP scf=(direct,conver=8) EmpiricalDispersion=GD3 NoSymm
  Force pop=(NBORead) Charge Prop=(Field,Read)
 ----------------------------------------------------------------------
 1/10=7,18=10,28=-2,30=1,38=1,125=101/1,3;
 2/12=2,15=1,17=6,18=5,29=2,40=1/2;
 3/5=44,7=101,11=2,25=1,30=1,71=1,74=-55,124=31/1,2,3;
 4//1;
 5/5=2,6=8,38=5/2;
 6/7=2,8=2,9=2,10=2,14=2,15=1,28=1,40=2/1,2,7;
 7/7=1,16=-2,29=1,30=1/1,2,3,16;
 1/10=7,18=10,28=-2,30=1/3;
 99/12=1/99;
 Leave Link    1 at Wed Mar  8 14:48:46 2023, MaxMem=  2684354560 cpu:               1.2 elap:               0.1
 (Enter /opt/gaussian/g16/l101.exe)
 ----------------------------------------------------------------------
 Gaussian run using SANDER external interface, route from template gau_
 job.tpl
 ----------------------------------------------------------------------
 Symbolic Z-matrix:
 Charge =  0 Multiplicity = 1
 C                     3.48192  -3.56679  -0.80096 
 H                     3.45094  -3.65057  -1.89557 
 H                     4.44033  -3.93995  -0.41181 
 C                     1.62308  -1.1953    0.99408 
 H                     0.89192  -2.03293   1.0116 
 O                     1.33392  -0.35595   2.07875 
 H                     0.42694   0.04352   2.0676 
 C                     3.09749  -1.70495   1.05014 
 H                     3.26819  -2.53458   1.76718 
 O                     3.89738  -0.60457   1.45583 
 H                     4.84843  -0.78618   1.42306 
 C                     1.66586  -0.44992  -0.36656 
 H                     2.29174   0.45963  -0.27488 
 C                     3.42251  -2.05503  -0.44917 
 H                     4.34517  -1.54594  -0.79611 
 O                     2.34535  -1.41052  -1.19331 
 N                     0.42275  -0.09977  -0.98781 
 C                    -0.54169  -1.07531  -1.20143 
 H                    -0.19582  -2.08896  -1.01126 
 C                    -1.74355  -0.75791  -1.68235 
 H                    -2.47217  -1.54779  -1.85733 
 C                    -2.12189   0.65213  -1.93436 
 H                    -2.91238   0.80217  -2.68222 
 H                    -2.67838   1.17463  -0.82523 
 C                    -0.91913   1.53013  -2.06841 
 C                     0.24888   1.17084  -1.50499 
 H                     1.13892   1.80067  -1.51104 
 C                    -1.13436   2.915    -2.60111 
 O                    -0.7734    3.90564  -2.03785 
 N                    -1.95081   3.01505  -3.70011 
 H                    -1.95181   3.93995  -4.09966 
 H                    -1.94028   2.24552  -4.34731 
 C                     0.92132   2.12112   3.81553 
 C                    -0.89814   2.03418   1.69517 
 C                    -1.78373   2.61435   0.77644 
 C                    -4.00437   2.97045  -0.3478 
 C                    -2.97429   2.03232   0.30489 
 O                    -0.92588   0.82711   2.08411 
 S                     0.23972   3.12051   2.44046 
 H                     0.0664    1.68213   4.34731 
 H                     1.54601   1.32873   3.38163 
 H                    -4.84843   2.39653  -0.74415 
 H                    -3.52185   3.54751  -1.14731 
 H                    -4.37412   3.67132   0.41446 
 H                    -3.39366   1.2267    0.92859 
 H                    -1.48156   3.59195   0.39269 
 H                     2.64157  -4.09528  -0.35084 
 H                     1.51756   2.73921   4.48677 
 
 ITRead=  0  0  0  0  0  0  0  0  0  0  0  0  0  0  0  0  0  0  0  0
 ITRead=  0  0  0  0  0  0  0  0  0  0  0  0  0  0  0  0  0  0  0  0
 ITRead=  0  0  0  0  0  0  0  0
 MicOpt= -1 -1 -1 -1 -1 -1 -1 -1 -1 -1 -1 -1 -1 -1 -1 -1 -1 -1 -1 -1
 MicOpt= -1 -1 -1 -1 -1 -1 -1 -1 -1 -1 -1 -1 -1 -1 -1 -1 -1 -1 -1 -1
 MicOpt= -1 -1 -1 -1 -1 -1 -1 -1
 NAtoms=     48 NQM=       48 NQMF=       0 NMMI=      0 NMMIF=      0
                NMic=       0 NMicF=      0.
                    Isotopes and Nuclear Properties:
 (Nuclear quadrupole moments (NQMom) in fm**2, nuclear magnetic moments (NMagM)
  in nuclear magnetons)

  Atom         1           2           3           4           5           6           7           8           9          10
 IAtWgt=          12           1           1          12           1          16           1          12           1          16
 AtmWgt=  12.0000000   1.0078250   1.0078250  12.0000000   1.0078250  15.9949146   1.0078250  12.0000000   1.0078250  15.9949146
 NucSpn=           0           1           1           0           1           0           1           0           1           0
 AtZEff=  -0.0000000  -0.0000000  -0.0000000  -0.0000000  -0.0000000  -0.0000000  -0.0000000  -0.0000000  -0.0000000  -0.0000000
 NQMom=    0.0000000   0.0000000   0.0000000   0.0000000   0.0000000   0.0000000   0.0000000   0.0000000   0.0000000   0.0000000
 NMagM=    0.0000000   2.7928460   2.7928460   0.0000000   2.7928460   0.0000000   2.7928460   0.0000000   2.7928460   0.0000000
 AtZNuc=   6.0000000   1.0000000   1.0000000   6.0000000   1.0000000   8.0000000   1.0000000   6.0000000   1.0000000   8.0000000

  Atom        11          12          13          14          15          16          17          18          19          20
 IAtWgt=           1          12           1          12           1          16          14          12           1          12
 AtmWgt=   1.0078250  12.0000000   1.0078250  12.0000000   1.0078250  15.9949146  14.0030740  12.0000000   1.0078250  12.0000000
 NucSpn=           1           0           1           0           1           0           2           0           1           0
 AtZEff=  -0.0000000  -0.0000000  -0.0000000  -0.0000000  -0.0000000  -0.0000000  -0.0000000  -0.0000000  -0.0000000  -0.0000000
 NQMom=    0.0000000   0.0000000   0.0000000   0.0000000   0.0000000   0.0000000   2.0440000   0.0000000   0.0000000   0.0000000
 NMagM=    2.7928460   0.0000000   2.7928460   0.0000000   2.7928460   0.0000000   0.4037610   0.0000000   2.7928460   0.0000000
 AtZNuc=   1.0000000   6.0000000   1.0000000   6.0000000   1.0000000   8.0000000   7.0000000   6.0000000   1.0000000   6.0000000

  Atom        21          22          23          24          25          26          27          28          29          30
 IAtWgt=           1          12           1           1          12          12           1          12          16          14
 AtmWgt=   1.0078250  12.0000000   1.0078250   1.0078250  12.0000000  12.0000000   1.0078250  12.0000000  15.9949146  14.0030740
 NucSpn=           1           0           1           1           0           0           1           0           0           2
 AtZEff=  -0.0000000  -0.0000000  -0.0000000  -0.0000000  -0.0000000  -0.0000000  -0.0000000  -0.0000000  -0.0000000  -0.0000000
 NQMom=    0.0000000   0.0000000   0.0000000   0.0000000   0.0000000   0.0000000   0.0000000   0.0000000   0.0000000   2.0440000
 NMagM=    2.7928460   0.0000000   2.7928460   2.7928460   0.0000000   0.0000000   2.7928460   0.0000000   0.0000000   0.4037610
 AtZNuc=   1.0000000   6.0000000   1.0000000   1.0000000   6.0000000   6.0000000   1.0000000   6.0000000   8.0000000   7.0000000

  Atom        31          32          33          34          35          36          37          38          39          40
 IAtWgt=           1           1          12          12          12          12          12          16          32           1
 AtmWgt=   1.0078250   1.0078250  12.0000000  12.0000000  12.0000000  12.0000000  12.0000000  15.9949146  31.9720718   1.0078250
 NucSpn=           1           1           0           0           0           0           0           0           0           1
 AtZEff=  -0.0000000  -0.0000000  -0.0000000  -0.0000000  -0.0000000  -0.0000000  -0.0000000  -0.0000000  -0.0000000  -0.0000000
 NQMom=    0.0000000   0.0000000   0.0000000   0.0000000   0.0000000   0.0000000   0.0000000   0.0000000   0.0000000   0.0000000
 NMagM=    2.7928460   2.7928460   0.0000000   0.0000000   0.0000000   0.0000000   0.0000000   0.0000000   0.0000000   2.7928460
 AtZNuc=   1.0000000   1.0000000   6.0000000   6.0000000   6.0000000   6.0000000   6.0000000   8.0000000  16.0000000   1.0000000

  Atom        41          42          43          44          45          46          47          48
 IAtWgt=           1           1           1           1           1           1           1           1
 AtmWgt=   1.0078250   1.0078250   1.0078250   1.0078250   1.0078250   1.0078250   1.0078250   1.0078250
 NucSpn=           1           1           1           1           1           1           1           1
 AtZEff=  -0.0000000  -0.0000000  -0.0000000  -0.0000000  -0.0000000  -0.0000000  -0.0000000  -0.0000000
 NQMom=    0.0000000   0.0000000   0.0000000   0.0000000   0.0000000   0.0000000   0.0000000   0.0000000
 NMagM=    2.7928460   2.7928460   2.7928460   2.7928460   2.7928460   2.7928460   2.7928460   2.7928460
 AtZNuc=   1.0000000   1.0000000   1.0000000   1.0000000   1.0000000   1.0000000   1.0000000   1.0000000
 Background charge distribution read from input stream:
 Leave Link  101 at Wed Mar  8 14:48:47 2023, MaxMem=  2684354560 cpu:               4.0 elap:               0.3
 (Enter /opt/gaussian/g16/l103.exe)

 GradGradGradGradGradGradGradGradGradGradGradGradGradGradGradGradGradGrad
 Berny optimization.
 Initialization pass.
 Trust Radius=3.00D-01 FncErr=1.00D-07 GrdErr=1.00D-07 EigMax=2.50D+02 EigMin=1.00D-04
 Number of steps in this run=      2 maximum allowed number of steps=      2.
 GradGradGradGradGradGradGradGradGradGradGradGradGradGradGradGradGradGrad

 Leave Link  103 at Wed Mar  8 14:48:47 2023, MaxMem=  2684354560 cpu:               0.4 elap:               0.0
 (Enter /opt/gaussian/g16/l202.exe)
 ---------------------------------------------------------------------------------------------------
                            Z-MATRIX (ANGSTROMS AND DEGREES)
   CD    Cent   Atom    N1       Length/X        N2       Alpha/Y        N3        Beta/Z          J
 ---------------------------------------------------------------------------------------------------
      1      1  C        0   3.481924         -3.566791         -0.800959
      2      2  H        0   3.450944         -3.650571         -1.895565
      3      3  H        0   4.440329         -3.939953         -0.411810
      4      4  C        0   1.623081         -1.195300          0.994081
      5      5  H        0   0.891925         -2.032934          1.011600
      6      6  O        0   1.333923         -0.355946          2.078746
      7      7  H        0   0.426936          0.043520          2.067600
      8      8  C        0   3.097488         -1.704953          1.050143
      9      9  H        0   3.268195         -2.534581          1.767181
     10     10  O        0   3.897381         -0.604573          1.455834
     11     11  H        0   4.848429         -0.786182          1.423060
     12     12  C        0   1.665858         -0.449924         -0.366561
     13     13  H        0   2.291739          0.459630         -0.274880
     14     14  C        0   3.422510         -2.055032         -0.449174
     15     15  H        0   4.345169         -1.545935         -0.796109
     16     16  O        0   2.345346         -1.410522         -1.193311
     17     17  N        0   0.422753         -0.099768         -0.987811
     18     18  C        0  -0.541695         -1.075314         -1.201428
     19     19  H        0  -0.195815         -2.088958         -1.011261
     20     20  C        0  -1.743548         -0.757909         -1.682353
     21     21  H        0  -2.472169         -1.547793         -1.857332
     22     22  C        0  -2.121886          0.652130         -1.934359
     23     23  H        0  -2.912379          0.802170         -2.682222
     24     24  H        0  -2.678381          1.174627         -0.825233
     25     25  C        0  -0.919135          1.530135         -2.068408
     26     26  C        0   0.248881          1.170836         -1.504989
     27     27  H        0   1.138923          1.800669         -1.511039
     28     28  C        0  -1.134357          2.915003         -2.601106
     29     29  O        0  -0.773399          3.905645         -2.037846
     30     30  N        0  -1.950814          3.015053         -3.700107
     31     31  H        0  -1.951815          3.939953         -4.099664
     32     32  H        0  -1.940280          2.245524         -4.347307
     33     33  C        0   0.921321          2.121119          3.815535
     34     34  C        0  -0.898140          2.034185          1.695166
     35     35  C        0  -1.783730          2.614347          0.776445
     36     36  C        0  -4.004372          2.970454         -0.347797
     37     37  C        0  -2.974286          2.032322          0.304887
     38     38  O        0  -0.925881          0.827111          2.084106
     39     39  S        0   0.239719          3.120508          2.440456
     40     40  H        0   0.066396          1.682130          4.347307
     41     41  H        0   1.546006          1.328731          3.381625
     42     42  H        0  -4.848429          2.396526         -0.744148
     43     43  H        0  -3.521845          3.547506         -1.147314
     44     44  H        0  -4.374122          3.671320          0.414465
     45     45  H        0  -3.393658          1.226696          0.928592
     46     46  H        0  -1.481559          3.591952          0.392689
     47     47  H        0   2.641570         -4.095276         -0.350839
     48     48  H        0   1.517557          2.739213          4.486774
 ---------------------------------------------------------------------------------------------------
                         Z-Matrix orientation:                         
 ---------------------------------------------------------------------
 Center     Atomic      Atomic             Coordinates (Angstroms)
 Number     Number       Type             X           Y           Z
 ---------------------------------------------------------------------
      1          6           0        3.481924   -3.566791   -0.800959
      2          1           0        3.450944   -3.650571   -1.895565
      3          1           0        4.440329   -3.939953   -0.411810
      4          6           0        1.623081   -1.195300    0.994081
      5          1           0        0.891925   -2.032934    1.011600
      6          8           0        1.333923   -0.355946    2.078746
      7          1           0        0.426936    0.043520    2.067600
      8          6           0        3.097488   -1.704953    1.050143
      9          1           0        3.268195   -2.534581    1.767181
     10          8           0        3.897381   -0.604573    1.455834
     11          1           0        4.848429   -0.786182    1.423060
     12          6           0        1.665858   -0.449924   -0.366561
     13          1           0        2.291739    0.459630   -0.274880
     14          6           0        3.422510   -2.055032   -0.449174
     15          1           0        4.345169   -1.545935   -0.796109
     16          8           0        2.345346   -1.410522   -1.193311
     17          7           0        0.422753   -0.099768   -0.987811
     18          6           0       -0.541695   -1.075314   -1.201428
     19          1           0       -0.195815   -2.088958   -1.011261
     20          6           0       -1.743548   -0.757909   -1.682353
     21          1           0       -2.472169   -1.547793   -1.857332
     22          6           0       -2.121886    0.652130   -1.934359
     23          1           0       -2.912379    0.802170   -2.682222
     24          1           0       -2.678381    1.174627   -0.825233
     25          6           0       -0.919135    1.530135   -2.068408
     26          6           0        0.248881    1.170836   -1.504989
     27          1           0        1.138923    1.800669   -1.511039
     28          6           0       -1.134357    2.915003   -2.601106
     29          8           0       -0.773399    3.905645   -2.037846
     30          7           0       -1.950814    3.015053   -3.700107
     31          1           0       -1.951815    3.939953   -4.099664
     32          1           0       -1.940280    2.245524   -4.347307
     33          6           0        0.921321    2.121119    3.815535
     34          6           0       -0.898140    2.034185    1.695166
     35          6           0       -1.783730    2.614347    0.776445
     36          6           0       -4.004372    2.970454   -0.347797
     37          6           0       -2.974286    2.032322    0.304887
     38          8           0       -0.925881    0.827111    2.084106
     39         16           0        0.239719    3.120508    2.440456
     40          1           0        0.066396    1.682130    4.347307
     41          1           0        1.546006    1.328731    3.381625
     42          1           0       -4.848429    2.396526   -0.744148
     43          1           0       -3.521845    3.547506   -1.147314
     44          1           0       -4.374122    3.671320    0.414465
     45          1           0       -3.393658    1.226696    0.928592
     46          1           0       -1.481559    3.591952    0.392689
     47          1           0        2.641570   -4.095276   -0.350839
     48          1           0        1.517557    2.739213    4.486774
 ---------------------------------------------------------------------
                    Distance matrix (angstroms):
                    1          2          3          4          5
     1  C    0.000000
     2  H    1.098245   0.000000
     3  H    1.099648   1.806697   0.000000
     4  C    3.507340   4.209453   4.176905   0.000000
     5  H    3.513713   4.197254   4.272468   1.111992   0.000000
     6  O    4.818312   5.579560   5.357026   1.401651   2.036284
     7  H    5.531358   6.204645   6.174370   2.029256   2.375502
     8  C    2.653453   3.547895   2.989273   1.561015   2.230150
     9  H    2.776054   3.833346   2.845517   2.257822   2.543464
    10  O    3.747059   4.550746   3.861042   2.394706   3.357131
    11  H    3.813841   4.601192   3.671453   3.279371   4.168647
    12  C    3.633409   3.970961   4.458704   1.552018   2.237012
    13  H    4.231473   4.567727   4.898114   2.190013   3.134866
    14  C    1.553286   2.153741   2.142494   2.461721   2.922021
    15  H    2.197515   2.537309   2.426533   3.276811   3.928088
    16  O    2.468856   2.594866   3.376051   2.313584   2.713202
    17  N    4.627493   4.754174   5.587461   2.562981   2.820443
    18  C    4.749457   4.801557   5.800880   3.085597   2.805315
    19  H    3.969129   4.064417   5.027857   2.851035   2.297452
    20  C    5.997685   5.949429   7.069654   4.323054   3.978541
    21  H    6.375226   6.285413   7.456178   5.002587   4.447838
    22  C    7.105390   7.040680   8.152793   5.100346   4.997129
    23  H    7.969572   7.806254   9.039071   6.170533   6.012891
    24  H    7.773737   7.873803   8.775299   5.237272   5.139016
    25  C    6.852328   6.779910   7.835178   4.823866   5.045973
    26  C    5.778697   5.801011   6.699510   3.705722   4.124424
    27  H    5.899449   5.933745   6.712848   3.935208   4.595784
    28  C    8.158691   8.039250   9.102777   6.117468   6.452871
    29  O    8.687633   8.658044   9.559307   6.399635   6.880345
    30  N    9.013344   8.767320  10.001585   7.248116   7.467497
    31  H    9.836573   9.574127  10.795957   8.068267   8.359860
    32  H    8.704016   8.357049   9.719075   7.284726   7.419196
    33  C    7.760220   8.504591   8.184769   4.410408   5.011893
    34  C    7.535684   8.007767   8.284257   4.156639   4.495893
    35  C    8.271745   8.590148   9.116452   5.115382   5.367648
    36  C    9.949149  10.090357  10.911957   7.128981   7.131310
    37  C    8.617169   8.855554   9.547682   5.659356   5.654497
    38  O    6.859936   7.419166   7.599388   3.431546   3.554511
    39  S    8.107936   8.657977   8.696588   4.757298   5.387482
    40  H    8.106889   8.880672   8.566697   4.684762   5.060646
    41  H    6.723683   7.501398   7.108184   3.475203   4.164809
    42  H   10.244958  10.333090  11.249108   7.602834   7.460190
    43  H    9.989292  10.049477  10.954415   7.317789   7.435293
    44  H   10.751045  10.962573  11.675134   7.745088   7.786292
    45  H    8.558183   8.866351   9.479572   5.571178   5.385007
    46  H    8.792529   9.056481   9.614862   5.737442   6.136434
    47  H    1.090000   1.799730   1.806482   3.354995   3.028325
    48  H    8.460765   9.235886   8.783506   5.262170   5.936467
                    6          7          8          9         10
     6  O    0.000000
     7  H    0.991122   0.000000
     8  C    2.447040   3.350257   0.000000
     9  H    2.930006   3.848325   1.109760   0.000000
    10  O    2.649745   3.583053   1.419595   2.053715   0.000000
    11  H    3.600941   4.544605   2.012213   2.381693   0.968787
    12  C    2.469522   2.775527   2.373123   3.386168   2.885262
    13  H    2.668732   3.022887   2.662769   3.753503   2.589592
    14  C    3.693165   4.439767   1.573578   2.272886   2.440982
    15  H    4.329950   5.106833   2.233974   2.950889   2.481517
    16  O    3.583499   4.053156   2.384428   3.298435   3.174325
    17  N    3.209304   3.058772   3.726136   4.649176   4.277765
    18  C    3.846424   3.588395   4.325468   5.045529   5.195001
    19  H    3.858961   3.796666   3.904189   4.462923   5.004420
    20  C    4.876296   4.406295   5.639065   6.338250   6.456919
    21  H    5.603530   5.132463   6.284839   6.860220   7.241402
    22  C    5.391089   4.783573   6.457937   7.273891   7.021701
    23  H    6.483759   5.855543   7.505645   8.314480   8.091679
    24  H    5.184046   4.392138   6.720839   7.472656   7.183973
    25  C    5.082564   4.596574   6.026974   6.983365   6.338461
    26  C    4.043703   3.750459   4.786797   5.792536   5.022958
    27  H    4.192322   4.049834   4.762879   5.837373   4.711329
    28  C    6.220332   5.699111   7.251491   8.256050   7.359658
    29  O    6.288743   5.762942   7.483198   8.502307   7.373199
    30  N    7.453071   6.910148   8.386220   9.376978   8.595743
    31  H    8.211186   7.673056   9.158654  10.177817   9.259016
    32  H    7.666956   7.183562   8.373640   9.346902   8.710786
    33  C    3.053281   2.759730   5.198261   5.601706   4.674881
    34  C    3.292714   2.420182   5.510195   6.183620   5.478809
    35  C    4.498709   3.628123   6.523615   7.281137   6.564909
    36  C    6.741695   5.834174   8.616849   9.363161   8.858420
    37  C    5.235557   4.316341   7.168617   7.871688   7.449678
    38  O    2.550758   1.563458   4.864969   5.384393   5.070335
    39  S    3.662492   3.105145   5.777965   6.450194   5.312645
    40  H    3.302536   2.830565   5.615259   5.889756   5.316585
    41  H    2.140235   2.151917   4.128697   4.527421   3.602124
    42  H    7.332551   6.424332   9.120264   9.823552   9.504510
    43  H    7.015902   6.181138   8.731135   9.570303   8.891629
    44  H    7.181259   6.240509   9.226774   9.937206   9.369391
    45  H    5.116409   4.158628   7.123505   7.696150   7.535966
    46  H    5.133773   4.363376   7.032576   7.872980   6.904644
    47  H    4.647087   5.280443   2.807892   2.704521   4.126274
    48  H    3.925854   3.782674   5.835857   6.186585   5.102065
                   11         12         13         14         15
    11  H    0.000000
    12  C    3.666684   0.000000
    13  H    3.312358   1.107890   0.000000
    14  C    2.673666   2.380971   2.762706   0.000000
    15  H    2.399001   2.926510   2.917285   1.109434   0.000000
    16  O    3.674320   1.438043   2.084192   1.459252   2.043380
    17  N    5.086263   1.433133   2.077090   3.621012   4.184913
    18  C    6.002080   2.441599   3.353042   4.152186   4.926176
    19  H    5.750439   2.562791   3.636686   3.661880   4.578395
    20  C    7.286875   3.667453   4.443750   5.467303   6.203135
    21  H    8.058051   4.533319   5.406359   6.081730   6.899442
    22  C    7.869326   4.244940   4.719217   6.346244   6.924587
    23  H    8.922238   5.281124   5.744168   7.299377   7.857673
    24  H    8.096447   4.660682   5.051356   6.913246   7.532102
    25  C    7.128847   3.674112   3.830461   5.858772   6.228471
    26  C    5.793033   2.435304   2.488423   4.646815   4.966179
    27  H    5.390841   2.579275   2.157651   4.605296   4.689446
    28  C    8.104715   4.914990   4.814386   7.077930   7.292681
    29  O    8.099139   5.264423   4.937422   7.460509   7.580328
    30  N    9.323407   6.016553   6.021762   8.071364   8.299109
    31  H    9.953901   6.804016   6.689497   8.840208   8.981116
    32  H    9.411427   6.009660   6.138735   7.902514   8.154327
    33  C    5.440451   4.965331   4.622778   6.471779   6.814490
    34  C    6.407150   4.122572   4.066402   6.323599   6.820264
    35  C    7.481125   4.753511   4.728375   7.100012   7.572600
    36  C    9.778565   6.621997   6.778685   8.967963   9.503347
    37  C    8.389823   5.305027   5.526346   7.628503   8.221346
    38  O    6.031778   3.788627   4.006611   5.799376   6.458402
    39  S    6.126788   4.760378   4.320197   6.728026   7.007550
    40  H    6.124673   5.415208   5.273639   6.945222   7.428528
    41  H    4.383472   4.150527   3.831642   5.444826   5.792450
    42  H   10.433383   7.119044   7.413081   9.397436  10.003397
    43  H    9.769809   6.595550   6.640322   8.949854   9.378508
    44  H   10.292815   7.353639   7.431275   9.712077  10.232853
    45  H    8.498716   5.485178   5.861781   7.689481   8.399496
    46  H    7.765209   5.178751   4.949229   7.526424   7.858874
    47  H    4.355118   3.773706   4.568952   2.186809   3.098331
    48  H    5.736677   5.809255   5.335654   7.139833   7.366596
                   16         17         18         19         20
    16  O    0.000000
    17  N    2.335952   0.000000
    18  C    2.906447   1.388338   0.000000
    19  H    2.636459   2.083280   1.087783   0.000000
    20  C    4.169426   2.368205   1.332848   2.148845   0.000000
    21  H    4.864999   3.351629   2.092887   2.488068   1.088772
    22  C    4.975926   2.817177   2.453213   3.474971   1.481504
    23  H    5.895466   3.848067   3.367171   4.304701   2.190833
    24  H    5.661828   3.356716   3.125569   4.104720   2.311549
    25  C    4.479965   2.371694   2.771728   3.839087   2.462486
    26  C    3.340017   1.382801   2.400490   3.326828   2.778721
    27  H    3.445018   2.097219   3.345387   4.142524   3.858018
    28  C    5.727161   3.757147   4.270009   5.333676   3.834776
    29  O    6.221048   4.310068   5.056010   6.109235   4.776641
    30  N    6.657831   4.763662   4.996010   6.029995   4.283635
    31  H    7.452520   5.625082   5.961637   6.997824   5.287407
    32  H    6.456078   4.729750   4.783363   5.741088   4.020111
    33  C    6.291969   5.315358   6.125970   6.501592   6.754042
    34  C    5.543420   3.673809   4.264539   4.981799   4.462973
    35  C    6.093338   3.917599   4.366718   5.276215   4.173656
    36  C    7.760590   5.425432   5.393242   6.367335   4.559940
    37  C    6.511240   4.213875   4.224202   5.141702   3.639948
    38  O    5.142897   3.480602   3.815960   4.314830   4.167383
    39  S    6.178038   4.707089   5.610601   6.264390   5.997750
    40  H    6.742148   5.636101   6.225892   6.557752   6.751776
    41  H    5.391891   4.732259   5.580529   5.831980   6.388983
    42  H    8.151426   5.837483   5.550742   6.468210   4.524486
    43  H    7.681672   5.374746   5.500426   6.546046   4.688838
    44  H    8.576789   6.260790   6.311033   7.257531   5.561891
    45  H    6.662849   4.471811   4.239095   4.998279   3.671315
    46  H    6.495025   4.377326   5.020750   5.991407   4.826565
    47  H    2.829384   4.614430   4.469546   3.537261   5.669233
    48  H    7.083001   6.263345   7.151697   7.515004   7.805305
                   21         22         23         24         25
    21  H    0.000000
    22  C    2.228966   0.000000
    23  H    2.529141   1.098495   0.000000
    24  H    2.918787   1.346421   1.908373   0.000000
    25  C    3.453999   1.495150   2.209009   2.183304   0.000000
    26  C    3.862539   2.464539   3.393428   3.005153   1.345658
    27  H    4.936811   3.482989   4.333787   3.928621   2.149290
    28  C    4.717997   2.557413   2.762609   2.926883   1.499316
    29  O    5.714752   3.523420   3.823874   3.543705   2.380172
    30  N    4.948453   2.954748   2.618692   3.490189   2.435526
    31  H    5.950981   3.940464   3.574564   4.347048   3.316573
    32  H    4.568603   2.897275   2.408475   3.754546   2.597673
    33  C    7.560298   6.669356   7.658833   5.948985   6.193328
    34  C    5.284730   4.071987   4.973584   3.203202   3.797235
    35  C    4.973342   3.363495   4.064506   2.332073   3.164842
    36  C    5.004088   3.381651   3.368004   2.282804   3.814933
    37  C    4.212426   2.765093   3.231088   1.449266   3.179365
    38  O    4.854494   4.196321   5.163786   3.414129   4.211610
    39  S    6.900605   5.550592   6.446103   4.792335   4.919561
    40  H    7.441388   6.731181   7.685161   5.877629   6.492747
    41  H    7.201860   6.493913   7.544846   5.963795   5.985010
    42  H    4.737451   3.448704   3.169605   2.491731   4.235995
    43  H    5.250525   3.310971   3.203789   2.538843   3.419401
    44  H    6.001468   4.439037   4.467459   3.262800   4.763010
    45  H    4.038354   3.184967   3.667401   1.894791   3.898378
    46  H    5.697445   3.803646   4.391493   2.959591   3.259511
    47  H    5.908427   6.909117   7.763160   7.503252   6.875602
    48  H    8.633888   7.670229   8.647021   6.947751   7.097164
                   26         27         28         29         30
    26  C    0.000000
    27  H    1.090367   0.000000
    28  C    2.481318   2.756408   0.000000
    29  O    2.967856   2.892304   1.195375   0.000000
    30  N    3.613632   3.976584   1.372740   2.223189   0.000000
    31  H    4.386731   4.564009   1.991089   2.375065   1.007515
    32  H    3.745150   4.209965   2.036402   3.074284   1.005561
    33  C    5.446392   5.340639   6.784493   6.349699   8.095254
    34  C    3.507424   3.805772   4.391991   4.177715   5.583833
    35  C    3.379374   3.799546   3.452525   3.257062   4.497555
    36  C    4.761080   5.401390   3.649311   3.764311   3.931549
    37  C    3.795605   4.502192   3.550952   3.720435   4.248909
    38  O    3.792073   4.258673   5.133612   5.146952   6.268548
    39  S    4.400891   4.262024   5.229499   4.658115   6.520434
    40  H    5.877422   5.956894   7.158368   6.813182   8.402778
    41  H    5.058306   4.932201   6.744900   6.433568   8.076036
    42  H    5.297524   6.065604   4.184668   4.533979   4.185265
    43  H    4.471562   4.990641   2.865951   2.911232   3.044405
    44  H    5.595434   6.131930   4.490185   4.362791   4.820042
    45  H    4.381042   5.179337   4.518140   4.779360   5.167675
    46  H    3.529506   3.701324   3.088951   2.550960   4.159807
    47  H    5.898217   6.194044   8.274378   8.861306   9.102986
    48  H    6.322228   6.082597   7.569782   7.012825   8.895544
                   31         32         33         34         35
    31  H    0.000000
    32  H    1.712469   0.000000
    33  C    8.614722   8.650793   0.000000
    34  C    6.190496   6.135324   2.795346   0.000000
    35  C    5.055880   5.139394   4.098370   1.401750   0.000000
    36  C    4.385138   4.558737   6.505164   3.833924   2.514356
    37  C    4.907604   4.770485   5.244834   2.498651   1.406607
    38  O    6.998667   6.663631   2.843317   1.268492   2.374888
    39  S    6.946041   7.182738   1.831448   1.740769   2.668234
    40  H    8.973420   8.940944   1.098358   2.843963   4.128323
    41  H    8.661578   8.528253   1.098357   3.052157   4.418927
    42  H    4.693829   4.632805   7.359115   4.656858   3.428123
    43  H    3.366807   3.799535   6.812207   4.153752   2.755482
    44  H    5.130019   5.534524   6.481676   4.050044   2.821056
    45  H    5.892710   5.566455   5.268157   2.732633   2.130867
    46  H    4.530285   4.948824   4.433177   2.112691   1.092835
    47  H    9.985878   8.784694   7.678639   7.367902   8.116223
    48  H    9.338375   9.499545   1.090000   3.758422   4.967960
                   36         37         38         39         40
    36  C    0.000000
    37  C    1.538560   0.000000
    38  O    4.470479   2.968858   0.000000
    39  S    5.080274   4.009318   2.597167   0.000000
    40  H    6.346254   5.070457   2.614909   2.394797   0.000000
    41  H    6.885532   5.513111   2.836442   2.408869   1.801855
    42  H    1.094952   2.178424   5.084139   6.046081   7.112579
    43  H    1.097747   2.168984   4.957989   5.215725   6.822460
    44  H    1.099532   2.158209   4.771540   5.069079   6.256383
    45  H    2.245625   1.101778   2.754053   4.367343   4.885387
    46  H    2.701697   2.160645   3.288467   2.716322   4.656457
    47  H    9.700160   8.337581   6.548707   8.101096   7.879246
    48  H    7.342905   6.177744   3.924198   2.442473   1.800762
                   41         42         43         44         45
    41  H    0.000000
    42  H    7.684464   0.000000
    43  H    7.149641   1.801977   0.000000
    44  H    7.024222   1.786743   1.783496   0.000000
    45  H    5.516164   2.506575   3.116404   2.683621   0.000000
    46  H    4.818928   3.749300   2.556629   2.893733   3.088325
    47  H    6.674683   9.919590   9.850592  10.494076   8.147656
    48  H    1.792101   8.246560   7.602096   7.222493   6.250472
                   46         47         48
    46  H    0.000000
    47  H    8.754799   0.000000
    48  H    5.146202   8.448441   0.000000
 Symmetry turned off by external request.
 Stoichiometry    C16H24N2O5S
 Framework group  C1[X(C16H24N2O5S)]
 Deg. of freedom   138
 Full point group                 C1      NOp   1
 Rotational constants (GHZ):           0.2952677           0.1694600           0.1286423
 Leave Link  202 at Wed Mar  8 14:48:47 2023, MaxMem=  2684354560 cpu:               0.1 elap:               0.0
 (Enter /opt/gaussian/g16/l301.exe)
 Standard basis: def2TZVP (5D, 7F)
 Ernie: Thresh=  0.10000D-02 Tol=  0.10000D-05 Strict=F.
   894 basis functions,  1434 primitive gaussians,  1014 cartesian basis functions
    95 alpha electrons       95 beta electrons
       nuclear repulsion energy      2447.0938106611 Hartrees.
 IExCor= 4336 DFT=T Ex+Corr=M062X ExCW=0 ScaHFX=  0.540000
 ScaDFX=  1.000000  1.000000  1.000000  1.000000 ScalE2=  1.000000  1.000000
 IRadAn=      5 IRanWt=     -1 IRanGd=            0 ICorTp=0 IEmpDi=131
 NAtoms=   48 NActive=   48 NUniq=   48 SFac= 1.00D+00 NAtFMM=   60 NAOKFM=F Big=F
 Integral buffers will be    131072 words long.
 Raffenetti 2 integral format.
 Two-electron integral symmetry is turned off.
 R6Disp:  Grimme-D3 Dispersion energy=       -0.0041865637 Hartrees.
 Nuclear repulsion after empirical dispersion term =     2447.0896240974 Hartrees.
 Leave Link  301 at Wed Mar  8 14:48:47 2023, MaxMem=  2684354560 cpu:               1.0 elap:               0.1
 (Enter /opt/gaussian/g16/l302.exe)
 NPDir=0 NMtPBC=     1 NCelOv=     1 NCel=       1 NClECP=     1 NCelD=      1
         NCelK=      1 NCelE2=     1 NClLst=     1 CellRange=     0.0.
 One-electron integrals computed using PRISM.
   1 Symmetry operations used in ECPInt.
 ECPInt:  NShTT=   65703 NPrTT=  200010 LenC2=   56219 LenP2D=  119202.
 LDataN:  DoStor=T MaxTD1= 6 Len=  172
 NBasis=   894 RedAO= T EigKep=  2.95D-05  NBF=   894
 NBsUse=   894 1.00D-06 EigRej= -1.00D+00 NBFU=   894
 Precomputing XC quadrature grid using
 IXCGrd= 4 IRadAn=           5 IRanWt=          -1 IRanGd=           0 AccXCQ= 0.00D+00.
 Generated NRdTot=       0 NPtTot=           0 NUsed=           0 NTot=          32
 NSgBfM=   998   998   998   998   998 MxSgAt=    48 MxSgA2=    48.
 Leave Link  302 at Wed Mar  8 14:48:49 2023, MaxMem=  2684354560 cpu:              41.9 elap:               2.7
 (Enter /opt/gaussian/g16/l303.exe)
 DipDrv:  MaxL=1.
 Leave Link  303 at Wed Mar  8 14:48:50 2023, MaxMem=  2684354560 cpu:               4.6 elap:               0.3
 (Enter /opt/gaussian/g16/l401.exe)
 ExpMin= 9.52D-02 ExpMax= 6.07D+04 ExpMxC= 2.07D+03 IAcc=3 IRadAn=         5 AccDes= 0.00D+00
 Harris functional with IExCor= 1009 and IRadAn=       5 diagonalized for initial guess.
 HarFok:  IExCor= 1009 AccDes= 0.00D+00 IRadAn=         5 IDoV= 1 UseB2=F ITyADJ=14
 ICtDFT=  3500011 ScaDFX=  1.000000  1.000000  1.000000  1.000000
 FoFCou: FMM=F IPFlag=           0 FMFlag=      100000 FMFlg1=           0
         NFxFlg=           0 DoJE=T BraDBF=F KetDBF=T FulRan=T
         wScrn=  0.000000 ICntrl=       500 IOpCl=  0 I1Cent=   200000004 NGrid=           0
         NMat0=    1 NMatS0=      1 NMatT0=    0 NMatD0=    1 NMtDS0=    0 NMtDT0=    0
 Symmetry not used in FoFCou.
 Harris En= -1507.17349576815    
 JPrj=0 DoOrth=F DoCkMO=F.
 Leave Link  401 at Wed Mar  8 14:49:00 2023, MaxMem=  2684354560 cpu:             154.6 elap:               9.8
 (Enter /opt/gaussian/g16/l502.exe)
 Two-electron integral symmetry not used.
 Closed shell SCF:
 Using DIIS extrapolation, IDIIS=  1040.
 NGot=  2684354560 LenX=  2682275214 LenY=  2681246004
 Requested convergence on RMS density matrix=1.00D-08 within 128 cycles.
 Requested convergence on MAX density matrix=1.00D-06.
 Requested convergence on             energy=1.00D-06.
 No special actions if energy rises.
 Fock matrices will be formed incrementally for  20 cycles.
 Integral accuracy reduced to 1.0D-05 until final iterations.

 Cycle   1  Pass 0  IDiag  1:
 FoFJK:  IHMeth= 1 ICntrl=       0 DoSepK=F KAlg= 0 I1Cent=           0 FoldK=F
 IRaf= 780000000 NMat=       1 IRICut=       1 DoRegI=T DoRafI=F ISym2E= 0 IDoP0=0 IntGTp=1.
 FoFCou: FMM=F IPFlag=           0 FMFlag=      100000 FMFlg1=           0
         NFxFlg=           0 DoJE=F BraDBF=F KetDBF=F FulRan=T
         wScrn=  0.000000 ICntrl=         0 IOpCl=  0 I1Cent=           0 NGrid=           0
         NMat0=    1 NMatS0=      1 NMatT0=    0 NMatD0=    1 NMtDS0=    0 NMtDT0=    0
 Symmetry not used in FoFCou.
 E= -1507.11182907818    
 DIIS: error= 1.42D-02 at cycle   1 NSaved=   1.
 NSaved= 1 IEnMin= 1 EnMin= -1507.11182907818     IErMin= 1 ErrMin= 1.42D-02
 ErrMax= 1.42D-02  0.00D+00 EMaxC= 1.00D-01 BMatC= 9.89D-01 BMatP= 9.89D-01
 IDIUse=3 WtCom= 8.58D-01 WtEn= 1.42D-01
 Coeff-Com:  0.100D+01
 Coeff-En:   0.100D+01
 Coeff:      0.100D+01
 Gap=     0.262 Goal=   None    Shift=    0.000
 GapD=    0.262 DampG=1.000 DampE=0.500 DampFc=0.5000 IDamp=-1.
 Damping current iteration by 5.00D-01
 RMSDP=3.73D-03 MaxDP=9.09D-01              OVMax= 2.23D-01

 Cycle   2  Pass 0  IDiag  1:
 RMSU=  1.86D-03    CP:  1.01D+00
 E= -1507.44162993095     Delta-E=       -0.329800852772 Rises=F Damp=T
 DIIS: error= 3.67D-03 at cycle   2 NSaved=   2.
 NSaved= 2 IEnMin= 2 EnMin= -1507.44162993095     IErMin= 2 ErrMin= 3.67D-03
 ErrMax= 3.67D-03  0.00D+00 EMaxC= 1.00D-01 BMatC= 8.96D-02 BMatP= 9.89D-01
 IDIUse=3 WtCom= 9.63D-01 WtEn= 3.67D-02
 Coeff-Com:  0.883D-02 0.991D+00
 Coeff-En:   0.675D-01 0.933D+00
 Coeff:      0.110D-01 0.989D+00
 Gap=     0.228 Goal=   None    Shift=    0.000
 RMSDP=1.21D-03 MaxDP=2.63D-01 DE=-3.30D-01 OVMax= 1.99D-01

 Cycle   3  Pass 0  IDiag  1:
 RMSU=  9.95D-04    CP:  9.95D-01  6.39D-01
 E= -1507.80724271128     Delta-E=       -0.365612780329 Rises=F Damp=F
 DIIS: error= 4.71D-03 at cycle   3 NSaved=   3.
 NSaved= 3 IEnMin= 3 EnMin= -1507.80724271128     IErMin= 2 ErrMin= 3.67D-03
 ErrMax= 4.71D-03  0.00D+00 EMaxC= 1.00D-01 BMatC= 5.05D-02 BMatP= 8.96D-02
 IDIUse=3 WtCom= 9.53D-01 WtEn= 4.71D-02
 Coeff-Com: -0.739D-01 0.439D+00 0.635D+00
 Coeff-En:   0.000D+00 0.000D+00 0.100D+01
 Coeff:     -0.704D-01 0.418D+00 0.652D+00
 Gap=     0.190 Goal=   None    Shift=    0.000
 RMSDP=3.69D-04 MaxDP=3.01D-02 DE=-3.66D-01 OVMax= 8.80D-02

 Cycle   4  Pass 0  IDiag  1:
 RMSU=  3.21D-04    CP:  9.97D-01  7.26D-01  9.19D-01
 E= -1507.84121401890     Delta-E=       -0.033971307625 Rises=F Damp=F
 DIIS: error= 2.28D-03 at cycle   4 NSaved=   4.
 NSaved= 4 IEnMin= 4 EnMin= -1507.84121401890     IErMin= 4 ErrMin= 2.28D-03
 ErrMax= 2.28D-03  0.00D+00 EMaxC= 1.00D-01 BMatC= 1.08D-02 BMatP= 5.05D-02
 IDIUse=3 WtCom= 9.77D-01 WtEn= 2.28D-02
 Coeff-Com: -0.343D-01 0.936D-01 0.354D+00 0.587D+00
 Coeff-En:   0.000D+00 0.000D+00 0.145D+00 0.855D+00
 Coeff:     -0.335D-01 0.914D-01 0.349D+00 0.593D+00
 Gap=     0.187 Goal=   None    Shift=    0.000
 RMSDP=1.31D-04 MaxDP=1.00D-02 DE=-3.40D-02 OVMax= 1.73D-02

 Cycle   5  Pass 0  IDiag  1:
 RMSU=  8.24D-05    CP:  9.96D-01  7.16D-01  9.55D-01  7.10D-01
 E= -1507.84946206480     Delta-E=       -0.008248045900 Rises=F Damp=F
 DIIS: error= 3.95D-04 at cycle   5 NSaved=   5.
 NSaved= 5 IEnMin= 5 EnMin= -1507.84946206480     IErMin= 5 ErrMin= 3.95D-04
 ErrMax= 3.95D-04  0.00D+00 EMaxC= 1.00D-01 BMatC= 4.70D-04 BMatP= 1.08D-02
 IDIUse=3 WtCom= 9.96D-01 WtEn= 3.95D-03
 Coeff-Com: -0.980D-02 0.162D-01 0.125D+00 0.269D+00 0.599D+00
 Coeff-En:   0.000D+00 0.000D+00 0.000D+00 0.000D+00 0.100D+01
 Coeff:     -0.976D-02 0.161D-01 0.125D+00 0.268D+00 0.600D+00
 Gap=     0.188 Goal=   None    Shift=    0.000
 RMSDP=4.28D-05 MaxDP=7.48D-03 DE=-8.25D-03 OVMax= 5.64D-03

 Cycle   6  Pass 0  IDiag  1:
 RMSU=  3.25D-05    CP:  9.95D-01  7.03D-01  9.64D-01  7.30D-01  9.03D-01
 E= -1507.84985695166     Delta-E=       -0.000394886855 Rises=F Damp=F
 DIIS: error= 1.74D-04 at cycle   6 NSaved=   6.
 NSaved= 6 IEnMin= 6 EnMin= -1507.84985695166     IErMin= 6 ErrMin= 1.74D-04
 ErrMax= 1.74D-04  0.00D+00 EMaxC= 1.00D-01 BMatC= 6.54D-05 BMatP= 4.70D-04
 IDIUse=3 WtCom= 9.98D-01 WtEn= 1.74D-03
 Coeff-Com:  0.658D-03-0.559D-02 0.108D-01 0.376D-01 0.275D+00 0.681D+00
 Coeff-En:   0.000D+00 0.000D+00 0.000D+00 0.000D+00 0.000D+00 0.100D+01
 Coeff:      0.657D-03-0.558D-02 0.108D-01 0.376D-01 0.275D+00 0.682D+00
 Gap=     0.188 Goal=   None    Shift=    0.000
 RMSDP=2.04D-05 MaxDP=1.03D-03 DE=-3.95D-04 OVMax= 4.08D-03

 Cycle   7  Pass 0  IDiag  1:
 RMSU=  1.79D-05    CP:  9.95D-01  7.02D-01  9.69D-01  7.38D-01  9.97D-01
                    CP:  9.77D-01
 E= -1507.84994164282     Delta-E=       -0.000084691167 Rises=F Damp=F
 DIIS: error= 7.13D-05 at cycle   7 NSaved=   7.
 NSaved= 7 IEnMin= 7 EnMin= -1507.84994164282     IErMin= 7 ErrMin= 7.13D-05
 ErrMax= 7.13D-05  0.00D+00 EMaxC= 1.00D-01 BMatC= 1.24D-05 BMatP= 6.54D-05
 IDIUse=1 WtCom= 1.00D+00 WtEn= 0.00D+00
 Coeff-Com:  0.208D-02-0.564D-02-0.147D-01-0.306D-01 0.194D-01 0.311D+00
 Coeff-Com:  0.718D+00
 Coeff:      0.208D-02-0.564D-02-0.147D-01-0.306D-01 0.194D-01 0.311D+00
 Coeff:      0.718D+00
 Gap=     0.189 Goal=   None    Shift=    0.000
 RMSDP=1.58D-05 MaxDP=2.81D-03 DE=-8.47D-05 OVMax= 2.65D-03

 Cycle   8  Pass 0  IDiag  1:
 RMSU=  1.13D-05    CP:  9.95D-01  6.98D-01  9.71D-01  7.43D-01  1.06D+00
                    CP:  1.16D+00  1.17D+00
 E= -1507.84995810679     Delta-E=       -0.000016463971 Rises=F Damp=F
 DIIS: error= 3.24D-05 at cycle   8 NSaved=   8.
 NSaved= 8 IEnMin= 8 EnMin= -1507.84995810679     IErMin= 8 ErrMin= 3.24D-05
 ErrMax= 3.24D-05  0.00D+00 EMaxC= 1.00D-01 BMatC= 2.69D-06 BMatP= 1.24D-05
 IDIUse=1 WtCom= 1.00D+00 WtEn= 0.00D+00
 Coeff-Com:  0.980D-03-0.178D-02-0.891D-02-0.250D-01-0.458D-01 0.170D-01
 Coeff-Com:  0.354D+00 0.709D+00
 Coeff:      0.980D-03-0.178D-02-0.891D-02-0.250D-01-0.458D-01 0.170D-01
 Coeff:      0.354D+00 0.709D+00
 Gap=     0.189 Goal=   None    Shift=    0.000
 RMSDP=1.48D-05 MaxDP=1.28D-03 DE=-1.65D-05 OVMax= 9.59D-04

 Cycle   9  Pass 0  IDiag  1:
 RMSU=  8.34D-06    CP:  9.95D-01  6.97D-01  9.73D-01  7.42D-01  1.11D+00
                    CP:  1.24D+00  1.59D+00  1.72D+00
 E= -1507.84995358421     Delta-E=        0.000004522585 Rises=F Damp=F
 DIIS: error= 3.16D-05 at cycle   9 NSaved=   9.
 NSaved= 9 IEnMin= 8 EnMin= -1507.84995810679     IErMin= 9 ErrMin= 3.16D-05
 ErrMax= 3.16D-05  0.00D+00 EMaxC= 1.00D-01 BMatC= 5.11D-07 BMatP= 2.69D-06
 IDIUse=1 WtCom= 1.00D+00 WtEn= 0.00D+00
 Coeff-Com:  0.253D-03-0.280D-03-0.226D-02-0.889D-02-0.218D-01-0.227D-01
 Coeff-Com:  0.878D-01 0.327D+00 0.641D+00
 Coeff:      0.253D-03-0.280D-03-0.226D-02-0.889D-02-0.218D-01-0.227D-01
 Coeff:      0.878D-01 0.327D+00 0.641D+00
 Gap=     0.189 Goal=   None    Shift=    0.000
 RMSDP=1.71D-05 MaxDP=1.06D-03 DE= 4.52D-06 OVMax= 3.16D-04

 Cycle  10  Pass 0  IDiag  1:
 RMSU=  5.16D-06    CP:  9.95D-01  6.97D-01  9.74D-01  7.44D-01  1.13D+00
                    CP:  1.30D+00  1.94D+00  2.75D+00  2.06D+00
 E= -1507.84994029111     Delta-E=        0.000013293102 Rises=F Damp=F
 DIIS: error= 5.29D-05 at cycle  10 NSaved=  10.
 NSaved=10 IEnMin= 8 EnMin= -1507.84995810679     IErMin= 9 ErrMin= 3.16D-05
 ErrMax= 5.29D-05  0.00D+00 EMaxC= 1.00D-01 BMatC= 5.59D-07 BMatP= 5.11D-07
 IDIUse=1 WtCom= 1.00D+00 WtEn= 0.00D+00
 Coeff-Com:  0.278D-03-0.297D-03-0.252D-02-0.987D-02-0.245D-01-0.262D-01
 Coeff-Com:  0.972D-01 0.367D+00 0.736D+00-0.137D+00
 Coeff:      0.278D-03-0.297D-03-0.252D-02-0.987D-02-0.245D-01-0.262D-01
 Coeff:      0.972D-01 0.367D+00 0.736D+00-0.137D+00
 Gap=     0.189 Goal=   None    Shift=    0.000
 RMSDP=4.88D-06 MaxDP=2.50D-04 DE= 1.33D-05 OVMax= 2.08D-05

 Initial convergence to 1.0D-05 achieved.  Increase integral accuracy.
 Cycle  11  Pass 1  IDiag  1:
 E= -1507.84983826977     Delta-E=        0.000102021335 Rises=F Damp=F
 DIIS: error= 3.39D-04 at cycle   1 NSaved=   1.
 NSaved= 1 IEnMin= 1 EnMin= -1507.84983826977     IErMin= 1 ErrMin= 3.39D-04
 ErrMax= 3.39D-04  0.00D+00 EMaxC= 1.00D-01 BMatC= 7.86D-05 BMatP= 7.86D-05
 IDIUse=3 WtCom= 9.97D-01 WtEn= 3.39D-03
 Coeff-Com:  0.100D+01
 Coeff-En:   0.100D+01
 Coeff:      0.100D+01
 Gap=     0.189 Goal=   None    Shift=    0.000
 RMSDP=4.88D-06 MaxDP=2.50D-04 DE= 1.02D-04 OVMax= 7.79D-04

 Cycle  12  Pass 1  IDiag  1:
 RMSU=  3.84D-04    CP:  9.97D-01
 E= -1507.84988697229     Delta-E=       -0.000048702514 Rises=F Damp=F
 DIIS: error= 7.78D-06 at cycle   2 NSaved=   2.
 NSaved= 2 IEnMin= 2 EnMin= -1507.84988697229     IErMin= 2 ErrMin= 7.78D-06
 ErrMax= 7.78D-06  0.00D+00 EMaxC= 1.00D-01 BMatC= 1.85D-07 BMatP= 7.86D-05
 IDIUse=1 WtCom= 1.00D+00 WtEn= 0.00D+00
 Coeff-Com: -0.136D-01 0.101D+01
 Coeff:     -0.136D-01 0.101D+01
 Gap=     0.189 Goal=   None    Shift=    0.000
 RMSDP=1.38D-05 MaxDP=9.51D-04 DE=-4.87D-05 OVMax= 2.82D-04

 Cycle  13  Pass 1  IDiag  1:
 RMSU=  4.77D-06    CP:  9.97D-01  1.03D+00
 E= -1507.84988679857     Delta-E=        0.000000173717 Rises=F Damp=F
 DIIS: error= 1.45D-05 at cycle   3 NSaved=   3.
 NSaved= 3 IEnMin= 2 EnMin= -1507.84988697229     IErMin= 2 ErrMin= 7.78D-06
 ErrMax= 1.45D-05  0.00D+00 EMaxC= 1.00D-01 BMatC= 3.95D-07 BMatP= 1.85D-07
 IDIUse=1 WtCom= 1.00D+00 WtEn= 0.00D+00
 Coeff-Com: -0.103D-01 0.618D+00 0.392D+00
 Coeff:     -0.103D-01 0.618D+00 0.392D+00
 Gap=     0.189 Goal=   None    Shift=    0.000
 RMSDP=8.54D-07 MaxDP=5.02D-05 DE= 1.74D-07 OVMax= 1.77D-04

 Cycle  14  Pass 1  IDiag  1:
 RMSU=  8.21D-07    CP:  9.97D-01  1.03D+00  9.70D-01
 E= -1507.84988717625     Delta-E=       -0.000000377680 Rises=F Damp=F
 DIIS: error= 1.38D-06 at cycle   4 NSaved=   4.
 NSaved= 4 IEnMin= 4 EnMin= -1507.84988717625     IErMin= 4 ErrMin= 1.38D-06
 ErrMax= 1.38D-06  0.00D+00 EMaxC= 1.00D-01 BMatC= 3.95D-09 BMatP= 1.85D-07
 IDIUse=1 WtCom= 1.00D+00 WtEn= 0.00D+00
 Coeff-Com: -0.215D-02 0.117D+00 0.117D+00 0.768D+00
 Coeff:     -0.215D-02 0.117D+00 0.117D+00 0.768D+00
 Gap=     0.189 Goal=   None    Shift=    0.000
 RMSDP=2.82D-07 MaxDP=1.66D-05 DE=-3.78D-07 OVMax= 2.28D-05

 Cycle  15  Pass 1  IDiag  1:
 RMSU=  1.60D-07    CP:  9.97D-01  1.03D+00  1.00D+00  1.01D+00
 E= -1507.84988717982     Delta-E=       -0.000000003574 Rises=F Damp=F
 DIIS: error= 7.22D-07 at cycle   5 NSaved=   5.
 NSaved= 5 IEnMin= 5 EnMin= -1507.84988717982     IErMin= 5 ErrMin= 7.22D-07
 ErrMax= 7.22D-07  0.00D+00 EMaxC= 1.00D-01 BMatC= 1.17D-09 BMatP= 3.95D-09
 IDIUse=1 WtCom= 1.00D+00 WtEn= 0.00D+00
 Coeff-Com:  0.441D-03-0.325D-01 0.908D-03 0.383D+00 0.649D+00
 Coeff:      0.441D-03-0.325D-01 0.908D-03 0.383D+00 0.649D+00
 Gap=     0.189 Goal=   None    Shift=    0.000
 RMSDP=1.12D-07 MaxDP=7.08D-06 DE=-3.57D-09 OVMax= 2.67D-05

 Cycle  16  Pass 1  IDiag  1:
 RMSU=  6.90D-08    CP:  9.97D-01  1.03D+00  1.01D+00  1.03D+00  1.04D+00
 E= -1507.84988718124     Delta-E=       -0.000000001417 Rises=F Damp=F
 DIIS: error= 2.06D-07 at cycle   6 NSaved=   6.
 NSaved= 6 IEnMin= 6 EnMin= -1507.84988718124     IErMin= 6 ErrMin= 2.06D-07
 ErrMax= 2.06D-07  0.00D+00 EMaxC= 1.00D-01 BMatC= 1.32D-10 BMatP= 1.17D-09
 IDIUse=1 WtCom= 1.00D+00 WtEn= 0.00D+00
 Coeff-Com:  0.382D-03-0.247D-01-0.996D-02 0.996D-01 0.305D+00 0.630D+00
 Coeff:      0.382D-03-0.247D-01-0.996D-02 0.996D-01 0.305D+00 0.630D+00
 Gap=     0.189 Goal=   None    Shift=    0.000
 RMSDP=3.35D-08 MaxDP=4.49D-06 DE=-1.42D-09 OVMax= 3.73D-06

 Cycle  17  Pass 1  IDiag  1:
 RMSU=  2.17D-08    CP:  9.97D-01  1.03D+00  1.01D+00  1.04D+00  1.20D+00
                    CP:  1.02D+00
 E= -1507.84988718139     Delta-E=       -0.000000000151 Rises=F Damp=F
 DIIS: error= 1.01D-07 at cycle   7 NSaved=   7.
 NSaved= 7 IEnMin= 7 EnMin= -1507.84988718139     IErMin= 7 ErrMin= 1.01D-07
 ErrMax= 1.01D-07  0.00D+00 EMaxC= 1.00D-01 BMatC= 2.21D-11 BMatP= 1.32D-10
 IDIUse=1 WtCom= 1.00D+00 WtEn= 0.00D+00
 Coeff-Com:  0.277D-04-0.316D-03-0.551D-02-0.930D-01-0.597D-01 0.260D+00
 Coeff-Com:  0.898D+00
 Coeff:      0.277D-04-0.316D-03-0.551D-02-0.930D-01-0.597D-01 0.260D+00
 Coeff:      0.898D+00
 Gap=     0.189 Goal=   None    Shift=    0.000
 RMSDP=2.35D-08 MaxDP=1.74D-06 DE=-1.51D-10 OVMax= 7.77D-06

 Cycle  18  Pass 1  IDiag  1:
 RMSU=  1.51D-08    CP:  9.97D-01  1.03D+00  1.01D+00  1.04D+00  1.27D+00
                    CP:  1.19D+00  1.32D+00
 E= -1507.84988718149     Delta-E=       -0.000000000100 Rises=F Damp=F
 DIIS: error= 4.28D-08 at cycle   8 NSaved=   8.
 NSaved= 8 IEnMin= 8 EnMin= -1507.84988718149     IErMin= 8 ErrMin= 4.28D-08
 ErrMax= 4.28D-08  0.00D+00 EMaxC= 1.00D-01 BMatC= 5.01D-12 BMatP= 2.21D-11
 IDIUse=1 WtCom= 1.00D+00 WtEn= 0.00D+00
 Coeff-Com: -0.418D-04 0.336D-02-0.107D-02-0.550D-01-0.633D-01 0.178D-01
 Coeff-Com:  0.435D+00 0.664D+00
 Coeff:     -0.418D-04 0.336D-02-0.107D-02-0.550D-01-0.633D-01 0.178D-01
 Coeff:      0.435D+00 0.664D+00
 Gap=     0.189 Goal=   None    Shift=    0.000
 RMSDP=6.47D-09 MaxDP=4.83D-07 DE=-9.96D-11 OVMax= 1.57D-06

 SCF Done:  E(RM062X) =  -1507.84988718     A.U. after   18 cycles
            NFock= 18  Conv=0.65D-08     -V/T= 2.0042
 KE= 1.501471187891D+03 PE=-8.433059870500D+03 EE= 2.976649171330D+03
 Leave Link  502 at Wed Mar  8 15:08:22 2023, MaxMem=  2684354560 cpu:           18501.5 elap:            1162.3
 (Enter /opt/gaussian/g16/l601.exe)
 Copying SCF densities to generalized density rwf, IOpCl= 0 IROHF=0.

 **********************************************************************

            Population analysis using the SCF density.

 **********************************************************************

 Alpha  occ. eigenvalues --  -89.89541 -19.63274 -19.62587 -19.60104 -19.59589
 Alpha  occ. eigenvalues --  -19.58968 -14.80708 -14.76973 -10.65084 -10.63148
 Alpha  occ. eigenvalues --  -10.62943 -10.60343 -10.60283 -10.60229 -10.59657
 Alpha  occ. eigenvalues --  -10.58635 -10.57672 -10.56831 -10.55793 -10.54779
 Alpha  occ. eigenvalues --  -10.54508 -10.54202 -10.53746 -10.52749  -8.25457
 Alpha  occ. eigenvalues --   -6.17395  -6.17176  -6.16978  -1.18338  -1.17779
 Alpha  occ. eigenvalues --   -1.14517  -1.13583  -1.11016  -1.09161  -1.02088
 Alpha  occ. eigenvalues --   -0.92977  -0.90058  -0.88669  -0.87177  -0.86949
 Alpha  occ. eigenvalues --   -0.84882  -0.80820  -0.78748  -0.75894  -0.74006
 Alpha  occ. eigenvalues --   -0.73352  -0.70166  -0.67630  -0.66756  -0.66543
 Alpha  occ. eigenvalues --   -0.63521  -0.62617  -0.61283  -0.59633  -0.58717
 Alpha  occ. eigenvalues --   -0.57946  -0.56776  -0.55352  -0.54364  -0.53894
 Alpha  occ. eigenvalues --   -0.53463  -0.52654  -0.51686  -0.51476  -0.50843
 Alpha  occ. eigenvalues --   -0.50049  -0.49484  -0.49056  -0.48310  -0.48291
 Alpha  occ. eigenvalues --   -0.47790  -0.46966  -0.45906  -0.45823  -0.45675
 Alpha  occ. eigenvalues --   -0.45065  -0.44260  -0.43442  -0.43197  -0.43051
 Alpha  occ. eigenvalues --   -0.42533  -0.41226  -0.40806  -0.38762  -0.36823
 Alpha  occ. eigenvalues --   -0.36047  -0.35214  -0.34870  -0.34309  -0.32958
 Alpha  occ. eigenvalues --   -0.32667  -0.31452  -0.30378  -0.29017  -0.23448
 Alpha virt. eigenvalues --   -0.04567   0.00154   0.05117   0.05256   0.05854
 Alpha virt. eigenvalues --    0.06443   0.06460   0.07504   0.07933   0.08359
 Alpha virt. eigenvalues --    0.09323   0.09564   0.10293   0.10950   0.11549
 Alpha virt. eigenvalues --    0.11710   0.12512   0.12579   0.13126   0.13631
 Alpha virt. eigenvalues --    0.13843   0.14116   0.14610   0.14850   0.15434
 Alpha virt. eigenvalues --    0.15681   0.15947   0.16386   0.17003   0.17494
 Alpha virt. eigenvalues --    0.18002   0.18793   0.19004   0.19528   0.19805
 Alpha virt. eigenvalues --    0.20484   0.21105   0.21330   0.21768   0.21989
 Alpha virt. eigenvalues --    0.23146   0.23535   0.23746   0.24381   0.24635
 Alpha virt. eigenvalues --    0.24954   0.25670   0.25800   0.26010   0.26417
 Alpha virt. eigenvalues --    0.26931   0.27152   0.28007   0.28530   0.29038
 Alpha virt. eigenvalues --    0.29385   0.30245   0.30450   0.30751   0.30955
 Alpha virt. eigenvalues --    0.31867   0.32552   0.32676   0.32933   0.33619
 Alpha virt. eigenvalues --    0.33836   0.34714   0.34890   0.35555   0.36031
 Alpha virt. eigenvalues --    0.36537   0.36973   0.37625   0.38149   0.38861
 Alpha virt. eigenvalues --    0.38923   0.39236   0.39964   0.40315   0.40624
 Alpha virt. eigenvalues --    0.40723   0.40874   0.41929   0.42001   0.42303
 Alpha virt. eigenvalues --    0.42701   0.43176   0.43501   0.43780   0.44152
 Alpha virt. eigenvalues --    0.44486   0.45104   0.45236   0.45374   0.45684
 Alpha virt. eigenvalues --    0.46002   0.46452   0.46788   0.47021   0.47630
 Alpha virt. eigenvalues --    0.48093   0.48517   0.48717   0.48845   0.49064
 Alpha virt. eigenvalues --    0.49475   0.49890   0.50193   0.50351   0.50775
 Alpha virt. eigenvalues --    0.51143   0.51489   0.51547   0.51934   0.52382
 Alpha virt. eigenvalues --    0.52569   0.52979   0.53232   0.53617   0.54170
 Alpha virt. eigenvalues --    0.54891   0.55140   0.56078   0.56340   0.57007
 Alpha virt. eigenvalues --    0.57499   0.58108   0.58269   0.58816   0.59352
 Alpha virt. eigenvalues --    0.59738   0.60039   0.60739   0.61023   0.61951
 Alpha virt. eigenvalues --    0.62368   0.63025   0.63802   0.63932   0.64469
 Alpha virt. eigenvalues --    0.65094   0.65449   0.66121   0.67855   0.67976
 Alpha virt. eigenvalues --    0.68704   0.69034   0.69310   0.70022   0.70890
 Alpha virt. eigenvalues --    0.71526   0.72203   0.72980   0.73485   0.73862
 Alpha virt. eigenvalues --    0.74442   0.74518   0.75690   0.77482   0.78484
 Alpha virt. eigenvalues --    0.78533   0.79064   0.80141   0.81254   0.81391
 Alpha virt. eigenvalues --    0.82086   0.82795   0.83188   0.83549   0.84400
 Alpha virt. eigenvalues --    0.85398   0.86206   0.86347   0.87079   0.88255
 Alpha virt. eigenvalues --    0.88708   0.89250   0.89896   0.90747   0.90823
 Alpha virt. eigenvalues --    0.91815   0.92811   0.92863   0.93855   0.94163
 Alpha virt. eigenvalues --    0.94884   0.95184   0.95964   0.96577   0.96810
 Alpha virt. eigenvalues --    0.98055   0.98374   0.99087   0.99459   1.00031
 Alpha virt. eigenvalues --    1.00339   1.01237   1.02048   1.03156   1.03329
 Alpha virt. eigenvalues --    1.04390   1.04649   1.05374   1.05993   1.06680
 Alpha virt. eigenvalues --    1.07518   1.07963   1.09099   1.09840   1.10100
 Alpha virt. eigenvalues --    1.10672   1.11447   1.11524   1.11917   1.12775
 Alpha virt. eigenvalues --    1.13428   1.13991   1.15018   1.15352   1.16012
 Alpha virt. eigenvalues --    1.17056   1.17699   1.17929   1.19124   1.19905
 Alpha virt. eigenvalues --    1.20318   1.21641   1.21881   1.22554   1.22702
 Alpha virt. eigenvalues --    1.23874   1.25491   1.26368   1.26919   1.27362
 Alpha virt. eigenvalues --    1.28153   1.29063   1.29870   1.30187   1.31447
 Alpha virt. eigenvalues --    1.32713   1.32844   1.33983   1.34078   1.34404
 Alpha virt. eigenvalues --    1.36949   1.37386   1.37602   1.38646   1.39486
 Alpha virt. eigenvalues --    1.40590   1.41614   1.42513   1.43171   1.44287
 Alpha virt. eigenvalues --    1.45480   1.46169   1.46573   1.49906   1.50029
 Alpha virt. eigenvalues --    1.50476   1.51375   1.51966   1.53284   1.53744
 Alpha virt. eigenvalues --    1.54317   1.54508   1.55108   1.55490   1.56080
 Alpha virt. eigenvalues --    1.56376   1.56642   1.57489   1.57590   1.57721
 Alpha virt. eigenvalues --    1.58066   1.59293   1.59996   1.60259   1.60840
 Alpha virt. eigenvalues --    1.61121   1.61540   1.61978   1.62496   1.63115
 Alpha virt. eigenvalues --    1.63585   1.63788   1.64723   1.65278   1.66014
 Alpha virt. eigenvalues --    1.66124   1.66609   1.67621   1.67945   1.68719
 Alpha virt. eigenvalues --    1.69039   1.69406   1.70304   1.70653   1.71264
 Alpha virt. eigenvalues --    1.71983   1.72636   1.73126   1.73540   1.73920
 Alpha virt. eigenvalues --    1.74745   1.75519   1.76071   1.76920   1.77549
 Alpha virt. eigenvalues --    1.78470   1.79260   1.79534   1.80439   1.81350
 Alpha virt. eigenvalues --    1.81611   1.82076   1.83306   1.83976   1.84800
 Alpha virt. eigenvalues --    1.85462   1.85651   1.87416   1.87701   1.87802
 Alpha virt. eigenvalues --    1.89122   1.89310   1.90427   1.90866   1.91999
 Alpha virt. eigenvalues --    1.92095   1.93332   1.93518   1.94005   1.94758
 Alpha virt. eigenvalues --    1.95558   1.95907   1.97212   1.97699   1.97940
 Alpha virt. eigenvalues --    1.98765   1.99773   2.00033   2.00470   2.01438
 Alpha virt. eigenvalues --    2.02300   2.02546   2.03255   2.04210   2.04573
 Alpha virt. eigenvalues --    2.05219   2.06008   2.07998   2.08499   2.08881
 Alpha virt. eigenvalues --    2.09815   2.10440   2.10776   2.11745   2.12213
 Alpha virt. eigenvalues --    2.13271   2.13676   2.14433   2.15355   2.16375
 Alpha virt. eigenvalues --    2.17451   2.17885   2.18249   2.19329   2.19626
 Alpha virt. eigenvalues --    2.19854   2.20289   2.20608   2.21002   2.22077
 Alpha virt. eigenvalues --    2.23332   2.23873   2.24393   2.25164   2.25663
 Alpha virt. eigenvalues --    2.26399   2.27626   2.28626   2.29139   2.29620
 Alpha virt. eigenvalues --    2.30491   2.30888   2.31341   2.32382   2.33479
 Alpha virt. eigenvalues --    2.33687   2.34165   2.34344   2.35179   2.35575
 Alpha virt. eigenvalues --    2.36522   2.37614   2.37785   2.38641   2.38961
 Alpha virt. eigenvalues --    2.39396   2.39871   2.41672   2.42094   2.42961
 Alpha virt. eigenvalues --    2.43954   2.44991   2.45879   2.46789   2.47695
 Alpha virt. eigenvalues --    2.48096   2.48494   2.48838   2.50199   2.50538
 Alpha virt. eigenvalues --    2.51605   2.52723   2.53599   2.54495   2.55355
 Alpha virt. eigenvalues --    2.56267   2.56695   2.56923   2.57638   2.58002
 Alpha virt. eigenvalues --    2.58385   2.58515   2.59653   2.60197   2.60461
 Alpha virt. eigenvalues --    2.61143   2.61960   2.62191   2.63881   2.64047
 Alpha virt. eigenvalues --    2.64934   2.65508   2.66625   2.67738   2.67991
 Alpha virt. eigenvalues --    2.68796   2.69457   2.69614   2.70384   2.70981
 Alpha virt. eigenvalues --    2.71376   2.72232   2.72731   2.73728   2.74098
 Alpha virt. eigenvalues --    2.74209   2.74471   2.75839   2.77094   2.77863
 Alpha virt. eigenvalues --    2.78514   2.79108   2.80315   2.80436   2.81132
 Alpha virt. eigenvalues --    2.81553   2.82300   2.82838   2.83276   2.84049
 Alpha virt. eigenvalues --    2.84345   2.85192   2.86576   2.87859   2.88847
 Alpha virt. eigenvalues --    2.89547   2.90236   2.90629   2.91841   2.93005
 Alpha virt. eigenvalues --    2.93104   2.94504   2.95097   2.95879   2.96539
 Alpha virt. eigenvalues --    2.97410   2.98833   2.99770   3.00252   3.00943
 Alpha virt. eigenvalues --    3.01668   3.02344   3.02763   3.03032   3.03711
 Alpha virt. eigenvalues --    3.04330   3.04921   3.05802   3.06665   3.07375
 Alpha virt. eigenvalues --    3.07514   3.08531   3.09241   3.09806   3.10387
 Alpha virt. eigenvalues --    3.11111   3.11266   3.11709   3.12421   3.13009
 Alpha virt. eigenvalues --    3.13295   3.14233   3.15903   3.16446   3.16689
 Alpha virt. eigenvalues --    3.17383   3.17836   3.17970   3.18485   3.18931
 Alpha virt. eigenvalues --    3.20044   3.20816   3.21127   3.22121   3.22914
 Alpha virt. eigenvalues --    3.23209   3.23609   3.24098   3.24542   3.25086
 Alpha virt. eigenvalues --    3.25739   3.26587   3.27531   3.27610   3.28447
 Alpha virt. eigenvalues --    3.28955   3.29521   3.30289   3.30906   3.31415
 Alpha virt. eigenvalues --    3.31756   3.32612   3.32810   3.33582   3.34076
 Alpha virt. eigenvalues --    3.34571   3.35150   3.35856   3.36070   3.36212
 Alpha virt. eigenvalues --    3.37195   3.37913   3.38061   3.39134   3.39513
 Alpha virt. eigenvalues --    3.40103   3.40245   3.41093   3.41338   3.42440
 Alpha virt. eigenvalues --    3.42686   3.43387   3.44345   3.45337   3.45388
 Alpha virt. eigenvalues --    3.45905   3.47206   3.47604   3.48351   3.48617
 Alpha virt. eigenvalues --    3.49018   3.49329   3.50123   3.51070   3.51566
 Alpha virt. eigenvalues --    3.52226   3.53331   3.54448   3.54679   3.55932
 Alpha virt. eigenvalues --    3.56713   3.56817   3.57875   3.58269   3.59742
 Alpha virt. eigenvalues --    3.59837   3.61144   3.62046   3.62919   3.63634
 Alpha virt. eigenvalues --    3.63658   3.66044   3.66993   3.68040   3.69240
 Alpha virt. eigenvalues --    3.69658   3.70450   3.71269   3.72172   3.72827
 Alpha virt. eigenvalues --    3.74211   3.75115   3.75663   3.76338   3.77020
 Alpha virt. eigenvalues --    3.77542   3.78768   3.79745   3.80680   3.81097
 Alpha virt. eigenvalues --    3.82287   3.83362   3.84150   3.87327   3.88588
 Alpha virt. eigenvalues --    3.89257   3.89953   3.90771   3.91737   3.91795
 Alpha virt. eigenvalues --    3.93705   3.95459   3.95940   3.96691   3.97183
 Alpha virt. eigenvalues --    3.99724   4.00332   4.01049   4.04676   4.05088
 Alpha virt. eigenvalues --    4.05718   4.06834   4.08145   4.09099   4.10298
 Alpha virt. eigenvalues --    4.10907   4.11552   4.12914   4.14851   4.15188
 Alpha virt. eigenvalues --    4.17463   4.18818   4.19952   4.20612   4.21691
 Alpha virt. eigenvalues --    4.23879   4.26281   4.26894   4.28193   4.29291
 Alpha virt. eigenvalues --    4.30999   4.32176   4.34097   4.36365   4.37131
 Alpha virt. eigenvalues --    4.37504   4.38693   4.39472   4.39796   4.41146
 Alpha virt. eigenvalues --    4.43270   4.43965   4.45070   4.46321   4.47667
 Alpha virt. eigenvalues --    4.48782   4.49976   4.51010   4.54044   4.56287
 Alpha virt. eigenvalues --    4.59097   4.59919   4.66257   4.67818   4.67992
 Alpha virt. eigenvalues --    4.69807   4.71033   4.72705   4.73410   4.74889
 Alpha virt. eigenvalues --    4.76758   4.76964   4.79361   4.79548   4.83612
 Alpha virt. eigenvalues --    4.85100   4.85682   4.87036   4.88371   4.90581
 Alpha virt. eigenvalues --    4.92103   4.93003   4.93774   4.95312   4.96107
 Alpha virt. eigenvalues --    4.96923   4.99012   5.00569   5.04261   5.05088
 Alpha virt. eigenvalues --    5.08155   5.08688   5.12478   5.14053   5.19159
 Alpha virt. eigenvalues --    5.21958   5.23700   5.25897   5.27434   5.27685
 Alpha virt. eigenvalues --    5.28199   5.29181   5.32075   5.34049   5.34354
 Alpha virt. eigenvalues --    5.37027   5.40819   5.41404   5.42146   5.44601
 Alpha virt. eigenvalues --    5.47422   5.51717   5.54190   5.55399   5.59893
 Alpha virt. eigenvalues --    5.60306   5.67847   5.73059   5.73831   5.76722
 Alpha virt. eigenvalues --    5.79789   5.80690   5.83448   5.84269   5.86126
 Alpha virt. eigenvalues --    5.86289   5.88637   5.90284   5.91507   5.95523
 Alpha virt. eigenvalues --    5.96690   5.99382   6.00531   6.17223   6.18633
 Alpha virt. eigenvalues --    6.22387   6.23444   6.30329   6.32045   6.39383
 Alpha virt. eigenvalues --    6.39948   6.46938   6.51543   6.53625   6.55632
 Alpha virt. eigenvalues --    6.58649   6.67247   6.68933   6.73592   6.74629
 Alpha virt. eigenvalues --    6.75664   6.80259   6.85693   6.86667   6.88670
 Alpha virt. eigenvalues --    6.92179   6.92767   6.99622   7.07413   7.08680
 Alpha virt. eigenvalues --    7.11285   7.13354   7.15848   7.19169   7.24447
 Alpha virt. eigenvalues --    7.32223   7.38308   9.01729   9.40693   9.55138
 Alpha virt. eigenvalues --   19.96380  22.29624  22.39375  22.46121  22.49536
 Alpha virt. eigenvalues --   22.56471  22.62235  22.64515  22.71488  22.74516
 Alpha virt. eigenvalues --   22.77512  22.82636  22.94689  23.05543  23.06497
 Alpha virt. eigenvalues --   23.17898  23.46059  32.12532  33.16793  44.16496
 Alpha virt. eigenvalues --   44.21639  44.23937  44.32559  44.51598
          Condensed to atoms (all electrons):
               1          2          3          4          5          6
     1  C    5.110125   0.416064   0.407802  -0.009576   0.000751  -0.000223
     2  H    0.416064   0.513092  -0.020987  -0.001112   0.000216  -0.000005
     3  H    0.407802  -0.020987   0.541453   0.001609  -0.000051  -0.000000
     4  C   -0.009576  -0.001112   0.001609   5.342433   0.472958   0.268377
     5  H    0.000751   0.000216  -0.000051   0.472958   0.542605  -0.038805
     6  O   -0.000223  -0.000005  -0.000000   0.268377  -0.038805   8.151819
     7  H   -0.000053  -0.000002   0.000003  -0.029446  -0.012026   0.281356
     8  C   -0.006742   0.012092  -0.007941   0.004820  -0.056472  -0.045750
     9  H    0.011944  -0.000018  -0.001126  -0.095168   0.002808   0.003809
    10  O    0.009129  -0.000415   0.000125  -0.041877   0.001393  -0.006871
    11  H   -0.000725  -0.000099   0.000317   0.013636  -0.000613  -0.000353
    12  C   -0.003821   0.000391   0.000181   0.051176  -0.073359  -0.042300
    13  H    0.000346   0.000016   0.000094  -0.091581   0.005326   0.009072
    14  C    0.182781  -0.047355  -0.038267   0.083566   0.007629   0.005947
    15  H   -0.061220  -0.005318  -0.002920  -0.008800  -0.000032   0.000082
    16  O   -0.032343   0.001621   0.005068  -0.068722  -0.000194   0.006849
    17  N   -0.000425  -0.000097  -0.000026   0.015118  -0.009627  -0.000571
    18  C   -0.000756   0.000102  -0.000006  -0.006947   0.000857   0.002415
    19  H   -0.000496  -0.000095   0.000076  -0.015908  -0.002749   0.001089
    20  C    0.000044  -0.000000  -0.000001   0.007593   0.005328  -0.001251
    21  H    0.000005   0.000000  -0.000000   0.000089   0.000089  -0.000014
    22  C   -0.000010   0.000000   0.000000  -0.000129  -0.000154   0.000009
    23  H    0.000000   0.000000  -0.000000   0.000015   0.000003   0.000001
    24  H    0.000000  -0.000000  -0.000000  -0.000223  -0.000140   0.000031
    25  C   -0.000070  -0.000005   0.000001  -0.006629  -0.000301  -0.000162
    26  C   -0.000380   0.000053  -0.000004   0.013936  -0.000660  -0.006731
    27  H   -0.000015   0.000002  -0.000000   0.000502  -0.000097  -0.000101
    28  C   -0.000000   0.000000  -0.000000   0.000005   0.000002  -0.000022
    29  O    0.000000  -0.000000  -0.000000   0.000004   0.000000   0.000000
    30  N   -0.000000   0.000000   0.000000   0.000001  -0.000000  -0.000000
    31  H   -0.000000   0.000000  -0.000000  -0.000000   0.000000  -0.000000
    32  H    0.000000   0.000000  -0.000000   0.000000   0.000000   0.000000
    33  C    0.000002  -0.000000  -0.000000   0.000984  -0.000461  -0.020778
    34  C    0.000002  -0.000000  -0.000000   0.000289   0.000267   0.013443
    35  C    0.000000   0.000000  -0.000000  -0.000233   0.000441   0.002828
    36  C   -0.000000   0.000000   0.000000   0.000005   0.000001   0.000000
    37  C   -0.000000   0.000000   0.000000   0.000136  -0.000003  -0.000061
    38  O   -0.000001   0.000000  -0.000000   0.009087   0.000113  -0.063147
    39  S    0.000000  -0.000000  -0.000000  -0.001029  -0.000003   0.000882
    40  H   -0.000000   0.000000  -0.000000   0.000106   0.000035   0.000122
    41  H   -0.000007   0.000000  -0.000000   0.000473   0.000578   0.010798
    42  H   -0.000000   0.000000   0.000000   0.000000  -0.000000  -0.000000
    43  H    0.000000   0.000000  -0.000000   0.000000  -0.000000  -0.000000
    44  H    0.000000  -0.000000  -0.000000  -0.000000  -0.000000   0.000000
    45  H   -0.000000  -0.000000   0.000000   0.000013   0.000018   0.000043
    46  H    0.000000  -0.000000  -0.000000  -0.000025   0.000001   0.000060
    47  H    0.384661  -0.023305  -0.024362   0.000707  -0.000094   0.000001
    48  H    0.000000   0.000000  -0.000000  -0.000032   0.000005   0.000616
               7          8          9         10         11         12
     1  C   -0.000053  -0.006742   0.011944   0.009129  -0.000725  -0.003821
     2  H   -0.000002   0.012092  -0.000018  -0.000415  -0.000099   0.000391
     3  H    0.000003  -0.007941  -0.001126   0.000125   0.000317   0.000181
     4  C   -0.029446   0.004820  -0.095168  -0.041877   0.013636   0.051176
     5  H   -0.012026  -0.056472   0.002808   0.001393  -0.000613  -0.073359
     6  O    0.281356  -0.045750   0.003809  -0.006871  -0.000353  -0.042300
     7  H    0.324813   0.009233  -0.000201  -0.000496   0.000124   0.007879
     8  C    0.009233   5.339628   0.490776   0.283865  -0.039347  -0.027494
     9  H   -0.000201   0.490776   0.581225  -0.059139  -0.005705   0.011554
    10  O   -0.000496   0.283865  -0.059139   8.033930   0.292562  -0.024460
    11  H    0.000124  -0.039347  -0.005705   0.292562   0.427095  -0.003244
    12  C    0.007879  -0.027494   0.011554  -0.024460  -0.003244   5.546836
    13  H   -0.000881   0.021065   0.002785   0.018006  -0.001089   0.440780
    14  C   -0.000861   0.137557  -0.103680  -0.055891   0.000710  -0.062945
    15  H    0.000054  -0.025644   0.008636  -0.004444   0.002748  -0.003207
    16  O   -0.000214  -0.047542   0.004589   0.009404   0.000125   0.231982
    17  N    0.001720  -0.003546  -0.000709  -0.000263  -0.000011   0.185193
    18  C   -0.000035  -0.003326  -0.000235  -0.000301   0.000008  -0.091562
    19  H    0.000220   0.001518   0.000052  -0.000009   0.000003   0.015487
    20  C   -0.001254  -0.000979   0.000022   0.000008  -0.000001   0.012942
    21  H   -0.000015  -0.000002   0.000000   0.000000  -0.000000   0.000240
    22  C    0.000192   0.000015  -0.000002  -0.000003   0.000000  -0.011540
    23  H   -0.000003   0.000000   0.000000   0.000000  -0.000000   0.000032
    24  H    0.000201   0.000020  -0.000000   0.000000   0.000000   0.001610
    25  C    0.000656  -0.000410  -0.000002  -0.000052  -0.000001  -0.015944
    26  C    0.000450  -0.003863  -0.000081  -0.000701  -0.000053  -0.062538
    27  H    0.000049   0.000018  -0.000010  -0.000167   0.000008  -0.001447
    28  C    0.000059  -0.000007   0.000000  -0.000000  -0.000000  -0.000986
    29  O    0.000008   0.000000   0.000000  -0.000000   0.000000   0.000348
    30  N    0.000000  -0.000000  -0.000000  -0.000000  -0.000000  -0.000016
    31  H   -0.000000  -0.000000  -0.000000  -0.000000  -0.000000  -0.000005
    32  H   -0.000000  -0.000000  -0.000000   0.000000  -0.000000  -0.000010
    33  C    0.000994   0.000811   0.000024  -0.001071   0.000074  -0.000381
    34  C   -0.009160  -0.000106  -0.000027   0.000037   0.000000  -0.001165
    35  C   -0.001488  -0.000186  -0.000001   0.000000  -0.000000  -0.000368
    36  C   -0.000007  -0.000000   0.000000  -0.000000  -0.000000  -0.000004
    37  C    0.000065   0.000009   0.000000  -0.000000  -0.000000  -0.000782
    38  O    0.048660  -0.000542   0.000002  -0.000002  -0.000001   0.001096
    39  S    0.001781   0.000067  -0.000000   0.000012  -0.000003   0.000240
    40  H   -0.001740  -0.000031   0.000001   0.000022  -0.000001   0.000039
    41  H   -0.010183  -0.001305   0.000003   0.003205  -0.000225  -0.000159
    42  H   -0.000000   0.000000  -0.000000  -0.000000   0.000000  -0.000000
    43  H    0.000000   0.000000  -0.000000   0.000000   0.000000   0.000004
    44  H    0.000000   0.000000  -0.000000   0.000000   0.000000   0.000001
    45  H   -0.000053  -0.000000   0.000000  -0.000000  -0.000000  -0.000061
    46  H   -0.000145   0.000000  -0.000000   0.000000   0.000000   0.000156
    47  H    0.000009  -0.009256   0.000591   0.000174   0.000098  -0.000953
    48  H    0.000520  -0.000033   0.000002   0.000004  -0.000003   0.000015
              13         14         15         16         17         18
     1  C    0.000346   0.182781  -0.061220  -0.032343  -0.000425  -0.000756
     2  H    0.000016  -0.047355  -0.005318   0.001621  -0.000097   0.000102
     3  H    0.000094  -0.038267  -0.002920   0.005068  -0.000026  -0.000006
     4  C   -0.091581   0.083566  -0.008800  -0.068722   0.015118  -0.006947
     5  H    0.005326   0.007629  -0.000032  -0.000194  -0.009627   0.000857
     6  O    0.009072   0.005947   0.000082   0.006849  -0.000571   0.002415
     7  H   -0.000881  -0.000861   0.000054  -0.000214   0.001720  -0.000035
     8  C    0.021065   0.137557  -0.025644  -0.047542  -0.003546  -0.003326
     9  H    0.002785  -0.103680   0.008636   0.004589  -0.000709  -0.000235
    10  O    0.018006  -0.055891  -0.004444   0.009404  -0.000263  -0.000301
    11  H   -0.001089   0.000710   0.002748   0.000125  -0.000011   0.000008
    12  C    0.440780  -0.062945  -0.003207   0.231982   0.185193  -0.091562
    13  H    0.513689  -0.013220   0.006263  -0.032163  -0.057973   0.012650
    14  C   -0.013220   5.278730   0.406096   0.203778   0.014579  -0.000355
    15  H    0.006263   0.406096   0.602238  -0.039446  -0.001300   0.000213
    16  O   -0.032163   0.203778  -0.039446   8.125632  -0.085183   0.009955
    17  N   -0.057973   0.014579  -0.001300  -0.085183   6.508139   0.326906
    18  C    0.012650  -0.000355   0.000213   0.009955   0.326906   5.043369
    19  H    0.001515  -0.003238   0.000254   0.015576  -0.049294   0.409945
    20  C   -0.000078   0.000369   0.000009  -0.000661  -0.082259   0.506862
    21  H    0.000007  -0.000001  -0.000000  -0.000093   0.004474  -0.032569
    22  C    0.000140  -0.000055   0.000002   0.000642  -0.014557  -0.024452
    23  H   -0.000008  -0.000000   0.000000  -0.000004  -0.001470   0.003530
    24  H   -0.000034   0.000004  -0.000000   0.000045   0.016676   0.005863
    25  C    0.008866   0.000081   0.000034  -0.001839  -0.047798   0.054546
    26  C   -0.019745  -0.000100  -0.000426   0.001457   0.312924  -0.168362
    27  H   -0.000455   0.000002  -0.000021   0.001059  -0.035814   0.007413
    28  C    0.000007  -0.000001  -0.000001   0.000012   0.002506   0.000879
    29  O   -0.000015  -0.000000   0.000000  -0.000000  -0.000323   0.000242
    30  N   -0.000001   0.000000  -0.000000  -0.000000  -0.000461   0.000157
    31  H   -0.000000  -0.000000   0.000000   0.000000   0.000024  -0.000006
    32  H    0.000000   0.000000  -0.000000   0.000000   0.000017   0.000057
    33  C   -0.000392  -0.000084   0.000000   0.000002   0.000143  -0.000026
    34  C    0.000223   0.000071  -0.000001   0.000102   0.004867  -0.000541
    35  C    0.000177   0.000001   0.000000  -0.000050  -0.016700   0.000887
    36  C    0.000001   0.000000  -0.000000  -0.000000  -0.000271   0.000212
    37  C   -0.000026  -0.000003  -0.000000   0.000002  -0.000180   0.004598
    38  O   -0.000504   0.000079  -0.000001   0.000024   0.004949   0.001804
    39  S    0.001742   0.000000   0.000001   0.000010   0.000526   0.000158
[...]
      3        1          -0.007108147   -0.003271286   -0.003402652
      4        6          -0.002556440    0.017065788    0.014741560
      5        1           0.011136120    0.003439757   -0.010575149
      6        8           0.016509366   -0.009091299   -0.003977352
      7        1          -0.000543428   -0.005543379   -0.004666236
      8        6           0.013674883    0.000027277   -0.003619353
      9        1          -0.007211903    0.003342994   -0.010971197
     10        8          -0.001021488    0.007656690    0.002743796
     11        1          -0.010658624   -0.006181541   -0.002042815
     12        6           0.019662434   -0.019702834   -0.002540221
     13        1          -0.009052119   -0.006096931    0.003627615
     14        6          -0.020287428    0.001579058   -0.002571647
     15        1          -0.004656835   -0.006619890    0.010365884
     16        8           0.002161911   -0.004752343    0.000007338
     17        7           0.004679197    0.009063106    0.003357716
     18        6           0.007497828    0.001374028    0.001189536
     19        1          -0.004328261    0.004466593   -0.000234048
     20        6          -0.013207098    0.000154272   -0.002899756
     21        1           0.004101200    0.003755969    0.000198460
     22        6           0.003658558    0.009807357    0.017315116
     23        1           0.005605564   -0.000305945    0.006147164
     24        1           0.010988529   -0.015468553   -0.026619107
     25        6          -0.018168238    0.000771477   -0.002470332
     26        6           0.002380872   -0.012597813    0.001319037
     27        1          -0.007090905   -0.000536796    0.002538908
     28        6          -0.013257283   -0.018489894   -0.001017688
     29        8           0.018418550    0.022734319    0.013754310
     30        7           0.003660705   -0.006078643   -0.004118687
     31        1          -0.002039284    0.000629688   -0.002087109
     32        1          -0.002365703   -0.000873419   -0.002879287
     33        6          -0.007340735   -0.011404686   -0.011287457
     34        6           0.005141410   -0.057467221    0.035469692
     35        6          -0.024100026    0.007112068   -0.033569432
     36        6           0.009477331   -0.009022370    0.002660282
     37        6           0.005720587    0.023512496    0.029088011
     38        8          -0.010480132    0.032601874   -0.017624659
     39       16           0.014099159    0.014437839    0.008402349
     40        1           0.006935453    0.001747707   -0.002068273
     41        1          -0.003656906    0.004877376    0.005953549
     42        1           0.003017176    0.003805665   -0.000668676
     43        1          -0.004080051   -0.002025047    0.002677635
     44        1           0.001098766   -0.004018497   -0.004564760
     45        1           0.006541081    0.001707787   -0.008511059
     46        1          -0.004725619   -0.003686756    0.000893299
     47        1           0.001200976   -0.001243851   -0.001067728
     48        1          -0.003948838    0.004734520   -0.005343275
 -------------------------------------------------------------------
 Cartesian Forces:  Max     0.057467221 RMS     0.011515362
 Leave Link  716 at Wed Mar  8 15:15:28 2023, MaxMem=  2684354560 cpu:               1.1 elap:               0.1
 (Enter /opt/gaussian/g16/l103.exe)

 GradGradGradGradGradGradGradGradGradGradGradGradGradGradGradGradGradGrad
 Berny optimization.
 Search for a local minimum.
 Step number   1 out of a maximum of    2
 All quantities printed in internal units (Hartrees-Bohrs-Radians)
 Second derivative matrix not updated -- first step.
 ITU=  0
     Eigenvalues ---    0.00024   0.00064   0.00080   0.00100   0.00142
     Eigenvalues ---    0.00161   0.00202   0.00221   0.00341   0.00422
     Eigenvalues ---    0.00472   0.00625   0.00778   0.00867   0.00918
     Eigenvalues ---    0.01024   0.01155   0.01216   0.01294   0.01411
     Eigenvalues ---    0.01573   0.01867   0.01909   0.02151   0.02544
     Eigenvalues ---    0.02782   0.02952   0.03013   0.03166   0.03722
     Eigenvalues ---    0.03943   0.04219   0.04447   0.04471   0.04806
     Eigenvalues ---    0.05057   0.05114   0.05413   0.05537   0.05739
     Eigenvalues ---    0.05858   0.05885   0.06306   0.06508   0.06690
     Eigenvalues ---    0.06886   0.07044   0.07396   0.07583   0.07730
     Eigenvalues ---    0.08425   0.08610   0.08870   0.09334   0.10283
     Eigenvalues ---    0.10625   0.10951   0.11438   0.11661   0.11918
     Eigenvalues ---    0.12180   0.12790   0.12880   0.13030   0.13355
     Eigenvalues ---    0.13590   0.14009   0.14515   0.15065   0.15771
     Eigenvalues ---    0.16118   0.17058   0.17500   0.17532   0.18554
     Eigenvalues ---    0.19329   0.19732   0.20583   0.21180   0.21720
     Eigenvalues ---    0.24136   0.26010   0.26112   0.26188   0.30778
     Eigenvalues ---    0.31976   0.32466   0.33801   0.35259   0.35962
     Eigenvalues ---    0.36506   0.36506   0.36506   0.36506   0.39936
     Eigenvalues ---    0.40625   0.43520   0.46573   0.51303   0.54135
     Eigenvalues ---    0.59455   0.63036   0.63679   0.67174   0.70525
     Eigenvalues ---    0.72596   0.77438   0.77696   0.83819   0.86920
     Eigenvalues ---    0.88263   0.88935   0.89521   0.90726   0.92144
     Eigenvalues ---    0.92842   0.93320   0.96334   0.97308   0.98992
     Eigenvalues ---    0.99790   1.02647   1.04039   1.07891   1.12303
     Eigenvalues ---    1.12641   1.14363   1.22531   1.25408   1.28668
     Eigenvalues ---    1.29788   1.38794   1.40021   1.51316   1.66212
     Eigenvalues ---    1.76526   1.84887   2.43658
 Quadratic step=8.678D+00 exceeds max=3.000D-01 adjusted using Lamda=-1.123D-01.
 Angle between NR and scaled steps=  78.57 degrees.
 Angle between quadratic step and forces=  45.53 degrees.
 Linear search not attempted -- first point.
 Variable       Old X    -DE/DX   Delta X   Delta X   Delta X     New X
                                 (Linear)    (Quad)   (Total)
    X1        6.57988   0.00373   0.00000  -0.00812  -0.00812   6.57176
    Y1       -6.74026   0.02751   0.00000   0.05583   0.05583  -6.68443
    Z1       -1.51359   0.00222   0.00000   0.01355   0.01355  -1.50004
    X2        6.52134   0.00079   0.00000   0.00260   0.00260   6.52394
    Y2       -6.89858  -0.00344   0.00000   0.00328   0.00328  -6.89530
    Z2       -3.58210   0.00673   0.00000   0.02788   0.02788  -3.55422
    X3        8.39100  -0.00711   0.00000  -0.03076  -0.03076   8.36024
    Y3       -7.44543  -0.00327   0.00000   0.00560   0.00560  -7.43983
    Z3       -0.77821  -0.00340   0.00000  -0.00381  -0.00381  -0.78202
    X4        3.06718  -0.00256   0.00000   0.02766   0.02766   3.09484
    Y4       -2.25879   0.01707   0.00000   0.02337   0.02337  -2.23542
    Z4        1.87854   0.01474   0.00000   0.00732   0.00732   1.88586
    X5        1.68549   0.01114   0.00000   0.05981   0.05981   1.74530
    Y5       -3.84169   0.00344   0.00000   0.01279   0.01279  -3.82889
    Z5        1.91165  -0.01058   0.00000  -0.05101  -0.05101   1.86063
    X6        2.52075   0.01651   0.00000   0.04980   0.04980   2.57055
    Y6       -0.67264  -0.00909   0.00000  -0.01018  -0.01018  -0.68282
    Z6        3.92826  -0.00398   0.00000   0.00484   0.00484   3.93311
    X7        0.80679  -0.00054   0.00000   0.02653   0.02653   0.83332
    Y7        0.08224  -0.00554   0.00000  -0.04630  -0.04630   0.03594
    Z7        3.90720  -0.00467   0.00000  -0.01962  -0.01962   3.88758
    X8        5.85340   0.01367   0.00000   0.00985   0.00985   5.86326
    Y8       -3.22189   0.00003   0.00000   0.02208   0.02208  -3.19982
    Z8        1.98448  -0.00362   0.00000  -0.01302  -0.01302   1.97146
    X9        6.17599  -0.00721   0.00000  -0.03446  -0.03446   6.14154
    Y9       -4.78966   0.00334   0.00000   0.00637   0.00637  -4.78329
    Z9        3.33949  -0.01097   0.00000  -0.04928  -0.04928   3.29020
   X10        7.36498  -0.00102   0.00000  -0.01878  -0.01878   7.34621
   Y10       -1.14248   0.00766   0.00000   0.02881   0.02881  -1.11367
   Z10        2.75113   0.00274   0.00000   0.00841   0.00841   2.75954
   X11        9.16220  -0.01066   0.00000  -0.04094  -0.04094   9.12126
   Y11       -1.48567  -0.00618   0.00000  -0.02863  -0.02863  -1.51430
   Z11        2.68919  -0.00204   0.00000  -0.00515  -0.00515   2.68404
   X12        3.14802   0.01966   0.00000   0.02708   0.02708   3.17509
   Y12       -0.85023  -0.01970   0.00000  -0.03611  -0.03611  -0.88635
   Z12       -0.69270  -0.00254   0.00000  -0.00948  -0.00948  -0.70218
   X13        4.33076  -0.00905   0.00000  -0.02480  -0.02480   4.30596
   Y13        0.86857  -0.00610   0.00000  -0.02481  -0.02481   0.84377
   Z13       -0.51945   0.00363   0.00000   0.01641   0.01641  -0.50304
   X14        6.46761  -0.02029   0.00000  -0.04265  -0.04265   6.42496
   Y14       -3.88345   0.00158   0.00000   0.01420   0.01420  -3.86925
   Z14       -0.84882  -0.00257   0.00000   0.00238   0.00238  -0.84644
   X15        8.21118  -0.00466   0.00000  -0.02210  -0.02210   8.18908
   Y15       -2.92139  -0.00662   0.00000  -0.02100  -0.02100  -2.94240
   Z15       -1.50443   0.01037   0.00000   0.05490   0.05490  -1.44953
   X16        4.43206   0.00216   0.00000  -0.00545  -0.00545   4.42661
   Y16       -2.66550  -0.00475   0.00000  -0.02170  -0.02170  -2.68720
   Z16       -2.25503   0.00001   0.00000  -0.02247  -0.02247  -2.27750
   X17        0.79889   0.00468   0.00000   0.01533   0.01533   0.81421
   Y17       -0.18853   0.00906   0.00000  -0.00402  -0.00402  -0.19255
   Z17       -1.86669   0.00336   0.00000   0.00900   0.00900  -1.85769
   X18       -1.02366   0.00750   0.00000   0.00422   0.00422  -1.01944
   Y18       -2.03205   0.00137   0.00000   0.00938   0.00938  -2.02267
   Z18       -2.27037   0.00119   0.00000  -0.00042  -0.00042  -2.27079
   X19       -0.37004  -0.00433   0.00000  -0.01799  -0.01799  -0.38803
   Y19       -3.94756   0.00447   0.00000   0.01381   0.01381  -3.93375
   Z19       -1.91101  -0.00023   0.00000   0.00114   0.00114  -1.90987
   X20       -3.29483  -0.01321   0.00000  -0.00701  -0.00701  -3.30183
   Y20       -1.43224   0.00015   0.00000   0.00455   0.00455  -1.42769
   Z20       -3.17919  -0.00290   0.00000  -0.00182  -0.00182  -3.18100
   X21       -4.67172   0.00410   0.00000   0.00627   0.00627  -4.66546
   Y21       -2.92490   0.00376   0.00000   0.01066   0.01066  -2.91424
   Z21       -3.50985   0.00020   0.00000  -0.00479  -0.00479  -3.51464
   X22       -4.00978   0.00366   0.00000   0.00810   0.00810  -4.00169
   Y22        1.23235   0.00981   0.00000  -0.00144  -0.00144   1.23091
   Z22       -3.65541   0.01732   0.00000   0.01323   0.01323  -3.64218
   X23       -5.50360   0.00561   0.00000   0.01925   0.01925  -5.48434
   Y23        1.51588  -0.00031   0.00000   0.00305   0.00305   1.51893
   Z23       -5.06866   0.00615   0.00000   0.02371   0.02371  -5.04496
   X24       -5.06141   0.01099   0.00000   0.03336   0.03336  -5.02805
   Y24        2.21972  -0.01547   0.00000  -0.06480  -0.06480   2.15492
   Z24       -1.55946  -0.02662   0.00000  -0.08913  -0.08913  -1.64860
   X25       -1.73691  -0.01817   0.00000  -0.02881  -0.02881  -1.76573
   Y25        2.89154   0.00077   0.00000  -0.00555  -0.00555   2.88599
   Z25       -3.90872  -0.00247   0.00000   0.01224   0.01224  -3.89648
   X26        0.47032   0.00238   0.00000  -0.01432  -0.01432   0.45600
   Y26        2.21256  -0.01260   0.00000  -0.02143  -0.02143   2.19113
   Z26       -2.84402   0.00132   0.00000   0.00123   0.00123  -2.84278
   X27        2.15225  -0.00709   0.00000  -0.03886  -0.03886   2.11340
   Y27        3.40277  -0.00054   0.00000   0.00115   0.00115   3.40392
   Z27       -2.85545   0.00254   0.00000   0.01699   0.01699  -2.83846
   X28       -2.14362  -0.01326   0.00000  -0.02602  -0.02602  -2.16965
   Y28        5.50856  -0.01849   0.00000  -0.00213  -0.00213   5.50643
   Z28       -4.91538  -0.00102   0.00000   0.02837   0.02837  -4.88700
   X29       -1.46151   0.01842   0.00000   0.06165   0.06165  -1.39987
   Y29        7.38060   0.02273   0.00000   0.00859   0.00859   7.38919
   Z29       -3.85097   0.01375   0.00000   0.00573   0.00573  -3.84524
   X30       -3.68650   0.00366   0.00000   0.01308   0.01308  -3.67342
   Y30        5.69762  -0.00608   0.00000  -0.01207  -0.01207   5.68556
   Z30       -6.99219  -0.00412   0.00000  -0.01256  -0.01256  -7.00475
   X31       -3.68840  -0.00204   0.00000  -0.00617  -0.00617  -3.69456
   Y31        7.44543   0.00063   0.00000  -0.00706  -0.00706   7.43837
   Z31       -7.74724  -0.00209   0.00000  -0.01149  -0.01149  -7.75873
   X32       -3.66660  -0.00237   0.00000  -0.00787  -0.00787  -3.67447
   Y32        4.24342  -0.00087   0.00000  -0.01052  -0.01052   4.23290
   Z32       -8.21522  -0.00288   0.00000  -0.01488  -0.01488  -8.23010
   X33        1.74104  -0.00734   0.00000  -0.01313  -0.01313   1.72792
   Y33        4.00833  -0.01140   0.00000  -0.01692  -0.01692   3.99142
   Z33        7.21032  -0.01129   0.00000  -0.02684  -0.02684   7.18348
   X34       -1.69724   0.00514   0.00000  -0.01586  -0.01586  -1.71309
   Y34        3.84405  -0.05747   0.00000  -0.03243  -0.03243   3.81162
   Z34        3.20340   0.03547   0.00000   0.03150   0.03150   3.23490
   X35       -3.37076  -0.02410   0.00000  -0.00553  -0.00553  -3.37629
   Y35        4.94040   0.00711   0.00000   0.01090   0.01090   4.95130
   Z35        1.46727  -0.03357   0.00000  -0.02304  -0.02304   1.44423
   X36       -7.56717   0.00948   0.00000   0.01825   0.01825  -7.54892
   Y36        5.61334  -0.00902   0.00000  -0.01541  -0.01541   5.59793
   Z36       -0.65724   0.00266   0.00000   0.00633   0.00633  -0.65091
   X37       -5.62059   0.00572   0.00000  -0.00737  -0.00737  -5.62796
   Y37        3.84053   0.02351   0.00000   0.05786   0.05786   3.89840
   Z37        0.57615   0.02909   0.00000   0.07350   0.07350   0.64965
   X38       -1.74966  -0.01048   0.00000  -0.07029  -0.07029  -1.81995
   Y38        1.56301   0.03260   0.00000  -0.00266  -0.00266   1.56036
   Z38        3.93839  -0.01762   0.00000  -0.02883  -0.02883   3.90956
   X39        0.45300   0.01410   0.00000   0.02464   0.02464   0.47764
   Y39        5.89691   0.01444   0.00000   0.00523   0.00523   5.90213
   Z39        4.61179   0.00840   0.00000   0.00180   0.00180   4.61359
   X40        0.12547   0.00694   0.00000   0.01509   0.01509   0.14056
   Y40        3.17877   0.00175   0.00000  -0.00537  -0.00537   3.17339
   Z40        8.21522  -0.00207   0.00000  -0.00721  -0.00721   8.20801
   X41        2.92153  -0.00366   0.00000   0.00054   0.00054   2.92207
   Y41        2.51094   0.00488   0.00000  -0.00085  -0.00085   2.51009
   Z41        6.39035   0.00595   0.00000   0.01695   0.01695   6.40730
   X42       -9.16220   0.00302   0.00000   0.02432   0.02432  -9.13788
   Y42        4.52878   0.00381   0.00000  -0.00242  -0.00242   4.52636
   Z42       -1.40624  -0.00067   0.00000  -0.00441  -0.00441  -1.41064
   X43       -6.65532  -0.00408   0.00000  -0.00025  -0.00025  -6.65557
   Y43        6.70381  -0.00203   0.00000  -0.01359  -0.01359   6.69023
   Z43       -2.16811   0.00268   0.00000   0.00944   0.00944  -2.15866
   X44       -8.26589   0.00110   0.00000  -0.00121  -0.00121  -8.26710
   Y44        6.93779  -0.00402   0.00000  -0.01369  -0.01369   6.92410
   Z44        0.78322  -0.00456   0.00000  -0.02105  -0.02105   0.76218
   X45       -6.41308   0.00654   0.00000   0.03390   0.03390  -6.37919
   Y45        2.31812   0.00171   0.00000  -0.00509  -0.00509   2.31303
   Z45        1.75478  -0.00851   0.00000  -0.01461  -0.01461   1.74017
   X46       -2.79974  -0.00473   0.00000  -0.01246  -0.01246  -2.81220
   Y46        6.78781  -0.00369   0.00000   0.00015   0.00015   6.78795
   Z46        0.74208   0.00089   0.00000  -0.01326  -0.01326   0.72882
   X47        4.99184   0.00120   0.00000   0.00489   0.00489   4.99674
   Y47       -7.73895  -0.00124   0.00000   0.01646   0.01646  -7.72249
   Z47       -0.66299  -0.00107   0.00000  -0.00386  -0.00386  -0.66685
   X48        2.86777  -0.00395   0.00000  -0.02983  -0.02983   2.83794
   Y48        5.17636   0.00473   0.00000   0.02089   0.02089   5.19726
   Z48        8.47877  -0.00534   0.00000  -0.04201  -0.04201   8.43677
         Item               Value     Threshold  Converged?
 Maximum Force            0.057467     0.000450     NO 
 RMS     Force            0.011515     0.000300     NO 
 Maximum Displacement     0.089133     0.001800     NO 
 RMS     Displacement     0.025044     0.001200     NO 
 Predicted change in Energy=-1.961833D-02
 GradGradGradGradGradGradGradGradGradGradGradGradGradGradGradGradGradGrad

 Leave Link  103 at Wed Mar  8 15:15:28 2023, MaxMem=  2684354560 cpu:               2.5 elap:               0.2
 (Enter /opt/gaussian/g16/l9999.exe)

 Test job not archived.
 1\1\GINC-JULIO-SYS\Force\RM062X\def2TZVP\C16H24N2O5S1\JVELAZQUEZ\08-Ma
 r-2023\0\\#P M062X/Def2TZVP scf=(direct,conver=8) EmpiricalDispersion=
 GD3 NoSymm Force pop=(NBORead) Charge Prop=(Field,Read)\\Gaussian run 
 using SANDER external interface, route from template gau_job.tpl\\0,1\
 C,3.4819241167,-3.5667907104,-0.8009586731\H,3.4509442713,-3.650571246
 2,-1.8955653771\H,4.4403285787,-3.9399527607,-0.4118097741\C,1.6230806
 131,-1.195299769,0.9940806372\H,0.8919247916,-2.0329341695,1.011600263
 4\O,1.3339233838,-0.3559455042,2.0787461295\H,0.4269362042,0.043519968
 5,2.0675999877\C,3.0974882015,-1.7049527462,1.050143338\H,3.2681947075
 ,-2.5345814971,1.7671809154\O,3.8973810767,-0.6045729785,1.4558344624\
 H,4.8484289147,-0.7861817494,1.4230602692\C,1.6658578032,-0.449923772,
 -0.366560735\H,2.2917385637,0.4596300683,-0.2748798\C,3.422509502,-2.0
 550318961,-0.4491741195\H,4.34516904,-1.5459353954,-0.796108732\O,2.34
 53455015,-1.4105216156,-1.1933114054\N,0.4227527693,-0.0997675743,-0.9
 878108274\C,-0.5416949936,-1.0753139002,-1.2014275854\H,-0.1958151081,
 -2.0889584719,-1.0112611501\C,-1.7435477146,-0.7579086002,-1.682352596
 4\H,-2.4721693758,-1.5477928149,-1.8573316561\C,-2.121885821,0.6521297
 623,-1.9343585393\H,-2.9123785533,0.8021698079,-2.6822219849\H,-2.6783
 806428,1.1746268896,-0.8252327315\C,-0.9191345708,1.5301348635,-2.0684
 075185\C,0.2488812221,1.170836344,-1.5049891584\H,1.1389227043,1.80066
 90886,-1.5110388314\C,-1.1343566067,2.9150033236,-2.6011059418\O,-0.77
 33991204,3.9056448535,-2.0378461431\N,-1.9508138115,3.0150527089,-3.70
 010677\H,-1.9518145942,3.9399527607,-4.0996644211\H,-1.9402802624,2.24
 5523768,-4.3473069922\C,0.921321193,2.1211189325,3.8155345412\C,-0.898
 1402242,2.0341849559,1.6951656449\C,-1.7837296327,2.6143468803,0.77644
 48603\C,-4.004372457,2.9704540829,-0.3477967446\C,-2.9742855859,2.0323
 219714,0.3048870292\O,-0.9258807248,0.8271113242,2.0841064189\S,0.2397
 188376,3.1205077776,2.4404558991\H,0.0663960586,1.6821302023,4.3473069
 922\H,1.5460064653,1.3287306377,3.3816251396\H,-4.8484289147,2.3965261
 284,-0.7441478801\H,-3.521845433,3.5475056634,-1.1473136005\H,-4.37412
 21615,3.6713201209,0.4144647045\H,-3.3936582105,1.226696164,0.92859179
 31\H,-1.4815592711,3.5919523568,0.3926891992\H,2.6415695024,-4.0952759
 818,-0.3508393111\H,1.5175566273,2.739213101,4.4867743686\\Version=ES6
 4L-G16RevA.03\HF=-1507.8498872\RMSD=6.475e-09\RMSF=1.152e-02\Dipole=0.
 0676675,-1.2427184,-1.517468\Quadrupole=10.4240258,-9.9246405,-0.49938
 53,-7.1157474,7.7269023,-4.3152687\PG=C01 [X(C16H24N2O5S1)]\\@


 TIMES HAVE CHANGED. IN THE BIBLE WHEN AN ASS
 SPOKE IT WAS CONSIDERED A MIRACLE.
 Job cpu time:       0 days  7 hours  3 minutes 43.4 seconds.
 Elapsed time:       0 days  0 hours 26 minutes 38.2 seconds.
 File lengths (MBytes):  RWF=    435 Int=      0 D2E=      0 Chk=     48 Scr=      1
 Normal termination of Gaussian 16 at Wed Mar  8 15:15:28 2023.
