 Entering Gaussian System, Link 0=g16
 Initial command:
 /opt/gaussian/g16/l1.exe "/opt/gaussian/scratch16/Gau-2700988.inp" -scrdir="/opt/gaussian/scratch16/"
 Entering Link 1 = /opt/gaussian/g16/l1.exe PID=   2700990.
  
 Copyright (c) 1988,1990,1992,1993,1995,1998,2003,2009,2016,
            Gaussian, Inc.  All Rights Reserved.
  
 This is part of the Gaussian(R) 16 program.  It is based on
 the Gaussian(R) 09 system (copyright 2009, Gaussian, Inc.),
 the Gaussian(R) 03 system (copyright 2003, Gaussian, Inc.),
 the Gaussian(R) 98 system (copyright 1998, Gaussian, Inc.),
 the Gaussian(R) 94 system (copyright 1995, Gaussian, Inc.),
 the Gaussian 92(TM) system (copyright 1992, Gaussian, Inc.),
 the Gaussian 90(TM) system (copyright 1990, Gaussian, Inc.),
 the Gaussian 88(TM) system (copyright 1988, Gaussian, Inc.),
 the Gaussian 86(TM) system (copyright 1986, Carnegie Mellon
 University), and the Gaussian 82(TM) system (copyright 1983,
 Carnegie Mellon University). Gaussian is a federally registered
 trademark of Gaussian, Inc.
  
 This software contains proprietary and confidential information,
 including trade secrets, belonging to Gaussian, Inc.
  
 This software is provided under written license and may be
 used, copied, transmitted, or stored only in accord with that
 written license.
  
 The following legend is applicable only to US Government
 contracts under FAR:
  
                    RESTRICTED RIGHTS LEGEND
  
 Use, reproduction and disclosure by the US Government is
 subject to restrictions as set forth in subparagraphs (a)
 and (c) of the Commercial Computer Software - Restricted
 Rights clause in FAR 52.227-19.
  
 Gaussian, Inc.
 340 Quinnipiac St., Bldg. 40, Wallingford CT 06492
  
  
 ---------------------------------------------------------------
 Warning -- This program may not be used in any manner that
 competes with the business of Gaussian, Inc. or will provide
 assistance to any competitor of Gaussian, Inc.  The licensee
 of this program is prohibited from giving any competitor of
 Gaussian, Inc. access to this program.  By using this program,
 the user acknowledges that Gaussian, Inc. is engaged in the
 business of creating and licensing software in the field of
 computational chemistry and represents and warrants to the
 licensee that it is not a competitor of Gaussian, Inc. and that
 it will not use this program in any manner prohibited above.
 ---------------------------------------------------------------
  

 Cite this work as:
 Gaussian 16, Revision A.03,
 M. J. Frisch, G. W. Trucks, H. B. Schlegel, G. E. Scuseria, 
 M. A. Robb, J. R. Cheeseman, G. Scalmani, V. Barone, 
 G. A. Petersson, H. Nakatsuji, X. Li, M. Caricato, A. V. Marenich, 
 J. Bloino, B. G. Janesko, R. Gomperts, B. Mennucci, H. P. Hratchian, 
 J. V. Ortiz, A. F. Izmaylov, J. L. Sonnenberg, D. Williams-Young, 
 F. Ding, F. Lipparini, F. Egidi, J. Goings, B. Peng, A. Petrone, 
 T. Henderson, D. Ranasinghe, V. G. Zakrzewski, J. Gao, N. Rega, 
 G. Zheng, W. Liang, M. Hada, M. Ehara, K. Toyota, R. Fukuda, 
 J. Hasegawa, M. Ishida, T. Nakajima, Y. Honda, O. Kitao, H. Nakai, 
 T. Vreven, K. Throssell, J. A. Montgomery, Jr., J. E. Peralta, 
 F. Ogliaro, M. J. Bearpark, J. J. Heyd, E. N. Brothers, K. N. Kudin, 
 V. N. Staroverov, T. A. Keith, R. Kobayashi, J. Normand, 
 K. Raghavachari, A. P. Rendell, J. C. Burant, S. S. Iyengar, 
 J. Tomasi, M. Cossi, J. M. Millam, M. Klene, C. Adamo, R. Cammi, 
 J. W. Ochterski, R. L. Martin, K. Morokuma, O. Farkas, 
 J. B. Foresman, and D. J. Fox, Gaussian, Inc., Wallingford CT, 2016.
 
 ******************************************
 Gaussian 16:  ES64L-G16RevA.03 25-Dec-2016
                 8-Mar-2023 
 ******************************************
 %chk=20.chk
 %NProcShared=16
 Will use up to   16 processors via shared memory.
 %mem=20GB
 ----------------------------------------------------------------------
 #P M062X/Def2TZVP scf=(direct,conver=8) EmpiricalDispersion=GD3 NoSymm
  Force pop=(NBORead) Charge Prop=(Field,Read)
 ----------------------------------------------------------------------
 1/10=7,18=10,28=-2,30=1,38=1,125=101/1,3;
 2/12=2,15=1,17=6,18=5,29=2,40=1/2;
 3/5=44,7=101,11=2,25=1,30=1,71=1,74=-55,124=31/1,2,3;
 4//1;
 5/5=2,6=8,38=5/2;
 6/7=2,8=2,9=2,10=2,14=2,15=1,28=1,40=2/1,2,7;
 7/7=1,16=-2,29=1,30=1/1,2,3,16;
 1/10=7,18=10,28=-2,30=1/3;
 99/12=1/99;
 Leave Link    1 at Wed Mar  8 14:54:01 2023, MaxMem=  2684354560 cpu:               1.1 elap:               0.1
 (Enter /opt/gaussian/g16/l101.exe)
 ----------------------------------------------------------------------
 Gaussian run using SANDER external interface, route from template gau_
 job.tpl
 ----------------------------------------------------------------------
 Symbolic Z-matrix:
 Charge =  0 Multiplicity = 1
 C                     3.47638  -3.55983  -0.79248 
 H                     3.44796  -3.64563  -1.88697 
 H                     4.43466  -3.93211  -0.4023 
 C                     1.61406  -1.18449   0.99707 
 H                     0.8891   -2.02853   1.01131 
 O                     1.31536  -0.34834   2.07698 
 H                     0.40107   0.05012   2.06974 
 C                     3.09153  -1.69093   1.05543 
 H                     3.26275  -2.51674   1.77608 
 O                     3.89137  -0.5893    1.45145 
 H                     4.84198  -0.77881   1.44006 
 C                     1.66649  -0.44155  -0.36548 
 H                     2.29309   0.46693  -0.26726 
 C                     3.41833  -2.04859  -0.44199 
 H                     4.34107  -1.54044  -0.79033 
 O                     2.3406   -1.40197  -1.18995 
 N                     0.4267   -0.09045  -1.0049 
 C                    -0.5397   -1.05727  -1.18809 
 H                    -0.21765  -2.06951  -0.95393 
 C                    -1.74064  -0.74105  -1.69529 
 H                    -2.48202  -1.52667  -1.8291 
 C                    -2.08822   0.64784  -1.98777 
 H                    -2.92079   0.82855  -2.67679 
 H                    -2.67443   1.21152  -0.79465 
 C                    -0.9139    1.53205  -2.09171 
 C                     0.2532    1.17783  -1.50591 
 H                     1.13189   1.82357  -1.48288 
 C                    -1.1266    2.92141  -2.62553 
 O                    -0.75512   3.91108  -2.07468 
 N                    -1.95082   3.01102  -3.72238 
 H                    -1.95673   3.93211  -4.13095 
 H                    -1.94983   2.23329  -4.35921 
 C                     0.89264   2.12409   3.82813 
 C                    -0.9023    2.03162   1.67579 
 C                    -1.75668   2.60356   0.7476 
 C                    -3.97834   3.00149  -0.38113 
 C                    -2.96511   2.01488   0.24129 
 O                    -0.93603   0.81469   2.07209 
 S                     0.24439   3.11191   2.43048 
 H                     0.02502   1.7106    4.35921 
 H                     1.5054    1.31323   3.41243 
 H                    -4.84198   2.45654  -0.77758 
 H                    -3.49026   3.58399  -1.17368 
 H                    -4.32308   3.69373   0.39882 
 H                    -3.42033   1.27365   0.92007 
 H                    -1.45763   3.58514   0.37594 
 H                     2.63581  -4.08791  -0.34228 
 H                     1.49449   2.74266   4.49389 
 
 ITRead=  0  0  0  0  0  0  0  0  0  0  0  0  0  0  0  0  0  0  0  0
 ITRead=  0  0  0  0  0  0  0  0  0  0  0  0  0  0  0  0  0  0  0  0
 ITRead=  0  0  0  0  0  0  0  0
 MicOpt= -1 -1 -1 -1 -1 -1 -1 -1 -1 -1 -1 -1 -1 -1 -1 -1 -1 -1 -1 -1
 MicOpt= -1 -1 -1 -1 -1 -1 -1 -1 -1 -1 -1 -1 -1 -1 -1 -1 -1 -1 -1 -1
 MicOpt= -1 -1 -1 -1 -1 -1 -1 -1
 NAtoms=     48 NQM=       48 NQMF=       0 NMMI=      0 NMMIF=      0
                NMic=       0 NMicF=      0.
                    Isotopes and Nuclear Properties:
 (Nuclear quadrupole moments (NQMom) in fm**2, nuclear magnetic moments (NMagM)
  in nuclear magnetons)

  Atom         1           2           3           4           5           6           7           8           9          10
 IAtWgt=          12           1           1          12           1          16           1          12           1          16
 AtmWgt=  12.0000000   1.0078250   1.0078250  12.0000000   1.0078250  15.9949146   1.0078250  12.0000000   1.0078250  15.9949146
 NucSpn=           0           1           1           0           1           0           1           0           1           0
 AtZEff=  -0.0000000  -0.0000000  -0.0000000  -0.0000000  -0.0000000  -0.0000000  -0.0000000  -0.0000000  -0.0000000  -0.0000000
 NQMom=    0.0000000   0.0000000   0.0000000   0.0000000   0.0000000   0.0000000   0.0000000   0.0000000   0.0000000   0.0000000
 NMagM=    0.0000000   2.7928460   2.7928460   0.0000000   2.7928460   0.0000000   2.7928460   0.0000000   2.7928460   0.0000000
 AtZNuc=   6.0000000   1.0000000   1.0000000   6.0000000   1.0000000   8.0000000   1.0000000   6.0000000   1.0000000   8.0000000

  Atom        11          12          13          14          15          16          17          18          19          20
 IAtWgt=           1          12           1          12           1          16          14          12           1          12
 AtmWgt=   1.0078250  12.0000000   1.0078250  12.0000000   1.0078250  15.9949146  14.0030740  12.0000000   1.0078250  12.0000000
 NucSpn=           1           0           1           0           1           0           2           0           1           0
 AtZEff=  -0.0000000  -0.0000000  -0.0000000  -0.0000000  -0.0000000  -0.0000000  -0.0000000  -0.0000000  -0.0000000  -0.0000000
 NQMom=    0.0000000   0.0000000   0.0000000   0.0000000   0.0000000   0.0000000   2.0440000   0.0000000   0.0000000   0.0000000
 NMagM=    2.7928460   0.0000000   2.7928460   0.0000000   2.7928460   0.0000000   0.4037610   0.0000000   2.7928460   0.0000000
 AtZNuc=   1.0000000   6.0000000   1.0000000   6.0000000   1.0000000   8.0000000   7.0000000   6.0000000   1.0000000   6.0000000

  Atom        21          22          23          24          25          26          27          28          29          30
 IAtWgt=           1          12           1           1          12          12           1          12          16          14
 AtmWgt=   1.0078250  12.0000000   1.0078250   1.0078250  12.0000000  12.0000000   1.0078250  12.0000000  15.9949146  14.0030740
 NucSpn=           1           0           1           1           0           0           1           0           0           2
 AtZEff=  -0.0000000  -0.0000000  -0.0000000  -0.0000000  -0.0000000  -0.0000000  -0.0000000  -0.0000000  -0.0000000  -0.0000000
 NQMom=    0.0000000   0.0000000   0.0000000   0.0000000   0.0000000   0.0000000   0.0000000   0.0000000   0.0000000   2.0440000
 NMagM=    2.7928460   0.0000000   2.7928460   2.7928460   0.0000000   0.0000000   2.7928460   0.0000000   0.0000000   0.4037610
 AtZNuc=   1.0000000   6.0000000   1.0000000   1.0000000   6.0000000   6.0000000   1.0000000   6.0000000   8.0000000   7.0000000

  Atom        31          32          33          34          35          36          37          38          39          40
 IAtWgt=           1           1          12          12          12          12          12          16          32           1
 AtmWgt=   1.0078250   1.0078250  12.0000000  12.0000000  12.0000000  12.0000000  12.0000000  15.9949146  31.9720718   1.0078250
 NucSpn=           1           1           0           0           0           0           0           0           0           1
 AtZEff=  -0.0000000  -0.0000000  -0.0000000  -0.0000000  -0.0000000  -0.0000000  -0.0000000  -0.0000000  -0.0000000  -0.0000000
 NQMom=    0.0000000   0.0000000   0.0000000   0.0000000   0.0000000   0.0000000   0.0000000   0.0000000   0.0000000   0.0000000
 NMagM=    2.7928460   2.7928460   0.0000000   0.0000000   0.0000000   0.0000000   0.0000000   0.0000000   0.0000000   2.7928460
 AtZNuc=   1.0000000   1.0000000   6.0000000   6.0000000   6.0000000   6.0000000   6.0000000   8.0000000  16.0000000   1.0000000

  Atom        41          42          43          44          45          46          47          48
 IAtWgt=           1           1           1           1           1           1           1           1
 AtmWgt=   1.0078250   1.0078250   1.0078250   1.0078250   1.0078250   1.0078250   1.0078250   1.0078250
 NucSpn=           1           1           1           1           1           1           1           1
 AtZEff=  -0.0000000  -0.0000000  -0.0000000  -0.0000000  -0.0000000  -0.0000000  -0.0000000  -0.0000000
 NQMom=    0.0000000   0.0000000   0.0000000   0.0000000   0.0000000   0.0000000   0.0000000   0.0000000
 NMagM=    2.7928460   2.7928460   2.7928460   2.7928460   2.7928460   2.7928460   2.7928460   2.7928460
 AtZNuc=   1.0000000   1.0000000   1.0000000   1.0000000   1.0000000   1.0000000   1.0000000   1.0000000
 Background charge distribution read from input stream:
 Leave Link  101 at Wed Mar  8 14:54:01 2023, MaxMem=  2684354560 cpu:               4.0 elap:               0.3
 (Enter /opt/gaussian/g16/l103.exe)

 GradGradGradGradGradGradGradGradGradGradGradGradGradGradGradGradGradGrad
 Berny optimization.
 Initialization pass.
 Trust Radius=3.00D-01 FncErr=1.00D-07 GrdErr=1.00D-07 EigMax=2.50D+02 EigMin=1.00D-04
 Number of steps in this run=      2 maximum allowed number of steps=      2.
 GradGradGradGradGradGradGradGradGradGradGradGradGradGradGradGradGradGrad

 Leave Link  103 at Wed Mar  8 14:54:01 2023, MaxMem=  2684354560 cpu:               0.4 elap:               0.0
 (Enter /opt/gaussian/g16/l202.exe)
 ---------------------------------------------------------------------------------------------------
                            Z-MATRIX (ANGSTROMS AND DEGREES)
   CD    Cent   Atom    N1       Length/X        N2       Alpha/Y        N3        Beta/Z          J
 ---------------------------------------------------------------------------------------------------
      1      1  C        0   3.476375         -3.559832         -0.792480
      2      2  H        0   3.447959         -3.645629         -1.886968
      3      3  H        0   4.434663         -3.932108         -0.402295
      4      4  C        0   1.614056         -1.184494          0.997071
      5      5  H        0   0.889102         -2.028526          1.011315
      6      6  O        0   1.315356         -0.348339          2.076976
      7      7  H        0   0.401071          0.050122          2.069738
      8      8  C        0   3.091530         -1.690926          1.055427
      9      9  H        0   3.262749         -2.516740          1.776085
     10     10  O        0   3.891374         -0.589299          1.451453
     11     11  H        0   4.841980         -0.778809          1.440057
     12     12  C        0   1.666493         -0.441553         -0.365477
     13     13  H        0   2.293092          0.466935         -0.267260
     14     14  C        0   3.418335         -2.048593         -0.441989
     15     15  H        0   4.341070         -1.540441         -0.790327
     16     16  O        0   2.340596         -1.401967         -1.189953
     17     17  N        0   0.426699         -0.090449         -1.004896
     18     18  C        0  -0.539699         -1.057275         -1.188091
     19     19  H        0  -0.217649         -2.069513         -0.953933
     20     20  C        0  -1.740641         -0.741049         -1.695291
     21     21  H        0  -2.482021         -1.526665         -1.829104
     22     22  C        0  -2.088216          0.647842         -1.987773
     23     23  H        0  -2.920788          0.828550         -2.676788
     24     24  H        0  -2.674429          1.211519         -0.794653
     25     25  C        0  -0.913898          1.532047         -2.091711
     26     26  C        0   0.253203          1.177833         -1.505911
     27     27  H        0   1.131891          1.823574         -1.482885
     28     28  C        0  -1.126601          2.921411         -2.625526
     29     29  O        0  -0.755124          3.911076         -2.074677
     30     30  N        0  -1.950824          3.011017         -3.722376
     31     31  H        0  -1.956730          3.932108         -4.130952
     32     32  H        0  -1.949830          2.233287         -4.359208
     33     33  C        0   0.892642          2.124089          3.828127
     34     34  C        0  -0.902298          2.031622          1.675793
     35     35  C        0  -1.756680          2.603559          0.747600
     36     36  C        0  -3.978341          3.001491         -0.381128
     37     37  C        0  -2.965110          2.014879          0.241291
     38     38  O        0  -0.936025          0.814687          2.072086
     39     39  S        0   0.244385          3.111907          2.430475
     40     40  H        0   0.025024          1.710603          4.359208
     41     41  H        0   1.505402          1.313234          3.412428
     42     42  H        0  -4.841980          2.456543         -0.777582
     43     43  H        0  -3.490260          3.583988         -1.173676
     44     44  H        0  -4.323078          3.693730          0.398821
     45     45  H        0  -3.420332          1.273651          0.920074
     46     46  H        0  -1.457632          3.585139          0.375938
     47     47  H        0   2.635809         -4.087912         -0.342281
     48     48  H        0   1.494493          2.742660          4.493895
 ---------------------------------------------------------------------------------------------------
                         Z-Matrix orientation:                         
 ---------------------------------------------------------------------
 Center     Atomic      Atomic             Coordinates (Angstroms)
 Number     Number       Type             X           Y           Z
 ---------------------------------------------------------------------
      1          6           0        3.476375   -3.559832   -0.792480
      2          1           0        3.447959   -3.645629   -1.886968
      3          1           0        4.434663   -3.932108   -0.402295
      4          6           0        1.614056   -1.184494    0.997071
      5          1           0        0.889102   -2.028526    1.011315
      6          8           0        1.315356   -0.348339    2.076976
      7          1           0        0.401071    0.050122    2.069738
      8          6           0        3.091530   -1.690926    1.055427
      9          1           0        3.262749   -2.516740    1.776085
     10          8           0        3.891374   -0.589299    1.451453
     11          1           0        4.841980   -0.778809    1.440057
     12          6           0        1.666493   -0.441553   -0.365477
     13          1           0        2.293092    0.466935   -0.267260
     14          6           0        3.418335   -2.048593   -0.441989
     15          1           0        4.341070   -1.540441   -0.790327
     16          8           0        2.340596   -1.401967   -1.189953
     17          7           0        0.426699   -0.090449   -1.004896
     18          6           0       -0.539699   -1.057275   -1.188091
     19          1           0       -0.217649   -2.069513   -0.953933
     20          6           0       -1.740641   -0.741049   -1.695291
     21          1           0       -2.482021   -1.526665   -1.829104
     22          6           0       -2.088216    0.647842   -1.987773
     23          1           0       -2.920788    0.828550   -2.676788
     24          1           0       -2.674429    1.211519   -0.794653
     25          6           0       -0.913898    1.532047   -2.091711
     26          6           0        0.253203    1.177833   -1.505911
     27          1           0        1.131891    1.823574   -1.482885
     28          6           0       -1.126601    2.921411   -2.625526
     29          8           0       -0.755124    3.911076   -2.074677
     30          7           0       -1.950824    3.011017   -3.722376
     31          1           0       -1.956730    3.932108   -4.130952
     32          1           0       -1.949830    2.233287   -4.359208
     33          6           0        0.892642    2.124089    3.828127
     34          6           0       -0.902298    2.031622    1.675793
     35          6           0       -1.756680    2.603559    0.747600
     36          6           0       -3.978341    3.001491   -0.381128
     37          6           0       -2.965110    2.014879    0.241291
     38          8           0       -0.936025    0.814687    2.072086
     39         16           0        0.244385    3.111907    2.430475
     40          1           0        0.025024    1.710603    4.359208
     41          1           0        1.505402    1.313234    3.412428
     42          1           0       -4.841980    2.456543   -0.777582
     43          1           0       -3.490260    3.583988   -1.173676
     44          1           0       -4.323078    3.693730    0.398821
     45          1           0       -3.420332    1.273651    0.920074
     46          1           0       -1.457632    3.585139    0.375938
     47          1           0        2.635809   -4.087912   -0.342281
     48          1           0        1.494493    2.742660    4.493895
 ---------------------------------------------------------------------
                    Distance matrix (angstroms):
                    1          2          3          4          5
     1  C    0.000000
     2  H    1.098213   0.000000
     3  H    1.099613   1.805522   0.000000
     4  C    3.508982   4.211658   4.178927   0.000000
     5  H    3.506074   4.190800   4.265315   1.112723   0.000000
     6  O    4.818451   5.579693   5.359129   1.398060   2.034786
     7  H    5.539094   6.212699   6.183767   2.036228   2.383110
     8  C    2.656252   3.550435   2.991965   1.562949   2.228589
     9  H    2.780504   3.837531   2.849910   2.258302   2.541146
    10  O    3.745868   4.547837   3.860818   2.397268   3.358382
    11  H    3.818794   4.607716   3.674706   3.283338   4.167835
    12  C    3.630657   3.969214   4.455120   1.552819   2.240173
    13  H    4.229760   4.568408   4.894501   2.187884   3.135804
    14  C    1.552436   2.153919   2.140591   2.464342   2.917106
    15  H    2.196734   2.536155   2.424747   3.279954   3.924312
    16  O    2.470700   2.597325   3.377445   2.314785   2.710164
    17  N    4.624096   4.748196   5.584375   2.571891   2.834619
    18  C    4.748490   4.805146   5.798829   3.070795   2.796817
    19  H    3.986594   4.097729   5.041585   2.818656   2.255832
    20  C    5.998155   5.949361   7.070295   4.324286   3.987338
    21  H    6.380505   6.297461   7.460728   4.988206   4.436701
    22  C    7.077988   7.006660   8.126354   5.096427   5.002190
    23  H    7.983246   7.823237   9.052063   6.173687   6.023309
    24  H    7.784484   7.891050   8.783509   5.228983   5.143750
    25  C    6.847607   6.773185   7.830595   4.828118   5.055419
    26  C    5.774365   5.798056   6.694331   3.701004   4.125716
    27  H    5.912218   5.953119   6.723381   3.928249   4.595504
    28  C    8.158061   8.037293   9.101710   6.123142   6.464638
    29  O    8.681249   8.648984   9.552292   6.404177   6.892438
    30  N    9.011928   8.765074  10.000218   7.251473   7.474624
    31  H    9.838353   9.574352  10.798087   8.076308   8.370832
    32  H    8.702039   8.355223   9.717562   7.285070   7.420587
    33  C    7.767409   8.513613   8.192674   4.413846   5.017834
    34  C    7.518611   7.990568   8.268475   4.139578   4.487254
    35  C    8.230680   8.548776   9.075788   5.076755   5.340967
    36  C    9.939465  10.079767  10.902013   7.120170   7.136665
    37  C    8.581306   8.814664   9.515120   5.637017   5.638885
    38  O    6.841888   7.401881   7.582804   3.413986   3.541213
    39  S    8.083644   8.635247   8.671860   4.731776   5.371567
    40  H    8.138133   8.911813   8.599827   4.712810   5.092751
    41  H    6.731475   7.513151   7.116621   3.476262   4.160833
    42  H   10.266061  10.353276  11.269951   7.621479   7.494084
    43  H    9.985663  10.045647  10.949481   7.314684   7.446698
    44  H   10.717501  10.930692  11.640155   7.707433   7.764418
    45  H    8.594182   8.902371   9.515752   5.602988   5.429910
    46  H    8.761292   9.026050   9.582995   5.707055   6.117525
    47  H    1.090000   1.800350   1.806586   3.356736   3.020641
    48  H    8.461384   9.238055   8.784634   5.259715   5.937935
                    6          7          8          9         10
     6  O    0.000000
     7  H    0.997366   0.000000
     8  C    2.449674   3.361346   0.000000
     9  H    2.929990   3.855414   1.109339   0.000000
    10  O    2.661806   3.601854   1.417804   2.053188   0.000000
    11  H    3.609439   4.561282   2.010963   2.372191   0.969379
    12  C    2.469324   2.788066   2.368677   3.382413   2.876310
    13  H    2.667598   3.035628   2.653934   3.744036   2.573735
    14  C    3.695750   4.451658   1.573842   2.272271   2.436888
    15  H    4.335607   5.121861   2.234010   2.949984   2.476384
    16  O    3.582468   4.061515   2.385189   3.300070   3.168970
    17  N    3.217787   3.077953   3.729314   4.654452   4.276269
    18  C    3.821581   3.567188   4.315172   5.037359   5.178861
    19  H    3.807749   3.744096   3.889926   4.445917   4.986079
    20  C    4.870661   4.403218   5.640797   6.343299   6.453264
    21  H    5.573686   5.098965   6.277895   6.854197   7.229168
    22  C    5.394336   4.797627   6.446757   7.267326   7.008159
    23  H    6.475203   5.845530   7.511669   8.321969   8.090626
    24  H    5.157305   4.360308   6.715152   7.467174   7.169220
    25  C    5.087571   4.609003   6.027892   6.985478   6.335989
    26  C    4.036638   3.752181   4.779784   5.786081   5.010494
    27  H    4.174143   4.037371   4.757617   5.830931   4.695428
    28  C    6.226391   5.711707   7.253668   8.259180   7.357100
    29  O    6.298073   5.780997   7.481760   8.502264   7.367287
    30  N    7.455581   6.917145   8.388147   9.379260   8.594304
    31  H    8.219923   7.686196   9.165259  10.184482   9.263190
    32  H    7.664900   7.185005   8.374547   9.347489   8.709216
    33  C    3.059104   2.763135   5.203587   5.600498   4.690783
    34  C    3.277674   2.404227   5.494805   6.168085   5.467984
    35  C    4.462997   3.594994   6.484019   7.243612   6.526122
    36  C    6.729552   5.822077   8.606135   9.356166   8.842203
    37  C    5.222732   4.305191   7.146937   7.853496   7.433547
    38  O    2.534042   1.540257   4.851072   5.368029   5.065585
    39  S    3.639401   3.086942   5.750148   6.420313   5.287527
    40  H    3.333584   2.853118   5.647020   5.918262   5.356608
    41  H    2.140181   2.148910   4.134760   4.520463   3.627384
    42  H    7.343612   6.433325   9.137943   9.845881   9.514054
    43  H    7.008842   6.176601   8.724310   9.566770   8.876719
    44  H    7.137678   6.195597   9.187060   9.900079   9.323604
    45  H    5.137705   4.173952   7.156213   7.730678   7.563993
    46  H    5.104433   4.338212   6.999532   7.840621   6.869828
    47  H    4.645515   5.285378   2.811905   2.710924   4.127253
    48  H    3.927831   3.784424   5.833548   6.178552   5.109153
                   11         12         13         14         15
    11  H    0.000000
    12  C    3.668435   0.000000
    13  H    3.311138   1.107982   0.000000
    14  C    2.679778   2.378525   2.761264   0.000000
    15  H    2.409483   2.922571   2.915026   1.109504   0.000000
    16  O    3.682689   1.434075   2.084806   1.462565   2.044694
    17  N    5.093755   1.438478   2.082836   3.619541   4.179811
    18  C    5.995596   2.433740   3.346020   4.147941   4.920730
    19  H    5.744297   2.558618   3.634406   3.671907   4.592234
    20  C    7.291278   3.669695   4.446291   5.467675   6.200420
    21  H    8.055290   4.530986   5.405137   6.083642   6.901726
    22  C    7.862122   4.232785   4.710494   6.323157   6.896244
    23  H    8.932670   5.291358   5.755097   7.311413   7.868002
    24  H    8.090225   4.664809   5.050625   6.919138   7.535950
    25  C    7.137476   3.678776   3.840295   5.857542   6.224827
    26  C    5.793449   2.433185   2.490136   4.643254   4.961022
    27  H    5.392656   2.581705   2.160232   4.615730   4.700539
    28  C    8.114465   4.921252   4.824953   7.079916   7.291880
    29  O    8.104070   5.266021   4.941709   7.456613   7.572305
    30  N    9.335721   6.022790   6.034982   8.073937   8.300640
    31  H    9.972529   6.814357   6.707945   8.846952   8.987261
    32  H    9.425120   6.015185   6.153571   7.905460   8.158025
    33  C    5.452244   4.976714   4.634610   6.482614   6.830122
    34  C    6.399283   4.108779   4.053914   6.308805   6.806930
    35  C    7.447296   4.714845   4.689963   7.059633   7.531303
    36  C    9.767571   6.612031   6.765192   8.956443   9.487318
    37  C    8.378090   5.277686   5.504856   7.597832   8.190532
    38  O    6.026942   3.780602   4.002582   5.786138   6.448859
    39  S    6.103808   4.739917   4.297773   6.704906   6.985753
    40  H    6.158058   5.445075   5.300476   6.978367   7.464265
    41  H    4.404502   4.168668   3.857043   5.460560   5.817871
    42  H   10.448181   7.136456   7.424838   9.414970  10.015211
    43  H    9.761752   6.591681   6.632101   8.943713   9.366775
    44  H   10.251149   7.318447   7.391182   9.675262  10.192060
    45  H    8.529289   5.519996   5.890990   7.723981   8.431130
    46  H    7.737021   5.150156   4.919840   7.495531   7.826666
    47  H    4.358220   3.773068   4.568338   2.186575   3.098107
    48  H    5.738670   5.812253   5.337160   7.142843   7.373667
                   16         17         18         19         20
    16  O    0.000000
    17  N    2.327515   0.000000
    18  C    2.900848   1.379217   0.000000
    19  H    2.654419   2.081941   1.087737   0.000000
    20  C    4.165174   2.365860   1.341459   2.152657   0.000000
    21  H    4.866384   3.347042   2.098533   2.487567   1.088459
    22  C    4.944958   2.799271   2.438200   3.457147   1.461292
    23  H    5.904918   3.852980   3.382623   4.321338   2.195388
    24  H    5.668955   3.369914   3.139951   4.101988   2.344276
    25  C    4.473627   2.368725   2.767877   3.840642   2.451045
    26  C    3.333528   1.374647   2.392783   3.327407   2.773696
    27  H    3.457006   2.095054   3.343712   4.154175   3.856663
    28  C    5.724851   3.756392   4.270904   5.341324   3.828316
    29  O    6.212459   4.307358   5.051431   6.108386   4.770476
    30  N    6.656116   4.759874   4.996486   6.039864   4.269807
    31  H    7.454451   5.624404   5.963418   7.009800   5.274233
    32  H    6.454999   4.722187   4.782494   5.754167   3.998361
    33  C    6.301648   5.336609   6.110247   6.456558   6.756578
    34  C    5.524346   3.668175   4.227835   4.919706   4.444629
    35  C    6.048638   3.885366   4.316207   5.205904   4.141785
    36  C    7.744263   5.417893   5.380430   6.339242   4.554222
    37  C    6.470998   4.182076   4.166999   5.065507   3.583966
    38  O    5.127446   3.484840   3.780221   4.241635   4.154618
    39  S    6.154402   4.700010   5.575920   6.206030   5.983941
    40  H    6.770758   5.672631   6.225158   6.525154   6.766471
    41  H    5.408491   4.758853   5.564757   5.785930   6.391062
    42  H    8.163795   5.856434   5.570013   6.473076   4.548086
    43  H    7.671955   5.373317   5.499758   6.536080   4.694592
    44  H    8.537850   6.233042   6.277283   7.204127   5.542702
    45  H    6.693238   4.512863   4.263287   4.994579   3.704121
    46  H    6.461407   4.355153   4.984054   5.939798   4.804788
    47  H    2.831960   4.615077   4.470348   3.548278   5.673222
    48  H    7.085192   6.277212   7.131788   7.467748   7.804379
                   21         22         23         24         25
    21  H    0.000000
    22  C    2.215568   0.000000
    23  H    2.541284   1.095707   0.000000
    24  H    2.933387   1.443923   1.936438   0.000000
    25  C    3.447273   1.473650   2.205637   2.210107   0.000000
    26  C    3.860080   2.448535   3.401055   3.012981   1.353053
    27  H    4.940074   3.465018   4.340471   3.916165   2.154277
    28  C    4.717715   2.549618   2.757137   2.944759   1.503507
    29  O    5.710648   3.526100   3.815049   3.551028   2.384382
    30  N    4.945423   2.934675   2.607153   3.511889   2.433441
    31  H    5.947490   3.923889   3.560347   4.364355   3.317574
    32  H    4.563102   2.855957   2.397203   3.778242   2.589679
    33  C    7.531309   6.699964   7.650791   5.909897   6.217603
    34  C    5.238438   4.091817   4.946377   3.148987   3.800500
    35  C    4.921816   3.378907   4.028926   2.271252   3.149621
    36  C    4.983955   3.419583   3.333188   2.252818   3.804757
    37  C    4.130671   2.757982   3.150322   1.342782   3.143803
    38  O    4.805342   4.223487   5.146968   3.376050   4.225199
    39  S    6.862482   5.570778   6.427767   4.746831   4.928261
    40  H    7.420269   6.773435   7.678612   5.839385   6.521336
    41  H    7.172045   6.520661   7.543516   5.931346   6.016348
    42  H    4.747741   3.509868   3.154096   2.499730   4.243991
    43  H    5.250229   3.354018   3.189997   2.537292   3.419195
    44  H    5.967048   4.468543   4.431145   3.209952   4.743220
    45  H    4.034870   3.259102   3.658562   1.870967   3.926810
    46  H    5.660577   3.822628   4.365633   2.912895   3.255784
    47  H    5.912936   6.888499   7.778001   7.515799   6.873490
    48  H    8.603494   7.696498   8.635810   6.906015   7.115907
                   26         27         28         29         30
    26  C    0.000000
    27  H    1.090690   0.000000
    28  C    2.489470   2.758924   0.000000
    29  O    2.968305   2.875536   1.192000   0.000000
    30  N    3.623675   3.991050   1.374938   2.225919   0.000000
    31  H    4.400077   4.582331   1.994224   2.381715   1.007660
    32  H    3.756148   4.235340   2.038842   3.075935   1.005197
    33  C    5.454929   5.324885   6.809017   6.383695   8.116775
    34  C    3.491043   3.762772   4.398111   4.197622   5.585593
    35  C    3.339257   3.731928   3.446159   3.267715   4.492706
    36  C    4.743083   5.358716   3.629898   3.752943   3.908306
    37  C    3.756448   4.449135   3.524281   3.720659   4.210905
    38  O    3.787902   4.234613   5.151909   5.178416   6.279289
    39  S    4.385870   4.214482   5.242046   4.683385   6.533506
    40  H    5.893686   5.947098   7.181839   6.844384   8.420633
    41  H    5.077046   4.935995   6.780160   6.478201   8.107614
    42  H    5.303437   6.048573   4.175529   4.527749   4.163896
    43  H    4.462452   4.955698   2.851975   2.898233   3.032166
    44  H    5.558785   6.065887   4.467731   4.346921   4.803952
    45  H    4.403345   5.176810   4.532946   4.798737   5.170129
    46  H    3.501919   3.641973   3.091748   2.570071   4.167617
    47  H    5.895669   6.205515   8.276445   8.859088   9.102584
    48  H    6.323540   6.057895   7.588692   7.040747   8.913436
                   31         32         33         34         35
    31  H    0.000000
    32  H    1.714101   0.000000
    33  C    8.644929   8.667412   0.000000
    34  C    6.200158   6.128559   2.804087   0.000000
    35  C    5.060172   5.123856   4.091264   1.385143   0.000000
    36  C    4.360520   4.531017   6.497242   3.825391   2.523521
    37  C    4.879458   4.716258   5.268736   2.512622   1.436383
    38  O    7.016967   6.663465   2.853461   1.280279   2.372298
    39  S    6.969216   7.189323   1.830151   1.746839   2.663597
    40  H    8.996958   8.954554   1.098080   2.857219   4.124991
    41  H    8.703301   8.554733   1.098074   3.054342   4.405386
    42  H    4.663373   4.608950   7.362674   4.660547   3.444832
    43  H    3.349386   3.787471   6.808757   4.150525   2.767281
    44  H    5.116178   5.513986   6.436431   4.011857   2.810074
    45  H    5.892571   5.563641   5.270841   2.736079   2.136854
    46  H    4.547697   4.948876   4.424485   2.100342   1.091358
    47  H    9.988301   8.781876   7.682441   7.351158   8.078217
    48  H    9.365560   9.513162   1.090000   3.767211   4.962277
                   36         37         38         39         40
    36  C    0.000000
    37  C    1.545136   0.000000
    38  O    4.478399   2.984871   0.000000
    39  S    5.074321   4.036937   2.607495   0.000000
    40  H    6.337517   5.098111   2.637652   2.394114   0.000000
    41  H    6.878425   5.525749   2.829423   2.406163   1.801614
    42  H    1.095452   2.180781   5.106151   6.049152   7.115530
    43  H    1.098024   2.177158   4.972737   5.211558   6.817595
    44  H    1.098344   2.165048   4.749824   5.032679   6.206726
    45  H    2.233816   1.103355   2.776609   4.369285   4.887643
    46  H    2.695881   2.180903   3.290045   2.709601   4.645277
    47  H    9.695779   8.303910   6.528602   8.077405   7.908412
    48  H    7.333809   6.205027   3.935690   2.440658   1.800727
                   41         42         43         44         45
    41  H    0.000000
    42  H    7.691072   0.000000
    43  H    7.151595   1.804209   0.000000
    44  H    6.979955   1.784325   1.782800   0.000000
    45  H    5.520530   2.510448   3.118708   2.635040   0.000000
    46  H    4.812629   3.749420   2.555950   2.867594   3.080788
    47  H    6.674431   9.946693   9.852816  10.465624   8.186375
    48  H    1.792470   8.247497   7.594534   7.177624   6.251855
                   46         47         48
    46  H    0.000000
    47  H    8.726272   0.000000
    48  H    5.136378   8.446769   0.000000
 Symmetry turned off by external request.
 Stoichiometry    C16H24N2O5S
 Framework group  C1[X(C16H24N2O5S)]
 Deg. of freedom   138
 Full point group                 C1      NOp   1
 Rotational constants (GHZ):           0.2954358           0.1699975           0.1289313
 Leave Link  202 at Wed Mar  8 14:54:01 2023, MaxMem=  2684354560 cpu:               0.4 elap:               0.0
 (Enter /opt/gaussian/g16/l301.exe)
 Standard basis: def2TZVP (5D, 7F)
 Ernie: Thresh=  0.10000D-02 Tol=  0.10000D-05 Strict=F.
   894 basis functions,  1434 primitive gaussians,  1014 cartesian basis functions
    95 alpha electrons       95 beta electrons
       nuclear repulsion energy      2449.1847662636 Hartrees.
 IExCor= 4336 DFT=T Ex+Corr=M062X ExCW=0 ScaHFX=  0.540000
 ScaDFX=  1.000000  1.000000  1.000000  1.000000 ScalE2=  1.000000  1.000000
 IRadAn=      5 IRanWt=     -1 IRanGd=            0 ICorTp=0 IEmpDi=131
 NAtoms=   48 NActive=   48 NUniq=   48 SFac= 1.00D+00 NAtFMM=   60 NAOKFM=F Big=F
 Integral buffers will be    131072 words long.
 Raffenetti 2 integral format.
 Two-electron integral symmetry is turned off.
 R6Disp:  Grimme-D3 Dispersion energy=       -0.0041805243 Hartrees.
 Nuclear repulsion after empirical dispersion term =     2449.1805857392 Hartrees.
 Leave Link  301 at Wed Mar  8 14:54:01 2023, MaxMem=  2684354560 cpu:               1.7 elap:               0.1
 (Enter /opt/gaussian/g16/l302.exe)
 NPDir=0 NMtPBC=     1 NCelOv=     1 NCel=       1 NClECP=     1 NCelD=      1
         NCelK=      1 NCelE2=     1 NClLst=     1 CellRange=     0.0.
 One-electron integrals computed using PRISM.
   1 Symmetry operations used in ECPInt.
 ECPInt:  NShTT=   65703 NPrTT=  200010 LenC2=   56239 LenP2D=  119281.
 LDataN:  DoStor=T MaxTD1= 6 Len=  172
 NBasis=   894 RedAO= T EigKep=  3.01D-05  NBF=   894
 NBsUse=   894 1.00D-06 EigRej= -1.00D+00 NBFU=   894
 Precomputing XC quadrature grid using
 IXCGrd= 4 IRadAn=           5 IRanWt=          -1 IRanGd=           0 AccXCQ= 0.00D+00.
 Generated NRdTot=       0 NPtTot=           0 NUsed=           0 NTot=          32
 NSgBfM=   998   997   997   998   998 MxSgAt=    48 MxSgA2=    48.
 Leave Link  302 at Wed Mar  8 14:54:04 2023, MaxMem=  2684354560 cpu:              36.8 elap:               2.3
 (Enter /opt/gaussian/g16/l303.exe)
 DipDrv:  MaxL=1.
 Leave Link  303 at Wed Mar  8 14:54:04 2023, MaxMem=  2684354560 cpu:               4.8 elap:               0.3
 (Enter /opt/gaussian/g16/l401.exe)
 ExpMin= 9.52D-02 ExpMax= 6.07D+04 ExpMxC= 2.07D+03 IAcc=3 IRadAn=         5 AccDes= 0.00D+00
 Harris functional with IExCor= 1009 and IRadAn=       5 diagonalized for initial guess.
 HarFok:  IExCor= 1009 AccDes= 0.00D+00 IRadAn=         5 IDoV= 1 UseB2=F ITyADJ=14
 ICtDFT=  3500011 ScaDFX=  1.000000  1.000000  1.000000  1.000000
 FoFCou: FMM=F IPFlag=           0 FMFlag=      100000 FMFlg1=           0
         NFxFlg=           0 DoJE=T BraDBF=F KetDBF=T FulRan=T
         wScrn=  0.000000 ICntrl=       500 IOpCl=  0 I1Cent=   200000004 NGrid=           0
         NMat0=    1 NMatS0=      1 NMatT0=    0 NMatD0=    1 NMtDS0=    0 NMtDT0=    0
 Symmetry not used in FoFCou.
 Harris En= -1507.17302407740    
 JPrj=0 DoOrth=F DoCkMO=F.
 Leave Link  401 at Wed Mar  8 14:54:13 2023, MaxMem=  2684354560 cpu:             135.5 elap:               8.5
 (Enter /opt/gaussian/g16/l502.exe)
 Two-electron integral symmetry not used.
 Closed shell SCF:
 Using DIIS extrapolation, IDIIS=  1040.
 NGot=  2684354560 LenX=  2682275214 LenY=  2681246004
 Requested convergence on RMS density matrix=1.00D-08 within 128 cycles.
 Requested convergence on MAX density matrix=1.00D-06.
 Requested convergence on             energy=1.00D-06.
 No special actions if energy rises.
 Fock matrices will be formed incrementally for  20 cycles.
 Integral accuracy reduced to 1.0D-05 until final iterations.

 Cycle   1  Pass 0  IDiag  1:
 FoFJK:  IHMeth= 1 ICntrl=       0 DoSepK=F KAlg= 0 I1Cent=           0 FoldK=F
 IRaf= 780000000 NMat=       1 IRICut=       1 DoRegI=T DoRafI=F ISym2E= 0 IDoP0=0 IntGTp=1.
 FoFCou: FMM=F IPFlag=           0 FMFlag=      100000 FMFlg1=           0
         NFxFlg=           0 DoJE=F BraDBF=F KetDBF=F FulRan=T
         wScrn=  0.000000 ICntrl=         0 IOpCl=  0 I1Cent=           0 NGrid=           0
         NMat0=    1 NMatS0=      1 NMatT0=    0 NMatD0=    1 NMtDS0=    0 NMtDT0=    0
 Symmetry not used in FoFCou.
 E= -1507.10371633809    
 DIIS: error= 1.54D-02 at cycle   1 NSaved=   1.
 NSaved= 1 IEnMin= 1 EnMin= -1507.10371633809     IErMin= 1 ErrMin= 1.54D-02
 ErrMax= 1.54D-02  0.00D+00 EMaxC= 1.00D-01 BMatC= 9.88D-01 BMatP= 9.88D-01
 IDIUse=3 WtCom= 8.46D-01 WtEn= 1.54D-01
 Coeff-Com:  0.100D+01
 Coeff-En:   0.100D+01
 Coeff:      0.100D+01
 Gap=     0.234 Goal=   None    Shift=    0.000
 GapD=    0.234 DampG=1.000 DampE=0.500 DampFc=0.5000 IDamp=-1.
 Damping current iteration by 5.00D-01
 RMSDP=3.73D-03 MaxDP=8.65D-01              OVMax= 3.10D-01

 Cycle   2  Pass 0  IDiag  1:
 RMSU=  1.86D-03    CP:  1.01D+00
 E= -1507.42693614430     Delta-E=       -0.323219806210 Rises=F Damp=T
 DIIS: error= 3.47D-03 at cycle   2 NSaved=   2.
 NSaved= 2 IEnMin= 2 EnMin= -1507.42693614430     IErMin= 2 ErrMin= 3.47D-03
 ErrMax= 3.47D-03  0.00D+00 EMaxC= 1.00D-01 BMatC= 9.28D-02 BMatP= 9.88D-01
 IDIUse=3 WtCom= 9.65D-01 WtEn= 3.47D-02
 Coeff-Com:  0.172D-01 0.983D+00
 Coeff-En:   0.898D-01 0.910D+00
 Coeff:      0.197D-01 0.980D+00
 Gap=     0.222 Goal=   None    Shift=    0.000
 RMSDP=1.21D-03 MaxDP=2.50D-01 DE=-3.23D-01 OVMax= 2.31D-01

 Cycle   3  Pass 0  IDiag  1:
 RMSU=  9.99D-04    CP:  9.95D-01  6.41D-01
 E= -1507.79368762868     Delta-E=       -0.366751484383 Rises=F Damp=F
 DIIS: error= 4.29D-03 at cycle   3 NSaved=   3.
 NSaved= 3 IEnMin= 3 EnMin= -1507.79368762868     IErMin= 2 ErrMin= 3.47D-03
 ErrMax= 4.29D-03  0.00D+00 EMaxC= 1.00D-01 BMatC= 5.50D-02 BMatP= 9.28D-02
 IDIUse=3 WtCom= 9.57D-01 WtEn= 4.29D-02
 Coeff-Com: -0.727D-01 0.446D+00 0.627D+00
 Coeff-En:   0.000D+00 0.000D+00 0.100D+01
 Coeff:     -0.696D-01 0.427D+00 0.643D+00
 Gap=     0.167 Goal=   None    Shift=    0.000
 RMSDP=4.31D-04 MaxDP=4.39D-02 DE=-3.67D-01 OVMax= 1.01D-01

 Cycle   4  Pass 0  IDiag  1:
 RMSU=  3.63D-04    CP:  9.97D-01  7.52D-01  8.96D-01
 E= -1507.83388614185     Delta-E=       -0.040198513175 Rises=F Damp=F
 DIIS: error= 1.75D-03 at cycle   4 NSaved=   4.
 NSaved= 4 IEnMin= 4 EnMin= -1507.83388614185     IErMin= 4 ErrMin= 1.75D-03
 ErrMax= 1.75D-03  0.00D+00 EMaxC= 1.00D-01 BMatC= 1.03D-02 BMatP= 5.50D-02
 IDIUse=3 WtCom= 9.83D-01 WtEn= 1.75D-02
 Coeff-Com: -0.346D-01 0.931D-01 0.340D+00 0.601D+00
 Coeff-En:   0.000D+00 0.000D+00 0.130D+00 0.870D+00
 Coeff:     -0.340D-01 0.915D-01 0.337D+00 0.606D+00
 Gap=     0.169 Goal=   None    Shift=    0.000
 RMSDP=1.57D-04 MaxDP=1.65D-02 DE=-4.02D-02 OVMax= 3.89D-02

 Cycle   5  Pass 0  IDiag  1:
 RMSU=  9.31D-05    CP:  9.96D-01  7.33D-01  9.40D-01  6.89D-01
 E= -1507.84254660514     Delta-E=       -0.008660463290 Rises=F Damp=F
 DIIS: error= 3.79D-04 at cycle   5 NSaved=   5.
 NSaved= 5 IEnMin= 5 EnMin= -1507.84254660514     IErMin= 5 ErrMin= 3.79D-04
 ErrMax= 3.79D-04  0.00D+00 EMaxC= 1.00D-01 BMatC= 3.87D-04 BMatP= 1.03D-02
 IDIUse=3 WtCom= 9.96D-01 WtEn= 3.79D-03
 Coeff-Com: -0.927D-02 0.154D-01 0.112D+00 0.255D+00 0.627D+00
 Coeff-En:   0.000D+00 0.000D+00 0.000D+00 0.000D+00 0.100D+01
 Coeff:     -0.923D-02 0.153D-01 0.111D+00 0.254D+00 0.629D+00
 Gap=     0.169 Goal=   None    Shift=    0.000
 RMSDP=4.55D-05 MaxDP=4.54D-03 DE=-8.66D-03 OVMax= 1.09D-02

 Cycle   6  Pass 0  IDiag  1:
 RMSU=  3.78D-05    CP:  9.96D-01  7.25D-01  9.47D-01  7.27D-01  8.64D-01
 E= -1507.84290141367     Delta-E=       -0.000354808524 Rises=F Damp=F
 DIIS: error= 1.66D-04 at cycle   6 NSaved=   6.
 NSaved= 6 IEnMin= 6 EnMin= -1507.84290141367     IErMin= 6 ErrMin= 1.66D-04
 ErrMax= 1.66D-04  0.00D+00 EMaxC= 1.00D-01 BMatC= 6.66D-05 BMatP= 3.87D-04
 IDIUse=3 WtCom= 9.98D-01 WtEn= 1.66D-03
 Coeff-Com:  0.630D-03-0.559D-02 0.853D-02 0.345D-01 0.297D+00 0.665D+00
 Coeff-En:   0.000D+00 0.000D+00 0.000D+00 0.000D+00 0.000D+00 0.100D+01
 Coeff:      0.629D-03-0.558D-02 0.852D-02 0.344D-01 0.297D+00 0.665D+00
 Gap=     0.171 Goal=   None    Shift=    0.000
 RMSDP=2.11D-05 MaxDP=3.50D-03 DE=-3.55D-04 OVMax= 3.63D-03

 Cycle   7  Pass 0  IDiag  1:
 RMSU=  1.60D-05    CP:  9.95D-01  7.21D-01  9.53D-01  7.30D-01  9.71D-01
                    CP:  9.56D-01
 E= -1507.84298548137     Delta-E=       -0.000084067699 Rises=F Damp=F
 DIIS: error= 9.27D-05 at cycle   7 NSaved=   7.
 NSaved= 7 IEnMin= 7 EnMin= -1507.84298548137     IErMin= 7 ErrMin= 9.27D-05
 ErrMax= 9.27D-05  0.00D+00 EMaxC= 1.00D-01 BMatC= 1.39D-05 BMatP= 6.66D-05
 IDIUse=1 WtCom= 1.00D+00 WtEn= 0.00D+00
 Coeff-Com:  0.200D-02-0.557D-02-0.132D-01-0.281D-01 0.490D-01 0.337D+00
 Coeff-Com:  0.659D+00
 Coeff:      0.200D-02-0.557D-02-0.132D-01-0.281D-01 0.490D-01 0.337D+00
 Coeff:      0.659D+00
 Gap=     0.171 Goal=   None    Shift=    0.000
 RMSDP=1.42D-05 MaxDP=1.04D-03 DE=-8.41D-05 OVMax= 2.54D-03

 Cycle   8  Pass 0  IDiag  1:
 RMSU=  1.01D-05    CP:  9.95D-01  7.20D-01  9.54D-01  7.34D-01  1.02D+00
                    CP:  1.16D+00  1.21D+00
 E= -1507.84300433149     Delta-E=       -0.000018850127 Rises=F Damp=F
 DIIS: error= 3.69D-05 at cycle   8 NSaved=   8.
 NSaved= 8 IEnMin= 8 EnMin= -1507.84300433149     IErMin= 8 ErrMin= 3.69D-05
 ErrMax= 3.69D-05  0.00D+00 EMaxC= 1.00D-01 BMatC= 3.13D-06 BMatP= 1.39D-05
 IDIUse=1 WtCom= 1.00D+00 WtEn= 0.00D+00
 Coeff-Com:  0.106D-02-0.199D-02-0.879D-02-0.256D-01-0.407D-01 0.309D-01
 Coeff-Com:  0.352D+00 0.693D+00
 Coeff:      0.106D-02-0.199D-02-0.879D-02-0.256D-01-0.407D-01 0.309D-01
 Coeff:      0.352D+00 0.693D+00
 Gap=     0.171 Goal=   None    Shift=    0.000
 RMSDP=1.45D-05 MaxDP=1.12D-03 DE=-1.89D-05 OVMax= 1.12D-03

 Cycle   9  Pass 0  IDiag  1:
 RMSU=  7.93D-06    CP:  9.95D-01  7.18D-01  9.56D-01  7.33D-01  1.06D+00
                    CP:  1.26D+00  1.65D+00  1.78D+00
 E= -1507.84300125267     Delta-E=        0.000003078820 Rises=F Damp=F
 DIIS: error= 3.05D-05 at cycle   9 NSaved=   9.
 NSaved= 9 IEnMin= 8 EnMin= -1507.84300433149     IErMin= 9 ErrMin= 3.05D-05
 ErrMax= 3.05D-05  0.00D+00 EMaxC= 1.00D-01 BMatC= 5.43D-07 BMatP= 3.13D-06
 IDIUse=1 WtCom= 1.00D+00 WtEn= 0.00D+00
 Coeff-Com:  0.293D-03-0.369D-03-0.235D-02-0.942D-02-0.228D-01-0.205D-01
 Coeff-Com:  0.811D-01 0.322D+00 0.652D+00
 Coeff:      0.293D-03-0.369D-03-0.235D-02-0.942D-02-0.228D-01-0.205D-01
 Coeff:      0.811D-01 0.322D+00 0.652D+00
 Gap=     0.171 Goal=   None    Shift=    0.000
 RMSDP=1.74D-05 MaxDP=9.71D-04 DE= 3.08D-06 OVMax= 2.77D-04

 Cycle  10  Pass 0  IDiag  1:
 RMSU=  4.48D-06    CP:  9.95D-01  7.19D-01  9.56D-01  7.32D-01  1.08D+00
                    CP:  1.34D+00  2.08D+00  2.90D+00  2.21D+00
 E= -1507.84298796590     Delta-E=        0.000013286774 Rises=F Damp=F
 DIIS: error= 5.04D-05 at cycle  10 NSaved=  10.
 NSaved=10 IEnMin= 8 EnMin= -1507.84300433149     IErMin= 9 ErrMin= 3.05D-05
 ErrMax= 5.04D-05  0.00D+00 EMaxC= 1.00D-01 BMatC= 5.31D-07 BMatP= 5.43D-07
 IDIUse=1 WtCom= 1.00D+00 WtEn= 0.00D+00
 Coeff-Com:  0.319D-03-0.395D-03-0.259D-02-0.103D-01-0.252D-01-0.232D-01
 Coeff-Com:  0.888D-01 0.355D+00 0.726D+00-0.109D+00
 Coeff:      0.319D-03-0.395D-03-0.259D-02-0.103D-01-0.252D-01-0.232D-01
 Coeff:      0.888D-01 0.355D+00 0.726D+00-0.109D+00
 Gap=     0.171 Goal=   None    Shift=    0.000
 RMSDP=3.95D-06 MaxDP=1.81D-04 DE= 1.33D-05 OVMax= 1.85D-05

 Initial convergence to 1.0D-05 achieved.  Increase integral accuracy.
 Cycle  11  Pass 1  IDiag  1:
 E= -1507.84285258444     Delta-E=        0.000135381458 Rises=F Damp=F
 DIIS: error= 3.08D-04 at cycle   1 NSaved=   1.
 NSaved= 1 IEnMin= 1 EnMin= -1507.84285258444     IErMin= 1 ErrMin= 3.08D-04
 ErrMax= 3.08D-04  0.00D+00 EMaxC= 1.00D-01 BMatC= 7.84D-05 BMatP= 7.84D-05
 IDIUse=3 WtCom= 9.97D-01 WtEn= 3.08D-03
 Coeff-Com:  0.100D+01
 Coeff-En:   0.100D+01
 Coeff:      0.100D+01
 Gap=     0.171 Goal=   None    Shift=    0.000
 RMSDP=3.95D-06 MaxDP=1.81D-04 DE= 1.35D-04 OVMax= 8.80D-04

 Cycle  12  Pass 1  IDiag  1:
 RMSU=  3.75D-04    CP:  9.97D-01
 E= -1507.84290073250     Delta-E=       -0.000048148062 Rises=F Damp=F
 DIIS: error= 7.24D-06 at cycle   2 NSaved=   2.
 NSaved= 2 IEnMin= 2 EnMin= -1507.84290073250     IErMin= 2 ErrMin= 7.24D-06
 ErrMax= 7.24D-06  0.00D+00 EMaxC= 1.00D-01 BMatC= 1.16D-07 BMatP= 7.84D-05
 IDIUse=1 WtCom= 1.00D+00 WtEn= 0.00D+00
 Coeff-Com: -0.149D-01 0.101D+01
 Coeff:     -0.149D-01 0.101D+01
 Gap=     0.171 Goal=   None    Shift=    0.000
 RMSDP=1.34D-05 MaxDP=8.89D-04 DE=-4.81D-05 OVMax= 1.33D-04

 Cycle  13  Pass 1  IDiag  1:
 RMSU=  4.59D-06    CP:  9.97D-01  1.03D+00
 E= -1507.84290075078     Delta-E=       -0.000000018272 Rises=F Damp=F
 DIIS: error= 6.60D-06 at cycle   3 NSaved=   3.
 NSaved= 3 IEnMin= 3 EnMin= -1507.84290075078     IErMin= 3 ErrMin= 6.60D-06
 ErrMax= 6.60D-06  0.00D+00 EMaxC= 1.00D-01 BMatC= 1.49D-07 BMatP= 1.16D-07
 IDIUse=1 WtCom= 1.00D+00 WtEn= 0.00D+00
 Coeff-Com: -0.942D-02 0.564D+00 0.445D+00
 Coeff:     -0.942D-02 0.564D+00 0.445D+00
 Gap=     0.171 Goal=   None    Shift=    0.000
 RMSDP=5.57D-07 MaxDP=1.10D-04 DE=-1.83D-08 OVMax= 7.44D-05

 Cycle  14  Pass 1  IDiag  1:
 RMSU=  5.21D-07    CP:  9.97D-01  1.03D+00  9.96D-01
 E= -1507.84290086385     Delta-E=       -0.000000113076 Rises=F Damp=F
 DIIS: error= 1.05D-06 at cycle   4 NSaved=   4.
 NSaved= 4 IEnMin= 4 EnMin= -1507.84290086385     IErMin= 4 ErrMin= 1.05D-06
 ErrMax= 1.05D-06  0.00D+00 EMaxC= 1.00D-01 BMatC= 3.69D-09 BMatP= 1.16D-07
 IDIUse=1 WtCom= 1.00D+00 WtEn= 0.00D+00
 Coeff-Com: -0.136D-02 0.704D-01 0.142D+00 0.789D+00
 Coeff:     -0.136D-02 0.704D-01 0.142D+00 0.789D+00
 Gap=     0.171 Goal=   None    Shift=    0.000
 RMSDP=2.89D-07 MaxDP=2.22D-05 DE=-1.13D-07 OVMax= 3.30D-05

 Cycle  15  Pass 1  IDiag  1:
 RMSU=  1.58D-07    CP:  9.97D-01  1.03D+00  1.03D+00  9.93D-01
 E= -1507.84290086693     Delta-E=       -0.000000003078 Rises=F Damp=F
 DIIS: error= 5.82D-07 at cycle   5 NSaved=   5.
 NSaved= 5 IEnMin= 5 EnMin= -1507.84290086693     IErMin= 5 ErrMin= 5.82D-07
 ErrMax= 5.82D-07  0.00D+00 EMaxC= 1.00D-01 BMatC= 1.22D-09 BMatP= 3.69D-09
 IDIUse=1 WtCom= 1.00D+00 WtEn= 0.00D+00
 Coeff-Com:  0.536D-03-0.384D-01 0.155D-01 0.426D+00 0.597D+00
 Coeff:      0.536D-03-0.384D-01 0.155D-01 0.426D+00 0.597D+00
 Gap=     0.171 Goal=   None    Shift=    0.000
 RMSDP=1.00D-07 MaxDP=8.54D-06 DE=-3.08D-09 OVMax= 1.20D-05

 Cycle  16  Pass 1  IDiag  1:
 RMSU=  7.02D-08    CP:  9.97D-01  1.03D+00  1.04D+00  1.05D+00  1.09D+00
 E= -1507.84290086826     Delta-E=       -0.000000001328 Rises=F Damp=F
 DIIS: error= 2.96D-07 at cycle   6 NSaved=   6.
 NSaved= 6 IEnMin= 6 EnMin= -1507.84290086826     IErMin= 6 ErrMin= 2.96D-07
 ErrMax= 2.96D-07  0.00D+00 EMaxC= 1.00D-01 BMatC= 8.69D-11 BMatP= 1.22D-09
 IDIUse=1 WtCom= 1.00D+00 WtEn= 0.00D+00
 Coeff-Com:  0.335D-03-0.213D-01-0.840D-02 0.872D-01 0.220D+00 0.722D+00
 Coeff:      0.335D-03-0.213D-01-0.840D-02 0.872D-01 0.220D+00 0.722D+00
 Gap=     0.171 Goal=   None    Shift=    0.000
 RMSDP=3.32D-08 MaxDP=2.32D-06 DE=-1.33D-09 OVMax= 1.31D-05

 Cycle  17  Pass 1  IDiag  1:
 RMSU=  2.29D-08    CP:  9.97D-01  1.03D+00  1.04D+00  1.06D+00  1.23D+00
                    CP:  1.10D+00
 E= -1507.84290086840     Delta-E=       -0.000000000143 Rises=F Damp=F
 DIIS: error= 1.52D-07 at cycle   7 NSaved=   7.
 NSaved= 7 IEnMin= 7 EnMin= -1507.84290086840     IErMin= 7 ErrMin= 1.52D-07
 ErrMax= 1.52D-07  0.00D+00 EMaxC= 1.00D-01 BMatC= 4.96D-11 BMatP= 8.69D-11
 IDIUse=1 WtCom= 1.00D+00 WtEn= 0.00D+00
 Coeff-Com:  0.233D-05 0.148D-02-0.117D-01-0.110D+00-0.103D+00 0.469D+00
 Coeff-Com:  0.754D+00
 Coeff:      0.233D-05 0.148D-02-0.117D-01-0.110D+00-0.103D+00 0.469D+00
 Coeff:      0.754D+00
 Gap=     0.171 Goal=   None    Shift=    0.000
 RMSDP=2.85D-08 MaxDP=2.84D-06 DE=-1.43D-10 OVMax= 4.76D-06

 Cycle  18  Pass 1  IDiag  1:
 RMSU=  1.67D-08    CP:  9.97D-01  1.03D+00  1.04D+00  1.06D+00  1.32D+00
                    CP:  1.35D+00  1.16D+00
 E= -1507.84290086855     Delta-E=       -0.000000000146 Rises=F Damp=F
 DIIS: error= 3.21D-08 at cycle   8 NSaved=   8.
 NSaved= 8 IEnMin= 8 EnMin= -1507.84290086855     IErMin= 8 ErrMin= 3.21D-08
 ErrMax= 3.21D-08  0.00D+00 EMaxC= 1.00D-01 BMatC= 2.72D-12 BMatP= 4.96D-11
 IDIUse=1 WtCom= 1.00D+00 WtEn= 0.00D+00
 Coeff-Com: -0.485D-04 0.374D-02-0.307D-02-0.548D-01-0.705D-01 0.104D+00
 Coeff-Com:  0.280D+00 0.741D+00
 Coeff:     -0.485D-04 0.374D-02-0.307D-02-0.548D-01-0.705D-01 0.104D+00
 Coeff:      0.280D+00 0.741D+00
 Gap=     0.171 Goal=   None    Shift=    0.000
 RMSDP=7.92D-09 MaxDP=4.19D-07 DE=-1.46D-10 OVMax= 2.54D-06

 SCF Done:  E(RM062X) =  -1507.84290087     A.U. after   18 cycles
            NFock= 18  Conv=0.79D-08     -V/T= 2.0043
 KE= 1.501447767148D+03 PE=-8.437087982204D+03 EE= 2.978616728448D+03
 Leave Link  502 at Wed Mar  8 15:13:42 2023, MaxMem=  2684354560 cpu:           18661.8 elap:            1169.3
 (Enter /opt/gaussian/g16/l601.exe)
 Copying SCF densities to generalized density rwf, IOpCl= 0 IROHF=0.

 **********************************************************************

            Population analysis using the SCF density.

 **********************************************************************

 Alpha  occ. eigenvalues --  -89.88470 -19.63795 -19.62768 -19.60664 -19.58690
 Alpha  occ. eigenvalues --  -19.58209 -14.82289 -14.77430 -10.65681 -10.63716
 Alpha  occ. eigenvalues --  -10.61519 -10.61407 -10.60657 -10.60515 -10.59937
 Alpha  occ. eigenvalues --  -10.59840 -10.58896 -10.56969 -10.55944 -10.55890
 Alpha  occ. eigenvalues --  -10.54475 -10.53779 -10.53147 -10.51612  -8.24384
 Alpha  occ. eigenvalues --   -6.16328  -6.16111  -6.15899  -1.18993  -1.18331
 Alpha  occ. eigenvalues --   -1.14807  -1.12378  -1.10609  -1.10190  -1.02568
 Alpha  occ. eigenvalues --   -0.94060  -0.89768  -0.89033  -0.87381  -0.86190
 Alpha  occ. eigenvalues --   -0.85201  -0.80156  -0.79237  -0.76962  -0.74200
 Alpha  occ. eigenvalues --   -0.72863  -0.70678  -0.67923  -0.67155  -0.66241
 Alpha  occ. eigenvalues --   -0.64222  -0.62984  -0.61591  -0.59594  -0.59026
 Alpha  occ. eigenvalues --   -0.58423  -0.57180  -0.55880  -0.54672  -0.54355
 Alpha  occ. eigenvalues --   -0.53237  -0.52457  -0.52153  -0.51714  -0.50805
 Alpha  occ. eigenvalues --   -0.49898  -0.49788  -0.49486  -0.48703  -0.48102
 Alpha  occ. eigenvalues --   -0.47559  -0.46386  -0.46315  -0.46015  -0.45203
 Alpha  occ. eigenvalues --   -0.44910  -0.44669  -0.43775  -0.43489  -0.42603
 Alpha  occ. eigenvalues --   -0.42038  -0.40814  -0.40357  -0.38301  -0.36745
 Alpha  occ. eigenvalues --   -0.36476  -0.35640  -0.34967  -0.34546  -0.33628
 Alpha  occ. eigenvalues --   -0.32828  -0.30452  -0.30356  -0.28710  -0.22361
 Alpha virt. eigenvalues --   -0.05266  -0.00925   0.04807   0.05015   0.05638
 Alpha virt. eigenvalues --    0.06195   0.06898   0.07555   0.07851   0.08519
 Alpha virt. eigenvalues --    0.09147   0.09540   0.10168   0.10968   0.11458
 Alpha virt. eigenvalues --    0.11699   0.12436   0.13010   0.13055   0.13607
 Alpha virt. eigenvalues --    0.14027   0.14281   0.14400   0.14875   0.15217
 Alpha virt. eigenvalues --    0.15851   0.16045   0.16509   0.17019   0.17577
 Alpha virt. eigenvalues --    0.18005   0.18615   0.18906   0.19423   0.19598
 Alpha virt. eigenvalues --    0.20358   0.21145   0.21291   0.21691   0.21922
 Alpha virt. eigenvalues --    0.23015   0.23374   0.23754   0.24413   0.24586
 Alpha virt. eigenvalues --    0.24666   0.25664   0.25839   0.25915   0.26695
 Alpha virt. eigenvalues --    0.26814   0.27064   0.28096   0.28456   0.29001
 Alpha virt. eigenvalues --    0.29107   0.30351   0.30460   0.30797   0.31162
 Alpha virt. eigenvalues --    0.31732   0.32039   0.32457   0.32747   0.33399
 Alpha virt. eigenvalues --    0.33663   0.34685   0.34819   0.35445   0.35750
 Alpha virt. eigenvalues --    0.36405   0.36651   0.37867   0.38215   0.38606
 Alpha virt. eigenvalues --    0.38885   0.39292   0.40000   0.40095   0.40471
 Alpha virt. eigenvalues --    0.40549   0.40806   0.41673   0.41924   0.42237
 Alpha virt. eigenvalues --    0.42664   0.43104   0.43412   0.43720   0.44231
 Alpha virt. eigenvalues --    0.44448   0.44850   0.45276   0.45379   0.45651
 Alpha virt. eigenvalues --    0.45965   0.46661   0.46758   0.46919   0.47573
 Alpha virt. eigenvalues --    0.48033   0.48476   0.48628   0.48889   0.49002
 Alpha virt. eigenvalues --    0.49448   0.49875   0.50239   0.50462   0.50657
 Alpha virt. eigenvalues --    0.51016   0.51513   0.51754   0.51924   0.52313
 Alpha virt. eigenvalues --    0.52612   0.53022   0.53175   0.53862   0.54043
 Alpha virt. eigenvalues --    0.54782   0.55296   0.56018   0.56449   0.56941
 Alpha virt. eigenvalues --    0.57562   0.57914   0.58201   0.58849   0.59222
 Alpha virt. eigenvalues --    0.59351   0.59990   0.60671   0.61429   0.61888
 Alpha virt. eigenvalues --    0.62453   0.62808   0.64010   0.64142   0.64640
 Alpha virt. eigenvalues --    0.65033   0.65164   0.66244   0.67804   0.68075
 Alpha virt. eigenvalues --    0.68572   0.69098   0.69240   0.70160   0.70613
 Alpha virt. eigenvalues --    0.71254   0.72077   0.72997   0.73130   0.73830
 Alpha virt. eigenvalues --    0.74305   0.74736   0.75855   0.77042   0.78215
 Alpha virt. eigenvalues --    0.78615   0.78983   0.79765   0.81176   0.81580
 Alpha virt. eigenvalues --    0.82073   0.82754   0.83159   0.83421   0.84756
 Alpha virt. eigenvalues --    0.85181   0.86117   0.86721   0.87188   0.88090
 Alpha virt. eigenvalues --    0.88894   0.89487   0.90311   0.90811   0.91190
 Alpha virt. eigenvalues --    0.91675   0.92506   0.92787   0.93733   0.93889
 Alpha virt. eigenvalues --    0.94879   0.95260   0.95479   0.96244   0.96671
 Alpha virt. eigenvalues --    0.97691   0.98600   0.99329   0.99573   0.99917
 Alpha virt. eigenvalues --    1.00245   1.01164   1.01581   1.02858   1.03381
 Alpha virt. eigenvalues --    1.04242   1.04724   1.05195   1.06098   1.06706
 Alpha virt. eigenvalues --    1.07516   1.08026   1.09051   1.09732   1.10310
 Alpha virt. eigenvalues --    1.10862   1.11268   1.11771   1.11803   1.12813
 Alpha virt. eigenvalues --    1.13451   1.13974   1.15000   1.15529   1.16118
 Alpha virt. eigenvalues --    1.16738   1.17589   1.18125   1.18806   1.20056
 Alpha virt. eigenvalues --    1.20374   1.21350   1.22324   1.22464   1.23133
 Alpha virt. eigenvalues --    1.23685   1.25254   1.25817   1.27131   1.27466
 Alpha virt. eigenvalues --    1.28124   1.28691   1.29048   1.30112   1.31147
 Alpha virt. eigenvalues --    1.32623   1.33060   1.33486   1.33843   1.34279
 Alpha virt. eigenvalues --    1.36702   1.37008   1.37965   1.38486   1.39411
 Alpha virt. eigenvalues --    1.40130   1.41393   1.42499   1.43239   1.44212
 Alpha virt. eigenvalues --    1.44967   1.45973   1.46412   1.49639   1.50156
 Alpha virt. eigenvalues --    1.50420   1.51251   1.52329   1.53471   1.53646
 Alpha virt. eigenvalues --    1.54493   1.54630   1.55150   1.55337   1.55791
 Alpha virt. eigenvalues --    1.56254   1.56680   1.57528   1.57794   1.57965
 Alpha virt. eigenvalues --    1.58169   1.59328   1.59822   1.60672   1.61078
 Alpha virt. eigenvalues --    1.61216   1.61536   1.62016   1.62608   1.63219
 Alpha virt. eigenvalues --    1.63787   1.63941   1.64925   1.65378   1.66088
 Alpha virt. eigenvalues --    1.66351   1.66542   1.67749   1.68035   1.68633
 Alpha virt. eigenvalues --    1.69050   1.69583   1.70414   1.70906   1.71281
 Alpha virt. eigenvalues --    1.72016   1.72535   1.73205   1.73694   1.74111
 Alpha virt. eigenvalues --    1.74810   1.75413   1.76165   1.77028   1.77712
 Alpha virt. eigenvalues --    1.78666   1.79033   1.79776   1.80702   1.81376
 Alpha virt. eigenvalues --    1.81574   1.82042   1.83328   1.83947   1.85217
 Alpha virt. eigenvalues --    1.85520   1.85817   1.87258   1.87632   1.88310
 Alpha virt. eigenvalues --    1.89075   1.89650   1.90604   1.90708   1.91443
 Alpha virt. eigenvalues --    1.92132   1.93285   1.93761   1.94186   1.94483
 Alpha virt. eigenvalues --    1.95356   1.96065   1.97016   1.97445   1.98083
 Alpha virt. eigenvalues --    1.98979   1.99652   1.99955   2.00702   2.01649
 Alpha virt. eigenvalues --    2.02122   2.02556   2.03416   2.04215   2.04887
 Alpha virt. eigenvalues --    2.05051   2.06032   2.08356   2.08741   2.09023
 Alpha virt. eigenvalues --    2.09619   2.10449   2.10924   2.11911   2.12038
 Alpha virt. eigenvalues --    2.13525   2.13738   2.14376   2.15017   2.16446
 Alpha virt. eigenvalues --    2.17413   2.17797   2.18538   2.18879   2.19571
 Alpha virt. eigenvalues --    2.19771   2.20023   2.20173   2.20560   2.22514
 Alpha virt. eigenvalues --    2.23330   2.24191   2.24589   2.25397   2.25610
 Alpha virt. eigenvalues --    2.26618   2.27274   2.28239   2.28820   2.29369
 Alpha virt. eigenvalues --    2.30324   2.30675   2.31341   2.32521   2.33294
 Alpha virt. eigenvalues --    2.33309   2.34037   2.34494   2.35672   2.35777
 Alpha virt. eigenvalues --    2.36216   2.37522   2.38046   2.38204   2.39022
 Alpha virt. eigenvalues --    2.39692   2.40784   2.41833   2.42192   2.43006
 Alpha virt. eigenvalues --    2.43909   2.45283   2.45754   2.46748   2.47755
 Alpha virt. eigenvalues --    2.48240   2.48325   2.49121   2.50123   2.50435
 Alpha virt. eigenvalues --    2.51534   2.52814   2.53737   2.54661   2.55733
 Alpha virt. eigenvalues --    2.56295   2.56442   2.57283   2.57478   2.57531
 Alpha virt. eigenvalues --    2.58509   2.58880   2.59801   2.60086   2.60288
 Alpha virt. eigenvalues --    2.61327   2.61619   2.63072   2.63518   2.63963
 Alpha virt. eigenvalues --    2.64853   2.66015   2.66755   2.67540   2.67710
 Alpha virt. eigenvalues --    2.68819   2.69402   2.70254   2.70612   2.71039
 Alpha virt. eigenvalues --    2.71667   2.72074   2.72391   2.73593   2.74090
 Alpha virt. eigenvalues --    2.74217   2.74951   2.76231   2.77061   2.77465
 Alpha virt. eigenvalues --    2.78698   2.79153   2.79816   2.80616   2.81134
 Alpha virt. eigenvalues --    2.81229   2.81460   2.81872   2.82847   2.84227
 Alpha virt. eigenvalues --    2.84340   2.85080   2.85794   2.87479   2.88498
 Alpha virt. eigenvalues --    2.89453   2.90125   2.90303   2.90632   2.92519
 Alpha virt. eigenvalues --    2.92739   2.94277   2.94849   2.95825   2.96709
 Alpha virt. eigenvalues --    2.97165   2.98424   2.99487   3.00428   3.01521
 Alpha virt. eigenvalues --    3.01890   3.02302   3.02573   3.02907   3.04035
 Alpha virt. eigenvalues --    3.04131   3.05265   3.06108   3.06911   3.07373
 Alpha virt. eigenvalues --    3.07396   3.07937   3.09446   3.09941   3.10573
 Alpha virt. eigenvalues --    3.10970   3.11372   3.11552   3.12481   3.13233
 Alpha virt. eigenvalues --    3.13913   3.14119   3.15143   3.16164   3.16389
 Alpha virt. eigenvalues --    3.17192   3.17469   3.17967   3.18812   3.19621
 Alpha virt. eigenvalues --    3.19828   3.20502   3.21415   3.21935   3.22614
 Alpha virt. eigenvalues --    3.22792   3.23206   3.23747   3.24169   3.25006
 Alpha virt. eigenvalues --    3.25271   3.26934   3.27590   3.28164   3.28596
 Alpha virt. eigenvalues --    3.28899   3.29765   3.30272   3.30788   3.31019
 Alpha virt. eigenvalues --    3.31709   3.32574   3.33205   3.33960   3.34081
 Alpha virt. eigenvalues --    3.34140   3.35445   3.35807   3.36237   3.36588
 Alpha virt. eigenvalues --    3.37413   3.37844   3.38059   3.39288   3.39388
 Alpha virt. eigenvalues --    3.40107   3.40707   3.41043   3.41427   3.41904
 Alpha virt. eigenvalues --    3.42560   3.43440   3.44390   3.44786   3.45019
 Alpha virt. eigenvalues --    3.45506   3.46914   3.47592   3.48195   3.48522
 Alpha virt. eigenvalues --    3.48840   3.49453   3.50188   3.50268   3.50912
 Alpha virt. eigenvalues --    3.51756   3.53394   3.54413   3.55300   3.55520
 Alpha virt. eigenvalues --    3.56465   3.57035   3.57402   3.58300   3.59347
 Alpha virt. eigenvalues --    3.59787   3.60834   3.61718   3.62800   3.63158
 Alpha virt. eigenvalues --    3.64285   3.66111   3.66646   3.68107   3.69433
 Alpha virt. eigenvalues --    3.69678   3.70602   3.71342   3.71726   3.73000
 Alpha virt. eigenvalues --    3.74390   3.75209   3.75563   3.76403   3.76487
 Alpha virt. eigenvalues --    3.77741   3.78476   3.79906   3.80357   3.81546
 Alpha virt. eigenvalues --    3.82585   3.84244   3.84568   3.87533   3.87962
 Alpha virt. eigenvalues --    3.89585   3.89856   3.90905   3.91359   3.91793
 Alpha virt. eigenvalues --    3.93503   3.95209   3.95563   3.95887   3.97161
 Alpha virt. eigenvalues --    3.99694   4.00200   4.01198   4.04413   4.05058
 Alpha virt. eigenvalues --    4.05871   4.06634   4.07391   4.09320   4.10097
 Alpha virt. eigenvalues --    4.10957   4.11300   4.13286   4.14950   4.15148
 Alpha virt. eigenvalues --    4.17946   4.18772   4.20371   4.21190   4.21875
 Alpha virt. eigenvalues --    4.23909   4.26495   4.26757   4.28357   4.29338
 Alpha virt. eigenvalues --    4.30563   4.31862   4.32815   4.36241   4.36770
 Alpha virt. eigenvalues --    4.37301   4.38984   4.39140   4.39245   4.41055
 Alpha virt. eigenvalues --    4.42442   4.44447   4.45350   4.46069   4.47484
 Alpha virt. eigenvalues --    4.48265   4.49987   4.50890   4.53449   4.56652
 Alpha virt. eigenvalues --    4.57694   4.60061   4.65938   4.66994   4.67542
 Alpha virt. eigenvalues --    4.69623   4.70566   4.72312   4.73112   4.74569
 Alpha virt. eigenvalues --    4.76629   4.77283   4.79119   4.79413   4.82460
 Alpha virt. eigenvalues --    4.83888   4.84980   4.87287   4.88243   4.90276
 Alpha virt. eigenvalues --    4.91585   4.92512   4.93734   4.95213   4.96592
 Alpha virt. eigenvalues --    4.97733   4.99363   5.00430   5.03816   5.05219
 Alpha virt. eigenvalues --    5.07492   5.10316   5.11599   5.13456   5.18111
 Alpha virt. eigenvalues --    5.21336   5.24655   5.25522   5.26191   5.27641
 Alpha virt. eigenvalues --    5.28512   5.29486   5.32124   5.33676   5.34398
 Alpha virt. eigenvalues --    5.36416   5.40527   5.41056   5.41696   5.44248
 Alpha virt. eigenvalues --    5.46537   5.51437   5.53998   5.55496   5.59971
 Alpha virt. eigenvalues --    5.60903   5.67771   5.72542   5.73607   5.76620
 Alpha virt. eigenvalues --    5.79290   5.80779   5.83447   5.84410   5.86068
 Alpha virt. eigenvalues --    5.86375   5.88464   5.90447   5.91813   5.95592
 Alpha virt. eigenvalues --    5.97272   5.99692   6.00107   6.16824   6.17563
 Alpha virt. eigenvalues --    6.22280   6.23778   6.29967   6.31049   6.40172
 Alpha virt. eigenvalues --    6.41169   6.46341   6.51681   6.53991   6.56545
 Alpha virt. eigenvalues --    6.58346   6.67631   6.69657   6.73754   6.75249
 Alpha virt. eigenvalues --    6.75824   6.79861   6.85686   6.86282   6.88748
 Alpha virt. eigenvalues --    6.91955   6.93525   6.99409   7.07171   7.09192
 Alpha virt. eigenvalues --    7.11329   7.13926   7.17076   7.19565   7.23746
 Alpha virt. eigenvalues --    7.32338   7.39154   9.02894   9.41281   9.56105
 Alpha virt. eigenvalues --   19.94846  22.30268  22.39144  22.45840  22.50879
 Alpha virt. eigenvalues --   22.56284  22.62487  22.64085  22.71769  22.75146
 Alpha virt. eigenvalues --   22.76775  22.82665  22.94265  23.04488  23.07850
 Alpha virt. eigenvalues --   23.17549  23.46009  32.12252  33.16558  44.16489
 Alpha virt. eigenvalues --   44.22834  44.24166  44.33656  44.51348
          Condensed to atoms (all electrons):
               1          2          3          4          5          6
     1  C    5.107805   0.416041   0.408517  -0.008168   0.000868  -0.000244
     2  H    0.416041   0.513310  -0.021040  -0.001175   0.000219  -0.000005
     3  H    0.408517  -0.021040   0.539674   0.001538  -0.000058   0.000000
     4  C   -0.008168  -0.001175   0.001538   5.353535   0.476882   0.277551
     5  H    0.000868   0.000219  -0.000058   0.476882   0.548143  -0.039685
     6  O   -0.000244  -0.000005   0.000000   0.277551  -0.039685   8.158760
     7  H   -0.000055  -0.000002   0.000003  -0.029566  -0.012058   0.276573
     8  C   -0.005647   0.012033  -0.007918  -0.002813  -0.058810  -0.046882
     9  H    0.012268  -0.000020  -0.001192  -0.093733   0.002734   0.003777
    10  O    0.009241  -0.000418   0.000129  -0.042292   0.001354  -0.006251
    11  H   -0.000759  -0.000097   0.000319   0.013968  -0.000618  -0.000384
    12  C   -0.005001   0.000466   0.000213   0.029930  -0.078062  -0.045395
    13  H    0.000407   0.000014   0.000091  -0.089497   0.005314   0.009251
    14  C    0.179835  -0.047135  -0.038407   0.086282   0.008178   0.005927
    15  H   -0.060321  -0.005411  -0.003012  -0.008400  -0.000054   0.000079
    16  O   -0.030693   0.001449   0.005003  -0.066061  -0.000186   0.006801
    17  N   -0.000440  -0.000095  -0.000026   0.015953  -0.009419  -0.000697
    18  C   -0.000914   0.000092   0.000003  -0.007948   0.000322   0.002914
    19  H   -0.000402  -0.000084   0.000066  -0.014784  -0.002252   0.001080
    20  C    0.000047  -0.000001  -0.000001   0.007804   0.005672  -0.001347
    21  H    0.000005   0.000000  -0.000000   0.000088   0.000102  -0.000017
    22  C   -0.000011   0.000000   0.000000   0.000044  -0.000188   0.000004
    23  H    0.000000   0.000000  -0.000000   0.000017   0.000002   0.000001
    24  H    0.000000  -0.000000  -0.000000  -0.000231  -0.000146   0.000039
    25  C   -0.000071  -0.000006   0.000001  -0.007580  -0.000307  -0.000113
    26  C   -0.000409   0.000057  -0.000004   0.012964  -0.000738  -0.006656
    27  H   -0.000015   0.000002  -0.000000   0.000478  -0.000092  -0.000091
    28  C   -0.000000   0.000000  -0.000000  -0.000008   0.000001  -0.000023
    29  O    0.000000  -0.000000  -0.000000   0.000004   0.000000   0.000000
    30  N   -0.000000  -0.000000   0.000000   0.000000  -0.000000   0.000000
    31  H   -0.000000   0.000000  -0.000000  -0.000000   0.000000  -0.000000
    32  H    0.000000   0.000000  -0.000000   0.000000   0.000000   0.000000
    33  C    0.000002  -0.000000  -0.000000   0.001130  -0.000462  -0.020753
    34  C    0.000002  -0.000000  -0.000000   0.000663   0.000285   0.014396
    35  C   -0.000000   0.000000  -0.000000  -0.000258   0.000486   0.002734
    36  C   -0.000000   0.000000   0.000000   0.000006   0.000001   0.000000
    37  C   -0.000000   0.000000   0.000000   0.000100   0.000007  -0.000047
    38  O   -0.000001   0.000000  -0.000000   0.010169   0.000072  -0.070029
    39  S   -0.000000  -0.000000  -0.000000  -0.001325  -0.000009   0.000906
    40  H   -0.000000   0.000000  -0.000000   0.000089   0.000036   0.000201
    41  H   -0.000007   0.000000  -0.000000   0.000525   0.000567   0.010694
    42  H   -0.000000   0.000000   0.000000   0.000000  -0.000000  -0.000000
    43  H    0.000000   0.000000  -0.000000   0.000000  -0.000000  -0.000000
    44  H    0.000000  -0.000000  -0.000000  -0.000000  -0.000000  -0.000000
    45  H    0.000000  -0.000000   0.000000   0.000005   0.000018   0.000050
    46  H    0.000000  -0.000000  -0.000000  -0.000026   0.000001   0.000064
    47  H    0.384631  -0.023461  -0.024067   0.000925  -0.000110   0.000002
    48  H    0.000000   0.000000  -0.000000  -0.000040   0.000005   0.000531
               7          8          9         10         11         12
     1  C   -0.000055  -0.005647   0.012268   0.009241  -0.000759  -0.005001
     2  H   -0.000002   0.012033  -0.000020  -0.000418  -0.000097   0.000466
     3  H    0.000003  -0.007918  -0.001192   0.000129   0.000319   0.000213
     4  C   -0.029566  -0.002813  -0.093733  -0.042292   0.013968   0.029930
     5  H   -0.012058  -0.058810   0.002734   0.001354  -0.000618  -0.078062
     6  O    0.276573  -0.046882   0.003777  -0.006251  -0.000384  -0.045395
     7  H    0.316636   0.008761  -0.000186  -0.000522   0.000123   0.009131
     8  C    0.008761   5.351012   0.491326   0.287271  -0.039420  -0.025175
     9  H   -0.000186   0.491326   0.579348  -0.058896  -0.006156   0.011158
    10  O   -0.000522   0.287271  -0.058896   8.029391   0.292540  -0.024042
    11  H    0.000123  -0.039420  -0.006156   0.292540   0.426661  -0.003467
    12  C    0.009131  -0.025175   0.011158  -0.024042  -0.003467   5.572403
    13  H   -0.000834   0.020197   0.002789   0.018055  -0.001112   0.437379
    14  C   -0.000815   0.129248  -0.104764  -0.058371   0.001136  -0.061813
    15  H    0.000053  -0.025697   0.008478  -0.004113   0.002625  -0.002992
    16  O   -0.000206  -0.046254   0.004557   0.009463   0.000109   0.232147
    17  N    0.001575  -0.003076  -0.000669  -0.000242  -0.000012   0.185547
    18  C   -0.000317  -0.003281  -0.000225  -0.000295   0.000009  -0.095254
    19  H    0.000165   0.001441   0.000049  -0.000006   0.000003   0.013846
    20  C   -0.001268  -0.001141   0.000025   0.000008  -0.000001   0.013543
    21  H   -0.000016  -0.000005   0.000000   0.000000  -0.000000   0.000296
    22  C    0.000198   0.000020  -0.000002  -0.000003   0.000000  -0.012843
    23  H   -0.000004   0.000000   0.000000   0.000000  -0.000000   0.000004
    24  H    0.000203   0.000024  -0.000000   0.000000   0.000000   0.002052
    25  C    0.000733  -0.000333  -0.000001  -0.000048  -0.000001  -0.013240
    26  C    0.000376  -0.003911  -0.000086  -0.000693  -0.000053  -0.063411
    27  H    0.000047  -0.000003  -0.000010  -0.000169   0.000008  -0.001263
    28  C    0.000061  -0.000005   0.000000  -0.000000  -0.000000  -0.000791
    29  O    0.000007   0.000000   0.000000  -0.000000   0.000000   0.000363
    30  N    0.000000  -0.000000  -0.000000  -0.000000  -0.000000  -0.000012
    31  H   -0.000000  -0.000000  -0.000000  -0.000000  -0.000000  -0.000005
    32  H   -0.000000  -0.000000  -0.000000   0.000000  -0.000000  -0.000011
    33  C    0.000957   0.000821   0.000024  -0.000993   0.000070  -0.000415
    34  C   -0.010555  -0.000069  -0.000025   0.000042  -0.000000  -0.001378
    35  C   -0.001244  -0.000229  -0.000000   0.000001  -0.000000  -0.001333
    36  C   -0.000007  -0.000000   0.000000  -0.000000  -0.000000  -0.000016
    37  C    0.000061   0.000010   0.000000   0.000000  -0.000000  -0.000779
    38  O    0.058132  -0.000518   0.000001  -0.000002  -0.000001   0.001559
    39  S    0.001789   0.000100  -0.000001   0.000010  -0.000003   0.000566
    40  H   -0.001407  -0.000036   0.000001   0.000020  -0.000001   0.000042
    41  H   -0.010355  -0.001331  -0.000001   0.002994  -0.000209  -0.000166
    42  H   -0.000000   0.000000  -0.000000  -0.000000   0.000000  -0.000000
    43  H    0.000000   0.000000  -0.000000   0.000000   0.000000   0.000005
    44  H    0.000001   0.000000  -0.000000   0.000000   0.000000   0.000001
    45  H   -0.000075  -0.000000   0.000000  -0.000000  -0.000000  -0.000073
    46  H   -0.000169   0.000000  -0.000000   0.000000   0.000000   0.000193
    47  H    0.000009  -0.009523   0.000547   0.000174   0.000098  -0.001073
    48  H    0.000566  -0.000035   0.000002   0.000003  -0.000003   0.000016
              13         14         15         16         17         18
     1  C    0.000407   0.179835  -0.060321  -0.030693  -0.000440  -0.000914
     2  H    0.000014  -0.047135  -0.005411   0.001449  -0.000095   0.000092
     3  H    0.000091  -0.038407  -0.003012   0.005003  -0.000026   0.000003
     4  C   -0.089497   0.086282  -0.008400  -0.066061   0.015953  -0.007948
     5  H    0.005314   0.008178  -0.000054  -0.000186  -0.009419   0.000322
     6  O    0.009251   0.005927   0.000079   0.006801  -0.000697   0.002914
     7  H   -0.000834  -0.000815   0.000053  -0.000206   0.001575  -0.000317
     8  C    0.020197   0.129248  -0.025697  -0.046254  -0.003076  -0.003281
     9  H    0.002789  -0.104764   0.008478   0.004557  -0.000669  -0.000225
    10  O    0.018055  -0.058371  -0.004113   0.009463  -0.000242  -0.000295
    11  H   -0.001112   0.001136   0.002625   0.000109  -0.000012   0.000009
    12  C    0.437379  -0.061813  -0.002992   0.232147   0.185547  -0.095254
    13  H    0.508039  -0.012934   0.006061  -0.031103  -0.055738   0.012733
    14  C   -0.012934   5.293524   0.406564   0.199559   0.014161  -0.000372
    15  H    0.006061   0.406564   0.598277  -0.039220  -0.001236   0.000275
    16  O   -0.031103   0.199559  -0.039220   8.122366  -0.085597   0.013016
    17  N   -0.055738   0.014161  -0.001236  -0.085597   6.462909   0.332842
    18  C    0.012733  -0.000372   0.000275   0.013016   0.332842   5.049742
    19  H    0.001515  -0.003009   0.000226   0.014165  -0.048084   0.412285
    20  C    0.000197   0.000398   0.000011  -0.000784  -0.073675   0.481612
    21  H    0.000008  -0.000000  -0.000000  -0.000097   0.004323  -0.033103
    22  C    0.000034  -0.000061   0.000002   0.000705  -0.021501  -0.022367
    23  H   -0.000011  -0.000000   0.000000  -0.000003  -0.001439   0.003501
    24  H   -0.000019   0.000004  -0.000000   0.000042   0.016906   0.006947
    25  C    0.009434   0.000061   0.000037  -0.002049  -0.036613   0.054820
    26  C   -0.020029  -0.000135  -0.000419   0.001741   0.321054  -0.171881
    27  H   -0.000368   0.000015  -0.000018   0.000986  -0.034326   0.007353
    28  C    0.000024  -0.000002  -0.000001   0.000002   0.002007   0.001260
    29  O   -0.000019  -0.000000   0.000000  -0.000000  -0.000308   0.000272
    30  N   -0.000002  -0.000000  -0.000000  -0.000000  -0.000448   0.000218
    31  H   -0.000000  -0.000000   0.000000   0.000000   0.000022  -0.000005
    32  H    0.000000   0.000000  -0.000000   0.000000   0.000021   0.000052
    33  C   -0.000387  -0.000085   0.000001   0.000002   0.000143  -0.000042
    34  C    0.000221   0.000065  -0.000001   0.000090   0.002747   0.000697
    35  C    0.000017  -0.000003   0.000000  -0.000069  -0.020671   0.000047
    36  C    0.000001   0.000000  -0.000000  -0.000000  -0.000283   0.000184
    37  C   -0.000015  -0.000003   0.000000   0.000003  -0.000214   0.005956
    38  O   -0.000448   0.000093  -0.000001   0.000033   0.007063   0.002923
    39  S    0.002081   0.000006   0.000001   0.000014   0.000697   0.000185
[...]
      4        6          -0.003389387    0.017213569    0.015634006
      5        1           0.011200634    0.003669039   -0.010763481
      6        8           0.017858327   -0.009837592   -0.003993020
      7        1          -0.001734658   -0.004186535   -0.004905853
      8        6           0.013482714   -0.000572786   -0.004313768
      9        1          -0.007373783    0.003160575   -0.010786761
     10        8          -0.000428278    0.008114325    0.003032600
     11        1          -0.011197636   -0.005873615   -0.001990541
     12        6           0.021012058   -0.019765413   -0.002059206
     13        1          -0.009453325   -0.005935098    0.003052885
     14        6          -0.020395600    0.001998690   -0.002842936
     15        1          -0.004963812   -0.006605553    0.010391503
     16        8           0.002817486   -0.005012001    0.000032358
     17        7           0.005226680    0.008720477    0.005514215
     18        6           0.002645927    0.000462895   -0.001570184
     19        1          -0.003621852    0.005161173   -0.000483592
     20        6          -0.010321260   -0.000705002   -0.000320944
     21        1           0.004026022    0.003862665   -0.000287327
     22        6           0.010223169    0.005716723    0.006110413
     23        1           0.005331589   -0.000605571    0.005953331
     24        1           0.003344003   -0.003456047   -0.007339656
     25        6          -0.018789222    0.000367453   -0.000665821
     26        6           0.001463708   -0.010283127    0.001420885
     27        1          -0.007169632   -0.001362110    0.002167805
     28        6          -0.015844156   -0.020316058   -0.004418117
     29        8           0.019635076    0.023734215    0.014811319
     30        7           0.004772751   -0.005875407   -0.002028784
     31        1          -0.002054824    0.000430423   -0.002080923
     32        1          -0.002328385   -0.000822554   -0.003229583
     33        6          -0.007656739   -0.011914792   -0.011430734
     34        6           0.005283062   -0.059674684    0.034454461
     35        6          -0.024866350    0.008235147   -0.033842807
     36        6           0.009376693   -0.009772380    0.003968876
     37        6           0.008642832    0.016382784    0.018164826
     38        8          -0.009132751    0.033530356   -0.017082067
     39       16           0.014459998    0.014868879    0.008416532
     40        1           0.007000797    0.001509509   -0.001781475
     41        1          -0.003410999    0.004999583    0.006285942
     42        1           0.003144429    0.003891115   -0.000974165
     43        1          -0.004150954   -0.002354713    0.002735020
     44        1           0.000971112   -0.003262504   -0.004324004
     45        1           0.006339388    0.000996103   -0.008793656
     46        1          -0.004714367   -0.002789756    0.000952498
     47        1           0.001243461   -0.001280642   -0.001101559
     48        1          -0.003728079    0.004579239   -0.005337519
 -------------------------------------------------------------------
 Cartesian Forces:  Max     0.059674684 RMS     0.011102567
 Leave Link  716 at Wed Mar  8 15:21:16 2023, MaxMem=  2684354560 cpu:               0.8 elap:               0.1
 (Enter /opt/gaussian/g16/l103.exe)

 GradGradGradGradGradGradGradGradGradGradGradGradGradGradGradGradGradGrad
 Berny optimization.
 Search for a local minimum.
 Step number   1 out of a maximum of    2
 All quantities printed in internal units (Hartrees-Bohrs-Radians)
 Second derivative matrix not updated -- first step.
 ITU=  0
     Eigenvalues ---    0.00029   0.00062   0.00080   0.00103   0.00149
     Eigenvalues ---    0.00179   0.00214   0.00225   0.00337   0.00462
     Eigenvalues ---    0.00481   0.00678   0.00729   0.00895   0.00922
     Eigenvalues ---    0.01005   0.01137   0.01222   0.01299   0.01416
     Eigenvalues ---    0.01575   0.01919   0.02010   0.02257   0.02536
     Eigenvalues ---    0.02875   0.03003   0.03136   0.03604   0.03772
     Eigenvalues ---    0.03826   0.04205   0.04446   0.04594   0.04901
     Eigenvalues ---    0.05035   0.05135   0.05279   0.05447   0.05760
     Eigenvalues ---    0.05830   0.05993   0.06521   0.06636   0.06686
     Eigenvalues ---    0.06967   0.07340   0.07491   0.07607   0.07684
     Eigenvalues ---    0.07882   0.08433   0.08687   0.09169   0.10086
     Eigenvalues ---    0.10416   0.10755   0.11005   0.11050   0.11861
     Eigenvalues ---    0.12700   0.12834   0.12974   0.13050   0.13364
     Eigenvalues ---    0.13621   0.14026   0.14121   0.14829   0.15264
     Eigenvalues ---    0.15969   0.16621   0.17402   0.18301   0.18858
     Eigenvalues ---    0.20102   0.20225   0.20645   0.21231   0.21963
     Eigenvalues ---    0.24965   0.25292   0.26076   0.27866   0.28057
     Eigenvalues ---    0.30688   0.32405   0.33212   0.33632   0.36499
     Eigenvalues ---    0.36499   0.36499   0.36499   0.36880   0.41081
     Eigenvalues ---    0.42485   0.45310   0.47134   0.50812   0.53215
     Eigenvalues ---    0.58969   0.59560   0.65422   0.66599   0.70542
     Eigenvalues ---    0.73666   0.77295   0.77821   0.83701   0.86782
     Eigenvalues ---    0.88404   0.88697   0.90812   0.91173   0.92282
     Eigenvalues ---    0.92718   0.93318   0.97035   0.97111   0.98489
     Eigenvalues ---    0.99685   1.02498   1.04238   1.08427   1.12116
     Eigenvalues ---    1.12949   1.16184   1.22732   1.25570   1.28780
     Eigenvalues ---    1.29945   1.37002   1.38290   1.50961   1.67846
     Eigenvalues ---    1.74890   1.80318   2.47031
 Quadratic step=1.244D+01 exceeds max=3.000D-01 adjusted using Lamda=-9.159D-02.
 Angle between NR and scaled steps=  76.62 degrees.
 Angle between quadratic step and forces=  50.86 degrees.
 Linear search not attempted -- first point.
 Variable       Old X    -DE/DX   Delta X   Delta X   Delta X     New X
                                 (Linear)    (Quad)   (Total)
    X1        6.56940   0.00370   0.00000  -0.00896  -0.00896   6.56043
    Y1       -6.72711   0.02734   0.00000   0.05757   0.05757  -6.66954
    Z1       -1.49757   0.00227   0.00000   0.01496   0.01496  -1.48261
    X2        6.51570   0.00067   0.00000   0.00421   0.00421   6.51991
    Y2       -6.88924  -0.00337   0.00000   0.00139   0.00139  -6.88785
    Z2       -3.56585   0.00670   0.00000   0.03049   0.03049  -3.53537
    X3        8.38030  -0.00714   0.00000  -0.03304  -0.03304   8.34726
    Y3       -7.43061  -0.00331   0.00000   0.00589   0.00589  -7.42471
    Z3       -0.76023  -0.00332   0.00000  -0.00167  -0.00167  -0.76190
    X4        3.05012  -0.00339   0.00000   0.03144   0.03144   3.08156
    Y4       -2.23837   0.01721   0.00000   0.02451   0.02451  -2.21386
    Z4        1.88419   0.01563   0.00000   0.00492   0.00492   1.88911
    X5        1.68016   0.01120   0.00000   0.06838   0.06838   1.74854
    Y5       -3.83336   0.00367   0.00000   0.01310   0.01310  -3.82026
    Z5        1.91111  -0.01076   0.00000  -0.06144  -0.06144   1.84966
    X6        2.48566   0.01786   0.00000   0.05650   0.05650   2.54216
    Y6       -0.65826  -0.00984   0.00000  -0.01121  -0.01121  -0.66947
    Z6        3.92492  -0.00399   0.00000   0.00349   0.00349   3.92841
    X7        0.75791  -0.00173   0.00000   0.03162   0.03162   0.78953
    Y7        0.09472  -0.00419   0.00000  -0.04540  -0.04540   0.04932
    Z7        3.91124  -0.00491   0.00000  -0.02890  -0.02890   3.88234
    X8        5.84215   0.01348   0.00000   0.00947   0.00947   5.85162
    Y8       -3.19539  -0.00057   0.00000   0.02369   0.02369  -3.17170
    Z8        1.99447  -0.00431   0.00000  -0.01750  -0.01750   1.97697
    X9        6.16570  -0.00737   0.00000  -0.03918  -0.03918   6.12652
    Y9       -4.75595   0.00316   0.00000   0.00556   0.00556  -4.75039
    Z9        3.35631  -0.01079   0.00000  -0.05659  -0.05659   3.29972
   X10        7.35363  -0.00043   0.00000  -0.02175  -0.02175   7.33188
   Y10       -1.11361   0.00811   0.00000   0.03191   0.03191  -1.08170
   Z10        2.74285   0.00303   0.00000   0.00826   0.00826   2.75111
   X11        9.15002  -0.01120   0.00000  -0.04639  -0.04639   9.10363
   Y11       -1.47174  -0.00587   0.00000  -0.02994  -0.02994  -1.50168
   Z11        2.72131  -0.00199   0.00000  -0.00712  -0.00712   2.71419
   X12        3.14921   0.02101   0.00000   0.03082   0.03082   3.18004
   Y12       -0.83441  -0.01977   0.00000  -0.03906  -0.03906  -0.87348
   Z12       -0.69065  -0.00206   0.00000  -0.01238  -0.01238  -0.70303
   X13        4.33332  -0.00945   0.00000  -0.02605  -0.02605   4.30727
   Y13        0.88238  -0.00594   0.00000  -0.02676  -0.02676   0.85562
   Z13       -0.50505   0.00305   0.00000   0.01037   0.01037  -0.49468
   X14        6.45972  -0.02040   0.00000  -0.04505  -0.04505   6.41466
   Y14       -3.87128   0.00200   0.00000   0.01492   0.01492  -3.85636
   Z14       -0.83524  -0.00284   0.00000   0.00045   0.00045  -0.83478
   X15        8.20343  -0.00496   0.00000  -0.02293  -0.02293   8.18050
   Y15       -2.91101  -0.00661   0.00000  -0.02387  -0.02387  -2.93489
   Z15       -1.49350   0.01039   0.00000   0.05921   0.05921  -1.43429
   X16        4.42309   0.00282   0.00000  -0.00394  -0.00394   4.41914
   Y16       -2.64933  -0.00501   0.00000  -0.02424  -0.02424  -2.67358
   Z16       -2.24869   0.00003   0.00000  -0.02770  -0.02770  -2.27639
   X17        0.80635   0.00523   0.00000   0.01415   0.01415   0.82050
   Y17       -0.17092   0.00872   0.00000  -0.00475  -0.00475  -0.17567
   Z17       -1.89898   0.00551   0.00000   0.01331   0.01331  -1.88567
   X18       -1.01988   0.00265   0.00000   0.00092   0.00092  -1.01896
   Y18       -1.99796   0.00046   0.00000   0.00883   0.00883  -1.98913
   Z18       -2.24517  -0.00157   0.00000  -0.00506  -0.00506  -2.25022
   X19       -0.41130  -0.00362   0.00000  -0.01615  -0.01615  -0.42744
   Y19       -3.91081   0.00516   0.00000   0.01508   0.01508  -3.89573
   Z19       -1.80267  -0.00048   0.00000  -0.00825  -0.00825  -1.81092
   X20       -3.28934  -0.01032   0.00000  -0.00862  -0.00862  -3.29796
   Y20       -1.40038  -0.00071   0.00000   0.00901   0.00901  -1.39137
   Z20       -3.20364  -0.00032   0.00000   0.00644   0.00644  -3.19720
   X21       -4.69034   0.00403   0.00000   0.00841   0.00841  -4.68193
   Y21       -2.88498   0.00386   0.00000   0.01252   0.01252  -2.87245
   Z21       -3.45650  -0.00029   0.00000  -0.01030  -0.01030  -3.46681
   X22       -3.94616   0.01022   0.00000   0.00009   0.00009  -3.94607
   Y22        1.22424   0.00572   0.00000   0.00989   0.00989   1.23413
   Z22       -3.75635   0.00611   0.00000   0.04223   0.04223  -3.71412
   X23       -5.51949   0.00533   0.00000   0.01913   0.01913  -5.50036
   Y23        1.56573  -0.00061   0.00000   0.00311   0.00311   1.56884
   Z23       -5.05840   0.00595   0.00000   0.03721   0.03721  -5.02119
   X24       -5.05394   0.00334   0.00000   0.02596   0.02596  -5.02798
   Y24        2.28944  -0.00346   0.00000   0.00904   0.00904   2.29848
   Z24       -1.50168  -0.00734   0.00000  -0.02480  -0.02480  -1.52647
   X25       -1.72702  -0.01879   0.00000  -0.03481  -0.03481  -1.76182
   Y25        2.89515   0.00037   0.00000  -0.00250  -0.00250   2.89265
   Z25       -3.95276  -0.00067   0.00000   0.02349   0.02349  -3.92927
   X26        0.47848   0.00146   0.00000  -0.01801  -0.01801   0.46048
   Y26        2.22578  -0.01028   0.00000  -0.01978  -0.01978   2.20600
   Z26       -2.84576   0.00142   0.00000   0.00570   0.00570  -2.84005
   X27        2.13896  -0.00717   0.00000  -0.04111  -0.04111   2.09785
   Y27        3.44606  -0.00136   0.00000  -0.00432  -0.00432   3.44174
   Z27       -2.80225   0.00217   0.00000   0.01064   0.01064  -2.79160
   X28       -2.12897  -0.01584   0.00000  -0.02652  -0.02652  -2.15549
   Y28        5.52067  -0.02032   0.00000  -0.00377  -0.00377   5.51690
   Z28       -4.96153  -0.00442   0.00000   0.02505   0.02505  -4.93647
   X29       -1.42698   0.01964   0.00000   0.07533   0.07533  -1.35165
   Y29        7.39086   0.02373   0.00000   0.00519   0.00519   7.39605
   Z29       -3.92057   0.01481   0.00000  -0.00189  -0.00189  -3.92246
   X30       -3.68652   0.00477   0.00000   0.01875   0.01875  -3.66778
   Y30        5.69000  -0.00588   0.00000  -0.01691  -0.01691   5.67309
   Z30       -7.03427  -0.00203   0.00000  -0.01836  -0.01836  -7.05263
   X31       -3.69768  -0.00205   0.00000  -0.00240  -0.00240  -3.70008
   Y31        7.43061   0.00043   0.00000  -0.01516  -0.01516   7.41544
   Z31       -7.80637  -0.00208   0.00000  -0.02312  -0.02312  -7.82948
   X32       -3.68465  -0.00233   0.00000  -0.00536  -0.00536  -3.69000
   Y32        4.22030  -0.00082   0.00000  -0.01715  -0.01715   4.20315
   Z32       -8.23771  -0.00323   0.00000  -0.02127  -0.02127  -8.25898
   X33        1.68685  -0.00766   0.00000  -0.01545  -0.01545   1.67140
   Y33        4.01395  -0.01191   0.00000  -0.01824  -0.01824   3.99571
   Z33        7.23411  -0.01143   0.00000  -0.02428  -0.02428   7.20983
   X34       -1.70510   0.00528   0.00000  -0.02364  -0.02364  -1.72874
   Y34        3.83921  -0.05967   0.00000  -0.03154  -0.03154   3.80767
   Z34        3.16679   0.03445   0.00000   0.03139   0.03139   3.19818
   X35       -3.31964  -0.02487   0.00000  -0.01207  -0.01207  -3.33171
   Y35        4.92001   0.00824   0.00000   0.00475   0.00475   4.92476
   Z35        1.41276  -0.03384   0.00000  -0.03177  -0.03177   1.38099
   X36       -7.51798   0.00938   0.00000   0.02163   0.02163  -7.49634
   Y36        5.67200  -0.00977   0.00000  -0.02003  -0.02003   5.65197
   Z36       -0.72023   0.00397   0.00000   0.01602   0.01602  -0.70421
   X37       -5.60325   0.00864   0.00000   0.01930   0.01930  -5.58395
   Y37        3.80757   0.01638   0.00000   0.01854   0.01854   3.82611
   Z37        0.45597   0.01816   0.00000   0.00954   0.00954   0.46551
   X38       -1.76883  -0.00913   0.00000  -0.07675  -0.07675  -1.84558
   Y38        1.53954   0.03353   0.00000   0.00377   0.00377   1.54331
   Z38        3.91568  -0.01708   0.00000  -0.02342  -0.02342   3.89225
   X39        0.46182   0.01446   0.00000   0.01829   0.01829   0.48011
   Y39        5.88065   0.01487   0.00000   0.00871   0.00871   5.88937
   Z39        4.59293   0.00842   0.00000   0.00969   0.00969   4.60262
   X40        0.04729   0.00700   0.00000   0.01654   0.01654   0.06383
   Y40        3.23257   0.00151   0.00000  -0.00784  -0.00784   3.22473
   Z40        8.23771  -0.00178   0.00000  -0.00088  -0.00088   8.23683
   X41        2.84480  -0.00341   0.00000   0.00163   0.00163   2.84643
   Y41        2.48165   0.00500   0.00000   0.00005   0.00005   2.48171
   Z41        6.44855   0.00629   0.00000   0.02272   0.02272   6.47128
   X42       -9.15002   0.00314   0.00000   0.01991   0.01991  -9.13010
   Y42        4.64219   0.00389   0.00000   0.00669   0.00669   4.64888
   Z42       -1.46942  -0.00097   0.00000   0.00545   0.00545  -1.46397
   X43       -6.59563  -0.00415   0.00000  -0.01078  -0.01078  -6.60642
   Y43        6.77276  -0.00235   0.00000  -0.00642  -0.00642   6.76634
   Z43       -2.21793   0.00274   0.00000   0.02109   0.02109  -2.19684
   X44       -8.16943   0.00097   0.00000   0.00848   0.00848  -8.16096
   Y44        6.98014  -0.00326   0.00000  -0.02006  -0.02006   6.96007
   Z44        0.75366  -0.00432   0.00000  -0.00096  -0.00096   0.75270
   X45       -6.46349   0.00634   0.00000   0.04427   0.04427  -6.41922
   Y45        2.40685   0.00100   0.00000  -0.00606  -0.00606   2.40079
   Z45        1.73869  -0.00879   0.00000  -0.02731  -0.02731   1.71138
   X46       -2.75452  -0.00471   0.00000  -0.02682  -0.02682  -2.78134
   Y46        6.77493  -0.00279   0.00000   0.00658   0.00658   6.78151
   Z46        0.71042   0.00095   0.00000  -0.00416  -0.00416   0.70626
   X47        4.98096   0.00124   0.00000   0.00544   0.00544   4.98640
   Y47       -7.72503  -0.00128   0.00000   0.01702   0.01702  -7.70801
   Z47       -0.64682  -0.00110   0.00000  -0.00348  -0.00348  -0.65030
   X48        2.82418  -0.00373   0.00000  -0.03242  -0.03242   2.79177
   Y48        5.18288   0.00458   0.00000   0.02394   0.02394   5.20681
   Z48        8.49223  -0.00534   0.00000  -0.04414  -0.04414   8.44809
         Item               Value     Threshold  Converged?
 Maximum Force            0.059675     0.000450     NO 
 RMS     Force            0.011103     0.000300     NO 
 Maximum Displacement     0.076751     0.001800     NO 
 RMS     Displacement     0.025001     0.001200     NO 
 Predicted change in Energy=-1.673701D-02
 GradGradGradGradGradGradGradGradGradGradGradGradGradGradGradGradGradGrad

 Leave Link  103 at Wed Mar  8 15:21:16 2023, MaxMem=  2684354560 cpu:               1.7 elap:               0.1
 (Enter /opt/gaussian/g16/l9999.exe)

 Test job not archived.
 1\1\GINC-JULIO-SYS\Force\RM062X\def2TZVP\C16H24N2O5S1\JVELAZQUEZ\08-Ma
 r-2023\0\\#P M062X/Def2TZVP scf=(direct,conver=8) EmpiricalDispersion=
 GD3 NoSymm Force pop=(NBORead) Charge Prop=(Field,Read)\\Gaussian run 
 using SANDER external interface, route from template gau_job.tpl\\0,1\
 C,3.4763751499,-3.5598318313,-0.7924801295\H,3.4479590014,-3.645628611
 4,-1.8869678665\H,4.4346630272,-3.9321078082,-0.4022951148\C,1.6140563
 075,-1.184493803,0.9970711476\H,0.8891023711,-2.028526198,1.0113145991
 \O,1.3153555629,-0.3483387779,2.0769760322\H,0.4010711755,0.0501221478
 ,2.0697384427\C,3.0915303068,-1.6909262753,1.0554265108\H,3.2627489428
 ,-2.5167399551,1.7760845444\O,3.8913740566,-0.5892992515,1.4514531751\
 H,4.8419796566,-0.7788087942,1.44005719\C,1.6664926009,-0.4415531447,-
 0.3654768297\H,2.2930917845,0.4669349681,-0.2672595237\C,3.4183346947,
 -2.0485925968,-0.4419886716\H,4.3410704342,-1.5404413899,-0.7903269021
 \O,2.3405958834,-1.4019672332,-1.1899529853\N,0.4266994023,-0.09044855
 71,-1.0048962017\C,-0.5396993886,-1.0572748386,-1.1880905766\H,-0.2176
 492669,-2.0695127174,-0.9539329152\C,-1.7406412608,-0.7410491506,-1.69
 52908035\H,-2.4820211352,-1.5266650994,-1.8291036212\C,-2.0882160422,0
 .6478420254,-1.9877734597\H,-2.920788476,0.8285501399,-2.6767881534\H,
 -2.6744294809,1.2115186306,-0.7946525532\C,-0.9138976274,1.5320468618,
 -2.0917113801\C,0.2532030608,1.1778330687,-1.5059109672\H,1.1318911446
 ,1.8235739203,-1.4828848624\C,-1.1266005634,2.921411205,-2.6255261916\
 O,-0.7551244476,3.9110756659,-2.0746772351\N,-1.9508243324,3.011016967
 1,-3.7223760804\H,-1.9567301125,3.9321078082,-4.1309522615\H,-1.949830
 1881,2.2332869134,-4.3592083128\C,0.8926422214,2.1240892384,3.82812729
 11\C,-0.9022981622,2.0316217935,1.6757929617\C,-1.7566797952,2.6035591
 858,0.7476003172\C,-3.9783414446,3.0014913255,-0.3811284208\C,-2.96511
 02584,2.0148793124,0.2412909399\O,-0.9360253324,0.8146873335,2.0720859
 912\S,0.2443854424,3.1119070758,2.4304754613\H,0.0250241751,1.71060310
 35,4.3592083128\H,1.5054020256,1.313233762,3.4124281929\H,-4.841979656
 6,2.4565428768,-0.7775818472\H,-3.4902597324,3.5839881095,-1.173675881
 8\H,-4.3230778858,3.6937297894,0.3988211201\H,-3.420332222,1.273650620
 5,0.9200738138\H,-1.457631711,3.5851394659,0.3759381026\H,2.6358088752
 ,-4.0879121079,-0.3422806634\H,1.4944927678,2.7426597187,4.4938948786\
 \Version=ES64L-G16RevA.03\HF=-1507.8429009\RMSD=7.916e-09\RMSF=1.110e-
 02\Dipole=0.207994,-1.5665076,-2.0077387\Quadrupole=10.4934724,-10.374
 2089,-0.1192635,-6.5954896,8.6544464,-5.8954199\PG=C01 [X(C16H24N2O5S1
 )]\\@


 THE WISE MAN HAS THE POWER TO REASON AWAY
 WHAT A FOOL BELIEVES.
                     - DOOBIE BROTHERS
 Job cpu time:       0 days  7 hours 13 minutes 47.4 seconds.
 Elapsed time:       0 days  0 hours 27 minutes 11.5 seconds.
 File lengths (MBytes):  RWF=    435 Int=      0 D2E=      0 Chk=     48 Scr=      1
 Normal termination of Gaussian 16 at Wed Mar  8 15:21:16 2023.
