 Entering Gaussian System, Link 0=g16
 Initial command:
 /opt/gaussian/g16/l1.exe "/opt/gaussian/scratch16/Gau-2700325.inp" -scrdir="/opt/gaussian/scratch16/"
 Entering Link 1 = /opt/gaussian/g16/l1.exe PID=   2700328.
  
 Copyright (c) 1988,1990,1992,1993,1995,1998,2003,2009,2016,
            Gaussian, Inc.  All Rights Reserved.
  
 This is part of the Gaussian(R) 16 program.  It is based on
 the Gaussian(R) 09 system (copyright 2009, Gaussian, Inc.),
 the Gaussian(R) 03 system (copyright 2003, Gaussian, Inc.),
 the Gaussian(R) 98 system (copyright 1998, Gaussian, Inc.),
 the Gaussian(R) 94 system (copyright 1995, Gaussian, Inc.),
 the Gaussian 92(TM) system (copyright 1992, Gaussian, Inc.),
 the Gaussian 90(TM) system (copyright 1990, Gaussian, Inc.),
 the Gaussian 88(TM) system (copyright 1988, Gaussian, Inc.),
 the Gaussian 86(TM) system (copyright 1986, Carnegie Mellon
 University), and the Gaussian 82(TM) system (copyright 1983,
 Carnegie Mellon University). Gaussian is a federally registered
 trademark of Gaussian, Inc.
  
 This software contains proprietary and confidential information,
 including trade secrets, belonging to Gaussian, Inc.
  
 This software is provided under written license and may be
 used, copied, transmitted, or stored only in accord with that
 written license.
  
 The following legend is applicable only to US Government
 contracts under FAR:
  
                    RESTRICTED RIGHTS LEGEND
  
 Use, reproduction and disclosure by the US Government is
 subject to restrictions as set forth in subparagraphs (a)
 and (c) of the Commercial Computer Software - Restricted
 Rights clause in FAR 52.227-19.
  
 Gaussian, Inc.
 340 Quinnipiac St., Bldg. 40, Wallingford CT 06492
  
  
 ---------------------------------------------------------------
 Warning -- This program may not be used in any manner that
 competes with the business of Gaussian, Inc. or will provide
 assistance to any competitor of Gaussian, Inc.  The licensee
 of this program is prohibited from giving any competitor of
 Gaussian, Inc. access to this program.  By using this program,
 the user acknowledges that Gaussian, Inc. is engaged in the
 business of creating and licensing software in the field of
 computational chemistry and represents and warrants to the
 licensee that it is not a competitor of Gaussian, Inc. and that
 it will not use this program in any manner prohibited above.
 ---------------------------------------------------------------
  

 Cite this work as:
 Gaussian 16, Revision A.03,
 M. J. Frisch, G. W. Trucks, H. B. Schlegel, G. E. Scuseria, 
 M. A. Robb, J. R. Cheeseman, G. Scalmani, V. Barone, 
 G. A. Petersson, H. Nakatsuji, X. Li, M. Caricato, A. V. Marenich, 
 J. Bloino, B. G. Janesko, R. Gomperts, B. Mennucci, H. P. Hratchian, 
 J. V. Ortiz, A. F. Izmaylov, J. L. Sonnenberg, D. Williams-Young, 
 F. Ding, F. Lipparini, F. Egidi, J. Goings, B. Peng, A. Petrone, 
 T. Henderson, D. Ranasinghe, V. G. Zakrzewski, J. Gao, N. Rega, 
 G. Zheng, W. Liang, M. Hada, M. Ehara, K. Toyota, R. Fukuda, 
 J. Hasegawa, M. Ishida, T. Nakajima, Y. Honda, O. Kitao, H. Nakai, 
 T. Vreven, K. Throssell, J. A. Montgomery, Jr., J. E. Peralta, 
 F. Ogliaro, M. J. Bearpark, J. J. Heyd, E. N. Brothers, K. N. Kudin, 
 V. N. Staroverov, T. A. Keith, R. Kobayashi, J. Normand, 
 K. Raghavachari, A. P. Rendell, J. C. Burant, S. S. Iyengar, 
 J. Tomasi, M. Cossi, J. M. Millam, M. Klene, C. Adamo, R. Cammi, 
 J. W. Ochterski, R. L. Martin, K. Morokuma, O. Farkas, 
 J. B. Foresman, and D. J. Fox, Gaussian, Inc., Wallingford CT, 2016.
 
 ******************************************
 Gaussian 16:  ES64L-G16RevA.03 25-Dec-2016
                 8-Mar-2023 
 ******************************************
 %chk=22.chk
 %NProcShared=16
 Will use up to   16 processors via shared memory.
 %mem=20GB
 ----------------------------------------------------------------------
 #P M062X/Def2TZVP scf=(direct,conver=8) EmpiricalDispersion=GD3 NoSymm
  Force pop=(NBORead) Charge Prop=(Field,Read)
 ----------------------------------------------------------------------
 1/10=7,18=10,28=-2,30=1,38=1,125=101/1,3;
 2/12=2,15=1,17=6,18=5,29=2,40=1/2;
 3/5=44,7=101,11=2,25=1,30=1,71=1,74=-55,124=31/1,2,3;
 4//1;
 5/5=2,6=8,38=5/2;
 6/7=2,8=2,9=2,10=2,14=2,15=1,28=1,40=2/1,2,7;
 7/7=1,16=-2,29=1,30=1/1,2,3,16;
 1/10=7,18=10,28=-2,30=1/3;
 99/12=1/99;
 Leave Link    1 at Wed Mar  8 14:52:34 2023, MaxMem=  2684354560 cpu:               1.3 elap:               0.1
 (Enter /opt/gaussian/g16/l101.exe)
 ----------------------------------------------------------------------
 Gaussian run using SANDER external interface, route from template gau_
 job.tpl
 ----------------------------------------------------------------------
 Symbolic Z-matrix:
 Charge =  0 Multiplicity = 1
 C                     3.47613  -3.53914  -0.77649 
 H                     3.44705  -3.62741  -1.87057 
 H                     4.43448  -3.90943  -0.38433 
 C                     1.62158  -1.15166   1.01488 
 H                     0.88482  -1.98494   1.04485 
 O                     1.34718  -0.29972   2.08204 
 H                     0.42654   0.11045   2.06267 
 C                     3.09655  -1.66582   1.06493 
 H                     3.2664   -2.48671   1.79149 
 O                     3.89602  -0.56095   1.45235 
 H                     4.84502  -0.75238   1.46625 
 C                     1.66481  -0.41888  -0.35398 
 H                     2.28652   0.49381  -0.26606 
 C                     3.41778  -2.02699  -0.43116 
 H                     4.3399   -1.51866  -0.78068 
 O                     2.3368   -1.38075  -1.17785 
 N                     0.41757  -0.07994  -0.99516 
 C                    -0.51549  -1.06075  -1.21227 
 H                    -0.17728  -2.07096  -0.99606 
 C                    -1.71503  -0.76013  -1.74992 
 H                    -2.43782  -1.55867  -1.91386 
 C                    -2.05763   0.60633  -2.06404 
 H                    -2.92292   0.7923   -2.70619 
 H                    -2.71362   1.26824  -0.79634 
 C                    -0.93334   1.52293  -2.09749 
 C                     0.22567   1.19001  -1.46671 
 H                     1.07611   1.86646  -1.39895 
 C                    -1.14946   2.90947  -2.64002 
 O                    -0.77024   3.90204  -2.10233 
 N                    -1.95806   2.99117  -3.74934 
 H                    -1.9531    3.90943  -4.16424 
 H                    -1.9606    2.20998  -4.38291 
 C                     0.87657   2.12637   3.84536 
 C                    -0.90678   2.01958   1.643 
 C                    -1.75983   2.60187   0.74568 
 C                    -3.94324   3.10563  -0.40054 
 C                    -2.98863   2.02985   0.18213 
 O                    -0.89684   0.7761    1.98646 
 S                     0.24315   3.09917   2.42753 
 H                     0.00277   1.73379   4.38291 
 H                     1.48225   1.30193   3.44761 
 H                    -4.84502   2.63836  -0.81212 
 H                    -3.41837   3.67172  -1.18068 
 H                    -4.22014   3.79797   0.40452 
 H                    -3.49076   1.32411   0.86953 
 H                    -1.51826   3.6315    0.4705 
 H                     2.63669  -4.06735  -0.32434 
 H                     1.48458   2.75024   4.5005 
 
 ITRead=  0  0  0  0  0  0  0  0  0  0  0  0  0  0  0  0  0  0  0  0
 ITRead=  0  0  0  0  0  0  0  0  0  0  0  0  0  0  0  0  0  0  0  0
 ITRead=  0  0  0  0  0  0  0  0
 MicOpt= -1 -1 -1 -1 -1 -1 -1 -1 -1 -1 -1 -1 -1 -1 -1 -1 -1 -1 -1 -1
 MicOpt= -1 -1 -1 -1 -1 -1 -1 -1 -1 -1 -1 -1 -1 -1 -1 -1 -1 -1 -1 -1
 MicOpt= -1 -1 -1 -1 -1 -1 -1 -1
 NAtoms=     48 NQM=       48 NQMF=       0 NMMI=      0 NMMIF=      0
                NMic=       0 NMicF=      0.
                    Isotopes and Nuclear Properties:
 (Nuclear quadrupole moments (NQMom) in fm**2, nuclear magnetic moments (NMagM)
  in nuclear magnetons)

  Atom         1           2           3           4           5           6           7           8           9          10
 IAtWgt=          12           1           1          12           1          16           1          12           1          16
 AtmWgt=  12.0000000   1.0078250   1.0078250  12.0000000   1.0078250  15.9949146   1.0078250  12.0000000   1.0078250  15.9949146
 NucSpn=           0           1           1           0           1           0           1           0           1           0
 AtZEff=  -0.0000000  -0.0000000  -0.0000000  -0.0000000  -0.0000000  -0.0000000  -0.0000000  -0.0000000  -0.0000000  -0.0000000
 NQMom=    0.0000000   0.0000000   0.0000000   0.0000000   0.0000000   0.0000000   0.0000000   0.0000000   0.0000000   0.0000000
 NMagM=    0.0000000   2.7928460   2.7928460   0.0000000   2.7928460   0.0000000   2.7928460   0.0000000   2.7928460   0.0000000
 AtZNuc=   6.0000000   1.0000000   1.0000000   6.0000000   1.0000000   8.0000000   1.0000000   6.0000000   1.0000000   8.0000000

  Atom        11          12          13          14          15          16          17          18          19          20
 IAtWgt=           1          12           1          12           1          16          14          12           1          12
 AtmWgt=   1.0078250  12.0000000   1.0078250  12.0000000   1.0078250  15.9949146  14.0030740  12.0000000   1.0078250  12.0000000
 NucSpn=           1           0           1           0           1           0           2           0           1           0
 AtZEff=  -0.0000000  -0.0000000  -0.0000000  -0.0000000  -0.0000000  -0.0000000  -0.0000000  -0.0000000  -0.0000000  -0.0000000
 NQMom=    0.0000000   0.0000000   0.0000000   0.0000000   0.0000000   0.0000000   2.0440000   0.0000000   0.0000000   0.0000000
 NMagM=    2.7928460   0.0000000   2.7928460   0.0000000   2.7928460   0.0000000   0.4037610   0.0000000   2.7928460   0.0000000
 AtZNuc=   1.0000000   6.0000000   1.0000000   6.0000000   1.0000000   8.0000000   7.0000000   6.0000000   1.0000000   6.0000000

  Atom        21          22          23          24          25          26          27          28          29          30
 IAtWgt=           1          12           1           1          12          12           1          12          16          14
 AtmWgt=   1.0078250  12.0000000   1.0078250   1.0078250  12.0000000  12.0000000   1.0078250  12.0000000  15.9949146  14.0030740
 NucSpn=           1           0           1           1           0           0           1           0           0           2
 AtZEff=  -0.0000000  -0.0000000  -0.0000000  -0.0000000  -0.0000000  -0.0000000  -0.0000000  -0.0000000  -0.0000000  -0.0000000
 NQMom=    0.0000000   0.0000000   0.0000000   0.0000000   0.0000000   0.0000000   0.0000000   0.0000000   0.0000000   2.0440000
 NMagM=    2.7928460   0.0000000   2.7928460   2.7928460   0.0000000   0.0000000   2.7928460   0.0000000   0.0000000   0.4037610
 AtZNuc=   1.0000000   6.0000000   1.0000000   1.0000000   6.0000000   6.0000000   1.0000000   6.0000000   8.0000000   7.0000000

  Atom        31          32          33          34          35          36          37          38          39          40
 IAtWgt=           1           1          12          12          12          12          12          16          32           1
 AtmWgt=   1.0078250   1.0078250  12.0000000  12.0000000  12.0000000  12.0000000  12.0000000  15.9949146  31.9720718   1.0078250
 NucSpn=           1           1           0           0           0           0           0           0           0           1
 AtZEff=  -0.0000000  -0.0000000  -0.0000000  -0.0000000  -0.0000000  -0.0000000  -0.0000000  -0.0000000  -0.0000000  -0.0000000
 NQMom=    0.0000000   0.0000000   0.0000000   0.0000000   0.0000000   0.0000000   0.0000000   0.0000000   0.0000000   0.0000000
 NMagM=    2.7928460   2.7928460   0.0000000   0.0000000   0.0000000   0.0000000   0.0000000   0.0000000   0.0000000   2.7928460
 AtZNuc=   1.0000000   1.0000000   6.0000000   6.0000000   6.0000000   6.0000000   6.0000000   8.0000000  16.0000000   1.0000000

  Atom        41          42          43          44          45          46          47          48
 IAtWgt=           1           1           1           1           1           1           1           1
 AtmWgt=   1.0078250   1.0078250   1.0078250   1.0078250   1.0078250   1.0078250   1.0078250   1.0078250
 NucSpn=           1           1           1           1           1           1           1           1
 AtZEff=  -0.0000000  -0.0000000  -0.0000000  -0.0000000  -0.0000000  -0.0000000  -0.0000000  -0.0000000
 NQMom=    0.0000000   0.0000000   0.0000000   0.0000000   0.0000000   0.0000000   0.0000000   0.0000000
 NMagM=    2.7928460   2.7928460   2.7928460   2.7928460   2.7928460   2.7928460   2.7928460   2.7928460
 AtZNuc=   1.0000000   1.0000000   1.0000000   1.0000000   1.0000000   1.0000000   1.0000000   1.0000000
 Background charge distribution read from input stream:
 Leave Link  101 at Wed Mar  8 14:52:35 2023, MaxMem=  2684354560 cpu:               3.7 elap:               0.2
 (Enter /opt/gaussian/g16/l103.exe)

 GradGradGradGradGradGradGradGradGradGradGradGradGradGradGradGradGradGrad
 Berny optimization.
 Initialization pass.
 Trust Radius=3.00D-01 FncErr=1.00D-07 GrdErr=1.00D-07 EigMax=2.50D+02 EigMin=1.00D-04
 Number of steps in this run=      2 maximum allowed number of steps=      2.
 GradGradGradGradGradGradGradGradGradGradGradGradGradGradGradGradGradGrad

 Leave Link  103 at Wed Mar  8 14:52:35 2023, MaxMem=  2684354560 cpu:               0.4 elap:               0.0
 (Enter /opt/gaussian/g16/l202.exe)
 ---------------------------------------------------------------------------------------------------
                            Z-MATRIX (ANGSTROMS AND DEGREES)
   CD    Cent   Atom    N1       Length/X        N2       Alpha/Y        N3        Beta/Z          J
 ---------------------------------------------------------------------------------------------------
      1      1  C        0   3.476126         -3.539141         -0.776493
      2      2  H        0   3.447053         -3.627415         -1.870569
      3      3  H        0   4.434485         -3.909426         -0.384334
      4      4  C        0   1.621578         -1.151664          1.014877
      5      5  H        0   0.884823         -1.984938          1.044846
      6      6  O        0   1.347180         -0.299721          2.082038
      7      7  H        0   0.426541          0.110445          2.062668
      8      8  C        0   3.096549         -1.665822          1.064935
      9      9  H        0   3.266402         -2.486706          1.791487
     10     10  O        0   3.896023         -0.560945          1.452354
     11     11  H        0   4.845018         -0.752383          1.466253
     12     12  C        0   1.664810         -0.418882         -0.353975
     13     13  H        0   2.286524          0.493809         -0.266058
     14     14  C        0   3.417779         -2.026989         -0.431162
     15     15  H        0   4.339903         -1.518665         -0.780678
     16     16  O        0   2.336804         -1.380754         -1.177846
     17     17  N        0   0.417572         -0.079936         -0.995159
     18     18  C        0  -0.515495         -1.060751         -1.212271
     19     19  H        0  -0.177281         -2.070957         -0.996059
     20     20  C        0  -1.715032         -0.760135         -1.749923
     21     21  H        0  -2.437817         -1.558673         -1.913865
     22     22  C        0  -2.057631          0.606327         -2.064038
     23     23  H        0  -2.922920          0.792298         -2.706187
     24     24  H        0  -2.713618          1.268239         -0.796339
     25     25  C        0  -0.933339          1.522935         -2.097492
     26     26  C        0   0.225670          1.190009         -1.466711
     27     27  H        0   1.076113          1.866462         -1.398949
     28     28  C        0  -1.149457          2.909474         -2.640017
     29     29  O        0  -0.770243          3.902041         -2.102334
     30     30  N        0  -1.958062          2.991170         -3.749340
     31     31  H        0  -1.953097          3.909426         -4.164242
     32     32  H        0  -1.960600          2.209984         -4.382909
     33     33  C        0   0.876575          2.126369          3.845362
     34     34  C        0  -0.906782          2.019581          1.642996
     35     35  C        0  -1.759835          2.601868          0.745675
     36     36  C        0  -3.943237          3.105633         -0.400535
     37     37  C        0  -2.988632          2.029846          0.182130
     38     38  O        0  -0.896836          0.776099          1.986463
     39     39  S        0   0.243150          3.099172          2.427527
     40     40  H        0   0.002773          1.733785          4.382909
     41     41  H        0   1.482248          1.301935          3.447609
     42     42  H        0  -4.845018          2.638361         -0.812120
     43     43  H        0  -3.418369          3.671720         -1.180676
     44     44  H        0  -4.220143          3.797968          0.404520
     45     45  H        0  -3.490761          1.324113          0.869530
     46     46  H        0  -1.518259          3.631497          0.470502
     47     47  H        0   2.636690         -4.067346         -0.324336
     48     48  H        0   1.484579          2.750243          4.500504
 ---------------------------------------------------------------------------------------------------
                         Z-Matrix orientation:                         
 ---------------------------------------------------------------------
 Center     Atomic      Atomic             Coordinates (Angstroms)
 Number     Number       Type             X           Y           Z
 ---------------------------------------------------------------------
      1          6           0        3.476126   -3.539141   -0.776493
      2          1           0        3.447053   -3.627415   -1.870569
      3          1           0        4.434485   -3.909426   -0.384334
      4          6           0        1.621578   -1.151664    1.014877
      5          1           0        0.884823   -1.984938    1.044846
      6          8           0        1.347180   -0.299721    2.082038
      7          1           0        0.426541    0.110445    2.062668
      8          6           0        3.096549   -1.665822    1.064935
      9          1           0        3.266402   -2.486706    1.791487
     10          8           0        3.896023   -0.560945    1.452354
     11          1           0        4.845018   -0.752383    1.466253
     12          6           0        1.664810   -0.418882   -0.353975
     13          1           0        2.286524    0.493809   -0.266058
     14          6           0        3.417779   -2.026989   -0.431162
     15          1           0        4.339903   -1.518665   -0.780678
     16          8           0        2.336804   -1.380754   -1.177846
     17          7           0        0.417572   -0.079936   -0.995159
     18          6           0       -0.515495   -1.060751   -1.212271
     19          1           0       -0.177281   -2.070957   -0.996059
     20          6           0       -1.715032   -0.760135   -1.749923
     21          1           0       -2.437817   -1.558673   -1.913865
     22          6           0       -2.057631    0.606327   -2.064038
     23          1           0       -2.922920    0.792298   -2.706187
     24          1           0       -2.713618    1.268239   -0.796339
     25          6           0       -0.933339    1.522935   -2.097492
     26          6           0        0.225670    1.190009   -1.466711
     27          1           0        1.076113    1.866462   -1.398949
     28          6           0       -1.149457    2.909474   -2.640017
     29          8           0       -0.770243    3.902041   -2.102334
     30          7           0       -1.958062    2.991170   -3.749340
     31          1           0       -1.953097    3.909426   -4.164242
     32          1           0       -1.960600    2.209984   -4.382909
     33          6           0        0.876575    2.126369    3.845362
     34          6           0       -0.906782    2.019581    1.642996
     35          6           0       -1.759835    2.601868    0.745675
     36          6           0       -3.943237    3.105633   -0.400535
     37          6           0       -2.988632    2.029846    0.182130
     38          8           0       -0.896836    0.776099    1.986463
     39         16           0        0.243150    3.099172    2.427527
     40          1           0        0.002773    1.733785    4.382909
     41          1           0        1.482248    1.301935    3.447609
     42          1           0       -4.845018    2.638361   -0.812120
     43          1           0       -3.418369    3.671720   -1.180676
     44          1           0       -4.220143    3.797968    0.404520
     45          1           0       -3.490761    1.324113    0.869530
     46          1           0       -1.518259    3.631497    0.470502
     47          1           0        2.636690   -4.067346   -0.324336
     48          1           0        1.484579    2.750243    4.500504
 ---------------------------------------------------------------------
                    Distance matrix (angstroms):
                    1          2          3          4          5
     1  C    0.000000
     2  H    1.098016   0.000000
     3  H    1.099705   1.806501   0.000000
     4  C    3.514030   4.217523   4.180369   0.000000
     5  H    3.528126   4.214545   4.283259   1.112677   0.000000
     6  O    4.816374   5.577285   5.352047   1.392815   2.032116
     7  H    5.538979   6.210108   6.181488   2.029507   2.374156
     8  C    2.654102   3.547940   2.987342   1.562819   2.234719
     9  H    2.783186   3.839857   2.850043   2.256303   2.545812
    10  O    3.743490   4.543855   3.856901   2.390280   3.355763
    11  H    3.830117   4.621092   3.682408   3.279289   4.168923
    12  C    3.632548   3.971288   4.455998   1.553253   2.240003
    13  H    4.235609   4.572282   4.900633   2.188728   3.134872
    14  C    1.552180   2.152699   2.139966   2.466488   2.931934
    15  H    2.197374   2.536113   2.425237   3.278414   3.935419
    16  O    2.473414   2.600001   3.379957   2.317772   2.722801
    17  N    4.622625   4.746441   5.583340   2.576524   2.830014
    18  C    4.718618   4.766854   5.770851   3.087966   2.812399
    19  H    3.943496   4.040189   5.002256   2.850413   2.302338
    20  C    5.968130   5.906181   7.042686   4.350906   4.008757
    21  H    6.339605   6.238049   7.422535   5.022138   4.469408
    22  C    7.033146   6.947197   8.084615   5.109484   5.003784
    23  H    7.964476   7.797992   9.034856   6.186903   6.023471
    24  H    7.837362   7.941994   8.835912   5.284918   5.188633
    25  C    6.842005   6.765015   7.826812   4.834038   5.048284
    26  C    5.779855   5.809301   6.699992   3.686499   4.101548
    27  H    5.947104   6.002204   6.757883   3.902969   4.565305
    28  C    8.151895   8.028130   9.097578   6.126152   6.455369
    29  O    8.669526   8.633191   9.542522   6.401386   6.877536
    30  N    9.000732   8.749326   9.990302   7.257731   7.471805
    31  H    9.820105   9.551258  10.780693   8.075655   8.362531
    32  H    8.695784   8.344446   9.712512   7.298546   7.426596
    33  C    7.759975   8.507952   8.184123   4.394562   4.974515
    34  C    7.480856   7.949187   8.233609   4.104136   4.427619
    35  C    8.212446   8.529969   9.057785   5.059192   5.303066
    36  C    9.967011  10.105014  10.926918   7.148086   7.163324
    37  C    8.586366   8.811141   9.523576   5.662995   5.645036
    38  O    6.736321   7.289513   7.483168   3.317025   3.418227
    39  S    8.048918   8.601488   8.636799   4.686710   5.307705
    40  H    8.153978   8.928130   8.614668   4.721227   5.074404
    41  H    6.727155   7.512786   7.110399   3.457997   4.115060
    42  H   10.363602  10.446947  11.365108   7.714861   7.593043
    43  H    9.984685  10.044269  10.944188   7.313450   7.447697
    44  H   10.698622  10.913213  11.615885   7.680957   7.740329
    45  H    8.654372   8.953158   9.579751   5.682131   5.488743
    46  H    8.827057   9.100919   9.645280   5.747482   6.135880
    47  H    1.090000   1.800295   1.805714   3.365285   3.046329
    48  H    8.448036   9.225854   8.770107   5.233856   5.892641
                    6          7          8          9         10
     6  O    0.000000
     7  H    1.008061   0.000000
     8  C    2.441521   3.358502   0.000000
     9  H    2.924164   3.857919   1.109314   0.000000
    10  O    2.638436   3.586161   1.417746   2.054261   0.000000
    11  H    3.580359   4.541269   2.013100   2.367632   0.968211
    12  C    2.459522   2.766525   2.370241   3.382898   2.874251
    13  H    2.650587   3.004907   2.663022   3.751948   2.579909
    14  C    3.686056   4.442445   1.572239   2.274735   2.434262
    15  H    4.317100   5.104215   2.230217   2.950515   2.469957
    16  O    3.574189   4.046444   2.385066   3.302153   3.165628
    17  N    3.222052   3.063762   3.733087   4.655509   4.280340
    18  C    3.860207   3.603382   4.312614   5.035737   5.177984
    19  H    3.864704   3.805118   3.889704   4.449967   4.986649
    20  C    4.926769   4.458711   5.647567   6.351167   6.463606
    21  H    5.646096   5.177192   6.286011   6.865055   7.241852
    22  C    5.440920   4.842181   6.443501   7.264795   7.012385
    23  H    6.507946   5.867350   7.516497   8.323980   8.100785
    24  H    5.218585   4.401706   6.769867   7.520445   7.217333
    25  C    5.098167   4.599058   6.033996   6.988504   6.345605
    26  C    4.008828   3.696259   4.775662   5.777554   5.005824
    27  H    4.108904   3.935522   4.757090   5.824629   4.687656
    28  C    6.231367   5.695049   7.258690   8.261767   7.365337
    29  O    6.296606   5.758102   7.482297   8.501319   7.370759
    30  N    7.467232   6.911175   8.391299   9.380986   8.599154
    31  H    8.223427   7.672636   9.161146  10.179606   9.259729
    32  H    7.683460   7.186930   8.383056   9.354336   8.719425
    33  C    3.035901   2.728457   5.199978   5.586603   4.697362
    34  C    3.263781   2.366152   5.472021   6.143626   5.455493
    35  C    4.456302   3.566777   6.472988   7.228441   6.518551
    36  C    6.763735   5.842387   8.629772   9.383928   8.850480
    37  C    5.275964   4.345565   7.174032   7.881289   7.464861
    38  O    2.490407   1.483317   4.770672   5.293058   5.004444
    39  S    3.590365   3.016495   5.718716   6.383309   5.262215
    40  H    3.352101   2.863272   5.669015   5.931213   5.386217
    41  H    2.109106   2.110030   4.134089   4.503304   3.643855
    42  H    7.439879   6.514914   9.225932   9.941842   9.579625
    43  H    7.009144   6.163221   8.716437   9.562746   8.851476
    44  H    7.113382   6.159461   9.155497   9.872647   9.272014
    45  H    5.245254   4.271046   7.236750   7.812272   7.645765
    46  H    5.124672   4.326089   7.050631   7.878476   6.917735
    47  H    4.652791   5.294949   2.812270   2.715081   4.127637
    48  H    3.894886   3.745801   5.822647   6.159489   5.105904
                   11         12         13         14         15
    11  H    0.000000
    12  C    3.679426   0.000000
    13  H    3.331634   1.107819   0.000000
    14  C    2.694775   2.380098   2.767927   0.000000
    15  H    2.427144   2.923648   2.920830   1.109444   0.000000
    16  O    3.698276   1.433714   2.085155   1.464126   2.046745
    17  N    5.110089   1.442777   2.086566   3.620822   4.183374
    18  C    6.000390   2.429485   3.341151   4.124850   4.896002
    19  H    5.746748   2.556350   3.630601   3.639437   4.555916
    20  C    7.306033   3.672664   4.448223   5.448835   6.178757
    21  H    8.069386   4.534747   5.408082   6.058526   6.871913
    22  C    7.871189   4.222788   4.702880   6.291324   6.862291
    23  H    8.951880   5.295954   5.760351   7.302643   7.861089
    24  H    8.144644   4.713035   5.087472   6.970360   7.584144
    25  C    7.160081   3.682510   3.844577   5.857546   6.228354
    26  C    5.806337   2.428546   2.484630   4.648763   4.973376
    27  H    5.410395   2.580955   2.152374   4.645317   4.742748
    28  C    8.136608   4.921793   4.824634   7.078655   7.293739
    29  O    8.119706   5.258956   4.932725   7.448875   7.566003
    30  N    9.354063   6.023467   6.032129   8.067954   8.295536
    31  H    9.982450   6.807469   6.696019   8.833075   8.972988
    32  H    9.450119   6.023856   6.158879   7.905391   8.159364
    33  C    5.449396   4.973334   4.642950   6.480490   6.832361
    34  C    6.387350   4.067810   4.021153   6.275244   6.776509
    35  C    7.442736   4.697058   4.673386   7.044072   7.517668
    36  C    9.777659   6.623788   6.756451   8.973812   9.494158
    37  C    8.411650   5.285660   5.512491   7.607637   8.199168
    38  O    5.964542   3.669831   3.909900   5.684902   6.351885
    39  S    6.077477   4.704740   4.268336   6.672923   6.957038
    40  H    6.175375   5.462088   5.325969   6.998640   7.486772
    41  H    4.410694   4.176911   3.884746   5.465609   5.830985
    42  H   10.515937   7.206560   7.467007   9.496549  10.081896
    43  H    9.739738   6.576866   6.594047   8.931404   9.342958
    44  H   10.198535   7.279410   7.328292   9.641905  10.146214
    45  H    8.611222   5.578075   5.946091   7.787786   8.492577
    46  H    7.791099   5.217016   4.986380   7.562799   7.899853
    47  H    4.367139   3.775807   4.574948   2.187366   3.099186
    48  H    5.724301   5.800155   5.334297   7.133059   7.366636
                   16         17         18         19         20
    16  O    0.000000
    17  N    2.325715   0.000000
    18  C    2.870400   1.371039   0.000000
    19  H    2.613437   2.077983   1.087038   0.000000
    20  C    4.138819   2.362274   1.348455   2.156674   0.000000
    21  H    4.834292   3.344238   2.106058   2.492955   1.089476
    22  C    4.903558   2.782102   2.425457   3.441532   1.443350
    23  H    5.892595   3.853219   3.385450   4.319873   2.187117
    24  H    5.715722   3.414888   3.229388   4.197990   2.453731
    25  C    4.468891   2.368395   2.762905   3.834167   2.438084
    26  C    3.339034   1.368191   2.383272   3.319304   2.765790
    27  H    3.490363   2.094084   3.337160   4.151696   3.848725
    28  C    5.718218   3.754692   4.266504   5.334081   3.818137
    29  O    6.198091   4.300335   5.048407   6.103453   4.769979
    30  N    6.646215   4.760340   4.993574   6.031323   4.257818
    31  H    7.436922   5.619445   5.956802   6.996848   5.262167
    32  H    6.452403   4.730357   4.779014   5.742598   3.976747
    33  C    6.297999   5.339393   6.138016   6.493651   6.808491
    34  C    5.480901   3.622395   4.218305   4.922324   4.460043
    35  C    6.028570   3.868292   4.335518   5.231960   4.187252
    36  C    7.756983   5.433055   5.455922   6.429164   4.661534
    37  C    6.468539   4.176053   4.196731   5.109638   3.624759
    38  O    5.012114   3.369056   3.708280   4.185561   4.121898
    39  S    6.119791   4.674606   5.579304   6.215138   6.014966
    40  H    6.787492   5.690805   6.275673   6.591037   6.839746
    41  H    5.414972   4.772976   5.593545   5.820362   6.441201
    42  H    8.238059   5.926002   5.708619   6.633195   4.714452
    43  H    7.658297   5.368779   5.551933   6.596747   4.781917
    44  H    8.503916   6.205292   6.320252   7.262963   5.629698
    45  H    6.743039   4.552306   4.344385   5.097653   3.789306
    46  H    6.534617   4.435126   5.084727   6.038791   4.924981
    47  H    2.834817   4.612366   4.445707   3.514999   5.648666
    48  H    7.073548   6.273016   7.152606   7.497863   7.850357
                   21         22         23         24         25
    21  H    0.000000
    22  C    2.203252   0.000000
    23  H    2.527877   1.093465   0.000000
    24  H    3.052271   1.573375   1.979355   0.000000
    25  C    3.434163   1.450973   2.205170   2.219744   0.000000
    26  C    3.853486   2.431243   3.407065   3.015781   1.360891
    27  H    4.934003   3.442475   4.342231   3.883694   2.154964
    28  C    4.706538   2.541853   2.762604   2.922225   1.504504
    29  O    5.712767   3.538440   3.830033   3.524094   2.384694
    30  N    4.929523   2.921922   2.618044   3.501367   2.436057
    31  H    5.932896   3.915641   3.575327   4.347072   3.317635
    32  H    4.530638   2.821044   2.397350   3.783834   2.598159
    33  C    7.598251   6.770606   7.690169   5.930536   6.241589
    34  C    5.272496   4.130840   4.948376   3.127223   3.773408
    35  C    4.984266   3.459098   4.067267   2.250794   3.151316
    36  C    5.129542   3.545318   3.421782   2.246027   3.800537
    37  C    4.192142   2.817524   3.142964   1.270070   3.110927
    38  O    4.799827   4.216969   5.111384   3.359596   4.151841
    39  S    6.908747   5.628679   6.457607   4.742162   4.934009
    40  H    7.513063   6.861454   7.726666   5.866866   6.551058
    41  H    7.231555   6.587326   7.585146   5.968042   6.052441
    42  H    4.962212   3.669603   3.269541   2.533841   4.265864
    43  H    5.371783   3.468223   3.296016   2.533990   3.410748
    44  H    6.102884   4.577861   4.515898   3.179812   4.715816
    45  H    4.143239   3.342888   3.659375   1.839073   3.922137
    46  H    5.785210   3.983274   4.486143   2.935772   3.373834
    47  H    5.879682   6.848827   7.758777   7.570803   6.865888
    48  H    8.665799   7.761240   8.671562   6.919374   7.133454
                   26         27         28         29         30
    26  C    0.000000
    27  H    1.088777   0.000000
    28  C    2.494831   2.753414   0.000000
    29  O    2.958205   2.836788   1.190837   0.000000
    30  N    3.636380   3.999441   1.375177   2.225585   0.000000
    31  H    4.406691   4.582212   1.992236   2.377112   1.007653
    32  H    3.784750   4.271259   2.045706   3.079128   1.005817
    33  C    5.433100   5.254537   6.839459   6.421846   8.152456
    34  C    3.411879   3.634384   4.381209   4.194019   5.579109
    35  C    3.290931   3.630818   3.453997   3.283428   4.516194
    36  C    4.710215   5.265572   3.585939   3.687584   3.894677
    37  C    3.708873   4.364477   3.481497   3.693933   4.176443
    38  O    3.654552   4.067239   5.100923   5.148378   6.239565
    39  S    4.337085   4.105523   5.258834   4.710754   6.558253
    40  H    5.879067   5.882137   7.213277   6.881661   8.459276
    41  H    5.073664   4.896199   6.824166   6.529635   8.153853
    42  H    5.313952   6.000000   4.131813   4.457054   4.133552
    43  H    4.418113   4.848399   2.803329   2.813374   3.032108
    44  H    5.483449   5.918914   4.414491   4.265789   4.798175
    45  H    4.391795   5.128009   4.506882   4.783190   5.144142
    46  H    3.571407   3.652528   3.214445   2.692992   4.290747
    47  H    5.895576   6.228986   8.268815   8.847575   9.092031
    48  H    6.294986   5.979252   7.612525   7.071657   8.942580
                   31         32         33         34         35
    31  H    0.000000
    32  H    1.713469   0.000000
    33  C    8.679867   8.704079   0.000000
    34  C    6.195990   6.120319   2.835875   0.000000
    35  C    5.084717   5.147451   4.096927   1.368189   0.000000
    36  C    4.332693   4.537878   6.497475   3.817798   2.516907
    37  C    4.847278   4.682828   5.326200   2.543291   1.467902
    38  O    6.983165   6.614871   2.902364   1.290083   2.370180
    39  S    6.995100   7.213127   1.832438   1.761633   2.662308
    40  H    9.033971   8.995619   1.098457   2.901051   4.133984
    41  H    8.748765   8.602021   1.097606   3.078817   4.416036
    42  H    4.606033   4.610196   7.395330   4.681900   3.456359
    43  H    3.332446   3.809995   6.789382   4.124409   2.757925
    44  H    5.101520   5.526907   6.372611   3.959146   2.756839
    45  H    5.864052   5.542046   5.345355   2.785475   2.155018
    46  H    4.663387   5.076609   4.403444   2.084927   1.092802
    47  H    9.971956   8.775645   7.671146   7.312815   8.059328
    48  H    9.393569   9.543383   1.090000   3.797082   4.964572
                   36         37         38         39         40
    36  C    0.000000
    37  C    1.551801   0.000000
    38  O    4.517195   3.033663   0.000000
    39  S    5.052109   4.077950   2.625028   0.000000
    40  H    6.350929   5.165530   2.733022   2.396994   0.000000
    41  H    6.891838   5.584082   2.841037   2.409563   1.802810
    42  H    1.095881   2.192030   5.185386   6.049555   7.162937
    43  H    1.097524   2.176618   4.977300   5.172394   6.812729
    44  H    1.097323   2.166179   4.762206   4.949935   6.158039
    45  H    2.234191   1.105762   2.876858   4.418176   4.971564
    46  H    2.629783   2.193272   3.292051   2.686238   4.606710
    47  H    9.734108   8.311227   6.425306   8.041192   7.921413
    48  H    7.321726   6.259149   3.986074   2.441338   1.800768
                   41         42         43         44         45
    41  H    0.000000
    42  H    7.743748   0.000000
    43  H    7.145135   1.799720   0.000000
    44  H    6.928769   1.793146   1.780906   0.000000
    45  H    5.601590   2.527688   3.117666   2.620723   0.000000
    46  H    4.826289   3.701185   2.517623   2.707812   3.061700
    47  H    6.662543  10.058846   9.863579  10.459950   8.248564
    48  H    1.790584   8.264399   7.560676   7.100610   6.322328
                   46         47         48
    46  H    0.000000
    47  H    8.784506   0.000000
    48  H    5.102407   8.431249   0.000000
 Symmetry turned off by external request.
 Stoichiometry    C16H24N2O5S
 Framework group  C1[X(C16H24N2O5S)]
 Deg. of freedom   138
 Full point group                 C1      NOp   1
 Rotational constants (GHZ):           0.2966639           0.1705516           0.1287645
 Leave Link  202 at Wed Mar  8 14:52:35 2023, MaxMem=  2684354560 cpu:               0.1 elap:               0.0
 (Enter /opt/gaussian/g16/l301.exe)
 Standard basis: def2TZVP (5D, 7F)
 Ernie: Thresh=  0.10000D-02 Tol=  0.10000D-05 Strict=F.
   894 basis functions,  1434 primitive gaussians,  1014 cartesian basis functions
    95 alpha electrons       95 beta electrons
       nuclear repulsion energy      2451.3818559933 Hartrees.
 IExCor= 4336 DFT=T Ex+Corr=M062X ExCW=0 ScaHFX=  0.540000
 ScaDFX=  1.000000  1.000000  1.000000  1.000000 ScalE2=  1.000000  1.000000
 IRadAn=      5 IRanWt=     -1 IRanGd=            0 ICorTp=0 IEmpDi=131
 NAtoms=   48 NActive=   48 NUniq=   48 SFac= 1.00D+00 NAtFMM=   60 NAOKFM=F Big=F
 Integral buffers will be    131072 words long.
 Raffenetti 2 integral format.
 Two-electron integral symmetry is turned off.
 R6Disp:  Grimme-D3 Dispersion energy=       -0.0041775320 Hartrees.
 Nuclear repulsion after empirical dispersion term =     2451.3776784613 Hartrees.
 Leave Link  301 at Wed Mar  8 14:52:35 2023, MaxMem=  2684354560 cpu:               0.8 elap:               0.1
 (Enter /opt/gaussian/g16/l302.exe)
 NPDir=0 NMtPBC=     1 NCelOv=     1 NCel=       1 NClECP=     1 NCelD=      1
         NCelK=      1 NCelE2=     1 NClLst=     1 CellRange=     0.0.
 One-electron integrals computed using PRISM.
   1 Symmetry operations used in ECPInt.
 ECPInt:  NShTT=   65703 NPrTT=  200010 LenC2=   56234 LenP2D=  119349.
 LDataN:  DoStor=T MaxTD1= 6 Len=  172
 NBasis=   894 RedAO= T EigKep=  3.01D-05  NBF=   894
 NBsUse=   894 1.00D-06 EigRej= -1.00D+00 NBFU=   894
 Precomputing XC quadrature grid using
 IXCGrd= 4 IRadAn=           5 IRanWt=          -1 IRanGd=           0 AccXCQ= 0.00D+00.
 Generated NRdTot=       0 NPtTot=           0 NUsed=           0 NTot=          32
 NSgBfM=  1001  1001  1001  1001  1001 MxSgAt=    48 MxSgA2=    48.
 Leave Link  302 at Wed Mar  8 14:52:37 2023, MaxMem=  2684354560 cpu:              36.1 elap:               2.3
 (Enter /opt/gaussian/g16/l303.exe)
 DipDrv:  MaxL=1.
 Leave Link  303 at Wed Mar  8 14:52:37 2023, MaxMem=  2684354560 cpu:               4.2 elap:               0.3
 (Enter /opt/gaussian/g16/l401.exe)
 ExpMin= 9.52D-02 ExpMax= 6.07D+04 ExpMxC= 2.07D+03 IAcc=3 IRadAn=         5 AccDes= 0.00D+00
 Harris functional with IExCor= 1009 and IRadAn=       5 diagonalized for initial guess.
 HarFok:  IExCor= 1009 AccDes= 0.00D+00 IRadAn=         5 IDoV= 1 UseB2=F ITyADJ=14
 ICtDFT=  3500011 ScaDFX=  1.000000  1.000000  1.000000  1.000000
 FoFCou: FMM=F IPFlag=           0 FMFlag=      100000 FMFlg1=           0
         NFxFlg=           0 DoJE=T BraDBF=F KetDBF=T FulRan=T
         wScrn=  0.000000 ICntrl=       500 IOpCl=  0 I1Cent=   200000004 NGrid=           0
         NMat0=    1 NMatS0=      1 NMatT0=    0 NMatD0=    1 NMtDS0=    0 NMtDT0=    0
 Symmetry not used in FoFCou.
 Harris En= -1507.17807308780    
 JPrj=0 DoOrth=F DoCkMO=F.
 Leave Link  401 at Wed Mar  8 14:52:46 2023, MaxMem=  2684354560 cpu:             139.5 elap:               8.8
 (Enter /opt/gaussian/g16/l502.exe)
 Two-electron integral symmetry not used.
 Closed shell SCF:
 Using DIIS extrapolation, IDIIS=  1040.
 NGot=  2684354560 LenX=  2682275214 LenY=  2681246004
 Requested convergence on RMS density matrix=1.00D-08 within 128 cycles.
 Requested convergence on MAX density matrix=1.00D-06.
 Requested convergence on             energy=1.00D-06.
 No special actions if energy rises.
 Fock matrices will be formed incrementally for  20 cycles.
 Integral accuracy reduced to 1.0D-05 until final iterations.

 Cycle   1  Pass 0  IDiag  1:
 FoFJK:  IHMeth= 1 ICntrl=       0 DoSepK=F KAlg= 0 I1Cent=           0 FoldK=F
 IRaf= 780000000 NMat=       1 IRICut=       1 DoRegI=T DoRafI=F ISym2E= 0 IDoP0=0 IntGTp=1.
 FoFCou: FMM=F IPFlag=           0 FMFlag=      100000 FMFlg1=           0
         NFxFlg=           0 DoJE=F BraDBF=F KetDBF=F FulRan=T
         wScrn=  0.000000 ICntrl=         0 IOpCl=  0 I1Cent=           0 NGrid=           0
         NMat0=    1 NMatS0=      1 NMatT0=    0 NMatD0=    1 NMtDS0=    0 NMtDT0=    0
 Symmetry not used in FoFCou.
 E= -1507.09642663971    
 DIIS: error= 1.45D-02 at cycle   1 NSaved=   1.
 NSaved= 1 IEnMin= 1 EnMin= -1507.09642663971     IErMin= 1 ErrMin= 1.45D-02
 ErrMax= 1.45D-02  0.00D+00 EMaxC= 1.00D-01 BMatC= 9.90D-01 BMatP= 9.90D-01
 IDIUse=3 WtCom= 8.55D-01 WtEn= 1.45D-01
 Coeff-Com:  0.100D+01
 Coeff-En:   0.100D+01
 Coeff:      0.100D+01
 Gap=     0.185 Goal=   None    Shift=    0.000
 GapD=    0.185 DampG=1.000 DampE=0.500 DampFc=0.5000 IDamp=-1.
 Damping current iteration by 5.00D-01
 RMSDP=3.93D-03 MaxDP=8.84D-01              OVMax= 5.11D-01

 Cycle   2  Pass 0  IDiag  1:
 RMSU=  1.96D-03    CP:  1.01D+00
 E= -1507.39379098155     Delta-E=       -0.297364341834 Rises=F Damp=T
 DIIS: error= 3.81D-03 at cycle   2 NSaved=   2.
 NSaved= 2 IEnMin= 2 EnMin= -1507.39379098155     IErMin= 2 ErrMin= 3.81D-03
 ErrMax= 3.81D-03  0.00D+00 EMaxC= 1.00D-01 BMatC= 1.05D-01 BMatP= 9.90D-01
 IDIUse=3 WtCom= 9.62D-01 WtEn= 3.81D-02
 Coeff-Com:  0.411D-01 0.959D+00
 Coeff-En:   0.159D+00 0.841D+00
 Coeff:      0.456D-01 0.954D+00
 Gap=     0.220 Goal=   None    Shift=    0.000
 RMSDP=1.32D-03 MaxDP=2.56D-01 DE=-2.97D-01 OVMax= 4.35D-01

 Cycle   3  Pass 0  IDiag  1:
 RMSU=  1.05D-03    CP:  9.95D-01  5.98D-01
 E= -1507.75240216111     Delta-E=       -0.358611179557 Rises=F Damp=F
 DIIS: error= 5.28D-03 at cycle   3 NSaved=   3.
 NSaved= 3 IEnMin= 3 EnMin= -1507.75240216111     IErMin= 2 ErrMin= 3.81D-03
 ErrMax= 5.28D-03  0.00D+00 EMaxC= 1.00D-01 BMatC= 8.62D-02 BMatP= 1.05D-01
 IDIUse=3 WtCom= 9.47D-01 WtEn= 5.28D-02
 Coeff-Com: -0.661D-01 0.496D+00 0.571D+00
 Coeff-En:   0.000D+00 0.000D+00 0.100D+01
 Coeff:     -0.626D-01 0.469D+00 0.593D+00
 Gap=     0.131 Goal=   None    Shift=    0.000
 RMSDP=6.22D-04 MaxDP=5.55D-02 DE=-3.59D-01 OVMax= 2.19D-01

 Cycle   4  Pass 0  IDiag  1:
 RMSU=  5.10D-04    CP:  9.97D-01  7.45D-01  8.01D-01
 E= -1507.82496400583     Delta-E=       -0.072561844726 Rises=F Damp=F
 DIIS: error= 2.39D-03 at cycle   4 NSaved=   4.
 NSaved= 4 IEnMin= 4 EnMin= -1507.82496400583     IErMin= 4 ErrMin= 2.39D-03
 ErrMax= 2.39D-03  0.00D+00 EMaxC= 1.00D-01 BMatC= 1.44D-02 BMatP= 8.62D-02
 IDIUse=3 WtCom= 9.76D-01 WtEn= 2.39D-02
 Coeff-Com: -0.389D-01 0.115D+00 0.323D+00 0.601D+00
 Coeff-En:   0.000D+00 0.000D+00 0.133D+00 0.867D+00
 Coeff:     -0.380D-01 0.113D+00 0.318D+00 0.607D+00
 Gap=     0.151 Goal=   None    Shift=    0.000
 RMSDP=2.29D-04 MaxDP=1.97D-02 DE=-7.26D-02 OVMax= 8.84D-02

 Cycle   5  Pass 0  IDiag  1:
 RMSU=  1.32D-04    CP:  9.97D-01  7.20D-01  8.79D-01  6.86D-01
 E= -1507.83852176369     Delta-E=       -0.013557757857 Rises=F Damp=F
 DIIS: error= 1.06D-03 at cycle   5 NSaved=   5.
 NSaved= 5 IEnMin= 5 EnMin= -1507.83852176369     IErMin= 5 ErrMin= 1.06D-03
 ErrMax= 1.06D-03  0.00D+00 EMaxC= 1.00D-01 BMatC= 1.37D-03 BMatP= 1.44D-02
 IDIUse=3 WtCom= 9.89D-01 WtEn= 1.06D-02
 Coeff-Com: -0.149D-01 0.288D-01 0.129D+00 0.329D+00 0.528D+00
 Coeff-En:   0.000D+00 0.000D+00 0.000D+00 0.219D-02 0.998D+00
 Coeff:     -0.147D-01 0.285D-01 0.127D+00 0.326D+00 0.533D+00
 Gap=     0.150 Goal=   None    Shift=    0.000
 RMSDP=7.23D-05 MaxDP=6.71D-03 DE=-1.36D-02 OVMax= 2.26D-02

 Cycle   6  Pass 0  IDiag  1:
 RMSU=  5.30D-05    CP:  9.96D-01  7.20D-01  8.74D-01  7.59D-01  7.60D-01
 E= -1507.83986346185     Delta-E=       -0.001341698163 Rises=F Damp=F
 DIIS: error= 2.79D-04 at cycle   6 NSaved=   6.
 NSaved= 6 IEnMin= 6 EnMin= -1507.83986346185     IErMin= 6 ErrMin= 2.79D-04
 ErrMax= 2.79D-04  0.00D+00 EMaxC= 1.00D-01 BMatC= 1.39D-04 BMatP= 1.37D-03
 IDIUse=3 WtCom= 9.97D-01 WtEn= 2.79D-03
 Coeff-Com: -0.524D-03-0.439D-02 0.925D-02 0.613D-01 0.261D+00 0.674D+00
 Coeff-En:   0.000D+00 0.000D+00 0.000D+00 0.000D+00 0.000D+00 0.100D+01
 Coeff:     -0.522D-03-0.438D-02 0.922D-02 0.611D-01 0.260D+00 0.674D+00
 Gap=     0.153 Goal=   None    Shift=    0.000
 RMSDP=2.84D-05 MaxDP=3.40D-03 DE=-1.34D-03 OVMax= 5.65D-03

 Cycle   7  Pass 0  IDiag  1:
 RMSU=  2.18D-05    CP:  9.96D-01  7.15D-01  8.81D-01  7.68D-01  8.58D-01
                    CP:  9.57D-01
 E= -1507.84003079132     Delta-E=       -0.000167329467 Rises=F Damp=F
 DIIS: error= 9.79D-05 at cycle   7 NSaved=   7.
 NSaved= 7 IEnMin= 7 EnMin= -1507.84003079132     IErMin= 7 ErrMin= 9.79D-05
 ErrMax= 9.79D-05  0.00D+00 EMaxC= 1.00D-01 BMatC= 2.22D-05 BMatP= 1.39D-04
 IDIUse=1 WtCom= 1.00D+00 WtEn= 0.00D+00
 Coeff-Com:  0.191D-02-0.583D-02-0.138D-01-0.204D-01 0.413D-01 0.328D+00
 Coeff-Com:  0.669D+00
 Coeff:      0.191D-02-0.583D-02-0.138D-01-0.204D-01 0.413D-01 0.328D+00
 Coeff:      0.669D+00
 Gap=     0.153 Goal=   None    Shift=    0.000
 RMSDP=1.65D-05 MaxDP=1.08D-03 DE=-1.67D-04 OVMax= 1.89D-03

 Cycle   8  Pass 0  IDiag  1:
 RMSU=  1.22D-05    CP:  9.96D-01  7.13D-01  8.82D-01  7.75D-01  8.84D-01
                    CP:  1.11D+00  1.23D+00
 E= -1507.84005902636     Delta-E=       -0.000028235041 Rises=F Damp=F
 DIIS: error= 3.17D-05 at cycle   8 NSaved=   8.
 NSaved= 8 IEnMin= 8 EnMin= -1507.84005902636     IErMin= 8 ErrMin= 3.17D-05
 ErrMax= 3.17D-05  0.00D+00 EMaxC= 1.00D-01 BMatC= 2.66D-06 BMatP= 2.22D-05
 IDIUse=1 WtCom= 1.00D+00 WtEn= 0.00D+00
 Coeff-Com:  0.103D-02-0.193D-02-0.775D-02-0.215D-01-0.341D-01 0.278D-01
 Coeff-Com:  0.263D+00 0.773D+00
 Coeff:      0.103D-02-0.193D-02-0.775D-02-0.215D-01-0.341D-01 0.278D-01
 Coeff:      0.263D+00 0.773D+00
 Gap=     0.153 Goal=   None    Shift=    0.000
 RMSDP=1.82D-05 MaxDP=2.16D-03 DE=-2.82D-05 OVMax= 1.19D-03

 Cycle   9  Pass 0  IDiag  1:
 RMSU=  9.44D-06    CP:  9.96D-01  7.10D-01  8.82D-01  7.78D-01  8.98D-01
                    CP:  1.21D+00  1.55D+00  1.89D+00
 E= -1507.84005916850     Delta-E=       -0.000000142140 Rises=F Damp=F
 DIIS: error= 2.00D-05 at cycle   9 NSaved=   9.
 NSaved= 9 IEnMin= 9 EnMin= -1507.84005916850     IErMin= 9 ErrMin= 2.00D-05
 ErrMax= 2.00D-05  0.00D+00 EMaxC= 1.00D-01 BMatC= 6.05D-07 BMatP= 2.66D-06
 IDIUse=1 WtCom= 1.00D+00 WtEn= 0.00D+00
 Coeff-Com:  0.251D-03-0.228D-03-0.179D-02-0.729D-02-0.208D-01-0.182D-01
 Coeff-Com:  0.311D-01 0.331D+00 0.686D+00
 Coeff:      0.251D-03-0.228D-03-0.179D-02-0.729D-02-0.208D-01-0.182D-01
 Coeff:      0.311D-01 0.331D+00 0.686D+00
 Gap=     0.153 Goal=   None    Shift=    0.000
 RMSDP=1.99D-05 MaxDP=1.84D-03 DE=-1.42D-07 OVMax= 3.61D-04

 Cycle  10  Pass 0  IDiag  1:
 RMSU=  6.28D-06    CP:  9.96D-01  7.09D-01  8.83D-01  7.80D-01  9.02D-01
                    CP:  1.30D+00  1.88D+00  2.97D+00  2.08D+00
 E= -1507.84004775492     Delta-E=        0.000011413578 Rises=F Damp=F
 DIIS: error= 3.00D-05 at cycle  10 NSaved=  10.
 NSaved=10 IEnMin= 9 EnMin= -1507.84005916850     IErMin= 9 ErrMin= 2.00D-05
 ErrMax= 3.00D-05  0.00D+00 EMaxC= 1.00D-01 BMatC= 4.62D-07 BMatP= 6.05D-07
 IDIUse=1 WtCom= 1.00D+00 WtEn= 0.00D+00
 Coeff-Com:  0.182D-03-0.155D-03-0.128D-02-0.542D-02-0.162D-01-0.144D-01
 Coeff-Com:  0.185D-01 0.248D+00 0.552D+00 0.219D+00
 Coeff:      0.182D-03-0.155D-03-0.128D-02-0.542D-02-0.162D-01-0.144D-01
 Coeff:      0.185D-01 0.248D+00 0.552D+00 0.219D+00
 Gap=     0.153 Goal=   None    Shift=    0.000
 RMSDP=8.50D-06 MaxDP=8.03D-04 DE= 1.14D-05 OVMax= 5.04D-05

 Initial convergence to 1.0D-05 achieved.  Increase integral accuracy.
 Cycle  11  Pass 1  IDiag  1:
 E= -1507.83994344661     Delta-E=        0.000104308308 Rises=F Damp=F
 DIIS: error= 3.02D-04 at cycle   1 NSaved=   1.
 NSaved= 1 IEnMin= 1 EnMin= -1507.83994344661     IErMin= 1 ErrMin= 3.02D-04
 ErrMax= 3.02D-04  0.00D+00 EMaxC= 1.00D-01 BMatC= 8.23D-05 BMatP= 8.23D-05
 IDIUse=3 WtCom= 9.97D-01 WtEn= 3.02D-03
 Coeff-Com:  0.100D+01
 Coeff-En:   0.100D+01
 Coeff:      0.100D+01
 Gap=     0.153 Goal=   None    Shift=    0.000
 RMSDP=8.50D-06 MaxDP=8.03D-04 DE= 1.04D-04 OVMax= 8.11D-04

 Cycle  12  Pass 1  IDiag  1:
 RMSU=  4.08D-04    CP:  9.97D-01
 E= -1507.83999363632     Delta-E=       -0.000050189705 Rises=F Damp=F
 DIIS: error= 7.62D-06 at cycle   2 NSaved=   2.
 NSaved= 2 IEnMin= 2 EnMin= -1507.83999363632     IErMin= 2 ErrMin= 7.62D-06
 ErrMax= 7.62D-06  0.00D+00 EMaxC= 1.00D-01 BMatC= 9.60D-08 BMatP= 8.23D-05
 IDIUse=1 WtCom= 1.00D+00 WtEn= 0.00D+00
 Coeff-Com: -0.155D-01 0.102D+01
 Coeff:     -0.155D-01 0.102D+01
 Gap=     0.153 Goal=   None    Shift=    0.000
 RMSDP=1.49D-05 MaxDP=1.28D-03 DE=-5.02D-05 OVMax= 1.92D-04

 Cycle  13  Pass 1  IDiag  1:
 RMSU=  5.13D-06    CP:  9.97D-01  1.03D+00
 E= -1507.83999365474     Delta-E=       -0.000000018421 Rises=F Damp=F
 DIIS: error= 5.66D-06 at cycle   3 NSaved=   3.
 NSaved= 3 IEnMin= 3 EnMin= -1507.83999365474     IErMin= 3 ErrMin= 5.66D-06
 ErrMax= 5.66D-06  0.00D+00 EMaxC= 1.00D-01 BMatC= 1.10D-07 BMatP= 9.60D-08
 IDIUse=1 WtCom= 1.00D+00 WtEn= 0.00D+00
 Coeff-Com: -0.928D-02 0.559D+00 0.450D+00
 Coeff:     -0.928D-02 0.559D+00 0.450D+00
 Gap=     0.153 Goal=   None    Shift=    0.000
 RMSDP=5.42D-07 MaxDP=4.18D-05 DE=-1.84D-08 OVMax= 1.47D-04

 Cycle  14  Pass 1  IDiag  1:
 RMSU=  5.05D-07    CP:  9.97D-01  1.03D+00  1.01D+00
 E= -1507.83999374976     Delta-E=       -0.000000095017 Rises=F Damp=F
 DIIS: error= 1.13D-06 at cycle   4 NSaved=   4.
 NSaved= 4 IEnMin= 4 EnMin= -1507.83999374976     IErMin= 4 ErrMin= 1.13D-06
 ErrMax= 1.13D-06  0.00D+00 EMaxC= 1.00D-01 BMatC= 3.93D-09 BMatP= 9.60D-08
 IDIUse=1 WtCom= 1.00D+00 WtEn= 0.00D+00
 Coeff-Com: -0.984D-03 0.482D-01 0.159D+00 0.794D+00
 Coeff:     -0.984D-03 0.482D-01 0.159D+00 0.794D+00
 Gap=     0.153 Goal=   None    Shift=    0.000
 RMSDP=3.23D-07 MaxDP=2.68D-05 DE=-9.50D-08 OVMax= 4.02D-05

 Cycle  15  Pass 1  IDiag  1:
 RMSU=  1.56D-07    CP:  9.97D-01  1.04D+00  1.04D+00  9.26D-01
 E= -1507.83999375316     Delta-E=       -0.000000003406 Rises=F Damp=F
 DIIS: error= 8.19D-07 at cycle   5 NSaved=   5.
 NSaved= 5 IEnMin= 5 EnMin= -1507.83999375316     IErMin= 5 ErrMin= 8.19D-07
 ErrMax= 8.19D-07  0.00D+00 EMaxC= 1.00D-01 BMatC= 1.02D-09 BMatP= 3.93D-09
 IDIUse=1 WtCom= 1.00D+00 WtEn= 0.00D+00
 Coeff-Com:  0.403D-03-0.306D-01 0.437D-01 0.434D+00 0.553D+00
 Coeff:      0.403D-03-0.306D-01 0.437D-01 0.434D+00 0.553D+00
 Gap=     0.153 Goal=   None    Shift=    0.000
 RMSDP=8.67D-08 MaxDP=1.05D-05 DE=-3.41D-09 OVMax= 2.05D-05

 Cycle  16  Pass 1  IDiag  1:
 RMSU=  6.19D-08    CP:  9.97D-01  1.04D+00  1.05D+00  9.67D-01  9.85D-01
 E= -1507.83999375426     Delta-E=       -0.000000001098 Rises=F Damp=F
 DIIS: error= 2.13D-07 at cycle   6 NSaved=   6.
 NSaved= 6 IEnMin= 6 EnMin= -1507.83999375426     IErMin= 6 ErrMin= 2.13D-07
 ErrMax= 2.13D-07  0.00D+00 EMaxC= 1.00D-01 BMatC= 9.22D-11 BMatP= 1.02D-09
 IDIUse=1 WtCom= 1.00D+00 WtEn= 0.00D+00
 Coeff-Com:  0.290D-03-0.193D-01 0.563D-02 0.123D+00 0.266D+00 0.624D+00
 Coeff:      0.290D-03-0.193D-01 0.563D-02 0.123D+00 0.266D+00 0.624D+00
 Gap=     0.153 Goal=   None    Shift=    0.000
 RMSDP=2.57D-08 MaxDP=2.34D-06 DE=-1.10D-09 OVMax= 4.59D-06

 Cycle  17  Pass 1  IDiag  1:
 RMSU=  1.74D-08    CP:  9.97D-01  1.04D+00  1.05D+00  9.61D-01  1.10D+00
                    CP:  9.56D-01
 E= -1507.83999375438     Delta-E=       -0.000000000124 Rises=F Damp=F
 DIIS: error= 1.08D-07 at cycle   7 NSaved=   7.
 NSaved= 7 IEnMin= 7 EnMin= -1507.83999375438     IErMin= 7 ErrMin= 1.08D-07
 ErrMax= 1.08D-07  0.00D+00 EMaxC= 1.00D-01 BMatC= 2.10D-11 BMatP= 9.22D-11
 IDIUse=1 WtCom= 1.00D+00 WtEn= 0.00D+00
 Coeff-Com:  0.136D-04 0.321D-03-0.109D-01-0.868D-01-0.396D-01 0.320D+00
 Coeff-Com:  0.817D+00
 Coeff:      0.136D-04 0.321D-03-0.109D-01-0.868D-01-0.396D-01 0.320D+00
 Coeff:      0.817D+00
 Gap=     0.153 Goal=   None    Shift=    0.000
 RMSDP=1.87D-08 MaxDP=2.57D-06 DE=-1.24D-10 OVMax= 4.02D-06

 Cycle  18  Pass 1  IDiag  1:
 RMSU=  1.31D-08    CP:  9.97D-01  1.04D+00  1.05D+00  9.60D-01  1.15D+00
                    CP:  1.11D+00  1.15D+00
 E= -1507.83999375444     Delta-E=       -0.000000000055 Rises=F Damp=F
 DIIS: error= 3.83D-08 at cycle   8 NSaved=   8.
 NSaved= 8 IEnMin= 8 EnMin= -1507.83999375444     IErMin= 8 ErrMin= 3.83D-08
 ErrMax= 3.83D-08  0.00D+00 EMaxC= 1.00D-01 BMatC= 2.43D-12 BMatP= 2.10D-11
 IDIUse=1 WtCom= 1.00D+00 WtEn= 0.00D+00
 Coeff-Com: -0.328D-04 0.268D-02-0.451D-02-0.517D-01-0.465D-01 0.480D-01
 Coeff-Com:  0.342D+00 0.710D+00
 Coeff:     -0.328D-04 0.268D-02-0.451D-02-0.517D-01-0.465D-01 0.480D-01
 Coeff:      0.342D+00 0.710D+00
 Gap=     0.153 Goal=   None    Shift=    0.000
 RMSDP=6.20D-09 MaxDP=3.61D-07 DE=-5.50D-11 OVMax= 1.19D-06

 SCF Done:  E(RM062X) =  -1507.83999375     A.U. after   18 cycles
            NFock= 18  Conv=0.62D-08     -V/T= 2.0043
 KE= 1.501441005738D+03 PE=-8.441407884604D+03 EE= 2.980749206650D+03
 Leave Link  502 at Wed Mar  8 15:13:10 2023, MaxMem=  2684354560 cpu:           19461.1 elap:            1223.5
 (Enter /opt/gaussian/g16/l601.exe)
 Copying SCF densities to generalized density rwf, IOpCl= 0 IROHF=0.

 **********************************************************************

            Population analysis using the SCF density.

 **********************************************************************

 Alpha  occ. eigenvalues --  -89.87353 -19.64313 -19.62753 -19.61170 -19.57959
 Alpha  occ. eigenvalues --  -19.57051 -14.84076 -14.77960 -10.66294 -10.64236
 Alpha  occ. eigenvalues --  -10.62524 -10.61201 -10.60909 -10.60588 -10.60135
 Alpha  occ. eigenvalues --  -10.60022 -10.59932 -10.58266 -10.57157 -10.54835
 Alpha  occ. eigenvalues --  -10.54714 -10.53097 -10.52431 -10.50589  -8.23251
 Alpha  occ. eigenvalues --   -6.15201  -6.14987  -6.14755  -1.19549  -1.18853
 Alpha  occ. eigenvalues --   -1.14967  -1.12088  -1.11404  -1.09141  -1.03078
 Alpha  occ. eigenvalues --   -0.95275  -0.90928  -0.88027  -0.87665  -0.85516
 Alpha  occ. eigenvalues --   -0.84957  -0.80089  -0.79072  -0.78140  -0.74861
 Alpha  occ. eigenvalues --   -0.71838  -0.71180  -0.68153  -0.67685  -0.65822
 Alpha  occ. eigenvalues --   -0.64927  -0.63415  -0.61909  -0.60134  -0.59622
 Alpha  occ. eigenvalues --   -0.58741  -0.57104  -0.56372  -0.55377  -0.54505
 Alpha  occ. eigenvalues --   -0.53644  -0.53081  -0.52168  -0.51357  -0.50513
 Alpha  occ. eigenvalues --   -0.50033  -0.49761  -0.49265  -0.48972  -0.48228
 Alpha  occ. eigenvalues --   -0.47281  -0.46737  -0.46460  -0.45640  -0.45486
 Alpha  occ. eigenvalues --   -0.45059  -0.44125  -0.43820  -0.43339  -0.42300
 Alpha  occ. eigenvalues --   -0.41095  -0.40518  -0.39409  -0.38068  -0.37076
 Alpha  occ. eigenvalues --   -0.36431  -0.35985  -0.34927  -0.34514  -0.34305
 Alpha  occ. eigenvalues --   -0.32979  -0.30988  -0.29437  -0.27933  -0.21459
 Alpha virt. eigenvalues --   -0.06143  -0.02000   0.04391   0.04812   0.05349
 Alpha virt. eigenvalues --    0.05993   0.07261   0.07435   0.07910   0.08969
 Alpha virt. eigenvalues --    0.09101   0.09494   0.10015   0.10954   0.11436
 Alpha virt. eigenvalues --    0.11614   0.12259   0.12857   0.13294   0.13469
 Alpha virt. eigenvalues --    0.14057   0.14354   0.14535   0.14906   0.15148
 Alpha virt. eigenvalues --    0.15731   0.16123   0.16728   0.17230   0.17297
 Alpha virt. eigenvalues --    0.18009   0.18288   0.19072   0.19240   0.19385
 Alpha virt. eigenvalues --    0.20386   0.21178   0.21349   0.21419   0.22134
 Alpha virt. eigenvalues --    0.22958   0.23163   0.23637   0.24140   0.24366
 Alpha virt. eigenvalues --    0.24724   0.25228   0.25943   0.26118   0.26522
 Alpha virt. eigenvalues --    0.27047   0.27310   0.28215   0.28525   0.28653
 Alpha virt. eigenvalues --    0.29339   0.30240   0.30658   0.30906   0.31121
 Alpha virt. eigenvalues --    0.31635   0.31746   0.32188   0.32982   0.33073
 Alpha virt. eigenvalues --    0.33626   0.34536   0.34788   0.35294   0.35559
 Alpha virt. eigenvalues --    0.36091   0.36600   0.37906   0.38385   0.38587
 Alpha virt. eigenvalues --    0.38768   0.39206   0.39732   0.40123   0.40421
 Alpha virt. eigenvalues --    0.40572   0.41047   0.41328   0.41780   0.42268
 Alpha virt. eigenvalues --    0.42669   0.43030   0.43397   0.43704   0.44054
 Alpha virt. eigenvalues --    0.44602   0.44693   0.45196   0.45303   0.45697
 Alpha virt. eigenvalues --    0.46065   0.46811   0.46904   0.47107   0.47355
 Alpha virt. eigenvalues --    0.47915   0.48266   0.48545   0.48998   0.49105
 Alpha virt. eigenvalues --    0.49570   0.49802   0.50154   0.50553   0.50616
 Alpha virt. eigenvalues --    0.51270   0.51622   0.51897   0.52085   0.52390
 Alpha virt. eigenvalues --    0.52677   0.53025   0.53262   0.53795   0.54165
 Alpha virt. eigenvalues --    0.54582   0.55260   0.56063   0.56536   0.56944
 Alpha virt. eigenvalues --    0.57406   0.57579   0.58029   0.58382   0.58915
 Alpha virt. eigenvalues --    0.59393   0.60060   0.60433   0.61204   0.61785
 Alpha virt. eigenvalues --    0.62292   0.62982   0.63989   0.64258   0.64574
 Alpha virt. eigenvalues --    0.64855   0.65318   0.66551   0.67681   0.67801
 Alpha virt. eigenvalues --    0.68419   0.68741   0.69196   0.70193   0.70880
 Alpha virt. eigenvalues --    0.71045   0.71840   0.72798   0.73379   0.73837
 Alpha virt. eigenvalues --    0.74169   0.74701   0.76018   0.76991   0.77953
 Alpha virt. eigenvalues --    0.78104   0.79057   0.79756   0.81019   0.81550
 Alpha virt. eigenvalues --    0.81849   0.82546   0.83209   0.83421   0.85045
 Alpha virt. eigenvalues --    0.85524   0.86402   0.86954   0.87712   0.88193
 Alpha virt. eigenvalues --    0.89062   0.89634   0.90575   0.91086   0.91568
 Alpha virt. eigenvalues --    0.92072   0.92532   0.92650   0.93738   0.93939
 Alpha virt. eigenvalues --    0.94769   0.95065   0.95390   0.96369   0.96950
 Alpha virt. eigenvalues --    0.97049   0.98797   0.99040   0.99673   1.00416
 Alpha virt. eigenvalues --    1.00735   1.01284   1.02003   1.02659   1.03506
 Alpha virt. eigenvalues --    1.04177   1.04438   1.05605   1.06345   1.06801
 Alpha virt. eigenvalues --    1.07093   1.07692   1.09083   1.09396   1.10418
 Alpha virt. eigenvalues --    1.11027   1.11248   1.11647   1.12343   1.12956
 Alpha virt. eigenvalues --    1.13902   1.14219   1.14887   1.15898   1.16263
 Alpha virt. eigenvalues --    1.16426   1.17366   1.17892   1.18457   1.19769
 Alpha virt. eigenvalues --    1.20580   1.21113   1.22274   1.22534   1.23285
 Alpha virt. eigenvalues --    1.23836   1.25120   1.25333   1.26224   1.27354
 Alpha virt. eigenvalues --    1.27637   1.28194   1.28753   1.29602   1.30998
 Alpha virt. eigenvalues --    1.32769   1.32991   1.33454   1.33471   1.34211
 Alpha virt. eigenvalues --    1.36690   1.36857   1.37407   1.38462   1.39526
 Alpha virt. eigenvalues --    1.40342   1.41016   1.42957   1.43299   1.44173
 Alpha virt. eigenvalues --    1.44415   1.45844   1.46400   1.49146   1.49804
 Alpha virt. eigenvalues --    1.50292   1.51145   1.52513   1.53285   1.53784
 Alpha virt. eigenvalues --    1.54527   1.54896   1.55038   1.55648   1.55853
 Alpha virt. eigenvalues --    1.56396   1.56606   1.57766   1.57883   1.57914
 Alpha virt. eigenvalues --    1.58579   1.59113   1.60127   1.61078   1.61230
 Alpha virt. eigenvalues --    1.61574   1.61690   1.62240   1.62547   1.63660
 Alpha virt. eigenvalues --    1.63750   1.64582   1.65178   1.65777   1.66126
 Alpha virt. eigenvalues --    1.66377   1.67088   1.67794   1.68242   1.68558
 Alpha virt. eigenvalues --    1.69163   1.69936   1.70558   1.71013   1.71525
 Alpha virt. eigenvalues --    1.72361   1.72864   1.73431   1.73968   1.74168
 Alpha virt. eigenvalues --    1.74941   1.75475   1.76236   1.76702   1.77495
 Alpha virt. eigenvalues --    1.78844   1.79561   1.79603   1.80608   1.81101
 Alpha virt. eigenvalues --    1.81731   1.82006   1.83071   1.83841   1.84905
 Alpha virt. eigenvalues --    1.85774   1.86322   1.86943   1.87605   1.88240
 Alpha virt. eigenvalues --    1.88864   1.89339   1.89890   1.90708   1.91632
 Alpha virt. eigenvalues --    1.92034   1.93258   1.93687   1.93987   1.94613
 Alpha virt. eigenvalues --    1.95182   1.96336   1.96699   1.97418   1.98303
 Alpha virt. eigenvalues --    1.98999   1.99340   1.99805   2.00941   2.01694
 Alpha virt. eigenvalues --    2.01845   2.02555   2.03440   2.04429   2.04581
 Alpha virt. eigenvalues --    2.05271   2.05889   2.08061   2.08590   2.09595
 Alpha virt. eigenvalues --    2.09883   2.10258   2.10594   2.12079   2.12657
 Alpha virt. eigenvalues --    2.13421   2.14011   2.14722   2.14930   2.16518
 Alpha virt. eigenvalues --    2.17268   2.17797   2.18465   2.18832   2.19345
 Alpha virt. eigenvalues --    2.19544   2.19959   2.20190   2.20946   2.23010
 Alpha virt. eigenvalues --    2.23731   2.24583   2.24868   2.25720   2.26033
 Alpha virt. eigenvalues --    2.26634   2.27028   2.27916   2.28736   2.29297
 Alpha virt. eigenvalues --    2.29845   2.30266   2.31764   2.32513   2.33079
 Alpha virt. eigenvalues --    2.33371   2.33938   2.34579   2.35219   2.35920
 Alpha virt. eigenvalues --    2.36654   2.37097   2.38292   2.38640   2.39128
 Alpha virt. eigenvalues --    2.40124   2.41025   2.42099   2.42894   2.43388
 Alpha virt. eigenvalues --    2.43746   2.45476   2.45829   2.46626   2.47591
 Alpha virt. eigenvalues --    2.48160   2.48679   2.49126   2.49989   2.50341
 Alpha virt. eigenvalues --    2.51846   2.52812   2.53275   2.54659   2.54891
 Alpha virt. eigenvalues --    2.55841   2.56546   2.57170   2.57567   2.57853
 Alpha virt. eigenvalues --    2.58524   2.59098   2.59452   2.60116   2.60407
 Alpha virt. eigenvalues --    2.61365   2.61873   2.62925   2.63663   2.63937
 Alpha virt. eigenvalues --    2.64940   2.66065   2.66722   2.67237   2.67994
 Alpha virt. eigenvalues --    2.68828   2.69261   2.70119   2.70435   2.71126
 Alpha virt. eigenvalues --    2.71624   2.71934   2.72275   2.73354   2.73470
 Alpha virt. eigenvalues --    2.74283   2.75498   2.76099   2.76848   2.77443
 Alpha virt. eigenvalues --    2.78265   2.79073   2.79521   2.80281   2.80387
 Alpha virt. eigenvalues --    2.81098   2.81294   2.82096   2.82773   2.84126
 Alpha virt. eigenvalues --    2.85156   2.85658   2.86467   2.87012   2.87809
 Alpha virt. eigenvalues --    2.88668   2.89217   2.90557   2.90590   2.92552
 Alpha virt. eigenvalues --    2.93117   2.93683   2.94101   2.95257   2.96724
 Alpha virt. eigenvalues --    2.97294   2.97894   2.98979   2.99987   3.01278
 Alpha virt. eigenvalues --    3.01524   3.02304   3.02778   3.03542   3.03770
 Alpha virt. eigenvalues --    3.04389   3.04807   3.05689   3.06725   3.06978
 Alpha virt. eigenvalues --    3.07506   3.07857   3.09251   3.09815   3.10257
 Alpha virt. eigenvalues --    3.10683   3.11236   3.11662   3.12324   3.13491
 Alpha virt. eigenvalues --    3.13673   3.13918   3.14436   3.15089   3.15966
 Alpha virt. eigenvalues --    3.16399   3.16940   3.17752   3.18510   3.19236
 Alpha virt. eigenvalues --    3.19758   3.20579   3.21309   3.21759   3.22133
 Alpha virt. eigenvalues --    3.22425   3.22799   3.23800   3.24067   3.24607
 Alpha virt. eigenvalues --    3.25478   3.26678   3.27518   3.27825   3.28411
 Alpha virt. eigenvalues --    3.28583   3.29646   3.30094   3.30438   3.31538
 Alpha virt. eigenvalues --    3.31680   3.32203   3.33579   3.34031   3.34276
 Alpha virt. eigenvalues --    3.34708   3.35668   3.35906   3.36244   3.36936
 Alpha virt. eigenvalues --    3.37035   3.37675   3.38061   3.39359   3.39705
 Alpha virt. eigenvalues --    3.40363   3.40865   3.41185   3.41224   3.41999
 Alpha virt. eigenvalues --    3.42372   3.42815   3.44263   3.44409   3.44574
 Alpha virt. eigenvalues --    3.45885   3.46496   3.47629   3.47833   3.48377
 Alpha virt. eigenvalues --    3.48684   3.49250   3.50503   3.51070   3.51448
 Alpha virt. eigenvalues --    3.51852   3.52970   3.54443   3.55023   3.55751
 Alpha virt. eigenvalues --    3.56404   3.56477   3.57188   3.58669   3.59059
 Alpha virt. eigenvalues --    3.59332   3.60529   3.60967   3.63013   3.63219
 Alpha virt. eigenvalues --    3.64435   3.66174   3.66511   3.68699   3.69225
 Alpha virt. eigenvalues --    3.69985   3.70277   3.71389   3.71716   3.73201
 Alpha virt. eigenvalues --    3.74227   3.75186   3.75908   3.76453   3.77166
 Alpha virt. eigenvalues --    3.77839   3.78590   3.80084   3.80678   3.81809
 Alpha virt. eigenvalues --    3.82980   3.84532   3.84829   3.87265   3.88459
 Alpha virt. eigenvalues --    3.89298   3.89926   3.91045   3.91605   3.92453
 Alpha virt. eigenvalues --    3.93842   3.94707   3.95222   3.95875   3.96937
 Alpha virt. eigenvalues --    3.99783   4.00431   4.01802   4.03337   4.04415
 Alpha virt. eigenvalues --    4.05336   4.06485   4.07451   4.09234   4.09809
 Alpha virt. eigenvalues --    4.10878   4.11698   4.13425   4.13832   4.15356
 Alpha virt. eigenvalues --    4.18273   4.19123   4.20693   4.21590   4.21922
 Alpha virt. eigenvalues --    4.23612   4.26508   4.26914   4.28421   4.29094
 Alpha virt. eigenvalues --    4.30042   4.30663   4.33767   4.35825   4.36065
 Alpha virt. eigenvalues --    4.36788   4.38708   4.39323   4.39901   4.41668
 Alpha virt. eigenvalues --    4.42865   4.45002   4.45355   4.46106   4.46829
 Alpha virt. eigenvalues --    4.47464   4.49224   4.50219   4.52636   4.55845
 Alpha virt. eigenvalues --    4.57263   4.60018   4.65463   4.65743   4.67158
 Alpha virt. eigenvalues --    4.69597   4.70442   4.72062   4.73154   4.74044
 Alpha virt. eigenvalues --    4.76254   4.77327   4.79114   4.79800   4.79990
 Alpha virt. eigenvalues --    4.82896   4.84922   4.86705   4.87435   4.90996
 Alpha virt. eigenvalues --    4.91514   4.93207   4.93632   4.94846   4.96961
 Alpha virt. eigenvalues --    4.98920   5.00749   5.01691   5.03308   5.05519
 Alpha virt. eigenvalues --    5.06424   5.10833   5.12854   5.13283   5.18249
 Alpha virt. eigenvalues --    5.20491   5.24224   5.25275   5.26453   5.27200
 Alpha virt. eigenvalues --    5.29121   5.30441   5.32920   5.33492   5.34929
 Alpha virt. eigenvalues --    5.35940   5.40146   5.40778   5.42736   5.44078
 Alpha virt. eigenvalues --    5.46077   5.51332   5.53715   5.55445   5.60391
 Alpha virt. eigenvalues --    5.63266   5.67401   5.71628   5.73442   5.76653
 Alpha virt. eigenvalues --    5.79213   5.80802   5.83406   5.84161   5.85825
 Alpha virt. eigenvalues --    5.86757   5.88410   5.90378   5.93071   5.96165
 Alpha virt. eigenvalues --    5.97341   5.99397   6.00836   6.16184   6.17129
 Alpha virt. eigenvalues --    6.21704   6.23086   6.30389   6.30487   6.40435
 Alpha virt. eigenvalues --    6.45112   6.45737   6.52217   6.54920   6.57839
 Alpha virt. eigenvalues --    6.59336   6.67767   6.71492   6.74076   6.76110
 Alpha virt. eigenvalues --    6.78238   6.79607   6.85794   6.85951   6.89045
 Alpha virt. eigenvalues --    6.91870   6.93006   6.99364   7.07469   7.10696
 Alpha virt. eigenvalues --    7.11229   7.15189   7.18383   7.23287   7.23361
 Alpha virt. eigenvalues --    7.32652   7.42252   9.04220   9.40546   9.57095
 Alpha virt. eigenvalues --   19.88836  22.30583  22.39042  22.44999  22.51247
 Alpha virt. eigenvalues --   22.56040  22.60621  22.62886  22.71838  22.75942
 Alpha virt. eigenvalues --   22.77801  22.83092  22.93271  23.03196  23.10596
 Alpha virt. eigenvalues --   23.18309  23.46600  32.12285  33.15606  44.16329
 Alpha virt. eigenvalues --   44.24261  44.24876  44.36162  44.50517
          Condensed to atoms (all electrons):
               1          2          3          4          5          6
     1  C    5.108159   0.416458   0.409030  -0.008071   0.001000  -0.000232
     2  H    0.416458   0.514314  -0.020615  -0.001159   0.000210  -0.000005
     3  H    0.409030  -0.020615   0.536809   0.001509  -0.000059  -0.000000
     4  C   -0.008071  -0.001159   0.001509   5.348013   0.475833   0.284919
     5  H    0.001000   0.000210  -0.000059   0.475833   0.551701  -0.039980
     6  O   -0.000232  -0.000005  -0.000000   0.284919  -0.039980   8.184085
     7  H   -0.000045  -0.000002   0.000002  -0.029538  -0.011237   0.268713
     8  C   -0.004330   0.012046  -0.007823  -0.006797  -0.061168  -0.047391
     9  H    0.012696  -0.000010  -0.001275  -0.094026   0.002666   0.004042
    10  O    0.009278  -0.000425   0.000143  -0.043230   0.001315  -0.008003
    11  H   -0.000851  -0.000092   0.000321   0.014214  -0.000612  -0.000367
    12  C   -0.004426   0.000460   0.000143   0.014991  -0.079707  -0.048422
    13  H    0.000488   0.000014   0.000082  -0.087638   0.005445   0.009277
    14  C    0.175696  -0.047909  -0.037999   0.090449   0.008110   0.006043
    15  H   -0.059681  -0.005548  -0.003157  -0.008315  -0.000063   0.000070
    16  O   -0.029925   0.001442   0.004927  -0.061880   0.000388   0.006925
    17  N   -0.000412  -0.000089  -0.000027   0.017952  -0.009568  -0.001277
    18  C   -0.000935   0.000105  -0.000000  -0.008007   0.000700   0.002918
    19  H   -0.000575  -0.000088   0.000075  -0.014773  -0.002177   0.000925
    20  C    0.000072  -0.000006  -0.000001   0.007216   0.005790  -0.001117
    21  H    0.000006   0.000000  -0.000000   0.000066   0.000105  -0.000013
    22  C   -0.000013   0.000000   0.000000   0.000065  -0.000283   0.000057
    23  H    0.000000   0.000000  -0.000000   0.000012   0.000001   0.000001
    24  H    0.000000  -0.000000  -0.000000  -0.000071  -0.000122   0.000011
    25  C   -0.000074  -0.000005   0.000001  -0.007592  -0.000344  -0.000368
    26  C   -0.000408   0.000059  -0.000004   0.010961  -0.000636  -0.006473
    27  H   -0.000015   0.000001  -0.000000   0.000353  -0.000106  -0.000054
    28  C   -0.000000   0.000000  -0.000000   0.000020   0.000004  -0.000025
    29  O    0.000000  -0.000000  -0.000000   0.000005  -0.000000   0.000000
    30  N   -0.000000  -0.000000   0.000000   0.000000  -0.000000   0.000000
    31  H   -0.000000   0.000000  -0.000000  -0.000000   0.000000  -0.000000
    32  H    0.000000   0.000000  -0.000000   0.000000   0.000000   0.000000
    33  C    0.000002  -0.000000  -0.000000   0.001307  -0.000534  -0.022139
    34  C    0.000002  -0.000000   0.000000  -0.000006   0.000228   0.015262
    35  C   -0.000000   0.000000  -0.000000  -0.000978   0.000604   0.003028
    36  C   -0.000000   0.000000   0.000000   0.000006   0.000001   0.000001
    37  C   -0.000000  -0.000000   0.000000   0.000170   0.000008   0.000017
    38  O   -0.000001   0.000000   0.000000   0.014055   0.000137  -0.086902
    39  S   -0.000000  -0.000000  -0.000000  -0.001278  -0.000010   0.001406
    40  H   -0.000000   0.000000  -0.000000   0.000086   0.000043   0.000218
    41  H   -0.000007   0.000000  -0.000000   0.000801   0.000613   0.010523
    42  H   -0.000000   0.000000   0.000000   0.000000  -0.000000  -0.000000
    43  H    0.000000   0.000000  -0.000000   0.000000  -0.000000  -0.000000
    44  H    0.000000  -0.000000  -0.000000  -0.000000  -0.000000  -0.000000
    45  H    0.000000  -0.000000   0.000000  -0.000019   0.000018   0.000046
    46  H    0.000000  -0.000000  -0.000000  -0.000026  -0.000000   0.000058
    47  H    0.384416  -0.024002  -0.023835   0.001013  -0.000086   0.000002
    48  H    0.000000   0.000000  -0.000000  -0.000067   0.000004   0.000398
               7          8          9         10         11         12
     1  C   -0.000045  -0.004330   0.012696   0.009278  -0.000851  -0.004426
     2  H   -0.000002   0.012046  -0.000010  -0.000425  -0.000092   0.000460
     3  H    0.000002  -0.007823  -0.001275   0.000143   0.000321   0.000143
     4  C   -0.029538  -0.006797  -0.094026  -0.043230   0.014214   0.014991
     5  H   -0.011237  -0.061168   0.002666   0.001315  -0.000612  -0.079707
     6  O    0.268713  -0.047391   0.004042  -0.008003  -0.000367  -0.048422
     7  H    0.308278   0.007603  -0.000117  -0.000588   0.000120   0.010810
     8  C    0.007603   5.352393   0.493481   0.292701  -0.039496  -0.015521
     9  H   -0.000117   0.493481   0.577476  -0.058304  -0.006631   0.011881
    10  O   -0.000588   0.292701  -0.058304   8.023771   0.292398  -0.021938
    11  H    0.000120  -0.039496  -0.006631   0.292398   0.427446  -0.003605
    12  C    0.010810  -0.015521   0.011881  -0.021938  -0.003605   5.596738
    13  H   -0.000707   0.020135   0.002693   0.017711  -0.001085   0.433819
    14  C   -0.000743   0.119492  -0.106910  -0.061675   0.001691  -0.065173
    15  H    0.000055  -0.025235   0.008269  -0.003468   0.002519  -0.002270
    16  O   -0.000270  -0.045512   0.004454   0.009402   0.000088   0.223112
    17  N    0.001145  -0.002699  -0.000624  -0.000219  -0.000014   0.183024
    18  C   -0.000654  -0.003294  -0.000222  -0.000276   0.000009  -0.093892
    19  H    0.000106   0.001475   0.000062  -0.000009   0.000002   0.013372
    20  C   -0.000797  -0.001166   0.000026   0.000010  -0.000001   0.015571
    21  H   -0.000009  -0.000007   0.000000   0.000000  -0.000000   0.000392
    22  C    0.000084   0.000038  -0.000003  -0.000003   0.000000  -0.013291
    23  H   -0.000002   0.000000   0.000000   0.000000   0.000000  -0.000002
    24  H    0.000069   0.000020  -0.000000   0.000000   0.000000   0.001795
    25  C    0.000813  -0.000219   0.000000  -0.000046  -0.000001  -0.012793
    26  C    0.000278  -0.003851  -0.000085  -0.000632  -0.000056  -0.064114
    27  H    0.000049  -0.000034  -0.000011  -0.000173   0.000007  -0.001427
    28  C    0.000068  -0.000005   0.000000   0.000000  -0.000000  -0.000566
    29  O    0.000007   0.000000   0.000000  -0.000000   0.000000   0.000389
    30  N    0.000000  -0.000000  -0.000000  -0.000000  -0.000000  -0.000003
    31  H   -0.000000  -0.000000   0.000000  -0.000000  -0.000000  -0.000005
    32  H   -0.000000  -0.000000  -0.000000   0.000000  -0.000000  -0.000012
    33  C    0.000922   0.000865   0.000024  -0.000916   0.000067  -0.000493
    34  C   -0.011395  -0.000023  -0.000025   0.000045  -0.000000  -0.001483
    35  C    0.000406  -0.000286  -0.000001   0.000003  -0.000001  -0.000979
    36  C   -0.000011  -0.000000  -0.000000  -0.000000  -0.000000  -0.000018
    37  C   -0.000202   0.000014  -0.000000  -0.000000   0.000000  -0.000840
    38  O    0.074446  -0.000573  -0.000002  -0.000003  -0.000000   0.002127
    39  S    0.000529   0.000176  -0.000001   0.000005  -0.000003   0.000540
    40  H   -0.001057  -0.000044   0.000000   0.000018  -0.000001   0.000049
    41  H   -0.011545  -0.001368   0.000002   0.002813  -0.000201  -0.000214
    42  H   -0.000000   0.000000  -0.000000  -0.000000   0.000000  -0.000000
    43  H    0.000000   0.000000   0.000000   0.000000   0.000000   0.000005
    44  H    0.000000   0.000000  -0.000000   0.000000   0.000000   0.000001
    45  H   -0.000051  -0.000001   0.000000  -0.000000  -0.000000  -0.000077
    46  H   -0.000175   0.000000  -0.000000   0.000000   0.000000   0.000189
    47  H    0.000009  -0.009817   0.000441   0.000185   0.000097  -0.001097
    48  H    0.000787  -0.000032   0.000002   0.000003  -0.000003   0.000018
              13         14         15         16         17         18
     1  C    0.000488   0.175696  -0.059681  -0.029925  -0.000412  -0.000935
     2  H    0.000014  -0.047909  -0.005548   0.001442  -0.000089   0.000105
     3  H    0.000082  -0.037999  -0.003157   0.004927  -0.000027  -0.000000
     4  C   -0.087638   0.090449  -0.008315  -0.061880   0.017952  -0.008007
     5  H    0.005445   0.008110  -0.000063   0.000388  -0.009568   0.000700
     6  O    0.009277   0.006043   0.000070   0.006925  -0.001277   0.002918
     7  H   -0.000707  -0.000743   0.000055  -0.000270   0.001145  -0.000654
     8  C    0.020135   0.119492  -0.025235  -0.045512  -0.002699  -0.003294
     9  H    0.002693  -0.106910   0.008269   0.004454  -0.000624  -0.000222
    10  O    0.017711  -0.061675  -0.003468   0.009402  -0.000219  -0.000276
    11  H   -0.001085   0.001691   0.002519   0.000088  -0.000014   0.000009
    12  C    0.433819  -0.065173  -0.002270   0.223112   0.183024  -0.093892
    13  H    0.504149  -0.012984   0.005716  -0.029817  -0.054408   0.012412
    14  C   -0.012984   5.311145   0.407113   0.196556   0.013659  -0.000133
    15  H    0.005716   0.407113   0.594131  -0.038846  -0.001149   0.000276
    16  O   -0.029817   0.196556  -0.038846   8.128403  -0.082345   0.012892
    17  N   -0.054408   0.013659  -0.001149  -0.082345   6.403108   0.348071
    18  C    0.012412  -0.000133   0.000276   0.012892   0.348071   5.049760
    19  H    0.001612  -0.003003   0.000246   0.015147  -0.046589   0.411858
    20  C    0.000425   0.000366   0.000014  -0.000577  -0.064821   0.455315
    21  H    0.000009  -0.000001  -0.000000  -0.000106   0.004007  -0.031403
    22  C   -0.000094  -0.000063   0.000002   0.000786  -0.025705  -0.013483
    23  H   -0.000014  -0.000000   0.000000  -0.000002  -0.001355   0.002863
    24  H    0.000002   0.000003  -0.000000   0.000031   0.014114   0.009315
    25  C    0.010439  -0.000015   0.000040  -0.002408  -0.026829   0.054383
    26  C   -0.019816  -0.000187  -0.000393   0.001474   0.327002  -0.180938
    27  H   -0.000395   0.000065  -0.000020   0.000992  -0.031116   0.007071
    28  C    0.000055  -0.000002  -0.000001  -0.000011   0.001261   0.001161
    29  O   -0.000032  -0.000000   0.000000  -0.000000  -0.000319   0.000208
    30  N   -0.000003  -0.000000  -0.000000  -0.000000  -0.000426   0.000205
    31  H    0.000000  -0.000000   0.000000   0.000000   0.000020  -0.000003
    32  H    0.000000   0.000000  -0.000000   0.000000   0.000023   0.000038
    33  C   -0.000409  -0.000093   0.000001   0.000002   0.000105  -0.000037
    34  C   -0.000027   0.000052  -0.000001   0.000068  -0.001661   0.002189
    35  C   -0.000059  -0.000000   0.000000  -0.000071  -0.021152  -0.003373
    36  C    0.000001   0.000000  -0.000000  -0.000000  -0.000219   0.000077
    37  C   -0.000006  -0.000003   0.000000   0.000005   0.000102   0.006402
    38  O   -0.000407   0.000140  -0.000002   0.000059   0.010709   0.004547
    39  S    0.002533   0.000009   0.000001   0.000020   0.000726   0.000429
[...]
      4        6          -0.003456415    0.019135983    0.016689529
      5        1           0.010911366    0.002655076   -0.011220115
      6        8           0.018031130   -0.011267427   -0.003896318
      7        1          -0.003249025   -0.003733173   -0.004220192
      8        6           0.013518067    0.000471984   -0.004317407
      9        1          -0.007215959    0.002983417   -0.011137817
     10        8          -0.000977199    0.008110567    0.002750666
     11        1          -0.010140417   -0.006424192   -0.002167920
     12        6           0.024797686   -0.021565294   -0.000956335
     13        1          -0.009856472   -0.005881143    0.003193729
     14        6          -0.019550124    0.001599983   -0.001775545
     15        1          -0.005358414   -0.006669206    0.009924529
     16        8           0.001529357   -0.004148283   -0.000516351
     17        7           0.003579319    0.008447089    0.004128915
     18        6           0.002526617    0.000163442   -0.001932830
     19        1          -0.003389992    0.004998294    0.001017317
     20        6          -0.011166169    0.000393905    0.000097080
     21        1           0.004292790    0.004719399    0.000673046
     22        6           0.017917821    0.001547383   -0.005904415
     23        1           0.005289196    0.000753003    0.006225657
     24        1          -0.005043379    0.008438227    0.014584826
     25        6          -0.019381468   -0.003109304   -0.001189974
     26        6           0.000411702   -0.007784397    0.000457454
     27        1          -0.006076357   -0.001438573    0.002399490
     28        6          -0.014504171   -0.017234527   -0.006471837
     29        8           0.019046401    0.022190596    0.015536450
     30        7           0.004517894   -0.007117493   -0.001250641
     31        1          -0.002233522    0.000538941   -0.001977071
     32        1          -0.002046687   -0.000556028   -0.002406337
     33        6          -0.009137985   -0.012813588   -0.012124385
     34        6           0.010316335   -0.059348577    0.030263097
     35        6          -0.026402081    0.013490449   -0.031982071
     36        6           0.009499439   -0.011768542    0.004992258
     37        6           0.011579110    0.003936242    0.004459586
     38        8          -0.011151140    0.032780454   -0.014053400
     39       16           0.013440028    0.014572625    0.007942394
     40        1           0.007358706    0.001391804   -0.001517505
     41        1          -0.003221730    0.005344637    0.006561289
     42        1           0.003187844    0.003739491    0.000341201
     43        1          -0.004231485   -0.001593424    0.002688821
     44        1          -0.000725007   -0.002685365   -0.004767879
     45        1           0.005963068    0.002984398   -0.007802743
     46        1          -0.003563585   -0.004391907    0.000115584
     47        1           0.001174606   -0.001171741   -0.001043566
     48        1          -0.003854032    0.004654115   -0.005330173
 -------------------------------------------------------------------
 Cartesian Forces:  Max     0.059348577 RMS     0.011041526
 Leave Link  716 at Wed Mar  8 15:19:49 2023, MaxMem=  2684354560 cpu:               0.9 elap:               0.1
 (Enter /opt/gaussian/g16/l103.exe)

 GradGradGradGradGradGradGradGradGradGradGradGradGradGradGradGradGradGrad
 Berny optimization.
 Search for a local minimum.
 Step number   1 out of a maximum of    2
 All quantities printed in internal units (Hartrees-Bohrs-Radians)
 Second derivative matrix not updated -- first step.
 ITU=  0
     Eigenvalues ---    0.00030   0.00061   0.00078   0.00103   0.00148
     Eigenvalues ---    0.00176   0.00212   0.00230   0.00306   0.00473
     Eigenvalues ---    0.00495   0.00646   0.00737   0.00892   0.00941
     Eigenvalues ---    0.01009   0.01137   0.01213   0.01284   0.01418
     Eigenvalues ---    0.01568   0.01925   0.02069   0.02249   0.02533
     Eigenvalues ---    0.02819   0.03006   0.03148   0.03631   0.03783
     Eigenvalues ---    0.03923   0.04356   0.04446   0.04695   0.04983
     Eigenvalues ---    0.05070   0.05140   0.05274   0.05452   0.05748
     Eigenvalues ---    0.05810   0.06010   0.06513   0.06702   0.06714
     Eigenvalues ---    0.07009   0.07439   0.07483   0.07627   0.07842
     Eigenvalues ---    0.08001   0.08452   0.08675   0.09047   0.10099
     Eigenvalues ---    0.10515   0.10841   0.11048   0.11168   0.11849
     Eigenvalues ---    0.12728   0.12918   0.13041   0.13124   0.13458
     Eigenvalues ---    0.13643   0.14029   0.14426   0.15013   0.15323
     Eigenvalues ---    0.16286   0.16649   0.17484   0.18214   0.18771
     Eigenvalues ---    0.20085   0.20189   0.20550   0.21255   0.22057
     Eigenvalues ---    0.24990   0.25393   0.26114   0.28110   0.28450
     Eigenvalues ---    0.31129   0.32544   0.33263   0.33391   0.36552
     Eigenvalues ---    0.36552   0.36552   0.36552   0.36755   0.40550
     Eigenvalues ---    0.42633   0.45850   0.47072   0.52943   0.53331
     Eigenvalues ---    0.59059   0.59448   0.66103   0.66558   0.71339
     Eigenvalues ---    0.73745   0.77547   0.77563   0.83448   0.86534
     Eigenvalues ---    0.88218   0.88720   0.90853   0.91089   0.92173
     Eigenvalues ---    0.92381   0.93762   0.95451   0.96796   0.99572
     Eigenvalues ---    1.00788   1.02375   1.04587   1.09129   1.09320
     Eigenvalues ---    1.13137   1.19556   1.22919   1.25954   1.29464
     Eigenvalues ---    1.29953   1.33761   1.38946   1.50689   1.70033
     Eigenvalues ---    1.74014   1.78107   2.48464
 Quadratic step=3.946D+00 exceeds max=3.000D-01 adjusted using Lamda=-8.852D-02.
 Angle between NR and scaled steps=  70.67 degrees.
 Angle between quadratic step and forces=  49.45 degrees.
 Linear search not attempted -- first point.
 Variable       Old X    -DE/DX   Delta X   Delta X   Delta X     New X
                                 (Linear)    (Quad)   (Total)
    X1        6.56893   0.00337   0.00000  -0.01325  -0.01325   6.55567
    Y1       -6.68801   0.02747   0.00000   0.05915   0.05915  -6.62886
    Z1       -1.46736   0.00188   0.00000   0.01379   0.01379  -1.45357
    X2        6.51399   0.00083   0.00000   0.00174   0.00174   6.51573
    Y2       -6.85482  -0.00365   0.00000  -0.00004  -0.00004  -6.85486
    Z2       -3.53486   0.00655   0.00000   0.02968   0.02968  -3.50519
    X3        8.37996  -0.00716   0.00000  -0.03643  -0.03643   8.34353
    Y3       -7.38774  -0.00316   0.00000   0.00805   0.00805  -7.37969
    Z3       -0.72629  -0.00351   0.00000  -0.00364  -0.00364  -0.72993
    X4        3.06434  -0.00346   0.00000   0.03126   0.03126   3.09560
    Y4       -2.17633   0.01914   0.00000   0.02770   0.02770  -2.14863
    Z4        1.91784   0.01669   0.00000   0.00988   0.00988   1.92772
    X5        1.67207   0.01091   0.00000   0.07020   0.07020   1.74227
    Y5       -3.75099   0.00266   0.00000   0.01025   0.01025  -3.74074
    Z5        1.97447  -0.01122   0.00000  -0.06310  -0.06310   1.91137
    X6        2.54580   0.01803   0.00000   0.05415   0.05415   2.59995
    Y6       -0.56639  -0.01127   0.00000  -0.01329  -0.01329  -0.57968
    Z6        3.93448  -0.00390   0.00000   0.01152   0.01152   3.94600
    X7        0.80605  -0.00325   0.00000   0.02712   0.02712   0.83317
    Y7        0.20871  -0.00373   0.00000  -0.04614  -0.04614   0.16257
    Z7        3.89788  -0.00422   0.00000  -0.02010  -0.02010   3.87778
    X8        5.85163   0.01352   0.00000   0.00949   0.00949   5.86112
    Y8       -3.14795   0.00047   0.00000   0.02779   0.02779  -3.12016
    Z8        2.01243  -0.00432   0.00000  -0.01755  -0.01755   1.99488
    X9        6.17260  -0.00722   0.00000  -0.03790  -0.03790   6.13470
    Y9       -4.69919   0.00298   0.00000   0.00672   0.00672  -4.69247
    Z9        3.38542  -0.01114   0.00000  -0.05986  -0.05986   3.32556
   X10        7.36242  -0.00098   0.00000  -0.01857  -0.01857   7.34385
   Y10       -1.06003   0.00811   0.00000   0.03376   0.03376  -1.02627
   Z10        2.74455   0.00275   0.00000   0.00542   0.00542   2.74997
   X11        9.15576  -0.01014   0.00000  -0.04275  -0.04275   9.11301
   Y11       -1.42180  -0.00642   0.00000  -0.03398  -0.03398  -1.45578
   Z11        2.77082  -0.00217   0.00000  -0.01000  -0.01000   2.76082
   X12        3.14604   0.02480   0.00000   0.03299   0.03299   3.17902
   Y12       -0.79157  -0.02157   0.00000  -0.03915  -0.03915  -0.83072
   Z12       -0.66892  -0.00096   0.00000  -0.00797  -0.00797  -0.67689
   X13        4.32090  -0.00986   0.00000  -0.02710  -0.02710   4.29381
   Y13        0.93316  -0.00588   0.00000  -0.02568  -0.02568   0.90748
   Z13       -0.50278   0.00319   0.00000   0.01277   0.01277  -0.49000
   X14        6.45867  -0.01955   0.00000  -0.04842  -0.04842   6.41024
   Y14       -3.83045   0.00160   0.00000   0.01602   0.01602  -3.81443
   Z14       -0.81478  -0.00178   0.00000   0.00059   0.00059  -0.81419
   X15        8.20123  -0.00536   0.00000  -0.02759  -0.02759   8.17364
   Y15       -2.86986  -0.00667   0.00000  -0.02405  -0.02405  -2.89391
   Z15       -1.47527   0.00992   0.00000   0.05543   0.05543  -1.41984
   X16        4.41592   0.00153   0.00000  -0.00981  -0.00981   4.40611
   Y16       -2.60925  -0.00415   0.00000  -0.02327  -0.02327  -2.63252
   Z16       -2.22581  -0.00052   0.00000  -0.02688  -0.02688  -2.25269
   X17        0.78910   0.00358   0.00000   0.01265   0.01265   0.80174
   Y17       -0.15106   0.00845   0.00000  -0.00328  -0.00328  -0.15434
   Z17       -1.88058   0.00413   0.00000   0.01339   0.01339  -1.86719
   X18       -0.97414   0.00253   0.00000  -0.00057  -0.00057  -0.97471
   Y18       -2.00453   0.00016   0.00000   0.00864   0.00864  -1.99589
   Z18       -2.29086  -0.00193   0.00000   0.00081   0.00081  -2.29005
   X19       -0.33501  -0.00339   0.00000  -0.01842  -0.01842  -0.35344
   Y19       -3.91354   0.00500   0.00000   0.01680   0.01680  -3.89675
   Z19       -1.88228   0.00102   0.00000   0.01246   0.01246  -1.86982
   X20       -3.24094  -0.01117   0.00000  -0.00619  -0.00619  -3.24713
   Y20       -1.43645   0.00039   0.00000   0.00474   0.00474  -1.43171
   Z20       -3.30688   0.00010   0.00000   0.00214   0.00214  -3.30474
   X21       -4.60681   0.00429   0.00000   0.00494   0.00494  -4.60187
   Y21       -2.94546   0.00472   0.00000   0.01438   0.01438  -2.93108
   Z21       -3.61668   0.00067   0.00000   0.00333   0.00333  -3.61335
   X22       -3.88836   0.01792   0.00000   0.02664   0.02664  -3.86171
   Y22        1.14579   0.00155   0.00000  -0.00738  -0.00738   1.13842
   Z22       -3.90047  -0.00590   0.00000  -0.02018  -0.02018  -3.92065
   X23       -5.52352   0.00529   0.00000   0.02006   0.02006  -5.50345
   Y23        1.49723   0.00075   0.00000   0.00782   0.00782   1.50505
   Z23       -5.11395   0.00623   0.00000   0.01942   0.01942  -5.09453
   X24       -5.12800  -0.00504   0.00000  -0.01161  -0.01161  -5.13961
   Y24        2.39663   0.00844   0.00000   0.03288   0.03288   2.42950
   Z24       -1.50486   0.01458   0.00000   0.06291   0.06291  -1.44196
   X25       -1.76375  -0.01938   0.00000  -0.02561  -0.02561  -1.78937
   Y25        2.87793  -0.00311   0.00000  -0.00501  -0.00501   2.87292
   Z25       -3.96369  -0.00119   0.00000   0.00790   0.00790  -3.95578
   X26        0.42645   0.00041   0.00000  -0.01709  -0.01709   0.40937
   Y26        2.24879  -0.00778   0.00000  -0.01550  -0.01550   2.23329
   Z26       -2.77168   0.00046   0.00000   0.00604   0.00604  -2.76564
   X27        2.03356  -0.00608   0.00000  -0.03910  -0.03910   1.99446
   Y27        3.52710  -0.00144   0.00000  -0.00203  -0.00203   3.52507
   Z27       -2.64363   0.00240   0.00000   0.01932   0.01932  -2.62431
   X28       -2.17216  -0.01450   0.00000  -0.02384  -0.02384  -2.19600
   Y28        5.49811  -0.01723   0.00000   0.00131   0.00131   5.49942
   Z28       -4.98891  -0.00647   0.00000   0.02471   0.02471  -4.96420
   X29       -1.45555   0.01905   0.00000   0.06466   0.06466  -1.39089
   Y29        7.37379   0.02219   0.00000   0.00278   0.00278   7.37657
   Z29       -3.97284   0.01554   0.00000   0.01672   0.01672  -3.95611
   X30       -3.70020   0.00452   0.00000   0.01149   0.01149  -3.68871
   Y30        5.65249  -0.00712   0.00000  -0.01591  -0.01591   5.63658
   Z30       -7.08523  -0.00125   0.00000  -0.00873  -0.00873  -7.09396
   X31       -3.69082  -0.00223   0.00000  -0.01078  -0.01078  -3.70160
   Y31        7.38774   0.00054   0.00000  -0.01480  -0.01480   7.37295
   Z31       -7.86928  -0.00198   0.00000  -0.01620  -0.01620  -7.88548
   X32       -3.70500  -0.00205   0.00000  -0.00723  -0.00723  -3.71222
   Y32        4.17626  -0.00056   0.00000  -0.01560  -0.01560   4.16067
   Z32       -8.28250  -0.00241   0.00000  -0.01153  -0.01153  -8.29402
   X33        1.65649  -0.00914   0.00000  -0.01844  -0.01844   1.63804
   Y33        4.01825  -0.01281   0.00000  -0.02187  -0.02187   3.99639
   Z33        7.26668  -0.01212   0.00000  -0.02849  -0.02849   7.23820
   X34       -1.71357   0.01032   0.00000  -0.01323  -0.01323  -1.72680
   Y34        3.81645  -0.05935   0.00000  -0.03237  -0.03237   3.78409
   Z34        3.10481   0.03026   0.00000   0.02027   0.02027   3.12508
   X35       -3.32561  -0.02640   0.00000  -0.01007  -0.01007  -3.33568
   Y35        4.91682   0.01349   0.00000   0.00842   0.00842   4.92524
   Z35        1.40912  -0.03198   0.00000  -0.03254  -0.03254   1.37659
   X36       -7.45164   0.00950   0.00000   0.02541   0.02541  -7.42623
   Y36        5.86880  -0.01177   0.00000  -0.02597  -0.02597   5.84283
   Z36       -0.75690   0.00499   0.00000   0.01426   0.01426  -0.74264
   X37       -5.64770   0.01158   0.00000   0.02150   0.02150  -5.62620
   Y37        3.83585   0.00394   0.00000   0.01470   0.01470   3.85055
   Z37        0.34418   0.00446   0.00000   0.01308   0.01308   0.35726
   X38       -1.69477  -0.01115   0.00000  -0.08237  -0.08237  -1.77714
   Y38        1.46662   0.03278   0.00000   0.00735   0.00735   1.47396
   Z38        3.75387  -0.01405   0.00000  -0.01625  -0.01625   3.73762
   X39        0.45949   0.01344   0.00000   0.02204   0.02204   0.48153
   Y39        5.85659   0.01457   0.00000   0.00866   0.00866   5.86525
   Z39        4.58736   0.00794   0.00000   0.00570   0.00570   4.59306
   X40        0.00524   0.00736   0.00000   0.01566   0.01566   0.02090
   Y40        3.27638   0.00139   0.00000  -0.01056  -0.01056   3.26582
   Z40        8.28250  -0.00152   0.00000  -0.00346  -0.00346   8.27903
   X41        2.80104  -0.00322   0.00000   0.00282   0.00282   2.80387
   Y41        2.46030   0.00534   0.00000  -0.00137  -0.00137   2.45893
   Z41        6.51504   0.00656   0.00000   0.02265   0.02265   6.53769
   X42       -9.15576   0.00319   0.00000   0.02565   0.02565  -9.13011
   Y42        4.98578   0.00374   0.00000   0.00156   0.00156   4.98733
   Z42       -1.53468   0.00034   0.00000   0.00504   0.00504  -1.52964
   X43       -6.45978  -0.00423   0.00000  -0.00582  -0.00582  -6.46560
   Y43        6.93854  -0.00159   0.00000  -0.01024  -0.01024   6.92831
   Z43       -2.23115   0.00269   0.00000   0.01650   0.01650  -2.21465
   X44       -7.97491  -0.00073   0.00000   0.00270   0.00270  -7.97221
   Y44        7.17712  -0.00269   0.00000  -0.01770  -0.01770   7.15942
   Z44        0.76443  -0.00477   0.00000  -0.01216  -0.01216   0.75228
   X45       -6.59658   0.00596   0.00000   0.04001   0.04001  -6.55657
   Y45        2.50221   0.00298   0.00000   0.00711   0.00711   2.50933
   Z45        1.64317  -0.00780   0.00000  -0.01452  -0.01452   1.62866
   X46       -2.86909  -0.00356   0.00000  -0.01521  -0.01521  -2.88430
   Y46        6.86253  -0.00439   0.00000  -0.00106  -0.00106   6.86147
   Z46        0.88912   0.00012   0.00000  -0.01788  -0.01788   0.87124
   X47        4.98262   0.00117   0.00000   0.00267   0.00267   4.98529
   Y47       -7.68617  -0.00117   0.00000   0.01846   0.01846  -7.66771
   Z47       -0.61291  -0.00104   0.00000  -0.00262  -0.00262  -0.61553
   X48        2.80545  -0.00385   0.00000  -0.03640  -0.03640   2.76905
   Y48        5.19721   0.00465   0.00000   0.02263   0.02263   5.21984
   Z48        8.50472  -0.00533   0.00000  -0.04932  -0.04932   8.45540
         Item               Value     Threshold  Converged?
 Maximum Force            0.059349     0.000450     NO 
 RMS     Force            0.011042     0.000300     NO 
 Maximum Displacement     0.082370     0.001800     NO 
 RMS     Displacement     0.025011     0.001200     NO 
 Predicted change in Energy=-1.691262D-02
 GradGradGradGradGradGradGradGradGradGradGradGradGradGradGradGradGradGrad

 Leave Link  103 at Wed Mar  8 15:19:49 2023, MaxMem=  2684354560 cpu:               1.8 elap:               0.1
 (Enter /opt/gaussian/g16/l9999.exe)

 Test job not archived.
 1\1\GINC-JULIO-SYS\Force\RM062X\def2TZVP\C16H24N2O5S1\JVELAZQUEZ\08-Ma
 r-2023\0\\#P M062X/Def2TZVP scf=(direct,conver=8) EmpiricalDispersion=
 GD3 NoSymm Force pop=(NBORead) Charge Prop=(Field,Read)\\Gaussian run 
 using SANDER external interface, route from template gau_job.tpl\\0,1\
 C,3.4761262641,-3.5391409187,-0.7764932024\H,3.4470529074,-3.627414530
 9,-1.870568555\H,4.4344845139,-3.9094260823,-0.3843341042\C,1.62157783
 6,-1.1516640919,1.0148772541\H,0.8848232355,-1.9849380889,1.0448463123
 \O,1.347179761,-0.2997211548,2.0820380327\H,0.4265413846,0.1104451481,
 2.0626682681\C,3.0965492079,-1.6658219666,1.0649347161\H,3.2664016906,
 -2.4867059688,1.7914865675\O,3.8960232671,-0.5609454794,1.4523538974\H
 ,4.8450182733,-0.7523831754,1.4662527756\C,1.6648104367,-0.4188817579,
 -0.3539751119\H,2.2865244435,0.4938091002,-0.2660576012\C,3.4177792355
 ,-2.0269887622,-0.4311617967\H,4.3399025245,-1.5186646865,-0.780678134
 5\O,2.3368040355,-1.3807535874,-1.1778457865\N,0.4175721466,-0.0799361
 766,-0.9951594375\C,-0.5154946776,-1.0607510912,-1.2122710468\H,-0.177
 2814982,-2.0709566146,-0.9960586532\C,-1.7150324048,-0.7601345645,-1.7
 499232632\H,-2.437816829,-1.5586725318,-1.913864535\C,-2.0576307551,0.
 6063273818,-2.0640383442\H,-2.9229201014,0.7922983991,-2.7061871565\H,
 -2.7136183139,1.2682393455,-0.796338734\C,-0.9333386632,1.5229349758,-
 2.0974917898\C,0.2256696755,1.1900085796,-1.4667114718\H,1.0761134421,
 1.8664615905,-1.3989486993\C,-1.1494574957,2.9094744564,-2.6400166039\
 O,-0.7702429105,3.9020405666,-2.10233412\N,-1.9580620175,2.991169584,-
 3.7493396237\H,-1.9530968359,3.9094260823,-4.1642419436\H,-1.960600276
 ,2.2099835386,-4.3829087318\C,0.8765748835,2.1263686401,3.8453620918\C
 ,-0.9067823881,2.0195809127,1.6429955888\C,-1.7598346983,2.6018679432,
 0.7456753467\C,-3.9432367695,3.105633055,-0.4005352237\C,-2.9886321014
 ,2.0298460157,0.1821302699\O,-0.8968355146,0.7760993871,1.9864629593\S
 ,0.243149752,3.0991723044,2.4275270951\H,0.0027733512,1.7337850791,4.3
 829087318\H,1.4822477897,1.3019347901,3.4476093683\H,-4.8450182733,2.6
 383609796,-0.8121201196\H,-3.4183690356,3.6717198583,-1.1806757879\H,-
 4.2201428647,3.7979680139,0.4045200544\H,-3.490761335,1.3241133626,0.8
 69529735\H,-1.5182587091,3.6314970876,0.4705018632\H,2.6366898247,-4.0
 673457631,-0.3243360324\H,1.4845794619,2.7502434706,4.5005037777\\Vers
 ion=ES64L-G16RevA.03\HF=-1507.8399938\RMSD=6.199e-09\RMSF=1.104e-02\Di
 pole=0.3122536,-1.896834,-2.5381017\Quadrupole=9.919789,-10.8457687,0.
 9259797,-5.9131628,9.4906027,-7.0903879\PG=C01 [X(C16H24N2O5S1)]\\@


 The impersonal hand of government can
 never replace the helping hand of a neighbor.
                        -- Hubert H. Humphrey
 Job cpu time:       0 days  7 hours 12 minutes 20.7 seconds.
 Elapsed time:       0 days  0 hours 27 minutes 10.8 seconds.
 File lengths (MBytes):  RWF=    435 Int=      0 D2E=      0 Chk=     48 Scr=      1
 Normal termination of Gaussian 16 at Wed Mar  8 15:19:49 2023.
