 Entering Gaussian System, Link 0=g16
 Initial command:
 /opt/gaussian/g16/l1.exe "/opt/gaussian/scratch16/Gau-2701500.inp" -scrdir="/opt/gaussian/scratch16/"
 Entering Link 1 = /opt/gaussian/g16/l1.exe PID=   2701502.
  
 Copyright (c) 1988,1990,1992,1993,1995,1998,2003,2009,2016,
            Gaussian, Inc.  All Rights Reserved.
  
 This is part of the Gaussian(R) 16 program.  It is based on
 the Gaussian(R) 09 system (copyright 2009, Gaussian, Inc.),
 the Gaussian(R) 03 system (copyright 2003, Gaussian, Inc.),
 the Gaussian(R) 98 system (copyright 1998, Gaussian, Inc.),
 the Gaussian(R) 94 system (copyright 1995, Gaussian, Inc.),
 the Gaussian 92(TM) system (copyright 1992, Gaussian, Inc.),
 the Gaussian 90(TM) system (copyright 1990, Gaussian, Inc.),
 the Gaussian 88(TM) system (copyright 1988, Gaussian, Inc.),
 the Gaussian 86(TM) system (copyright 1986, Carnegie Mellon
 University), and the Gaussian 82(TM) system (copyright 1983,
 Carnegie Mellon University). Gaussian is a federally registered
 trademark of Gaussian, Inc.
  
 This software contains proprietary and confidential information,
 including trade secrets, belonging to Gaussian, Inc.
  
 This software is provided under written license and may be
 used, copied, transmitted, or stored only in accord with that
 written license.
  
 The following legend is applicable only to US Government
 contracts under FAR:
  
                    RESTRICTED RIGHTS LEGEND
  
 Use, reproduction and disclosure by the US Government is
 subject to restrictions as set forth in subparagraphs (a)
 and (c) of the Commercial Computer Software - Restricted
 Rights clause in FAR 52.227-19.
  
 Gaussian, Inc.
 340 Quinnipiac St., Bldg. 40, Wallingford CT 06492
  
  
 ---------------------------------------------------------------
 Warning -- This program may not be used in any manner that
 competes with the business of Gaussian, Inc. or will provide
 assistance to any competitor of Gaussian, Inc.  The licensee
 of this program is prohibited from giving any competitor of
 Gaussian, Inc. access to this program.  By using this program,
 the user acknowledges that Gaussian, Inc. is engaged in the
 business of creating and licensing software in the field of
 computational chemistry and represents and warrants to the
 licensee that it is not a competitor of Gaussian, Inc. and that
 it will not use this program in any manner prohibited above.
 ---------------------------------------------------------------
  

 Cite this work as:
 Gaussian 16, Revision A.03,
 M. J. Frisch, G. W. Trucks, H. B. Schlegel, G. E. Scuseria, 
 M. A. Robb, J. R. Cheeseman, G. Scalmani, V. Barone, 
 G. A. Petersson, H. Nakatsuji, X. Li, M. Caricato, A. V. Marenich, 
 J. Bloino, B. G. Janesko, R. Gomperts, B. Mennucci, H. P. Hratchian, 
 J. V. Ortiz, A. F. Izmaylov, J. L. Sonnenberg, D. Williams-Young, 
 F. Ding, F. Lipparini, F. Egidi, J. Goings, B. Peng, A. Petrone, 
 T. Henderson, D. Ranasinghe, V. G. Zakrzewski, J. Gao, N. Rega, 
 G. Zheng, W. Liang, M. Hada, M. Ehara, K. Toyota, R. Fukuda, 
 J. Hasegawa, M. Ishida, T. Nakajima, Y. Honda, O. Kitao, H. Nakai, 
 T. Vreven, K. Throssell, J. A. Montgomery, Jr., J. E. Peralta, 
 F. Ogliaro, M. J. Bearpark, J. J. Heyd, E. N. Brothers, K. N. Kudin, 
 V. N. Staroverov, T. A. Keith, R. Kobayashi, J. Normand, 
 K. Raghavachari, A. P. Rendell, J. C. Burant, S. S. Iyengar, 
 J. Tomasi, M. Cossi, J. M. Millam, M. Klene, C. Adamo, R. Cammi, 
 J. W. Ochterski, R. L. Martin, K. Morokuma, O. Farkas, 
 J. B. Foresman, and D. J. Fox, Gaussian, Inc., Wallingford CT, 2016.
 
 ******************************************
 Gaussian 16:  ES64L-G16RevA.03 25-Dec-2016
                 8-Mar-2023 
 ******************************************
 %chk=23.chk
 %NProcShared=16
 Will use up to   16 processors via shared memory.
 %mem=20GB
 ----------------------------------------------------------------------
 #P M062X/Def2TZVP scf=(direct,conver=8) EmpiricalDispersion=GD3 NoSymm
  Force pop=(NBORead) Charge Prop=(Field,Read)
 ----------------------------------------------------------------------
 1/10=7,18=10,28=-2,30=1,38=1,125=101/1,3;
 2/12=2,15=1,17=6,18=5,29=2,40=1/2;
 3/5=44,7=101,11=2,25=1,30=1,71=1,74=-55,124=31/1,2,3;
 4//1;
 5/5=2,6=8,38=5/2;
 6/7=2,8=2,9=2,10=2,14=2,15=1,28=1,40=2/1,2,7;
 7/7=1,16=-2,29=1,30=1/1,2,3,16;
 1/10=7,18=10,28=-2,30=1/3;
 99/12=1/99;
 Leave Link    1 at Wed Mar  8 14:54:54 2023, MaxMem=  2684354560 cpu:               1.5 elap:               0.1
 (Enter /opt/gaussian/g16/l101.exe)
 ----------------------------------------------------------------------
 Gaussian run using SANDER external interface, route from template gau_
 job.tpl
 ----------------------------------------------------------------------
 Symbolic Z-matrix:
 Charge =  0 Multiplicity = 1
 C                     3.47745  -3.53709  -0.76853 
 H                     3.44969  -3.62689  -1.86278 
 H                     4.43613  -3.9059   -0.37603 
 C                     1.621    -1.14618   1.02507 
 H                     0.88363  -1.97893   1.05855 
 O                     1.35134  -0.29291   2.08799 
 H                     0.42581   0.13106   2.06168 
 C                     3.09679  -1.66143   1.07296 
 H                     3.26761  -2.48197   1.79918 
 O                     3.89831  -0.55643   1.45658 
 H                     4.84678  -0.74999   1.4754 
 C                     1.66534  -0.41818  -0.34837 
 H                     2.28391   0.49722  -0.2577 
 C                     3.41852  -2.02566  -0.4218 
 H                     4.33846  -1.51583  -0.77451 
 O                     2.33678  -1.37857  -1.16903 
 N                     0.41985  -0.08876  -1.00787 
 C                    -0.49713  -1.0752   -1.23563 
 H                    -0.16578  -2.08141  -0.98108 
 C                    -1.69547  -0.78339  -1.78794 
 H                    -2.4147   -1.58779  -1.9464 
 C                    -2.03582   0.57096  -2.11509 
 H                    -2.92356   0.76602  -2.72038 
 H                    -2.7232    1.27021  -0.7767 
 C                    -0.93514   1.50099  -2.11789 
 C                     0.22075   1.17785  -1.46908 
 H                     1.04776   1.88028  -1.35069 
 C                    -1.15134   2.8949   -2.64772 
 O                    -0.77382   3.88008  -2.09421 
 N                    -1.95697   2.98675  -3.75608 
 H                    -1.94906   3.9059   -4.16816 
 H                    -1.96154   2.20697  -4.39155 
 C                     0.88338   2.12491   3.85488 
 C                    -0.90109   2.01786   1.63567 
 C                    -1.76474   2.60962   0.7651 
 C                    -3.93442   3.12863  -0.39173 
 C                    -2.998     2.03561   0.17871 
 O                    -0.87277   0.76503   1.95547 
 S                     0.26193   3.09581   2.42989 
 H                     0.00618   1.73903   4.39155 
 H                     1.48738   1.29717   3.46164 
 H                    -4.84678   2.68377  -0.80135 
 H                    -3.40752   3.68944  -1.17158 
 H                    -4.20164   3.82237   0.41344 
 H                    -3.5161    1.36984   0.88874 
 H                    -1.54626   3.65202   0.53794 
 H                     2.63853  -4.06629  -0.31658 
 H                     1.4914    2.74868   4.51011 
 
 ITRead=  0  0  0  0  0  0  0  0  0  0  0  0  0  0  0  0  0  0  0  0
 ITRead=  0  0  0  0  0  0  0  0  0  0  0  0  0  0  0  0  0  0  0  0
 ITRead=  0  0  0  0  0  0  0  0
 MicOpt= -1 -1 -1 -1 -1 -1 -1 -1 -1 -1 -1 -1 -1 -1 -1 -1 -1 -1 -1 -1
 MicOpt= -1 -1 -1 -1 -1 -1 -1 -1 -1 -1 -1 -1 -1 -1 -1 -1 -1 -1 -1 -1
 MicOpt= -1 -1 -1 -1 -1 -1 -1 -1
 NAtoms=     48 NQM=       48 NQMF=       0 NMMI=      0 NMMIF=      0
                NMic=       0 NMicF=      0.
                    Isotopes and Nuclear Properties:
 (Nuclear quadrupole moments (NQMom) in fm**2, nuclear magnetic moments (NMagM)
  in nuclear magnetons)

  Atom         1           2           3           4           5           6           7           8           9          10
 IAtWgt=          12           1           1          12           1          16           1          12           1          16
 AtmWgt=  12.0000000   1.0078250   1.0078250  12.0000000   1.0078250  15.9949146   1.0078250  12.0000000   1.0078250  15.9949146
 NucSpn=           0           1           1           0           1           0           1           0           1           0
 AtZEff=  -0.0000000  -0.0000000  -0.0000000  -0.0000000  -0.0000000  -0.0000000  -0.0000000  -0.0000000  -0.0000000  -0.0000000
 NQMom=    0.0000000   0.0000000   0.0000000   0.0000000   0.0000000   0.0000000   0.0000000   0.0000000   0.0000000   0.0000000
 NMagM=    0.0000000   2.7928460   2.7928460   0.0000000   2.7928460   0.0000000   2.7928460   0.0000000   2.7928460   0.0000000
 AtZNuc=   6.0000000   1.0000000   1.0000000   6.0000000   1.0000000   8.0000000   1.0000000   6.0000000   1.0000000   8.0000000

  Atom        11          12          13          14          15          16          17          18          19          20
 IAtWgt=           1          12           1          12           1          16          14          12           1          12
 AtmWgt=   1.0078250  12.0000000   1.0078250  12.0000000   1.0078250  15.9949146  14.0030740  12.0000000   1.0078250  12.0000000
 NucSpn=           1           0           1           0           1           0           2           0           1           0
 AtZEff=  -0.0000000  -0.0000000  -0.0000000  -0.0000000  -0.0000000  -0.0000000  -0.0000000  -0.0000000  -0.0000000  -0.0000000
 NQMom=    0.0000000   0.0000000   0.0000000   0.0000000   0.0000000   0.0000000   2.0440000   0.0000000   0.0000000   0.0000000
 NMagM=    2.7928460   0.0000000   2.7928460   0.0000000   2.7928460   0.0000000   0.4037610   0.0000000   2.7928460   0.0000000
 AtZNuc=   1.0000000   6.0000000   1.0000000   6.0000000   1.0000000   8.0000000   7.0000000   6.0000000   1.0000000   6.0000000

  Atom        21          22          23          24          25          26          27          28          29          30
 IAtWgt=           1          12           1           1          12          12           1          12          16          14
 AtmWgt=   1.0078250  12.0000000   1.0078250   1.0078250  12.0000000  12.0000000   1.0078250  12.0000000  15.9949146  14.0030740
 NucSpn=           1           0           1           1           0           0           1           0           0           2
 AtZEff=  -0.0000000  -0.0000000  -0.0000000  -0.0000000  -0.0000000  -0.0000000  -0.0000000  -0.0000000  -0.0000000  -0.0000000
 NQMom=    0.0000000   0.0000000   0.0000000   0.0000000   0.0000000   0.0000000   0.0000000   0.0000000   0.0000000   2.0440000
 NMagM=    2.7928460   0.0000000   2.7928460   2.7928460   0.0000000   0.0000000   2.7928460   0.0000000   0.0000000   0.4037610
 AtZNuc=   1.0000000   6.0000000   1.0000000   1.0000000   6.0000000   6.0000000   1.0000000   6.0000000   8.0000000   7.0000000

  Atom        31          32          33          34          35          36          37          38          39          40
 IAtWgt=           1           1          12          12          12          12          12          16          32           1
 AtmWgt=   1.0078250   1.0078250  12.0000000  12.0000000  12.0000000  12.0000000  12.0000000  15.9949146  31.9720718   1.0078250
 NucSpn=           1           1           0           0           0           0           0           0           0           1
 AtZEff=  -0.0000000  -0.0000000  -0.0000000  -0.0000000  -0.0000000  -0.0000000  -0.0000000  -0.0000000  -0.0000000  -0.0000000
 NQMom=    0.0000000   0.0000000   0.0000000   0.0000000   0.0000000   0.0000000   0.0000000   0.0000000   0.0000000   0.0000000
 NMagM=    2.7928460   2.7928460   0.0000000   0.0000000   0.0000000   0.0000000   0.0000000   0.0000000   0.0000000   2.7928460
 AtZNuc=   1.0000000   1.0000000   6.0000000   6.0000000   6.0000000   6.0000000   6.0000000   8.0000000  16.0000000   1.0000000

  Atom        41          42          43          44          45          46          47          48
 IAtWgt=           1           1           1           1           1           1           1           1
 AtmWgt=   1.0078250   1.0078250   1.0078250   1.0078250   1.0078250   1.0078250   1.0078250   1.0078250
 NucSpn=           1           1           1           1           1           1           1           1
 AtZEff=  -0.0000000  -0.0000000  -0.0000000  -0.0000000  -0.0000000  -0.0000000  -0.0000000  -0.0000000
 NQMom=    0.0000000   0.0000000   0.0000000   0.0000000   0.0000000   0.0000000   0.0000000   0.0000000
 NMagM=    2.7928460   2.7928460   2.7928460   2.7928460   2.7928460   2.7928460   2.7928460   2.7928460
 AtZNuc=   1.0000000   1.0000000   1.0000000   1.0000000   1.0000000   1.0000000   1.0000000   1.0000000
 Background charge distribution read from input stream:
 Leave Link  101 at Wed Mar  8 14:54:54 2023, MaxMem=  2684354560 cpu:               3.8 elap:               0.2
 (Enter /opt/gaussian/g16/l103.exe)

 GradGradGradGradGradGradGradGradGradGradGradGradGradGradGradGradGradGrad
 Berny optimization.
 Initialization pass.
 Trust Radius=3.00D-01 FncErr=1.00D-07 GrdErr=1.00D-07 EigMax=2.50D+02 EigMin=1.00D-04
 Number of steps in this run=      2 maximum allowed number of steps=      2.
 GradGradGradGradGradGradGradGradGradGradGradGradGradGradGradGradGradGrad

 Leave Link  103 at Wed Mar  8 14:54:54 2023, MaxMem=  2684354560 cpu:               0.4 elap:               0.0
 (Enter /opt/gaussian/g16/l202.exe)
 ---------------------------------------------------------------------------------------------------
                            Z-MATRIX (ANGSTROMS AND DEGREES)
   CD    Cent   Atom    N1       Length/X        N2       Alpha/Y        N3        Beta/Z          J
 ---------------------------------------------------------------------------------------------------
      1      1  C        0   3.477453         -3.537085         -0.768527
      2      2  H        0   3.449691         -3.626892         -1.862779
      3      3  H        0   4.436133         -3.905900         -0.376031
      4      4  C        0   1.621003         -1.146179          1.025071
      5      5  H        0   0.883632         -1.978934          1.058552
      6      6  O        0   1.351342         -0.292910          2.087991
      7      7  H        0   0.425811          0.131058          2.061681
      8      8  C        0   3.096795         -1.661433          1.072960
      9      9  H        0   3.267608         -2.481972          1.799184
     10     10  O        0   3.898312         -0.556429          1.456575
     11     11  H        0   4.846781         -0.749985          1.475398
     12     12  C        0   1.665339         -0.418182         -0.348374
     13     13  H        0   2.283914          0.497223         -0.257702
     14     14  C        0   3.418522         -2.025659         -0.421796
     15     15  H        0   4.338456         -1.515827         -0.774506
     16     16  O        0   2.336776         -1.378567         -1.169028
     17     17  N        0   0.419850         -0.088764         -1.007868
     18     18  C        0  -0.497134         -1.075201         -1.235632
     19     19  H        0  -0.165776         -2.081405         -0.981079
     20     20  C        0  -1.695473         -0.783391         -1.787939
     21     21  H        0  -2.414701         -1.587788         -1.946400
     22     22  C        0  -2.035817          0.570964         -2.115094
     23     23  H        0  -2.923562          0.766022         -2.720385
     24     24  H        0  -2.723201          1.270211         -0.776698
     25     25  C        0  -0.935135          1.500994         -2.117895
     26     26  C        0   0.220751          1.177854         -1.469076
     27     27  H        0   1.047757          1.880279         -1.350694
     28     28  C        0  -1.151340          2.894903         -2.647723
     29     29  O        0  -0.773816          3.880082         -2.094207
     30     30  N        0  -1.956965          2.986746         -3.756081
     31     31  H        0  -1.949062          3.905900         -4.168165
     32     32  H        0  -1.961539          2.206970         -4.391555
     33     33  C        0   0.883382          2.124908          3.854883
     34     34  C        0  -0.901086          2.017862          1.635665
     35     35  C        0  -1.764740          2.609617          0.765104
     36     36  C        0  -3.934419          3.128627         -0.391726
     37     37  C        0  -2.997995          2.035612          0.178709
     38     38  O        0  -0.872765          0.765026          1.955474
     39     39  S        0   0.261928          3.095808          2.429892
     40     40  H        0   0.006182          1.739032          4.391555
     41     41  H        0   1.487376          1.297165          3.461637
     42     42  H        0  -4.846781          2.683770         -0.801347
     43     43  H        0  -3.407525          3.689436         -1.171578
     44     44  H        0  -4.201642          3.822370          0.413439
     45     45  H        0  -3.516096          1.369841          0.888743
     46     46  H        0  -1.546263          3.652023          0.537941
     47     47  H        0   2.638535         -4.066294         -0.316582
     48     48  H        0   1.491402          2.748675          4.510113
 ---------------------------------------------------------------------------------------------------
                         Z-Matrix orientation:                         
 ---------------------------------------------------------------------
 Center     Atomic      Atomic             Coordinates (Angstroms)
 Number     Number       Type             X           Y           Z
 ---------------------------------------------------------------------
      1          6           0        3.477453   -3.537085   -0.768527
      2          1           0        3.449691   -3.626892   -1.862779
      3          1           0        4.436133   -3.905900   -0.376031
      4          6           0        1.621003   -1.146179    1.025071
      5          1           0        0.883632   -1.978934    1.058552
      6          8           0        1.351342   -0.292910    2.087991
      7          1           0        0.425811    0.131058    2.061681
      8          6           0        3.096795   -1.661433    1.072960
      9          1           0        3.267608   -2.481972    1.799184
     10          8           0        3.898312   -0.556429    1.456575
     11          1           0        4.846781   -0.749985    1.475398
     12          6           0        1.665339   -0.418182   -0.348374
     13          1           0        2.283914    0.497223   -0.257702
     14          6           0        3.418522   -2.025659   -0.421796
     15          1           0        4.338456   -1.515827   -0.774506
     16          8           0        2.336776   -1.378567   -1.169028
     17          7           0        0.419850   -0.088764   -1.007868
     18          6           0       -0.497134   -1.075201   -1.235632
     19          1           0       -0.165776   -2.081405   -0.981079
     20          6           0       -1.695473   -0.783391   -1.787939
     21          1           0       -2.414701   -1.587788   -1.946400
     22          6           0       -2.035817    0.570964   -2.115094
     23          1           0       -2.923562    0.766022   -2.720385
     24          1           0       -2.723201    1.270211   -0.776698
     25          6           0       -0.935135    1.500994   -2.117895
     26          6           0        0.220751    1.177854   -1.469076
     27          1           0        1.047757    1.880279   -1.350694
     28          6           0       -1.151340    2.894903   -2.647723
     29          8           0       -0.773816    3.880082   -2.094207
     30          7           0       -1.956965    2.986746   -3.756081
     31          1           0       -1.949062    3.905900   -4.168165
     32          1           0       -1.961539    2.206970   -4.391555
     33          6           0        0.883382    2.124908    3.854883
     34          6           0       -0.901086    2.017862    1.635665
     35          6           0       -1.764740    2.609617    0.765104
     36          6           0       -3.934419    3.128627   -0.391726
     37          6           0       -2.997995    2.035612    0.178709
     38          8           0       -0.872765    0.765026    1.955474
     39         16           0        0.261928    3.095808    2.429892
     40          1           0        0.006182    1.739032    4.391555
     41          1           0        1.487376    1.297165    3.461637
     42          1           0       -4.846781    2.683770   -0.801347
     43          1           0       -3.407525    3.689436   -1.171578
     44          1           0       -4.201642    3.822370    0.413439
     45          1           0       -3.516096    1.369841    0.888743
     46          1           0       -1.546263    3.652023    0.537941
     47          1           0        2.638535   -4.066294   -0.316582
     48          1           0        1.491402    2.748675    4.510113
 ---------------------------------------------------------------------
                    Distance matrix (angstroms):
                    1          2          3          4          5
     1  C    0.000000
     2  H    1.098282   0.000000
     3  H    1.099611   1.805916   0.000000
     4  C    3.518499   4.223472   4.183791   0.000000
     5  H    3.534680   4.223103   4.288530   1.112797   0.000000
     6  O    4.817127   5.579165   5.351732   1.389455   2.030067
     7  H    5.547781   6.218314   6.190490   2.033318   2.380743
     8  C    2.655945   3.550510   2.988483   1.563887   2.235868
     9  H    2.783961   3.841089   2.850365   2.257190   2.546552
    10  O    3.743329   4.543909   3.855730   2.391681   3.357117
    11  H    3.831212   4.622972   3.681877   3.281069   4.170207
    12  C    3.631507   3.971543   4.454463   1.555087   2.241976
    13  H    4.238056   4.576421   4.902401   2.187630   3.134432
    14  C    1.551807   2.154379   2.138442   2.469410   2.935861
    15  H    2.197009   2.535909   2.425030   3.280194   3.938322
    16  O    2.474014   2.602851   3.379875   2.319570   2.726569
    17  N    4.614882   4.735943   5.576762   2.587224   2.838649
    18  C    4.698554   4.741505   5.752295   3.098761   2.826045
    19  H    3.929033   4.029582   4.987227   2.844620   2.296052
    20  C    5.948210   5.879099   7.024254   4.363903   4.022887
    21  H    6.317011   6.209351   7.400921   5.031060   4.479033
    22  C    7.006101   6.912051   8.059329   5.116790   5.009710
    23  H    7.956097   7.787910   9.027069   6.191770   6.025768
    24  H    7.845908   7.953979   8.843569   5.287477   5.189829
    25  C    6.831836   6.751815   7.817872   4.839380   5.050508
    26  C    5.773001   5.802296   6.693934   3.685458   4.098003
    27  H    5.965751   6.029963   6.775761   3.890028   4.552464
    28  C    8.144174   8.019940   9.090179   6.124184   6.452276
    29  O    8.651305   8.616625   9.524558   6.381876   6.856755
    30  N    9.001042   8.749670   9.990246   7.262392   7.477143
    31  H    9.818484   9.550094  10.778460   8.077039   8.365046
    32  H    8.700755   8.349255   9.717089   7.308764   7.437772
    33  C    7.756501   8.506516   8.178834   4.387703   4.965983
    34  C    7.470554   7.939245   8.223368   4.092054   4.415049
    35  C    8.222807   8.543424   9.066696   5.063283   5.306108
    36  C    9.975447  10.115637  10.933936   7.151502   7.169665
    37  C    8.595560   8.820674   9.532868   5.672324   5.653118
    38  O    6.697219   7.249250   7.445661   3.276771   3.379159
    39  S    8.035220   8.589735   8.620969   4.670659   5.293401
    40  H    8.155586   8.931270   8.615080   4.718613   5.069724
    41  H    6.724929   7.513083   7.105966   3.453207   4.107572
    42  H   10.391968  10.477717  11.391977   7.735408   7.618246
    43  H    9.989393  10.051260  10.947374   7.313995   7.451035
    44  H   10.701735  10.918588  11.617254   7.678786   7.741531
    45  H    8.702540   9.003355   9.626580   5.721776   5.531793
    46  H    8.867235   9.149077   9.682283   5.769888   6.154925
    47  H    1.090000   1.800492   1.805719   3.370827   3.054136
    48  H    8.445071   9.224777   8.765228   5.228022   5.884977
                    6          7          8          9         10
     6  O    0.000000
     7  H    1.018357   0.000000
     8  C    2.439211   3.365227   0.000000
     9  H    2.923607   3.869450   1.108991   0.000000
    10  O    2.637268   3.591247   1.417964   2.054965   0.000000
    11  H    3.578028   4.545872   2.013739   2.366094   0.968201
    12  C    2.459708   2.765224   2.369584   3.382085   2.874564
    13  H    2.645048   2.994355   2.662937   3.751537   2.579769
    14  C    3.684383   4.446955   1.571771   2.272388   2.432511
    15  H    4.314193   5.105388   2.230707   2.950259   2.468176
    16  O    3.571821   4.045768   2.384146   3.300642   3.163558
    17  N    3.239397   3.077416   3.737535   4.660119   4.288576
    18  C    3.882694   3.630312   4.311565   5.036110   5.180448
    19  H    3.862584   3.808328   3.878121   4.436039   4.978405
    20  C    4.954442   4.489503   5.649914   6.354904   6.470611
    21  H    5.668871   5.204580   6.284787   6.864227   7.245555
    22  C    5.466722   4.868119   6.441350   7.264180   7.017244
    23  H    6.520478   5.872788   7.518424   8.325056   8.107641
    24  H    5.220316   4.389800   6.774077   7.523552   7.222780
    25  C    5.112294   4.604102   6.036469   6.990749   6.353899
    26  C    4.011747   3.688371   4.774425   5.775742   5.009155
    27  H    4.079151   3.884700   4.755668   5.820542   4.684439
    28  C    6.233182   5.683725   7.256055   8.259108   7.365863
    29  O    6.278610   5.724132   7.464648   8.483356   7.356593
    30  N    7.473569   6.904993   8.394385   9.384243   8.602915
    31  H    8.225701   7.661621   9.161073  10.179774   9.259690
    32  H    7.694745   7.187009   8.391198   9.362446   8.727820
    33  C    3.030964   2.720364   5.193715   5.579765   4.693747
    34  C    3.258481   2.345671   5.462316   6.136225   5.449153
    35  C    4.459222   3.552869   6.478516   7.233127   6.524733
    36  C    6.767214   5.832343   8.632957   9.388722   8.851413
    37  C    5.290002   4.346879   7.184309   7.892547   7.477344
    38  O    2.466464   1.448963   4.735392   5.264040   4.975773
    39  S    3.575910   2.992019   5.701673   6.367381   5.244947
    40  H    3.353305   2.861814   5.668168   5.930781   5.388128
    41  H    2.105647   2.108697   4.129081   4.496093   3.642623
    42  H    7.458260   6.520237   9.246309   9.964486   9.595507
    43  H    7.009329   6.149023   8.716417   9.563948   8.849283
    44  H    7.111631   6.144575   9.152827   9.871915   9.266675
    45  H    5.281562   4.295229   7.276873   7.853917   7.681562
    46  H    5.134323   4.313705   7.076514   7.898733   6.942503
    47  H    4.655884   5.307546   2.814992   2.717034   4.129197
    48  H    3.890699   3.739281   5.817248   6.153350   5.103041
                   11         12         13         14         15
    11  H    0.000000
    12  C    3.682094   0.000000
    13  H    3.335784   1.108522   0.000000
    14  C    2.695665   2.379711   2.771135   0.000000
    15  H    2.430426   2.920954   2.922430   1.109330   0.000000
    16  O    3.699761   1.430608   2.086120   1.465353   2.044802
    17  N    5.118744   1.447304   2.093051   3.617606   4.176894
    18  C    6.001073   2.428001   3.341121   4.110725   4.877471
    19  H    5.738701   2.553353   3.629542   3.628098   4.544300
    20  C    7.311058   3.674341   4.451642   5.437143   6.162127
    21  H    8.070920   4.535239   5.410726   6.045051   6.854462
    22  C    7.874433   4.218799   4.702703   6.273716   6.839827
    23  H    8.959973   5.299697   5.766703   7.300618   7.856857
    24  H    8.152163   4.721590   5.092942   6.979217   7.591377
    25  C    7.170022   3.684685   3.850993   5.853919   6.222272
    26  C    5.812629   2.426961   2.487434   4.645969   4.969290
    27  H    5.416426   2.582436   2.153035   4.662588   4.763846
    28  C    8.140196   4.919066   4.823073   7.074625   7.287067
    29  O    8.109915   5.241420   4.915913   7.433063   7.549356
    30  N    9.360689   6.027196   6.035018   8.070782   8.294292
    31  H    9.985517   6.808258   6.695437   8.833438   8.969110
    32  H    9.461392   6.032659   6.167320   7.913228   8.162855
    33  C    5.443850   4.974549   4.639419   6.476429   6.828158
    34  C    6.381586   4.056754   4.005172   6.264361   6.763777
    35  C    7.450078   4.708805   4.679737   7.054128   7.525868
    36  C    9.779532   6.628651   6.753511   8.979604   9.495153
    37  C    8.425051   5.295811   5.518665   7.617494   8.206392
    38  O    5.936240   3.626247   3.864516   5.643977   6.309668
    39  S    6.059874   4.694300   4.250204   6.657750   6.939267
    40  H    6.174997   5.465647   5.324072   6.998950   7.486714
    41  H    4.406992   4.182137   3.886883   5.463656   5.829793
    42  H   10.532777   7.227379   7.478192   9.520400  10.099798
    43  H    9.739020   6.579068   6.589224   8.934170   9.340913
    44  H   10.193535   7.279018   7.319117   9.641782  10.141047
    45  H    8.647286   5.619142   5.976279   7.831721   8.531557
    46  H    7.818409   5.259896   5.025541   7.603042   7.940976
    47  H    4.368689   3.775823   4.577652   2.187154   3.099082
    48  H    5.719152   5.802081   5.331902   7.129641   7.363348
                   16         17         18         19         20
    16  O    0.000000
    17  N    2.316067   0.000000
    18  C    2.850879   1.365941   0.000000
    19  H    2.606160   2.077088   1.089515   0.000000
    20  C    4.122659   2.359155   1.351374   2.162368   0.000000
    21  H    4.819192   3.341047   2.108317   2.496631   1.090621
    22  C    4.880090   2.773354   2.418854   3.437747   1.434274
    23  H    5.888729   3.852503   3.388532   4.328789   2.185941
    24  H    5.724797   3.432058   3.266029   4.220844   2.509206
    25  C    4.460675   2.365476   2.758081   3.836385   2.430103
    26  C    3.332099   1.362599   2.376155   3.318180   2.760448
    27  H    3.509224   2.094977   3.336883   4.159835   3.848589
    28  C    5.711045   3.749671   4.264236   5.339727   3.816432
    29  O    6.179411   4.284473   5.036718   6.094924   4.763531
    30  N    6.647181   4.760325   4.998318   6.049393   4.260974
    31  H    7.435645   5.617523   5.959799   7.013234   5.264906
    32  H    6.458813   4.731886   4.782988   5.765958   3.973898
    33  C    6.294949   5.362980   6.169268   6.494639   6.852018
    34  C    5.466789   3.629189   4.239642   4.918539   4.494345
    35  C    6.038949   3.898349   4.380371   5.254667   4.246802
    36  C    7.761886   5.448935   5.495386   6.457123   4.718705
    37  C    6.475554   4.195546   4.234599   5.129952   3.675738
    38  O    4.965748   3.343831   3.702795   4.150343   4.133713
    39  S    6.105510   4.688777   5.604423   6.214595   6.055552
    40  H    6.787575   5.715393   6.311772   6.594733   6.887989
    41  H    5.415172   4.799675   5.624121   5.821115   6.482075
    42  H    8.260827   5.955418   5.765232   6.682141   4.788039
    43  H    7.660395   5.380557   5.583569   6.621769   4.828789
    44  H    8.503226   6.218945   6.358381   7.286114   5.686826
    45  H    6.785593   4.606119   4.427791   5.160618   3.887892
    46  H    6.580164   4.499846   5.156828   6.089775   5.010477
    47  H    2.835771   4.606645   4.429866   3.499357   5.632581
    48  H    7.071169   6.296618   7.182611   7.498607   7.892853
                   21         22         23         24         25
    21  H    0.000000
    22  C    2.198231   0.000000
    23  H    2.529509   1.092024   0.000000
    24  H    3.103470   1.659140   2.017986   0.000000
    25  C    3.429155   1.440994   2.203865   2.247053   0.000000
    26  C    3.849964   2.424408   3.409118   3.025684   1.364352
    27  H    4.936697   3.436138   4.346148   3.862872   2.159703
    28  C    4.709825   2.542968   2.770954   2.934468   1.506799
    29  O    5.710687   3.541658   3.835476   3.513880   2.384668
    30  N    4.940732   2.921482   2.634121   3.522830   2.436237
    31  H    5.944213   3.917196   3.592290   4.364424   3.318919
    32  H    4.536995   2.804337   2.407203   3.811146   2.592573
    33  C    7.636514   6.824741   7.718390   5.932073   6.274580
    34  C    5.303106   4.177239   4.963133   3.114255   3.789132
    35  C    5.039138   3.539086   4.109786   2.256061   3.198276
    36  C    5.193373   3.621647   3.467908   2.251436   3.824206
    37  C    4.240914   2.886610   3.165777   1.254653   3.132985
    38  O    4.810189   4.237909   5.105823   3.338276   4.139791
    39  S    6.946391   5.684309   6.488498   4.746158   4.965758
    40  H    7.556327   6.918860   7.753053   5.863460   6.581464
    41  H    7.266087   6.636278   7.612876   5.974376   6.086155
    42  H    5.047016   3.753852   3.325543   2.551147   4.293394
    43  H    5.425416   3.535063   3.343556   2.544971   3.434749
    44  H    6.166993   4.653593   4.560220   3.180524   4.739884
    45  H    4.242485   3.442742   3.706953   1.847243   3.964648
    46  H    5.863595   4.095263   4.565374   2.964201   3.471867
    47  H    5.859564   6.825567   7.750256   7.578799   6.856423
    48  H    8.703397   7.815182   8.700743   6.920918   7.167655
                   26         27         28         29         30
    26  C    0.000000
    27  H    1.091492   0.000000
    28  C    2.494012   2.747321   0.000000
    29  O    2.946521   2.805379   1.191419   0.000000
    30  N    3.639358   4.004811   1.373290   2.227042   0.000000
    31  H    4.408560   4.584998   1.992541   2.383940   1.007333
    32  H    3.789769   4.290621   2.042211   3.080226   1.005931
    33  C    5.447985   5.213913   6.856885   6.420172   8.169279
    34  C    3.406398   3.568649   4.379411   4.170852   5.578938
    35  C    3.314163   3.594256   3.479229   3.282022   4.540957
    36  C    4.715043   5.224947   3.590220   3.667770   3.905041
    37  C    3.716352   4.327969   3.483853   3.676301   4.179829
    38  O    3.618528   3.982831   5.079705   5.110115   6.223616
    39  S    4.345364   4.048192   5.274453   4.706944   6.572796
    40  H    5.891346   5.837657   7.226847   6.874416   8.473176
    41  H    5.092201   4.867424   6.843965   6.530838   8.173960
    42  H    5.328558   5.974359   4.136420   4.437532   4.144066
    43  H    4.422774   4.811930   2.810810   2.797143   3.045908
    44  H    5.485881   5.868567   4.419870   4.247542   4.808508
    45  H    4.422691   5.109245   4.519345   4.766487   5.159425
    46  H    3.643070   3.665372   3.298128   2.752615   4.364618
    47  H    5.888549   6.241930   8.261696   8.828871   9.093632
    48  H    6.311318   5.941380   7.631519   7.073071   8.959793
                   31         32         33         34         35
    31  H    0.000000
    32  H    1.713599   0.000000
    33  C    8.692754   8.723763   0.000000
    34  C    6.192526   6.122720   2.849686   0.000000
    35  C    5.104064   5.176097   4.098076   1.361598   0.000000
    36  C    4.336737   4.554156   6.500180   3.813820   2.512992
    37  C    4.847014   4.689447   5.346711   2.553442   1.481303
    38  O    6.965806   6.599197   2.922514   1.293321   2.369624
    39  S    7.005646   7.229521   1.832881   1.773518   2.667449
    40  H    9.043621   9.012985   1.098361   2.914757   4.128586
    41  H    8.765185   8.625275   1.097547   3.091654   4.423808
    42  H    4.607151   4.630502   7.404565   4.685187   3.458070
    43  H    3.339686   3.828424   6.791535   4.117889   2.759617
    44  H    5.106094   5.542161   6.370430   3.955219   2.744618
    45  H    5.870222   5.567673   5.359433   2.795729   2.149320
    46  H    4.730130   5.153693   4.386041   2.071650   1.089011
    47  H    9.971790   8.781794   7.668942   7.304597   8.070109
    48  H    9.406831   9.563260   1.090000   3.810582   4.964564
                   36         37         38         39         40
    36  C    0.000000
    37  C    1.548213   0.000000
    38  O    4.524343   3.047604   0.000000
    39  S    5.056869   4.101090   2.635365   0.000000
    40  H    6.351305   5.182770   2.766898   2.398826   0.000000
    41  H    6.899167   5.607270   2.849906   2.408596   1.803865
    42  H    1.094574   2.190577   5.203311   6.058844   7.170077
    43  H    1.095579   2.173965   4.975504   5.175699   6.812189
    44  H    1.095892   2.167110   4.775630   4.951508   6.153981
    45  H    2.215383   1.102646   2.913917   4.430301   4.981208
    46  H    2.615628   2.202126   3.285993   2.675520   4.573834
    47  H    9.745575   8.321601   6.390079   8.030385   7.924496
    48  H    7.322016   6.278870   4.006287   2.441194   1.799809
                   41         42         43         44         45
    41  H    0.000000
    42  H    7.759977   0.000000
    43  H    7.151901   1.794406   0.000000
    44  H    6.930591   1.785587   1.777801   0.000000
    45  H    5.626703   2.520623   3.104389   2.590518   0.000000
    46  H    4.826626   3.691155   2.527479   2.663749   3.035071
    47  H    6.660840  10.091002   9.871028  10.466707   8.299629
    48  H    1.790587   8.269727   7.560829   7.095513   6.331709
                   46         47         48
    46  H    0.000000
    47  H    8.821289   0.000000
    48  H    5.081496   8.429514   0.000000
 Symmetry turned off by external request.
 Stoichiometry    C16H24N2O5S
 Framework group  C1[X(C16H24N2O5S)]
 Deg. of freedom   138
 Full point group                 C1      NOp   1
 Rotational constants (GHZ):           0.2956921           0.1709040           0.1285244
 Leave Link  202 at Wed Mar  8 14:54:54 2023, MaxMem=  2684354560 cpu:               0.1 elap:               0.0
 (Enter /opt/gaussian/g16/l301.exe)
 Standard basis: def2TZVP (5D, 7F)
 Ernie: Thresh=  0.10000D-02 Tol=  0.10000D-05 Strict=F.
   894 basis functions,  1434 primitive gaussians,  1014 cartesian basis functions
    95 alpha electrons       95 beta electrons
       nuclear repulsion energy      2450.2033022849 Hartrees.
 IExCor= 4336 DFT=T Ex+Corr=M062X ExCW=0 ScaHFX=  0.540000
 ScaDFX=  1.000000  1.000000  1.000000  1.000000 ScalE2=  1.000000  1.000000
 IRadAn=      5 IRanWt=     -1 IRanGd=            0 ICorTp=0 IEmpDi=131
 NAtoms=   48 NActive=   48 NUniq=   48 SFac= 1.00D+00 NAtFMM=   60 NAOKFM=F Big=F
 Integral buffers will be    131072 words long.
 Raffenetti 2 integral format.
 Two-electron integral symmetry is turned off.
 R6Disp:  Grimme-D3 Dispersion energy=       -0.0041810248 Hartrees.
 Nuclear repulsion after empirical dispersion term =     2450.1991212602 Hartrees.
 Leave Link  301 at Wed Mar  8 14:54:54 2023, MaxMem=  2684354560 cpu:               0.9 elap:               0.1
 (Enter /opt/gaussian/g16/l302.exe)
 NPDir=0 NMtPBC=     1 NCelOv=     1 NCel=       1 NClECP=     1 NCelD=      1
         NCelK=      1 NCelE2=     1 NClLst=     1 CellRange=     0.0.
 One-electron integrals computed using PRISM.
   1 Symmetry operations used in ECPInt.
 ECPInt:  NShTT=   65703 NPrTT=  200010 LenC2=   56230 LenP2D=  119313.
 LDataN:  DoStor=T MaxTD1= 6 Len=  172
 NBasis=   894 RedAO= T EigKep=  3.07D-05  NBF=   894
 NBsUse=   894 1.00D-06 EigRej= -1.00D+00 NBFU=   894
 Precomputing XC quadrature grid using
 IXCGrd= 4 IRadAn=           5 IRanWt=          -1 IRanGd=           0 AccXCQ= 0.00D+00.
 Generated NRdTot=       0 NPtTot=           0 NUsed=           0 NTot=          32
 NSgBfM=  1000  1000  1000  1000  1000 MxSgAt=    48 MxSgA2=    48.
 Leave Link  302 at Wed Mar  8 14:54:57 2023, MaxMem=  2684354560 cpu:              38.0 elap:               2.4
 (Enter /opt/gaussian/g16/l303.exe)
 DipDrv:  MaxL=1.
 Leave Link  303 at Wed Mar  8 14:54:57 2023, MaxMem=  2684354560 cpu:               5.2 elap:               0.4
 (Enter /opt/gaussian/g16/l401.exe)
 ExpMin= 9.52D-02 ExpMax= 6.07D+04 ExpMxC= 2.07D+03 IAcc=3 IRadAn=         5 AccDes= 0.00D+00
 Harris functional with IExCor= 1009 and IRadAn=       5 diagonalized for initial guess.
 HarFok:  IExCor= 1009 AccDes= 0.00D+00 IRadAn=         5 IDoV= 1 UseB2=F ITyADJ=14
 ICtDFT=  3500011 ScaDFX=  1.000000  1.000000  1.000000  1.000000
 FoFCou: FMM=F IPFlag=           0 FMFlag=      100000 FMFlg1=           0
         NFxFlg=           0 DoJE=T BraDBF=F KetDBF=T FulRan=T
         wScrn=  0.000000 ICntrl=       500 IOpCl=  0 I1Cent=   200000004 NGrid=           0
         NMat0=    1 NMatS0=      1 NMatT0=    0 NMatD0=    1 NMtDS0=    0 NMtDT0=    0
 Symmetry not used in FoFCou.
 Harris En= -1507.18379670993    
 JPrj=0 DoOrth=F DoCkMO=F.
 Leave Link  401 at Wed Mar  8 14:55:06 2023, MaxMem=  2684354560 cpu:             137.0 elap:               8.6
 (Enter /opt/gaussian/g16/l502.exe)
 Two-electron integral symmetry not used.
 Closed shell SCF:
 Using DIIS extrapolation, IDIIS=  1040.
 NGot=  2684354560 LenX=  2682275214 LenY=  2681246004
 Requested convergence on RMS density matrix=1.00D-08 within 128 cycles.
 Requested convergence on MAX density matrix=1.00D-06.
 Requested convergence on             energy=1.00D-06.
 No special actions if energy rises.
 Fock matrices will be formed incrementally for  20 cycles.
 Integral accuracy reduced to 1.0D-05 until final iterations.

 Cycle   1  Pass 0  IDiag  1:
 FoFJK:  IHMeth= 1 ICntrl=       0 DoSepK=F KAlg= 0 I1Cent=           0 FoldK=F
 IRaf= 780000000 NMat=       1 IRICut=       1 DoRegI=T DoRafI=F ISym2E= 0 IDoP0=0 IntGTp=1.
 FoFCou: FMM=F IPFlag=           0 FMFlag=      100000 FMFlg1=           0
         NFxFlg=           0 DoJE=F BraDBF=F KetDBF=F FulRan=T
         wScrn=  0.000000 ICntrl=         0 IOpCl=  0 I1Cent=           0 NGrid=           0
         NMat0=    1 NMatS0=      1 NMatT0=    0 NMatD0=    1 NMtDS0=    0 NMtDT0=    0
 Symmetry not used in FoFCou.
 E= -1507.09147904392    
 DIIS: error= 1.27D-02 at cycle   1 NSaved=   1.
 NSaved= 1 IEnMin= 1 EnMin= -1507.09147904392     IErMin= 1 ErrMin= 1.27D-02
 ErrMax= 1.27D-02  0.00D+00 EMaxC= 1.00D-01 BMatC= 9.94D-01 BMatP= 9.94D-01
 IDIUse=3 WtCom= 8.73D-01 WtEn= 1.27D-01
 Coeff-Com:  0.100D+01
 Coeff-En:   0.100D+01
 Coeff:      0.100D+01
 Gap=     0.156 Goal=   None    Shift=    0.000
 GapD=    0.156 DampG=1.000 DampE=0.500 DampFc=0.5000 IDamp=-1.
 Damping current iteration by 5.00D-01
 RMSDP=4.04D-03 MaxDP=8.89D-01              OVMax= 6.31D-01

 Cycle   2  Pass 0  IDiag  1:
 RMSU=  2.02D-03    CP:  1.01D+00
 E= -1507.36375331083     Delta-E=       -0.272274266910 Rises=F Damp=T
 DIIS: error= 4.57D-03 at cycle   2 NSaved=   2.
 NSaved= 2 IEnMin= 2 EnMin= -1507.36375331083     IErMin= 2 ErrMin= 4.57D-03
 ErrMax= 4.57D-03  0.00D+00 EMaxC= 1.00D-01 BMatC= 1.17D-01 BMatP= 9.94D-01
 IDIUse=3 WtCom= 9.54D-01 WtEn= 4.57D-02
 Coeff-Com:  0.600D-01 0.940D+00
 Coeff-En:   0.213D+00 0.787D+00
 Coeff:      0.670D-01 0.933D+00
 Gap=     0.193 Goal=   None    Shift=    0.000
 RMSDP=1.39D-03 MaxDP=2.58D-01 DE=-2.72D-01 OVMax= 5.49D-01

 Cycle   3  Pass 0  IDiag  1:
 RMSU=  1.09D-03    CP:  9.95D-01  5.70D-01
 E= -1507.71860949733     Delta-E=       -0.354856186497 Rises=F Damp=F
 DIIS: error= 6.79D-03 at cycle   3 NSaved=   3.
 NSaved= 3 IEnMin= 3 EnMin= -1507.71860949733     IErMin= 2 ErrMin= 4.57D-03
 ErrMax= 6.79D-03  0.00D+00 EMaxC= 1.00D-01 BMatC= 1.14D-01 BMatP= 1.17D-01
 IDIUse=3 WtCom= 9.32D-01 WtEn= 6.79D-02
 Coeff-Com: -0.590D-01 0.520D+00 0.539D+00
 Coeff-En:   0.000D+00 0.000D+00 0.100D+01
 Coeff:     -0.550D-01 0.485D+00 0.570D+00
 Gap=     0.115 Goal=   None    Shift=    0.000
 RMSDP=7.20D-04 MaxDP=5.34D-02 DE=-3.55D-01 OVMax= 2.69D-01

 Cycle   4  Pass 0  IDiag  1:
 RMSU=  5.80D-04    CP:  9.97D-01  7.27D-01  7.36D-01
 E= -1507.82384210137     Delta-E=       -0.105232604041 Rises=F Damp=F
 DIIS: error= 2.54D-03 at cycle   4 NSaved=   4.
 NSaved= 4 IEnMin= 4 EnMin= -1507.82384210137     IErMin= 4 ErrMin= 2.54D-03
 ErrMax= 2.54D-03  0.00D+00 EMaxC= 1.00D-01 BMatC= 1.52D-02 BMatP= 1.14D-01
 IDIUse=3 WtCom= 9.75D-01 WtEn= 2.54D-02
 Coeff-Com: -0.392D-01 0.120D+00 0.297D+00 0.622D+00
 Coeff-En:   0.000D+00 0.000D+00 0.901D-01 0.910D+00
 Coeff:     -0.382D-01 0.117D+00 0.292D+00 0.629D+00
 Gap=     0.141 Goal=   None    Shift=    0.000
 RMSDP=2.43D-04 MaxDP=1.49D-02 DE=-1.05D-01 OVMax= 9.81D-02

 Cycle   5  Pass 0  IDiag  1:
 RMSU=  1.54D-04    CP:  9.97D-01  7.09D-01  8.31D-01  7.38D-01
 E= -1507.83813646996     Delta-E=       -0.014294368587 Rises=F Damp=F
 DIIS: error= 1.34D-03 at cycle   5 NSaved=   5.
 NSaved= 5 IEnMin= 5 EnMin= -1507.83813646996     IErMin= 5 ErrMin= 1.34D-03
 ErrMax= 1.34D-03  0.00D+00 EMaxC= 1.00D-01 BMatC= 1.75D-03 BMatP= 1.52D-02
 IDIUse=3 WtCom= 9.87D-01 WtEn= 1.34D-02
 Coeff-Com: -0.150D-01 0.279D-01 0.105D+00 0.339D+00 0.543D+00
 Coeff-En:   0.000D+00 0.000D+00 0.000D+00 0.470D-01 0.953D+00
 Coeff:     -0.148D-01 0.275D-01 0.104D+00 0.335D+00 0.549D+00
 Gap=     0.140 Goal=   None    Shift=    0.000
 RMSDP=8.19D-05 MaxDP=7.54D-03 DE=-1.43D-02 OVMax= 2.44D-02

 Cycle   6  Pass 0  IDiag  1:
 RMSU=  5.95D-05    CP:  9.97D-01  7.11D-01  8.17D-01  8.13D-01  7.95D-01
 E= -1507.83987076994     Delta-E=       -0.001734299980 Rises=F Damp=F
 DIIS: error= 2.57D-04 at cycle   6 NSaved=   6.
 NSaved= 6 IEnMin= 6 EnMin= -1507.83987076994     IErMin= 6 ErrMin= 2.57D-04
 ErrMax= 2.57D-04  0.00D+00 EMaxC= 1.00D-01 BMatC= 1.71D-04 BMatP= 1.75D-03
 IDIUse=3 WtCom= 9.97D-01 WtEn= 2.57D-03
 Coeff-Com: -0.694D-03-0.453D-02-0.631D-03 0.620D-01 0.264D+00 0.680D+00
 Coeff-En:   0.000D+00 0.000D+00 0.000D+00 0.000D+00 0.000D+00 0.100D+01
 Coeff:     -0.692D-03-0.452D-02-0.629D-03 0.618D-01 0.264D+00 0.680D+00
 Gap=     0.144 Goal=   None    Shift=    0.000
 RMSDP=3.25D-05 MaxDP=2.49D-03 DE=-1.73D-03 OVMax= 6.52D-03

 Cycle   7  Pass 0  IDiag  1:
 RMSU=  2.52D-05    CP:  9.96D-01  7.08D-01  8.23D-01  8.26D-01  9.03D-01
                    CP:  9.51D-01
 E= -1507.84006016479     Delta-E=       -0.000189394853 Rises=F Damp=F
 DIIS: error= 1.20D-04 at cycle   7 NSaved=   7.
 NSaved= 7 IEnMin= 7 EnMin= -1507.84006016479     IErMin= 7 ErrMin= 1.20D-04
 ErrMax= 1.20D-04  0.00D+00 EMaxC= 1.00D-01 BMatC= 2.65D-05 BMatP= 1.71D-04
 IDIUse=3 WtCom= 9.99D-01 WtEn= 1.20D-03
 Coeff-Com:  0.162D-02-0.511D-02-0.149D-01-0.171D-01 0.472D-01 0.333D+00
 Coeff-Com:  0.655D+00
 Coeff-En:   0.000D+00 0.000D+00 0.000D+00 0.000D+00 0.000D+00 0.000D+00
 Coeff-En:   0.100D+01
 Coeff:      0.162D-02-0.510D-02-0.148D-01-0.171D-01 0.471D-01 0.333D+00
 Coeff:      0.655D+00
 Gap=     0.144 Goal=   None    Shift=    0.000
 RMSDP=1.55D-05 MaxDP=1.22D-03 DE=-1.89D-04 OVMax= 1.75D-03

 Cycle   8  Pass 0  IDiag  1:
 RMSU=  1.19D-05    CP:  9.96D-01  7.08D-01  8.23D-01  8.33D-01  9.28D-01
                    CP:  1.06D+00  1.17D+00
 E= -1507.84009120843     Delta-E=       -0.000031043646 Rises=F Damp=F
 DIIS: error= 3.28D-05 at cycle   8 NSaved=   8.
 NSaved= 8 IEnMin= 8 EnMin= -1507.84009120843     IErMin= 8 ErrMin= 3.28D-05
 ErrMax= 3.28D-05  0.00D+00 EMaxC= 1.00D-01 BMatC= 2.89D-06 BMatP= 2.65D-05
 IDIUse=1 WtCom= 1.00D+00 WtEn= 0.00D+00
 Coeff-Com:  0.885D-03-0.159D-02-0.693D-02-0.188D-01-0.295D-01 0.357D-01
 Coeff-Com:  0.258D+00 0.762D+00
 Coeff:      0.885D-03-0.159D-02-0.693D-02-0.188D-01-0.295D-01 0.357D-01
 Coeff:      0.258D+00 0.762D+00
 Gap=     0.144 Goal=   None    Shift=    0.000
 RMSDP=1.60D-05 MaxDP=1.94D-03 DE=-3.10D-05 OVMax= 1.10D-03

 Cycle   9  Pass 0  IDiag  1:
 RMSU=  9.68D-06    CP:  9.96D-01  7.05D-01  8.23D-01  8.36D-01  9.38D-01
                    CP:  1.14D+00  1.40D+00  1.77D+00
 E= -1507.84009110040     Delta-E=        0.000000108031 Rises=F Damp=F
 DIIS: error= 1.83D-05 at cycle   9 NSaved=   9.
 NSaved= 9 IEnMin= 8 EnMin= -1507.84009120843     IErMin= 9 ErrMin= 1.83D-05
 ErrMax= 1.83D-05  0.00D+00 EMaxC= 1.00D-01 BMatC= 5.87D-07 BMatP= 2.89D-06
 IDIUse=1 WtCom= 1.00D+00 WtEn= 0.00D+00
 Coeff-Com:  0.166D-03-0.440D-04-0.145D-02-0.565D-02-0.191D-01-0.156D-01
 Coeff-Com:  0.259D-01 0.303D+00 0.713D+00
 Coeff:      0.166D-03-0.440D-04-0.145D-02-0.565D-02-0.191D-01-0.156D-01
 Coeff:      0.259D-01 0.303D+00 0.713D+00
 Gap=     0.144 Goal=   None    Shift=    0.000
 RMSDP=1.78D-05 MaxDP=1.58D-03 DE= 1.08D-07 OVMax= 3.42D-04

 Cycle  10  Pass 0  IDiag  1:
 RMSU=  6.65D-06    CP:  9.96D-01  7.05D-01  8.24D-01  8.39D-01  9.38D-01
                    CP:  1.19D+00  1.62D+00  2.73D+00  2.02D+00
 E= -1507.84007845888     Delta-E=        0.000012641518 Rises=F Damp=F
 DIIS: error= 2.61D-05 at cycle  10 NSaved=  10.
 NSaved=10 IEnMin= 8 EnMin= -1507.84009120843     IErMin= 9 ErrMin= 1.83D-05
 ErrMax= 2.61D-05  0.00D+00 EMaxC= 1.00D-01 BMatC= 4.17D-07 BMatP= 5.87D-07
 IDIUse=1 WtCom= 1.00D+00 WtEn= 0.00D+00
 Coeff-Com:  0.987D-04 0.619D-05-0.967D-03-0.372D-02-0.141D-01-0.124D-01
 Coeff-Com:  0.100D-01 0.203D+00 0.550D+00 0.268D+00
 Coeff:      0.987D-04 0.619D-05-0.967D-03-0.372D-02-0.141D-01-0.124D-01
 Coeff:      0.100D-01 0.203D+00 0.550D+00 0.268D+00
 Gap=     0.144 Goal=   None    Shift=    0.000
 RMSDP=9.29D-06 MaxDP=7.66D-04 DE= 1.26D-05 OVMax= 5.19D-05

 Initial convergence to 1.0D-05 achieved.  Increase integral accuracy.
 Cycle  11  Pass 1  IDiag  1:
 E= -1507.83996964662     Delta-E=        0.000108812269 Rises=F Damp=F
 DIIS: error= 3.55D-04 at cycle   1 NSaved=   1.
 NSaved= 1 IEnMin= 1 EnMin= -1507.83996964662     IErMin= 1 ErrMin= 3.55D-04
 ErrMax= 3.55D-04  0.00D+00 EMaxC= 1.00D-01 BMatC= 8.28D-05 BMatP= 8.28D-05
 IDIUse=3 WtCom= 9.96D-01 WtEn= 3.55D-03
 Coeff-Com:  0.100D+01
 Coeff-En:   0.100D+01
 Coeff:      0.100D+01
 Gap=     0.144 Goal=   None    Shift=    0.000
 RMSDP=9.29D-06 MaxDP=7.66D-04 DE= 1.09D-04 OVMax= 7.66D-04

 Cycle  12  Pass 1  IDiag  1:
 RMSU=  4.23D-04    CP:  9.96D-01
 E= -1507.84001994993     Delta-E=       -0.000050303310 Rises=F Damp=F
 DIIS: error= 7.31D-06 at cycle   2 NSaved=   2.
 NSaved= 2 IEnMin= 2 EnMin= -1507.84001994993     IErMin= 2 ErrMin= 7.31D-06
 ErrMax= 7.31D-06  0.00D+00 EMaxC= 1.00D-01 BMatC= 1.21D-07 BMatP= 8.28D-05
 IDIUse=1 WtCom= 1.00D+00 WtEn= 0.00D+00
 Coeff-Com: -0.149D-01 0.101D+01
 Coeff:     -0.149D-01 0.101D+01
 Gap=     0.144 Goal=   None    Shift=    0.000
 RMSDP=1.53D-05 MaxDP=1.16D-03 DE=-5.03D-05 OVMax= 4.36D-04

 Cycle  13  Pass 1  IDiag  1:
 RMSU=  5.11D-06    CP:  9.96D-01  1.03D+00
 E= -1507.84001987611     Delta-E=        0.000000073816 Rises=F Damp=F
 DIIS: error= 1.02D-05 at cycle   3 NSaved=   3.
 NSaved= 3 IEnMin= 2 EnMin= -1507.84001994993     IErMin= 2 ErrMin= 7.31D-06
 ErrMax= 1.02D-05  0.00D+00 EMaxC= 1.00D-01 BMatC= 2.10D-07 BMatP= 1.21D-07
 IDIUse=1 WtCom= 1.00D+00 WtEn= 0.00D+00
 Coeff-Com: -0.996D-02 0.605D+00 0.405D+00
 Coeff:     -0.996D-02 0.605D+00 0.405D+00
 Gap=     0.144 Goal=   None    Shift=    0.000
 RMSDP=8.20D-07 MaxDP=4.73D-05 DE= 7.38D-08 OVMax= 3.03D-04

 Cycle  14  Pass 1  IDiag  1:
 RMSU=  7.98D-07    CP:  9.96D-01  1.03D+00  9.94D-01
 E= -1507.84002009514     Delta-E=       -0.000000219031 Rises=F Damp=F
 DIIS: error= 1.61D-06 at cycle   4 NSaved=   4.
 NSaved= 4 IEnMin= 4 EnMin= -1507.84002009514     IErMin= 4 ErrMin= 1.61D-06
 ErrMax= 1.61D-06  0.00D+00 EMaxC= 1.00D-01 BMatC= 3.76D-09 BMatP= 1.21D-07
 IDIUse=1 WtCom= 1.00D+00 WtEn= 0.00D+00
 Coeff-Com: -0.181D-02 0.992D-01 0.132D+00 0.771D+00
 Coeff:     -0.181D-02 0.992D-01 0.132D+00 0.771D+00
 Gap=     0.144 Goal=   None    Shift=    0.000
 RMSDP=3.30D-07 MaxDP=2.24D-05 DE=-2.19D-07 OVMax= 6.07D-05

 Cycle  15  Pass 1  IDiag  1:
 RMSU=  1.67D-07    CP:  9.96D-01  1.04D+00  1.03D+00  9.33D-01
 E= -1507.84002009836     Delta-E=       -0.000000003222 Rises=F Damp=F
 DIIS: error= 1.02D-06 at cycle   5 NSaved=   5.
 NSaved= 5 IEnMin= 5 EnMin= -1507.84002009836     IErMin= 5 ErrMin= 1.02D-06
 ErrMax= 1.02D-06  0.00D+00 EMaxC= 1.00D-01 BMatC= 1.74D-09 BMatP= 3.76D-09
 IDIUse=1 WtCom= 1.00D+00 WtEn= 0.00D+00
 Coeff-Com:  0.274D-03-0.234D-01 0.208D-01 0.461D+00 0.541D+00
 Coeff:      0.274D-03-0.234D-01 0.208D-01 0.461D+00 0.541D+00
 Gap=     0.144 Goal=   None    Shift=    0.000
 RMSDP=1.15D-07 MaxDP=1.55D-05 DE=-3.22D-09 OVMax= 1.52D-05

 Cycle  16  Pass 1  IDiag  1:
 RMSU=  6.94D-08    CP:  9.96D-01  1.04D+00  1.04D+00  9.88D-01  9.62D-01
 E= -1507.84002009998     Delta-E=       -0.000000001618 Rises=F Damp=F
 DIIS: error= 1.56D-07 at cycle   6 NSaved=   6.
 NSaved= 6 IEnMin= 6 EnMin= -1507.84002009998     IErMin= 6 ErrMin= 1.56D-07
 ErrMax= 1.56D-07  0.00D+00 EMaxC= 1.00D-01 BMatC= 9.97D-11 BMatP= 1.74D-09
 IDIUse=1 WtCom= 1.00D+00 WtEn= 0.00D+00
 Coeff-Com:  0.290D-03-0.201D-01-0.266D-02 0.171D+00 0.257D+00 0.594D+00
 Coeff:      0.290D-03-0.201D-01-0.266D-02 0.171D+00 0.257D+00 0.594D+00
 Gap=     0.144 Goal=   None    Shift=    0.000
 RMSDP=2.13D-08 MaxDP=2.19D-06 DE=-1.62D-09 OVMax= 2.60D-06

 Cycle  17  Pass 1  IDiag  1:
 RMSU=  1.61D-08    CP:  9.96D-01  1.04D+00  1.04D+00  9.90D-01  1.03D+00
                    CP:  1.01D+00
 E= -1507.84002010004     Delta-E=       -0.000000000056 Rises=F Damp=F
 DIIS: error= 9.64D-08 at cycle   7 NSaved=   7.
 NSaved= 7 IEnMin= 7 EnMin= -1507.84002010004     IErMin= 7 ErrMin= 9.64D-08
 ErrMax= 9.64D-08  0.00D+00 EMaxC= 1.00D-01 BMatC= 1.42D-11 BMatP= 9.97D-11
 IDIUse=1 WtCom= 1.00D+00 WtEn= 0.00D+00
 Coeff-Com:  0.270D-04-0.902D-03-0.723D-02-0.478D-01-0.519D-01 0.216D+00
 Coeff-Com:  0.892D+00
 Coeff:      0.270D-04-0.902D-03-0.723D-02-0.478D-01-0.519D-01 0.216D+00
 Coeff:      0.892D+00
 Gap=     0.144 Goal=   None    Shift=    0.000
 RMSDP=1.43D-08 MaxDP=2.24D-06 DE=-5.64D-11 OVMax= 1.94D-06

 Cycle  18  Pass 1  IDiag  1:
 RMSU=  9.75D-09    CP:  9.96D-01  1.04D+00  1.04D+00  9.93D-01  1.06D+00
                    CP:  1.12D+00  1.05D+00
 E= -1507.84002010010     Delta-E=       -0.000000000059 Rises=F Damp=F
 DIIS: error= 3.51D-08 at cycle   8 NSaved=   8.
 NSaved= 8 IEnMin= 8 EnMin= -1507.84002010010     IErMin= 8 ErrMin= 3.51D-08
 ErrMax= 3.51D-08  0.00D+00 EMaxC= 1.00D-01 BMatC= 2.02D-12 BMatP= 1.42D-11
 IDIUse=1 WtCom= 1.00D+00 WtEn= 0.00D+00
 Coeff-Com: -0.260D-04 0.222D-02-0.309D-02-0.407D-01-0.580D-01 0.261D-01
 Coeff-Com:  0.385D+00 0.688D+00
 Coeff:     -0.260D-04 0.222D-02-0.309D-02-0.407D-01-0.580D-01 0.261D-01
 Coeff:      0.385D+00 0.688D+00
 Gap=     0.144 Goal=   None    Shift=    0.000
 RMSDP=4.65D-09 MaxDP=4.63D-07 DE=-5.87D-11 OVMax= 8.07D-07

 SCF Done:  E(RM062X) =  -1507.84002010     A.U. after   18 cycles
            NFock= 18  Conv=0.47D-08     -V/T= 2.0043
 KE= 1.501447464642D+03 PE=-8.439031055149D+03 EE= 2.979544449147D+03
 Leave Link  502 at Wed Mar  8 15:14:41 2023, MaxMem=  2684354560 cpu:           18749.7 elap:            1174.8
 (Enter /opt/gaussian/g16/l601.exe)
 Copying SCF densities to generalized density rwf, IOpCl= 0 IROHF=0.

 **********************************************************************

            Population analysis using the SCF density.

 **********************************************************************

 Alpha  occ. eigenvalues --  -89.86761 -19.64564 -19.62768 -19.61419 -19.57540
 Alpha  occ. eigenvalues --  -19.56513 -14.85023 -14.78283 -10.66604 -10.64529
 Alpha  occ. eigenvalues --  -10.63069 -10.61940 -10.61037 -10.60640 -10.60558
 Alpha  occ. eigenvalues --  -10.59971 -10.59423 -10.58929 -10.57839 -10.54845
 Alpha  occ. eigenvalues --  -10.54213 -10.52710 -10.51935 -10.49967  -8.22646
 Alpha  occ. eigenvalues --   -6.14599  -6.14388  -6.14145  -1.19763  -1.19214
 Alpha  occ. eigenvalues --   -1.15061  -1.12646  -1.11210  -1.08567  -1.03440
 Alpha  occ. eigenvalues --   -0.95884  -0.91550  -0.87981  -0.87380  -0.85510
 Alpha  occ. eigenvalues --   -0.84428  -0.80310  -0.78765  -0.78723  -0.75217
 Alpha  occ. eigenvalues --   -0.71448  -0.71256  -0.68313  -0.67937  -0.65493
 Alpha  occ. eigenvalues --   -0.65282  -0.63696  -0.62056  -0.60526  -0.59977
 Alpha  occ. eigenvalues --   -0.58882  -0.57069  -0.56495  -0.55777  -0.54538
 Alpha  occ. eigenvalues --   -0.53941  -0.53339  -0.52355  -0.51150  -0.50391
 Alpha  occ. eigenvalues --   -0.50052  -0.49795  -0.49298  -0.48847  -0.48216
 Alpha  occ. eigenvalues --   -0.47687  -0.46877  -0.46283  -0.45913  -0.45330
 Alpha  occ. eigenvalues --   -0.45040  -0.43947  -0.43504  -0.43107  -0.42118
 Alpha  occ. eigenvalues --   -0.40739  -0.40305  -0.38863  -0.37997  -0.37275
 Alpha  occ. eigenvalues --   -0.36609  -0.36020  -0.34995  -0.34639  -0.34359
 Alpha  occ. eigenvalues --   -0.33138  -0.31199  -0.28950  -0.27452  -0.20997
 Alpha virt. eigenvalues --   -0.06615  -0.02548   0.04190   0.04660   0.05185
 Alpha virt. eigenvalues --    0.05871   0.07243   0.07433   0.08084   0.08907
 Alpha virt. eigenvalues --    0.09263   0.09434   0.09955   0.10882   0.11449
 Alpha virt. eigenvalues --    0.11555   0.12178   0.12769   0.13348   0.13511
 Alpha virt. eigenvalues --    0.13948   0.14498   0.14614   0.14817   0.15288
 Alpha virt. eigenvalues --    0.15644   0.16022   0.16942   0.17087   0.17500
 Alpha virt. eigenvalues --    0.17972   0.18079   0.19110   0.19179   0.19321
 Alpha virt. eigenvalues --    0.20345   0.21059   0.21296   0.21431   0.22216
 Alpha virt. eigenvalues --    0.22957   0.23072   0.23599   0.23955   0.24281
 Alpha virt. eigenvalues --    0.24756   0.25024   0.25977   0.26150   0.26384
 Alpha virt. eigenvalues --    0.27111   0.27433   0.28208   0.28544   0.28572
 Alpha virt. eigenvalues --    0.29508   0.30091   0.30663   0.30789   0.30870
 Alpha virt. eigenvalues --    0.31627   0.31814   0.32224   0.32780   0.33136
 Alpha virt. eigenvalues --    0.33665   0.34312   0.34737   0.35225   0.35489
 Alpha virt. eigenvalues --    0.35937   0.36531   0.37719   0.38296   0.38529
 Alpha virt. eigenvalues --    0.38708   0.39150   0.39564   0.40184   0.40521
 Alpha virt. eigenvalues --    0.40533   0.41123   0.41372   0.41547   0.42255
 Alpha virt. eigenvalues --    0.42570   0.42881   0.43419   0.43675   0.43939
 Alpha virt. eigenvalues --    0.44468   0.44744   0.45158   0.45303   0.45676
 Alpha virt. eigenvalues --    0.46201   0.46836   0.46927   0.46975   0.47248
 Alpha virt. eigenvalues --    0.47825   0.48219   0.48490   0.49028   0.49151
 Alpha virt. eigenvalues --    0.49618   0.49740   0.50116   0.50590   0.50675
 Alpha virt. eigenvalues --    0.51293   0.51635   0.51991   0.52131   0.52421
 Alpha virt. eigenvalues --    0.52615   0.52922   0.53386   0.53805   0.54195
 Alpha virt. eigenvalues --    0.54604   0.55239   0.56147   0.56456   0.56946
 Alpha virt. eigenvalues --    0.57218   0.57499   0.57874   0.58259   0.58641
 Alpha virt. eigenvalues --    0.59510   0.60137   0.60391   0.60944   0.61911
 Alpha virt. eigenvalues --    0.62393   0.62892   0.63820   0.64255   0.64560
 Alpha virt. eigenvalues --    0.65066   0.65282   0.67006   0.67549   0.67719
 Alpha virt. eigenvalues --    0.68258   0.68349   0.69020   0.70004   0.70743
 Alpha virt. eigenvalues --    0.71267   0.71565   0.72549   0.73437   0.73856
 Alpha virt. eigenvalues --    0.74134   0.74676   0.75719   0.77041   0.77571
 Alpha virt. eigenvalues --    0.77866   0.78975   0.79703   0.80769   0.81231
 Alpha virt. eigenvalues --    0.81751   0.82408   0.83390   0.83479   0.84811
 Alpha virt. eigenvalues --    0.85589   0.86180   0.87009   0.87786   0.88129
 Alpha virt. eigenvalues --    0.88790   0.89511   0.90607   0.91090   0.91411
 Alpha virt. eigenvalues --    0.92115   0.92396   0.92843   0.93688   0.94008
 Alpha virt. eigenvalues --    0.94500   0.94651   0.95305   0.96290   0.96506
 Alpha virt. eigenvalues --    0.97024   0.98486   0.98889   0.99549   1.00451
 Alpha virt. eigenvalues --    1.00881   1.01243   1.02034   1.02497   1.03248
 Alpha virt. eigenvalues --    1.04312   1.04541   1.05560   1.06275   1.06700
 Alpha virt. eigenvalues --    1.07176   1.07729   1.09176   1.09357   1.10385
 Alpha virt. eigenvalues --    1.10848   1.11238   1.11819   1.12683   1.13046
 Alpha virt. eigenvalues --    1.14091   1.14441   1.14884   1.15863   1.16219
 Alpha virt. eigenvalues --    1.16652   1.17256   1.17692   1.18346   1.19732
 Alpha virt. eigenvalues --    1.20467   1.21120   1.22243   1.22435   1.23098
 Alpha virt. eigenvalues --    1.24058   1.24832   1.24912   1.25785   1.27131
 Alpha virt. eigenvalues --    1.27418   1.28020   1.28777   1.29519   1.30765
 Alpha virt. eigenvalues --    1.32727   1.32793   1.33371   1.33468   1.34454
 Alpha virt. eigenvalues --    1.36146   1.36719   1.37144   1.38263   1.39553
 Alpha virt. eigenvalues --    1.40418   1.40794   1.42898   1.43655   1.43963
 Alpha virt. eigenvalues --    1.44315   1.45725   1.46701   1.48885   1.49305
 Alpha virt. eigenvalues --    1.50310   1.50975   1.52495   1.53129   1.53797
 Alpha virt. eigenvalues --    1.54097   1.54704   1.55250   1.55684   1.56073
 Alpha virt. eigenvalues --    1.56461   1.56693   1.57703   1.57834   1.58061
 Alpha virt. eigenvalues --    1.58675   1.59242   1.60075   1.60983   1.61189
 Alpha virt. eigenvalues --    1.61560   1.61756   1.62515   1.62719   1.63677
 Alpha virt. eigenvalues --    1.64063   1.64644   1.65098   1.65833   1.66206
 Alpha virt. eigenvalues --    1.66527   1.67121   1.67682   1.68138   1.68427
 Alpha virt. eigenvalues --    1.69362   1.69938   1.70432   1.70942   1.72005
 Alpha virt. eigenvalues --    1.72468   1.72697   1.73546   1.73977   1.74291
 Alpha virt. eigenvalues --    1.74744   1.75689   1.76125   1.76694   1.77250
 Alpha virt. eigenvalues --    1.78566   1.79267   1.79913   1.80530   1.81008
 Alpha virt. eigenvalues --    1.81549   1.81907   1.83025   1.83902   1.84485
 Alpha virt. eigenvalues --    1.85791   1.86360   1.86809   1.87468   1.88000
 Alpha virt. eigenvalues --    1.88187   1.89058   1.90103   1.90780   1.91422
 Alpha virt. eigenvalues --    1.91873   1.92939   1.93575   1.93745   1.94584
 Alpha virt. eigenvalues --    1.95014   1.96311   1.96885   1.97073   1.98367
 Alpha virt. eigenvalues --    1.98954   1.99247   1.99713   2.00800   2.01395
 Alpha virt. eigenvalues --    2.01670   2.02455   2.03323   2.04124   2.04470
 Alpha virt. eigenvalues --    2.05338   2.05758   2.07723   2.08407   2.09403
 Alpha virt. eigenvalues --    2.09725   2.10229   2.10429   2.12078   2.12590
 Alpha virt. eigenvalues --    2.13339   2.14216   2.14538   2.14905   2.16199
 Alpha virt. eigenvalues --    2.16970   2.17753   2.18203   2.18510   2.19067
 Alpha virt. eigenvalues --    2.19336   2.19716   2.20211   2.20920   2.22539
 Alpha virt. eigenvalues --    2.23822   2.24330   2.25053   2.25467   2.25922
 Alpha virt. eigenvalues --    2.26334   2.27068   2.27579   2.28775   2.29172
 Alpha virt. eigenvalues --    2.29659   2.30136   2.31638   2.32447   2.32817
 Alpha virt. eigenvalues --    2.33294   2.33684   2.34585   2.35436   2.35933
 Alpha virt. eigenvalues --    2.36627   2.37210   2.38238   2.38646   2.39327
 Alpha virt. eigenvalues --    2.40291   2.40712   2.42020   2.42499   2.43964
 Alpha virt. eigenvalues --    2.43999   2.45170   2.45716   2.46919   2.47340
 Alpha virt. eigenvalues --    2.48110   2.48699   2.49065   2.49929   2.50572
 Alpha virt. eigenvalues --    2.52067   2.52577   2.53092   2.54580   2.54779
 Alpha virt. eigenvalues --    2.55711   2.56403   2.57035   2.57623   2.57896
 Alpha virt. eigenvalues --    2.58433   2.58925   2.59253   2.60260   2.60549
 Alpha virt. eigenvalues --    2.61468   2.61842   2.62630   2.63579   2.63781
 Alpha virt. eigenvalues --    2.65266   2.65604   2.66709   2.67000   2.67544
 Alpha virt. eigenvalues --    2.68671   2.69483   2.69799   2.70470   2.70908
 Alpha virt. eigenvalues --    2.71686   2.71801   2.72431   2.72919   2.73546
 Alpha virt. eigenvalues --    2.74146   2.75567   2.75777   2.76681   2.76981
 Alpha virt. eigenvalues --    2.78037   2.78795   2.79086   2.79951   2.80495
 Alpha virt. eigenvalues --    2.81048   2.81367   2.82381   2.82780   2.84077
 Alpha virt. eigenvalues --    2.84908   2.85865   2.86059   2.86659   2.87214
 Alpha virt. eigenvalues --    2.88706   2.89239   2.90526   2.90834   2.92503
 Alpha virt. eigenvalues --    2.92977   2.93366   2.94266   2.95133   2.96885
 Alpha virt. eigenvalues --    2.97123   2.97903   2.98856   3.00108   3.00814
 Alpha virt. eigenvalues --    3.01300   3.02120   3.02599   3.03489   3.03871
 Alpha virt. eigenvalues --    3.04319   3.04642   3.05465   3.06310   3.06861
 Alpha virt. eigenvalues --    3.07572   3.07822   3.08991   3.09883   3.10175
 Alpha virt. eigenvalues --    3.10491   3.11361   3.11934   3.12278   3.13093
 Alpha virt. eigenvalues --    3.13415   3.13729   3.14443   3.14790   3.15535
 Alpha virt. eigenvalues --    3.16072   3.16563   3.17578   3.18250   3.18969
 Alpha virt. eigenvalues --    3.19815   3.20192   3.21210   3.21507   3.21641
 Alpha virt. eigenvalues --    3.21993   3.22928   3.23392   3.23932   3.24573
 Alpha virt. eigenvalues --    3.25638   3.26535   3.27097   3.27825   3.28138
 Alpha virt. eigenvalues --    3.28257   3.29377   3.29760   3.29873   3.30923
 Alpha virt. eigenvalues --    3.32168   3.32355   3.33378   3.33964   3.34095
 Alpha virt. eigenvalues --    3.34907   3.35142   3.35913   3.36323   3.36948
 Alpha virt. eigenvalues --    3.37036   3.37677   3.38051   3.39168   3.39586
 Alpha virt. eigenvalues --    3.40223   3.40819   3.41035   3.41554   3.41706
 Alpha virt. eigenvalues --    3.42494   3.42830   3.43817   3.43977   3.44945
 Alpha virt. eigenvalues --    3.45496   3.46260   3.47182   3.47293   3.48108
 Alpha virt. eigenvalues --    3.48668   3.49123   3.50112   3.51400   3.51841
 Alpha virt. eigenvalues --    3.52155   3.52727   3.53800   3.54640   3.55824
 Alpha virt. eigenvalues --    3.56386   3.56625   3.57629   3.58670   3.58857
 Alpha virt. eigenvalues --    3.59447   3.59781   3.60753   3.63210   3.63255
 Alpha virt. eigenvalues --    3.64457   3.66287   3.66868   3.68428   3.69412
 Alpha virt. eigenvalues --    3.70066   3.70357   3.71477   3.71691   3.72973
 Alpha virt. eigenvalues --    3.73636   3.75073   3.75830   3.76381   3.77549
 Alpha virt. eigenvalues --    3.78144   3.78602   3.80027   3.81046   3.81921
 Alpha virt. eigenvalues --    3.83349   3.84129   3.84780   3.86986   3.88384
 Alpha virt. eigenvalues --    3.88931   3.89918   3.90383   3.91436   3.92270
 Alpha virt. eigenvalues --    3.93892   3.94757   3.95019   3.95901   3.96477
 Alpha virt. eigenvalues --    3.99567   4.00379   4.02356   4.03107   4.03898
 Alpha virt. eigenvalues --    4.05306   4.06247   4.07784   4.09193   4.09735
 Alpha virt. eigenvalues --    4.11113   4.11840   4.13128   4.14148   4.15240
 Alpha virt. eigenvalues --    4.18005   4.19672   4.20669   4.21675   4.21792
 Alpha virt. eigenvalues --    4.23380   4.26537   4.26969   4.27884   4.28281
 Alpha virt. eigenvalues --    4.30029   4.30724   4.34258   4.35623   4.35860
 Alpha virt. eigenvalues --    4.36457   4.38344   4.39090   4.40417   4.41436
 Alpha virt. eigenvalues --    4.43230   4.44975   4.45473   4.46191   4.46929
 Alpha virt. eigenvalues --    4.47559   4.48692   4.50271   4.52424   4.55836
 Alpha virt. eigenvalues --    4.57520   4.59797   4.64889   4.64964   4.67132
 Alpha virt. eigenvalues --    4.69911   4.70517   4.71981   4.73325   4.73911
 Alpha virt. eigenvalues --    4.76006   4.77129   4.78679   4.79305   4.79900
 Alpha virt. eigenvalues --    4.82100   4.84791   4.86607   4.87437   4.90749
 Alpha virt. eigenvalues --    4.91286   4.93495   4.93739   4.94450   4.96974
 Alpha virt. eigenvalues --    4.98927   5.00817   5.02724   5.03268   5.05281
 Alpha virt. eigenvalues --    5.06361   5.10341   5.12908   5.13619   5.18614
 Alpha virt. eigenvalues --    5.20099   5.23130   5.25532   5.26584   5.27011
 Alpha virt. eigenvalues --    5.29236   5.30825   5.32948   5.33576   5.35144
 Alpha virt. eigenvalues --    5.35844   5.39957   5.40462   5.43178   5.44135
 Alpha virt. eigenvalues --    5.45787   5.51257   5.53680   5.55325   5.60691
 Alpha virt. eigenvalues --    5.64793   5.67159   5.71336   5.73379   5.76519
 Alpha virt. eigenvalues --    5.79164   5.80864   5.83333   5.84173   5.85950
 Alpha virt. eigenvalues --    5.86815   5.88313   5.90202   5.93767   5.96458
 Alpha virt. eigenvalues --    5.97634   5.99636   6.01463   6.16066   6.17091
 Alpha virt. eigenvalues --    6.21639   6.22656   6.30409   6.30436   6.40199
 Alpha virt. eigenvalues --    6.45627   6.47470   6.52307   6.55399   6.57670
 Alpha virt. eigenvalues --    6.60053   6.67754   6.72069   6.74089   6.76058
 Alpha virt. eigenvalues --    6.79199   6.79933   6.85750   6.85892   6.89195
 Alpha virt. eigenvalues --    6.91980   6.92724   6.99358   7.07470   7.10914
 Alpha virt. eigenvalues --    7.11590   7.15629   7.18585   7.23076   7.25927
 Alpha virt. eigenvalues --    7.33152   7.44230   9.04901   9.40268   9.57339
 Alpha virt. eigenvalues --   19.84074  22.30819  22.38927  22.45685  22.51385
 Alpha virt. eigenvalues --   22.55914  22.59697  22.62795  22.71435  22.76034
 Alpha virt. eigenvalues --   22.78352  22.83364  22.92786  23.02516  23.12296
 Alpha virt. eigenvalues --   23.18511  23.46677  32.12266  33.15210  44.15883
 Alpha virt. eigenvalues --   44.24405  44.25970  44.37535  44.50597
          Condensed to atoms (all electrons):
               1          2          3          4          5          6
     1  C    5.108566   0.416611   0.409199  -0.008305   0.001162  -0.000230
     2  H    0.416611   0.514608  -0.020613  -0.001158   0.000209  -0.000004
     3  H    0.409199  -0.020613   0.535652   0.001524  -0.000068  -0.000000
     4  C   -0.008305  -0.001158   0.001524   5.354698   0.477945   0.291645
     5  H    0.001162   0.000209  -0.000068   0.477945   0.557298  -0.040637
     6  O   -0.000230  -0.000004  -0.000000   0.291645  -0.040637   8.198307
     7  H   -0.000042  -0.000002   0.000002  -0.030455  -0.010875   0.263592
     8  C   -0.003197   0.011969  -0.007792  -0.013679  -0.063849  -0.048376
     9  H    0.012985  -0.000011  -0.001307  -0.094459   0.002576   0.004094
    10  O    0.009289  -0.000425   0.000149  -0.044729   0.001294  -0.008093
    11  H   -0.000884  -0.000092   0.000326   0.014525  -0.000609  -0.000375
    12  C   -0.003925   0.000488   0.000081  -0.001677  -0.082362  -0.051309
    13  H    0.000528   0.000014   0.000077  -0.086448   0.005544   0.009424
    14  C    0.173232  -0.047933  -0.037939   0.093400   0.008424   0.006176
    15  H   -0.059461  -0.005617  -0.003187  -0.008067  -0.000088   0.000060
    16  O   -0.029713   0.001392   0.004905  -0.059413   0.000348   0.006996
    17  N   -0.000396  -0.000086  -0.000028   0.018214  -0.009443  -0.001386
    18  C   -0.001098   0.000105   0.000007  -0.007831   0.000513   0.002988
    19  H   -0.000529  -0.000086   0.000070  -0.013599  -0.001568   0.000819
    20  C    0.000069  -0.000009  -0.000001   0.006504   0.005738  -0.000996
    21  H    0.000006   0.000000  -0.000000   0.000040   0.000103  -0.000012
    22  C   -0.000014   0.000001   0.000000   0.000155  -0.000302   0.000102
    23  H    0.000000   0.000000  -0.000000   0.000013   0.000001   0.000001
    24  H    0.000000  -0.000000  -0.000000  -0.000027  -0.000117  -0.000004
    25  C   -0.000076  -0.000005   0.000001  -0.007794  -0.000382  -0.000543
    26  C   -0.000422   0.000062  -0.000005   0.009501  -0.000624  -0.006083
    27  H   -0.000016   0.000001  -0.000000   0.000206  -0.000114  -0.000022
    28  C   -0.000000   0.000000  -0.000000   0.000038   0.000005  -0.000028
    29  O    0.000000  -0.000000  -0.000000   0.000007  -0.000000   0.000000
    30  N   -0.000000  -0.000000   0.000000   0.000000  -0.000000   0.000000
    31  H   -0.000000   0.000000  -0.000000  -0.000000   0.000000  -0.000000
    32  H    0.000000  -0.000000  -0.000000   0.000000   0.000000   0.000000
    33  C    0.000002  -0.000000  -0.000000   0.001250  -0.000564  -0.022607
    34  C    0.000001  -0.000000   0.000000  -0.000171   0.000202   0.015675
    35  C   -0.000000   0.000000  -0.000000  -0.001078   0.000639   0.003325
    36  C   -0.000000   0.000000   0.000000   0.000005   0.000001   0.000002
    37  C   -0.000000  -0.000000   0.000000   0.000196   0.000012   0.000040
    38  O   -0.000001   0.000000   0.000000   0.015580   0.000156  -0.096666
    39  S   -0.000000  -0.000000  -0.000000  -0.001220  -0.000010   0.001605
    40  H   -0.000000   0.000000  -0.000000   0.000099   0.000046   0.000191
    41  H   -0.000007   0.000000  -0.000000   0.000719   0.000624   0.010544
    42  H   -0.000000   0.000000   0.000000   0.000000  -0.000000  -0.000000
    43  H    0.000000   0.000000  -0.000000   0.000000  -0.000000  -0.000000
    44  H    0.000000  -0.000000  -0.000000  -0.000000  -0.000000  -0.000000
    45  H    0.000000  -0.000000   0.000000  -0.000026   0.000017   0.000045
    46  H    0.000000  -0.000000  -0.000000  -0.000027  -0.000000   0.000055
    47  H    0.384161  -0.024248  -0.023562   0.001158  -0.000096   0.000002
    48  H    0.000000   0.000000  -0.000000  -0.000071   0.000004   0.000368
               7          8          9         10         11         12
     1  C   -0.000042  -0.003197   0.012985   0.009289  -0.000884  -0.003925
     2  H   -0.000002   0.011969  -0.000011  -0.000425  -0.000092   0.000488
     3  H    0.000002  -0.007792  -0.001307   0.000149   0.000326   0.000081
     4  C   -0.030455  -0.013679  -0.094459  -0.044729   0.014525  -0.001677
     5  H   -0.010875  -0.063849   0.002576   0.001294  -0.000609  -0.082362
     6  O    0.263592  -0.048376   0.004094  -0.008093  -0.000375  -0.051309
     7  H    0.304544   0.007140  -0.000091  -0.000586   0.000115   0.011945
     8  C    0.007140   5.356396   0.494685   0.294619  -0.039678  -0.007971
     9  H   -0.000091   0.494685   0.576523  -0.058139  -0.006733   0.012102
    10  O   -0.000586   0.294619  -0.058139   8.021525   0.292287  -0.020195
    11  H    0.000115  -0.039678  -0.006733   0.292287   0.427590  -0.003820
    12  C    0.011945  -0.007971   0.012102  -0.020195  -0.003820   5.619601
    13  H   -0.000636   0.019408   0.002675   0.017517  -0.001070   0.431774
    14  C   -0.000713   0.115218  -0.107910  -0.062510   0.001973  -0.067898
    15  H    0.000055  -0.025300   0.008212  -0.003342   0.002434  -0.002315
    16  O   -0.000282  -0.045789   0.004438   0.009290   0.000085   0.217237
    17  N    0.000845  -0.002487  -0.000598  -0.000223  -0.000015   0.185213
    18  C   -0.000880  -0.003105  -0.000227  -0.000271   0.000010  -0.093890
    19  H    0.000058   0.001171   0.000068  -0.000006   0.000002   0.012726
    20  C   -0.000544  -0.001141   0.000026   0.000010  -0.000001   0.015959
    21  H   -0.000005  -0.000007   0.000000   0.000000  -0.000000   0.000431
    22  C    0.000004   0.000039  -0.000003  -0.000003   0.000000  -0.013295
    23  H   -0.000003   0.000000  -0.000000   0.000000   0.000000  -0.000006
    24  H    0.000021   0.000018  -0.000000   0.000000   0.000000   0.001697
    25  C    0.000857  -0.000183   0.000001  -0.000043  -0.000001  -0.012463
    26  C    0.000266  -0.003664  -0.000087  -0.000613  -0.000056  -0.063834
    27  H    0.000078  -0.000037  -0.000011  -0.000173   0.000007  -0.001596
    28  C    0.000068  -0.000005   0.000000   0.000000  -0.000000  -0.000486
    29  O    0.000007   0.000000   0.000000  -0.000000   0.000000   0.000409
    30  N    0.000000  -0.000000  -0.000000  -0.000000  -0.000000  -0.000002
    31  H   -0.000000  -0.000000   0.000000  -0.000000  -0.000000  -0.000005
    32  H   -0.000000  -0.000000  -0.000000   0.000000  -0.000000  -0.000012
    33  C    0.000858   0.000907   0.000025  -0.000897   0.000066  -0.000464
    34  C   -0.012051  -0.000020  -0.000025   0.000047  -0.000000  -0.002062
    35  C    0.000926  -0.000303  -0.000001   0.000003  -0.000001  -0.000706
    36  C   -0.000013  -0.000000  -0.000000  -0.000000  -0.000000  -0.000014
    37  C   -0.000296   0.000015  -0.000000   0.000000   0.000000  -0.000876
    38  O    0.083852  -0.000630  -0.000002  -0.000003  -0.000000   0.003391
    39  S    0.000245   0.000203  -0.000001   0.000003  -0.000003   0.000448
    40  H   -0.000875  -0.000048   0.000000   0.000018  -0.000001   0.000044
    41  H   -0.011734  -0.001383  -0.000002   0.002771  -0.000199  -0.000171
    42  H   -0.000001   0.000000  -0.000000  -0.000000   0.000000  -0.000000
    43  H    0.000001   0.000000   0.000000   0.000000   0.000000   0.000004
    44  H    0.000000   0.000000  -0.000000   0.000000   0.000000   0.000001
    45  H   -0.000030  -0.000001   0.000000  -0.000000  -0.000000  -0.000077
    46  H   -0.000171  -0.000000  -0.000000   0.000000   0.000000   0.000182
    47  H    0.000008  -0.010114   0.000405   0.000186   0.000097  -0.001189
    48  H    0.000845  -0.000030   0.000002   0.000003  -0.000003   0.000016
              13         14         15         16         17         18
     1  C    0.000528   0.173232  -0.059461  -0.029713  -0.000396  -0.001098
     2  H    0.000014  -0.047933  -0.005617   0.001392  -0.000086   0.000105
     3  H    0.000077  -0.037939  -0.003187   0.004905  -0.000028   0.000007
     4  C   -0.086448   0.093400  -0.008067  -0.059413   0.018214  -0.007831
     5  H    0.005544   0.008424  -0.000088   0.000348  -0.009443   0.000513
     6  O    0.009424   0.006176   0.000060   0.006996  -0.001386   0.002988
     7  H   -0.000636  -0.000713   0.000055  -0.000282   0.000845  -0.000880
     8  C    0.019408   0.115218  -0.025300  -0.045789  -0.002487  -0.003105
     9  H    0.002675  -0.107910   0.008212   0.004438  -0.000598  -0.000227
    10  O    0.017517  -0.062510  -0.003342   0.009290  -0.000223  -0.000271
    11  H   -0.001070   0.001973   0.002434   0.000085  -0.000015   0.000010
    12  C    0.431774  -0.067898  -0.002315   0.217237   0.185213  -0.093890
    13  H    0.501500  -0.012395   0.005533  -0.028843  -0.053762   0.012210
    14  C   -0.012395   5.319293   0.408046   0.195073   0.013177   0.000006
    15  H    0.005533   0.408046   0.592207  -0.038903  -0.001122   0.000307
    16  O   -0.028843   0.195073  -0.038903   8.133195  -0.083340   0.014883
    17  N   -0.053762   0.013177  -0.001122  -0.083340   6.374021   0.356449
    18  C    0.012210   0.000006   0.000307   0.014883   0.356449   5.036990
    19  H    0.001588  -0.002848   0.000232   0.014140  -0.045750   0.412697
    20  C    0.000644   0.000324   0.000020  -0.000198  -0.061809   0.448877
    21  H    0.000011  -0.000001  -0.000000  -0.000103   0.003776  -0.029979
    22  C   -0.000156  -0.000053   0.000002   0.000907  -0.027879  -0.008650
    23  H   -0.000014  -0.000000   0.000000  -0.000001  -0.001303   0.002729
    24  H    0.000010   0.000003  -0.000000   0.000026   0.013137   0.007362
    25  C    0.010254  -0.000056   0.000040  -0.002796  -0.021925   0.050490
    26  C   -0.019315  -0.000238  -0.000390   0.002014   0.328660  -0.180097
    27  H   -0.000342   0.000078  -0.000019   0.001010  -0.029889   0.007125
    28  C    0.000048  -0.000002  -0.000001  -0.000016   0.001088   0.000769
    29  O   -0.000041  -0.000000   0.000000  -0.000000  -0.000361   0.000175
    30  N   -0.000003  -0.000000  -0.000000  -0.000000  -0.000434   0.000135
    31  H    0.000000  -0.000000   0.000000   0.000000   0.000020  -0.000000
    32  H    0.000000   0.000000  -0.000000   0.000000   0.000024   0.000049
    33  C   -0.000452  -0.000100   0.000001   0.000001   0.000072  -0.000034
    34  C   -0.000224   0.000043  -0.000001   0.000052  -0.004163   0.002825
    35  C   -0.000066   0.000004   0.000000  -0.000062  -0.019632  -0.004035
    36  C    0.000002   0.000000  -0.000000  -0.000000  -0.000165   0.000046
    37  C   -0.000006  -0.000003   0.000000   0.000005   0.000222   0.005998
    38  O   -0.000334   0.000169  -0.000003   0.000074   0.012018   0.005009
[...]
      4        6          -0.003677400    0.019622419    0.017057114
      5        1           0.010746704    0.002259785   -0.011459338
      6        8           0.017201763   -0.011120437   -0.003957310
      7        1          -0.002205335   -0.004088255   -0.004201268
      8        6           0.014222936    0.000339929   -0.004856760
      9        1          -0.007382118    0.003007856   -0.010828322
     10        8          -0.001335197    0.007946375    0.002657643
     11        1          -0.010152502   -0.006479595   -0.002148191
     12        6           0.025455583   -0.021680409   -0.000478025
     13        1          -0.010483372   -0.005952588    0.002633145
     14        6          -0.019554998    0.002029324   -0.002273870
     15        1          -0.005212366   -0.006775586    0.010129689
     16        8           0.002063373   -0.004639643   -0.001011756
     17        7           0.004034231    0.007659591    0.005387078
     18        6           0.002740571   -0.002007359    0.001074339
     19        1          -0.003459044    0.006576123   -0.000789364
     20        6          -0.012581671   -0.000286087   -0.000407402
     21        1           0.004598875    0.005462194    0.000878097
     22        6           0.020988897   -0.000048484   -0.009072734
     23        1           0.005163150    0.000915175    0.005861881
     24        1          -0.009107949    0.015810324    0.024388805
     25        6          -0.019416125   -0.002858603   -0.001350335
     26        6           0.001136653   -0.003677485    0.002397736
     27        1          -0.006895766   -0.003382193    0.000685867
     28        6          -0.014901316   -0.014708630   -0.004083003
     29        8           0.018616465    0.019781126    0.014280541
     30        7           0.004744159   -0.008156231   -0.001873768
     31        1          -0.002394518    0.000920587   -0.001899624
     32        1          -0.002177161   -0.000258099   -0.002659327
     33        6          -0.009368837   -0.012934131   -0.012434896
     34        6           0.012023158   -0.055692395    0.028577044
     35        6          -0.024355986    0.012459634   -0.029417812
     36        6           0.007835431   -0.010822502    0.004141712
     37        6           0.014234484   -0.001761467   -0.002626005
     38        8          -0.011883669    0.030421330   -0.012678983
     39       16           0.011907304    0.013219033    0.006550875
     40        1           0.007352063    0.001238223   -0.001399040
     41        1          -0.003244531    0.005285735    0.006869500
     42        1           0.002545918    0.002768702   -0.000108359
     43        1          -0.003490754   -0.000707840    0.001857325
     44        1          -0.000359839   -0.002008130   -0.003771065
     45        1           0.004924215    0.000456187   -0.007152995
     46        1          -0.003286586   -0.002186430   -0.001329945
     47        1           0.001202460   -0.001205014   -0.001009468
     48        1          -0.003760118    0.004636321   -0.005323466
 -------------------------------------------------------------------
 Cartesian Forces:  Max     0.055692395 RMS     0.010899906
 Leave Link  716 at Wed Mar  8 15:22:02 2023, MaxMem=  2684354560 cpu:               0.9 elap:               0.1
 (Enter /opt/gaussian/g16/l103.exe)

 GradGradGradGradGradGradGradGradGradGradGradGradGradGradGradGradGradGrad
 Berny optimization.
 Search for a local minimum.
 Step number   1 out of a maximum of    2
 All quantities printed in internal units (Hartrees-Bohrs-Radians)
 Second derivative matrix not updated -- first step.
 ITU=  0
     Eigenvalues ---    0.00028   0.00060   0.00075   0.00101   0.00146
     Eigenvalues ---    0.00176   0.00209   0.00232   0.00285   0.00469
     Eigenvalues ---    0.00502   0.00629   0.00744   0.00887   0.00951
     Eigenvalues ---    0.01009   0.01128   0.01209   0.01271   0.01415
     Eigenvalues ---    0.01566   0.01921   0.02095   0.02244   0.02538
     Eigenvalues ---    0.02799   0.03005   0.03150   0.03641   0.03775
     Eigenvalues ---    0.03929   0.04405   0.04444   0.04705   0.05000
     Eigenvalues ---    0.05073   0.05138   0.05314   0.05460   0.05738
     Eigenvalues ---    0.05804   0.06024   0.06519   0.06734   0.06781
     Eigenvalues ---    0.07042   0.07476   0.07490   0.07648   0.07935
     Eigenvalues ---    0.08073   0.08476   0.08680   0.08989   0.10078
     Eigenvalues ---    0.10540   0.10853   0.11070   0.11224   0.11850
     Eigenvalues ---    0.12703   0.12936   0.13043   0.13149   0.13474
     Eigenvalues ---    0.13641   0.14018   0.14579   0.15041   0.15374
     Eigenvalues ---    0.16441   0.16711   0.17499   0.18198   0.18762
     Eigenvalues ---    0.20129   0.20196   0.20512   0.21249   0.22117
     Eigenvalues ---    0.24943   0.25466   0.26119   0.28353   0.28418
     Eigenvalues ---    0.31399   0.32649   0.33284   0.33354   0.36589
     Eigenvalues ---    0.36589   0.36589   0.36589   0.36667   0.40238
     Eigenvalues ---    0.42636   0.46237   0.47036   0.53194   0.53509
     Eigenvalues ---    0.58931   0.59391   0.66372   0.66569   0.71442
     Eigenvalues ---    0.74614   0.77467   0.77504   0.82888   0.85959
     Eigenvalues ---    0.87968   0.88765   0.90896   0.91131   0.92302
     Eigenvalues ---    0.92789   0.93671   0.95564   0.96446   0.99481
     Eigenvalues ---    1.01490   1.02470   1.04696   1.08231   1.09556
     Eigenvalues ---    1.13391   1.20935   1.23256   1.25937   1.29966
     Eigenvalues ---    1.30152   1.32441   1.39735   1.50586   1.72059
     Eigenvalues ---    1.73832   1.77846   2.48085
 Quadratic step=6.783D+00 exceeds max=3.000D-01 adjusted using Lamda=-9.866D-02.
 Angle between NR and scaled steps=  75.70 degrees.
 Angle between quadratic step and forces=  46.94 degrees.
 Linear search not attempted -- first point.
 Variable       Old X    -DE/DX   Delta X   Delta X   Delta X     New X
                                 (Linear)    (Quad)   (Total)
    X1        6.57143   0.00329   0.00000  -0.01293  -0.01293   6.55850
    Y1       -6.68412   0.02731   0.00000   0.05679   0.05679  -6.62733
    Z1       -1.45231   0.00191   0.00000   0.01281   0.01281  -1.43950
    X2        6.51897   0.00079   0.00000   0.00090   0.00090   6.51987
    Y2       -6.85383  -0.00344   0.00000   0.00017   0.00017  -6.85366
    Z2       -3.52014   0.00672   0.00000   0.02858   0.02858  -3.49156
    X3        8.38308  -0.00713   0.00000  -0.03510  -0.03510   8.34798
    Y3       -7.38108  -0.00325   0.00000   0.00627   0.00627  -7.37481
    Z3       -0.71060  -0.00346   0.00000  -0.00438  -0.00438  -0.71497
    X4        3.06325  -0.00368   0.00000   0.02930   0.02930   3.09255
    Y4       -2.16596   0.01962   0.00000   0.02662   0.02662  -2.13934
    Z4        1.93710   0.01706   0.00000   0.01128   0.01128   1.94838
    X5        1.66982   0.01075   0.00000   0.06540   0.06540   1.73522
    Y5       -3.73964   0.00226   0.00000   0.00913   0.00913  -3.73051
    Z5        2.00037  -0.01146   0.00000  -0.06005  -0.06005   1.94032
    X6        2.55367   0.01720   0.00000   0.05123   0.05123   2.60490
    Y6       -0.55352  -0.01112   0.00000  -0.01251  -0.01251  -0.56603
    Z6        3.94573  -0.00396   0.00000   0.01183   0.01183   3.95757
    X7        0.80467  -0.00221   0.00000   0.02654   0.02654   0.83121
    Y7        0.24766  -0.00409   0.00000  -0.04305  -0.04305   0.20462
    Z7        3.89601  -0.00420   0.00000  -0.01878  -0.01878   3.87724
    X8        5.85209   0.01422   0.00000   0.01010   0.01010   5.86219
    Y8       -3.13965   0.00034   0.00000   0.02537   0.02537  -3.11428
    Z8        2.02760  -0.00486   0.00000  -0.01792  -0.01792   2.00968
    X9        6.17489  -0.00738   0.00000  -0.03633  -0.03633   6.13856
    Y9       -4.69025   0.00301   0.00000   0.00692   0.00692  -4.68332
    Z9        3.39996  -0.01083   0.00000  -0.05560  -0.05560   3.34437
   X10        7.36674  -0.00134   0.00000  -0.01849  -0.01849   7.34825
   Y10       -1.05150   0.00795   0.00000   0.03165   0.03165  -1.01985
   Z10        2.75253   0.00266   0.00000   0.00425   0.00425   2.75678
   X11        9.15909  -0.01015   0.00000  -0.04156  -0.04156   9.11753
   Y11       -1.41727  -0.00648   0.00000  -0.03248  -0.03248  -1.44975
   Z11        2.78810  -0.00215   0.00000  -0.00932  -0.00932   2.77878
   X12        3.14703   0.02546   0.00000   0.03343   0.03343   3.18047
   Y12       -0.79025  -0.02168   0.00000  -0.03925  -0.03925  -0.82950
   Z12       -0.65833  -0.00048   0.00000  -0.00613  -0.00613  -0.66446
   X13        4.31597  -0.01048   0.00000  -0.02912  -0.02912   4.28685
   Y13        0.93961  -0.00595   0.00000  -0.02429  -0.02429   0.91532
   Z13       -0.48699   0.00263   0.00000   0.01015   0.01015  -0.47684
   X14        6.46007  -0.01955   0.00000  -0.04668  -0.04668   6.41339
   Y14       -3.82794   0.00203   0.00000   0.01517   0.01517  -3.81277
   Z14       -0.79708  -0.00227   0.00000  -0.00117  -0.00117  -0.79825
   X15        8.19849  -0.00521   0.00000  -0.02543  -0.02543   8.17307
   Y15       -2.86450  -0.00678   0.00000  -0.02411  -0.02411  -2.88861
   Z15       -1.46360   0.01013   0.00000   0.05291   0.05291  -1.41069
   X16        4.41587   0.00206   0.00000  -0.00862  -0.00862   4.40724
   Y16       -2.60511  -0.00464   0.00000  -0.02332  -0.02332  -2.62844
   Z16       -2.20914  -0.00101   0.00000  -0.02718  -0.02718  -2.23632
   X17        0.79340   0.00403   0.00000   0.01069   0.01069   0.80410
   Y17       -0.16774   0.00766   0.00000  -0.00115  -0.00115  -0.16889
   Z17       -1.90459   0.00539   0.00000   0.02017   0.02017  -1.88443
   X18       -0.93945   0.00274   0.00000  -0.00253  -0.00253  -0.94197
   Y18       -2.03183  -0.00201   0.00000   0.00791   0.00791  -2.02393
   Z18       -2.33501   0.00107   0.00000   0.00932   0.00932  -2.32569
   X19       -0.31327  -0.00346   0.00000  -0.01610  -0.01610  -0.32937
   Y19       -3.93329   0.00658   0.00000   0.01901   0.01901  -3.91427
   Z19       -1.85397  -0.00079   0.00000   0.00650   0.00650  -1.84747
   X20       -3.20398  -0.01258   0.00000  -0.00593  -0.00593  -3.20991
   Y20       -1.48039  -0.00029   0.00000   0.00195   0.00195  -1.47845
   Z20       -3.37872  -0.00041   0.00000   0.00135   0.00135  -3.37736
   X21       -4.56312   0.00460   0.00000   0.00420   0.00420  -4.55892
   Y21       -3.00048   0.00546   0.00000   0.01474   0.01474  -2.98574
   Z21       -3.67816   0.00088   0.00000   0.00421   0.00421  -3.67395
   X22       -3.84714   0.02099   0.00000   0.03507   0.03507  -3.81207
   Y22        1.07897  -0.00005   0.00000  -0.01247  -0.01247   1.06649
   Z22       -3.99695  -0.00907   0.00000  -0.03589  -0.03589  -4.03284
   X23       -5.52473   0.00516   0.00000   0.02342   0.02342  -5.50132
   Y23        1.44757   0.00092   0.00000   0.00582   0.00582   1.45339
   Z23       -5.14078   0.00586   0.00000   0.01199   0.01199  -5.12879
   X24       -5.14610  -0.00911   0.00000  -0.02653  -0.02653  -5.17263
   Y24        2.40035   0.01581   0.00000   0.05086   0.05086   2.45121
   Z24       -1.46775   0.02439   0.00000   0.08994   0.08994  -1.37780
   X25       -1.76715  -0.01942   0.00000  -0.02390  -0.02390  -1.79105
   Y25        2.83647  -0.00286   0.00000  -0.00213  -0.00213   2.83434
   Z25       -4.00224  -0.00135   0.00000   0.00890   0.00890  -3.99334
   X26        0.41716   0.00114   0.00000  -0.01749  -0.01749   0.39967
   Y26        2.22582  -0.00368   0.00000  -0.00878  -0.00878   2.21704
   Z26       -2.77615   0.00240   0.00000   0.01387   0.01387  -2.76228
   X27        1.97997  -0.00690   0.00000  -0.03613  -0.03613   1.94384
   Y27        3.55321  -0.00338   0.00000  -0.00618  -0.00618   3.54704
   Z27       -2.55244   0.00069   0.00000   0.01168   0.01168  -2.54076
   X28       -2.17572  -0.01490   0.00000  -0.02980  -0.02980  -2.20552
   Y28        5.47057  -0.01471   0.00000   0.00345   0.00345   5.47402
   Z28       -5.00347  -0.00408   0.00000   0.02908   0.02908  -4.97439
   X29       -1.46230   0.01862   0.00000   0.06035   0.06035  -1.40195
   Y29        7.33229   0.01978   0.00000   0.00445   0.00445   7.33674
   Z29       -3.95748   0.01428   0.00000   0.01595   0.01595  -3.94152
   X30       -3.69813   0.00474   0.00000   0.00984   0.00984  -3.68829
   Y30        5.64413  -0.00816   0.00000  -0.01554  -0.01554   5.62860
   Z30       -7.09796  -0.00187   0.00000  -0.00820  -0.00820  -7.10617
   X31       -3.68319  -0.00239   0.00000  -0.01213  -0.01213  -3.69533
   Y31        7.38108   0.00092   0.00000  -0.01248  -0.01248   7.36860
   Z31       -7.87669  -0.00190   0.00000  -0.01310  -0.01310  -7.88979
   X32       -3.70677  -0.00218   0.00000  -0.00738  -0.00738  -3.71415
   Y32        4.17057  -0.00026   0.00000  -0.01318  -0.01318   4.15739
   Z32       -8.29884  -0.00266   0.00000  -0.01266  -0.01266  -8.31149
   X33        1.66935  -0.00937   0.00000  -0.01875  -0.01875   1.65060
   Y33        4.01550  -0.01293   0.00000  -0.02116  -0.02116   3.99433
   Z33        7.28467  -0.01243   0.00000  -0.02863  -0.02863   7.25605
   X34       -1.70281   0.01202   0.00000  -0.00873  -0.00873  -1.71154
   Y34        3.81321  -0.05569   0.00000  -0.03122  -0.03122   3.78198
   Z34        3.09096   0.02858   0.00000   0.01845   0.01845   3.10941
   X35       -3.33488  -0.02436   0.00000  -0.00547  -0.00547  -3.34035
   Y35        4.93146   0.01246   0.00000   0.00713   0.00713   4.93859
   Z35        1.44584  -0.02942   0.00000  -0.03224  -0.03224   1.41360
   X36       -7.43497   0.00784   0.00000   0.02270   0.02270  -7.41227
   Y36        5.91225  -0.01082   0.00000  -0.02405  -0.02405   5.88819
   Z36       -0.74025   0.00414   0.00000   0.00995   0.00995  -0.73030
   X37       -5.66539   0.01423   0.00000   0.02226   0.02226  -5.64313
   Y37        3.84675  -0.00176   0.00000   0.01099   0.01099   3.85774
   Z37        0.33771  -0.00263   0.00000   0.01211   0.01211   0.34983
   X38       -1.64929  -0.01188   0.00000  -0.07696  -0.07696  -1.72625
   Y38        1.44569   0.03042   0.00000   0.00582   0.00582   1.45151
   Z38        3.69531  -0.01268   0.00000  -0.01438  -0.01438   3.68093
   X39        0.49497   0.01191   0.00000   0.02120   0.02120   0.51617
   Y39        5.85023   0.01322   0.00000   0.00759   0.00759   5.85782
   Z39        4.59183   0.00655   0.00000   0.00218   0.00218   4.59401
   X40        0.01168   0.00735   0.00000   0.01478   0.01478   0.02647
   Y40        3.28629   0.00124   0.00000  -0.00969  -0.00969   3.27660
   Z40        8.29884  -0.00140   0.00000  -0.00328  -0.00328   8.29555
   X41        2.81073  -0.00324   0.00000   0.00186   0.00186   2.81260
   Y41        2.45129   0.00529   0.00000  -0.00177  -0.00177   2.44951
   Z41        6.54155   0.00687   0.00000   0.02378   0.02378   6.56532
   X42       -9.15909   0.00255   0.00000   0.02292   0.02292  -9.13617
   Y42        5.07159   0.00277   0.00000  -0.00206  -0.00206   5.06953
   Z42       -1.51433  -0.00011   0.00000   0.00096   0.00096  -1.51337
   X43       -6.43929  -0.00349   0.00000  -0.00352  -0.00352  -6.44281
   Y43        6.97202  -0.00071   0.00000  -0.00796  -0.00796   6.96406
   Z43       -2.21396   0.00186   0.00000   0.01101   0.01101  -2.20295
   X44       -7.93995  -0.00036   0.00000   0.00529   0.00529  -7.93466
   Y44        7.22323  -0.00201   0.00000  -0.01523  -0.01523   7.20801
   Z44        0.78129  -0.00377   0.00000  -0.01150  -0.01150   0.76979
   X45       -6.64446   0.00492   0.00000   0.03529   0.03529  -6.60917
   Y45        2.58862   0.00046   0.00000  -0.00349  -0.00349   2.58513
   Z45        1.67948  -0.00715   0.00000  -0.01539  -0.01539   1.66409
   X46       -2.92201  -0.00329   0.00000  -0.01243  -0.01243  -2.93444
   Y46        6.90132  -0.00219   0.00000   0.00218   0.00218   6.90350
   Z46        1.01656  -0.00133   0.00000  -0.02371  -0.02371   0.99285
   X47        4.98611   0.00120   0.00000   0.00287   0.00287   4.98897
   Y47       -7.68418  -0.00121   0.00000   0.01663   0.01663  -7.66755
   Z47       -0.59825  -0.00101   0.00000  -0.00258  -0.00258  -0.60083
   X48        2.81834  -0.00376   0.00000  -0.03469  -0.03469   2.78365
   Y48        5.19424   0.00464   0.00000   0.02085   0.02085   5.21510
   Z48        8.52288  -0.00532   0.00000  -0.04746  -0.04746   8.47542
         Item               Value     Threshold  Converged?
 Maximum Force            0.055692     0.000450     NO 
 RMS     Force            0.010900     0.000300     NO 
 Maximum Displacement     0.089943     0.001800     NO 
 RMS     Displacement     0.025024     0.001200     NO 
 Predicted change in Energy=-1.785741D-02
 GradGradGradGradGradGradGradGradGradGradGradGradGradGradGradGradGradGrad

 Leave Link  103 at Wed Mar  8 15:22:02 2023, MaxMem=  2684354560 cpu:               1.7 elap:               0.1
 (Enter /opt/gaussian/g16/l9999.exe)

 Test job not archived.
 1\1\GINC-JULIO-SYS\Force\RM062X\def2TZVP\C16H24N2O5S1\JVELAZQUEZ\08-Ma
 r-2023\0\\#P M062X/Def2TZVP scf=(direct,conver=8) EmpiricalDispersion=
 GD3 NoSymm Force pop=(NBORead) Charge Prop=(Field,Read)\\Gaussian run 
 using SANDER external interface, route from template gau_job.tpl\\0,1\
 C,3.4774532209,-3.5370852541,-0.7685269211\H,3.4496912321,-3.626891722
 4,-1.8627785595\H,4.4361332124,-3.9058999384,-0.3760312822\C,1.6210025
 073,-1.146178772,1.0250705797\H,0.8836319592,-1.9789340474,1.058552284
 1\O,1.3513421975,-0.2929104543,2.0879913664\H,0.4258106143,0.131058367
 4,2.0616814259\C,3.0967948508,-1.661433252,1.0729599792\H,3.2676084766
 ,-2.4819716829,1.7991839559\O,3.8983115847,-0.5564293762,1.4565751015\
 H,4.8467813115,-0.7499854744,1.4753976768\C,1.665338835,-0.4181819687,
 -0.3483739905\H,2.2839136834,0.4972225516,-0.2577019072\C,3.4185218859
 ,-2.0256585539,-0.4217960009\H,4.3384563545,-1.5158267292,-0.774505681
 2\O,2.3367755695,-1.3785670278,-1.1690280754\N,0.4198501621,-0.0887642
 03,-1.0078675948\C,-0.4971339906,-1.075200762,-1.2356322507\H,-0.16577
 62839,-2.0814053644,-0.9810788081\C,-1.6954729949,-0.7833912466,-1.787
 9392524\H,-2.4147014977,-1.5877879988,-1.9463996012\C,-2.0358166166,0.
 5709638158,-2.1150944127\H,-2.923562314,0.7660220711,-2.7203848941\H,-
 2.7232006935,1.2702106507,-0.7766983749\C,-0.9351352314,1.5009944064,-
 2.1178946315\C,0.2207507075,1.17785438,-1.4690761884\H,1.0477571279,1.
 8802794306,-1.3506936093\C,-1.151339881,2.8949030191,-2.647722606\O,-0
 .7738162532,3.8800815011,-2.0942070341\N,-1.9569650447,2.9867459055,-3
 .7560813048\H,-1.9490617701,3.9058999384,-4.1681647464\H,-1.9615389486
 ,2.2069697907,-4.3915545659\C,0.883381625,2.1249084505,3.8548833238\C,
 -0.9010857779,2.0178620132,1.6356651552\C,-1.7647402351,2.6096167838,0
 .7651039244\C,-3.9344186703,3.1286266971,-0.391725521\C,-2.997995458,2
 .0356122958,0.1787088304\O,-0.8727651658,0.7650259625,1.9554740055\S,0
 .2619280041,3.095808224,2.4298916069\H,0.006181769,1.7390324131,4.3915
 545659\H,1.487375566,1.2971652541,3.4616369829\H,-4.8467813115,2.68377
 02501,-0.8013471081\H,-3.4075249241,3.6894357249,-1.171578304\H,-4.201
 6423117,3.8223696407,0.4134394154\H,-3.5160961213,1.3698410122,0.88874
 33968\H,-1.5462629738,3.6520225805,0.5379407481\H,2.6385347583,-4.0662
 935771,-0.3165818316\H,1.4914016143,2.7486754532,4.5101133741\\Version
 =ES64L-G16RevA.03\HF=-1507.8400201\RMSD=4.653e-09\RMSF=1.090e-02\Dipol
 e=0.3551935,-2.065221,-2.829194\Quadrupole=9.6177043,-10.9858613,1.368
 157,-5.6136199,9.8105597,-7.9365728\PG=C01 [X(C16H24N2O5S1)]\\@


 IF MATHEMATICALLY YOU END UP WITH THE INCORRECT ANSWER,
 TRY MULTIPLYING BY THE PAGE NUMBER.
 Job cpu time:       0 days  7 hours 12 minutes 24.3 seconds.
 Elapsed time:       0 days  0 hours 27 minutes  5.9 seconds.
 File lengths (MBytes):  RWF=    435 Int=      0 D2E=      0 Chk=     48 Scr=      1
 Normal termination of Gaussian 16 at Wed Mar  8 15:22:02 2023.
