 Entering Gaussian System, Link 0=g16
 Initial command:
 /opt/gaussian/g16/l1.exe "/opt/gaussian/scratch16/Gau-2710995.inp" -scrdir="/opt/gaussian/scratch16/"
 Entering Link 1 = /opt/gaussian/g16/l1.exe PID=   2710997.
  
 Copyright (c) 1988,1990,1992,1993,1995,1998,2003,2009,2016,
            Gaussian, Inc.  All Rights Reserved.
  
 This is part of the Gaussian(R) 16 program.  It is based on
 the Gaussian(R) 09 system (copyright 2009, Gaussian, Inc.),
 the Gaussian(R) 03 system (copyright 2003, Gaussian, Inc.),
 the Gaussian(R) 98 system (copyright 1998, Gaussian, Inc.),
 the Gaussian(R) 94 system (copyright 1995, Gaussian, Inc.),
 the Gaussian 92(TM) system (copyright 1992, Gaussian, Inc.),
 the Gaussian 90(TM) system (copyright 1990, Gaussian, Inc.),
 the Gaussian 88(TM) system (copyright 1988, Gaussian, Inc.),
 the Gaussian 86(TM) system (copyright 1986, Carnegie Mellon
 University), and the Gaussian 82(TM) system (copyright 1983,
 Carnegie Mellon University). Gaussian is a federally registered
 trademark of Gaussian, Inc.
  
 This software contains proprietary and confidential information,
 including trade secrets, belonging to Gaussian, Inc.
  
 This software is provided under written license and may be
 used, copied, transmitted, or stored only in accord with that
 written license.
  
 The following legend is applicable only to US Government
 contracts under FAR:
  
                    RESTRICTED RIGHTS LEGEND
  
 Use, reproduction and disclosure by the US Government is
 subject to restrictions as set forth in subparagraphs (a)
 and (c) of the Commercial Computer Software - Restricted
 Rights clause in FAR 52.227-19.
  
 Gaussian, Inc.
 340 Quinnipiac St., Bldg. 40, Wallingford CT 06492
  
  
 ---------------------------------------------------------------
 Warning -- This program may not be used in any manner that
 competes with the business of Gaussian, Inc. or will provide
 assistance to any competitor of Gaussian, Inc.  The licensee
 of this program is prohibited from giving any competitor of
 Gaussian, Inc. access to this program.  By using this program,
 the user acknowledges that Gaussian, Inc. is engaged in the
 business of creating and licensing software in the field of
 computational chemistry and represents and warrants to the
 licensee that it is not a competitor of Gaussian, Inc. and that
 it will not use this program in any manner prohibited above.
 ---------------------------------------------------------------
  

 Cite this work as:
 Gaussian 16, Revision A.03,
 M. J. Frisch, G. W. Trucks, H. B. Schlegel, G. E. Scuseria, 
 M. A. Robb, J. R. Cheeseman, G. Scalmani, V. Barone, 
 G. A. Petersson, H. Nakatsuji, X. Li, M. Caricato, A. V. Marenich, 
 J. Bloino, B. G. Janesko, R. Gomperts, B. Mennucci, H. P. Hratchian, 
 J. V. Ortiz, A. F. Izmaylov, J. L. Sonnenberg, D. Williams-Young, 
 F. Ding, F. Lipparini, F. Egidi, J. Goings, B. Peng, A. Petrone, 
 T. Henderson, D. Ranasinghe, V. G. Zakrzewski, J. Gao, N. Rega, 
 G. Zheng, W. Liang, M. Hada, M. Ehara, K. Toyota, R. Fukuda, 
 J. Hasegawa, M. Ishida, T. Nakajima, Y. Honda, O. Kitao, H. Nakai, 
 T. Vreven, K. Throssell, J. A. Montgomery, Jr., J. E. Peralta, 
 F. Ogliaro, M. J. Bearpark, J. J. Heyd, E. N. Brothers, K. N. Kudin, 
 V. N. Staroverov, T. A. Keith, R. Kobayashi, J. Normand, 
 K. Raghavachari, A. P. Rendell, J. C. Burant, S. S. Iyengar, 
 J. Tomasi, M. Cossi, J. M. Millam, M. Klene, C. Adamo, R. Cammi, 
 J. W. Ochterski, R. L. Martin, K. Morokuma, O. Farkas, 
 J. B. Foresman, and D. J. Fox, Gaussian, Inc., Wallingford CT, 2016.
 
 ******************************************
 Gaussian 16:  ES64L-G16RevA.03 25-Dec-2016
                 8-Mar-2023 
 ******************************************
 %chk=27.chk
 %NProcShared=16
 Will use up to   16 processors via shared memory.
 %mem=20GB
 ----------------------------------------------------------------------
 #P M062X/Def2TZVP scf=(direct,conver=8) EmpiricalDispersion=GD3 NoSymm
  Force pop=(NBORead) Charge Prop=(Field,Read)
 ----------------------------------------------------------------------
 1/10=7,18=10,28=-2,30=1,38=1,125=101/1,3;
 2/12=2,15=1,17=6,18=5,29=2,40=1/2;
 3/5=44,7=101,11=2,25=1,30=1,71=1,74=-55,124=31/1,2,3;
 4//1;
 5/5=2,6=8,38=5/2;
 6/7=2,8=2,9=2,10=2,14=2,15=1,28=1,40=2/1,2,7;
 7/7=1,16=-2,29=1,30=1/1,2,3,16;
 1/10=7,18=10,28=-2,30=1/3;
 99/12=1/99;
 Leave Link    1 at Wed Mar  8 15:19:44 2023, MaxMem=  2684354560 cpu:               1.0 elap:               0.1
 (Enter /opt/gaussian/g16/l101.exe)
 ----------------------------------------------------------------------
 Gaussian run using SANDER external interface, route from template gau_
 job.tpl
 ----------------------------------------------------------------------
 Symbolic Z-matrix:
 Charge =  0 Multiplicity = 1
 C                     3.48238  -3.53961  -0.73103 
 H                     3.45683  -3.62966  -1.82548 
 H                     4.4409   -3.90792  -0.33764 
 C                     1.62024  -1.14232   1.0587 
 H                     0.88411  -1.97691   1.09655 
 O                     1.35063  -0.28594   2.11333 
 H                     0.41403   0.15913   2.07848 
 C                     3.09728  -1.65948   1.10761 
 H                     3.26512  -2.47733   1.83787 
 O                     3.89985  -0.55441   1.4872 
 H                     4.84771  -0.74994   1.51123 
 C                     1.6662   -0.42158  -0.31918 
 H                     2.27793   0.49868  -0.22932 
 C                     3.42268  -2.02809  -0.38483 
 H                     4.34393  -1.51925  -0.73568 
 O                     2.34224  -1.38089  -1.13576 
 N                     0.4188   -0.10964  -0.99141 
 C                    -0.46629  -1.10613  -1.22442 
 H                    -0.15489  -2.10203  -0.9112 
 C                    -1.65488  -0.84412  -1.8458 
 H                    -2.34658  -1.66332  -2.02837 
 C                    -1.97701   0.478    -2.23173 
 H                    -2.88007   0.67749  -2.81242 
 H                    -2.77196   1.29953  -0.63017 
 C                    -0.9432    1.45436  -2.13034 
 C                     0.2067    1.1505   -1.43953 
 H                     0.99397   1.88508  -1.27473 
 C                    -1.15884   2.86171  -2.64449 
 O                    -0.77078   3.82778  -2.07338 
 N                    -1.94674   2.9768   -3.7592 
 H                    -1.94125   3.90792  -4.14872 
 H                    -1.96509   2.21452  -4.41564 
 C                     0.90641   2.12112   3.89259 
 C                    -0.89177   2.03703   1.67803 
 C                    -1.76731   2.64017   0.85495 
 C                    -3.93267   3.17404  -0.34776 
 C                    -3.02171   2.04617   0.23028 
 O                    -0.84515   0.75971   1.96012 
 S                     0.31732   3.08584   2.44875 
 H                     0.01403   1.75291   4.41564 
 H                     1.50509   1.28187   3.5163 
 H                    -4.84771   2.73173  -0.75271 
 H                    -3.38404   3.70524  -1.13041 
 H                    -4.19412   3.88411   0.44543 
 H                    -3.56929   1.47159   1.00579 
 H                    -1.59331   3.70407   0.68842 
 H                     2.64345  -4.06961  -0.28004 
 H                     1.51055   2.74487   4.55141 
 
 ITRead=  0  0  0  0  0  0  0  0  0  0  0  0  0  0  0  0  0  0  0  0
 ITRead=  0  0  0  0  0  0  0  0  0  0  0  0  0  0  0  0  0  0  0  0
 ITRead=  0  0  0  0  0  0  0  0
 MicOpt= -1 -1 -1 -1 -1 -1 -1 -1 -1 -1 -1 -1 -1 -1 -1 -1 -1 -1 -1 -1
 MicOpt= -1 -1 -1 -1 -1 -1 -1 -1 -1 -1 -1 -1 -1 -1 -1 -1 -1 -1 -1 -1
 MicOpt= -1 -1 -1 -1 -1 -1 -1 -1
 NAtoms=     48 NQM=       48 NQMF=       0 NMMI=      0 NMMIF=      0
                NMic=       0 NMicF=      0.
                    Isotopes and Nuclear Properties:
 (Nuclear quadrupole moments (NQMom) in fm**2, nuclear magnetic moments (NMagM)
  in nuclear magnetons)

  Atom         1           2           3           4           5           6           7           8           9          10
 IAtWgt=          12           1           1          12           1          16           1          12           1          16
 AtmWgt=  12.0000000   1.0078250   1.0078250  12.0000000   1.0078250  15.9949146   1.0078250  12.0000000   1.0078250  15.9949146
 NucSpn=           0           1           1           0           1           0           1           0           1           0
 AtZEff=  -0.0000000  -0.0000000  -0.0000000  -0.0000000  -0.0000000  -0.0000000  -0.0000000  -0.0000000  -0.0000000  -0.0000000
 NQMom=    0.0000000   0.0000000   0.0000000   0.0000000   0.0000000   0.0000000   0.0000000   0.0000000   0.0000000   0.0000000
 NMagM=    0.0000000   2.7928460   2.7928460   0.0000000   2.7928460   0.0000000   2.7928460   0.0000000   2.7928460   0.0000000
 AtZNuc=   6.0000000   1.0000000   1.0000000   6.0000000   1.0000000   8.0000000   1.0000000   6.0000000   1.0000000   8.0000000

  Atom        11          12          13          14          15          16          17          18          19          20
 IAtWgt=           1          12           1          12           1          16          14          12           1          12
 AtmWgt=   1.0078250  12.0000000   1.0078250  12.0000000   1.0078250  15.9949146  14.0030740  12.0000000   1.0078250  12.0000000
 NucSpn=           1           0           1           0           1           0           2           0           1           0
 AtZEff=  -0.0000000  -0.0000000  -0.0000000  -0.0000000  -0.0000000  -0.0000000  -0.0000000  -0.0000000  -0.0000000  -0.0000000
 NQMom=    0.0000000   0.0000000   0.0000000   0.0000000   0.0000000   0.0000000   2.0440000   0.0000000   0.0000000   0.0000000
 NMagM=    2.7928460   0.0000000   2.7928460   0.0000000   2.7928460   0.0000000   0.4037610   0.0000000   2.7928460   0.0000000
 AtZNuc=   1.0000000   6.0000000   1.0000000   6.0000000   1.0000000   8.0000000   7.0000000   6.0000000   1.0000000   6.0000000

  Atom        21          22          23          24          25          26          27          28          29          30
 IAtWgt=           1          12           1           1          12          12           1          12          16          14
 AtmWgt=   1.0078250  12.0000000   1.0078250   1.0078250  12.0000000  12.0000000   1.0078250  12.0000000  15.9949146  14.0030740
 NucSpn=           1           0           1           1           0           0           1           0           0           2
 AtZEff=  -0.0000000  -0.0000000  -0.0000000  -0.0000000  -0.0000000  -0.0000000  -0.0000000  -0.0000000  -0.0000000  -0.0000000
 NQMom=    0.0000000   0.0000000   0.0000000   0.0000000   0.0000000   0.0000000   0.0000000   0.0000000   0.0000000   2.0440000
 NMagM=    2.7928460   0.0000000   2.7928460   2.7928460   0.0000000   0.0000000   2.7928460   0.0000000   0.0000000   0.4037610
 AtZNuc=   1.0000000   6.0000000   1.0000000   1.0000000   6.0000000   6.0000000   1.0000000   6.0000000   8.0000000   7.0000000

  Atom        31          32          33          34          35          36          37          38          39          40
 IAtWgt=           1           1          12          12          12          12          12          16          32           1
 AtmWgt=   1.0078250   1.0078250  12.0000000  12.0000000  12.0000000  12.0000000  12.0000000  15.9949146  31.9720718   1.0078250
 NucSpn=           1           1           0           0           0           0           0           0           0           1
 AtZEff=  -0.0000000  -0.0000000  -0.0000000  -0.0000000  -0.0000000  -0.0000000  -0.0000000  -0.0000000  -0.0000000  -0.0000000
 NQMom=    0.0000000   0.0000000   0.0000000   0.0000000   0.0000000   0.0000000   0.0000000   0.0000000   0.0000000   0.0000000
 NMagM=    2.7928460   2.7928460   0.0000000   0.0000000   0.0000000   0.0000000   0.0000000   0.0000000   0.0000000   2.7928460
 AtZNuc=   1.0000000   1.0000000   6.0000000   6.0000000   6.0000000   6.0000000   6.0000000   8.0000000  16.0000000   1.0000000

  Atom        41          42          43          44          45          46          47          48
 IAtWgt=           1           1           1           1           1           1           1           1
 AtmWgt=   1.0078250   1.0078250   1.0078250   1.0078250   1.0078250   1.0078250   1.0078250   1.0078250
 NucSpn=           1           1           1           1           1           1           1           1
 AtZEff=  -0.0000000  -0.0000000  -0.0000000  -0.0000000  -0.0000000  -0.0000000  -0.0000000  -0.0000000
 NQMom=    0.0000000   0.0000000   0.0000000   0.0000000   0.0000000   0.0000000   0.0000000   0.0000000
 NMagM=    2.7928460   2.7928460   2.7928460   2.7928460   2.7928460   2.7928460   2.7928460   2.7928460
 AtZNuc=   1.0000000   1.0000000   1.0000000   1.0000000   1.0000000   1.0000000   1.0000000   1.0000000
 Background charge distribution read from input stream:
 Leave Link  101 at Wed Mar  8 15:19:44 2023, MaxMem=  2684354560 cpu:               4.0 elap:               0.3
 (Enter /opt/gaussian/g16/l103.exe)

 GradGradGradGradGradGradGradGradGradGradGradGradGradGradGradGradGradGrad
 Berny optimization.
 Initialization pass.
 Trust Radius=3.00D-01 FncErr=1.00D-07 GrdErr=1.00D-07 EigMax=2.50D+02 EigMin=1.00D-04
 Number of steps in this run=      2 maximum allowed number of steps=      2.
 GradGradGradGradGradGradGradGradGradGradGradGradGradGradGradGradGradGrad

 Leave Link  103 at Wed Mar  8 15:19:44 2023, MaxMem=  2684354560 cpu:               0.4 elap:               0.0
 (Enter /opt/gaussian/g16/l202.exe)
 ---------------------------------------------------------------------------------------------------
                            Z-MATRIX (ANGSTROMS AND DEGREES)
   CD    Cent   Atom    N1       Length/X        N2       Alpha/Y        N3        Beta/Z          J
 ---------------------------------------------------------------------------------------------------
      1      1  C        0   3.482378         -3.539612         -0.731033
      2      2  H        0   3.456829         -3.629665         -1.825480
      3      3  H        0   4.440895         -3.907916         -0.337638
      4      4  C        0   1.620241         -1.142318          1.058701
      5      5  H        0   0.884107         -1.976912          1.096546
      6      6  O        0   1.350629         -0.285938          2.113331
      7      7  H        0   0.414034          0.159129          2.078475
      8      8  C        0   3.097279         -1.659484          1.107609
      9      9  H        0   3.265119         -2.477328          1.837870
     10     10  O        0   3.899848         -0.554412          1.487203
     11     11  H        0   4.847713         -0.749936          1.511226
     12     12  C        0   1.666199         -0.421578         -0.319177
     13     13  H        0   2.277929          0.498681         -0.229320
     14     14  C        0   3.422676         -2.028087         -0.384832
     15     15  H        0   4.343930         -1.519245         -0.735676
     16     16  O        0   2.342241         -1.380885         -1.135759
     17     17  N        0   0.418798         -0.109637         -0.991408
     18     18  C        0  -0.466295         -1.106129         -1.224420
     19     19  H        0  -0.154891         -2.102028         -0.911195
     20     20  C        0  -1.654884         -0.844119         -1.845805
     21     21  H        0  -2.346584         -1.663320         -2.028370
     22     22  C        0  -1.977008          0.478001         -2.231726
     23     23  H        0  -2.880067          0.677489         -2.812425
     24     24  H        0  -2.771958          1.299528         -0.630170
     25     25  C        0  -0.943201          1.454358         -2.130341
     26     26  C        0   0.206703          1.150503         -1.439529
     27     27  H        0   0.993966          1.885082         -1.274726
     28     28  C        0  -1.158839          2.861714         -2.644495
     29     29  O        0  -0.770785          3.827779         -2.073384
     30     30  N        0  -1.946742          2.976796         -3.759195
     31     31  H        0  -1.941248          3.907916         -4.148722
     32     32  H        0  -1.965089          2.214517         -4.415642
     33     33  C        0   0.906413          2.121123          3.892587
     34     34  C        0  -0.891774          2.037025          1.678028
     35     35  C        0  -1.767313          2.640165          0.854948
     36     36  C        0  -3.932666          3.174040         -0.347758
     37     37  C        0  -3.021705          2.046172          0.230276
     38     38  O        0  -0.845154          0.759706          1.960124
     39     39  S        0   0.317325          3.085840          2.448747
     40     40  H        0   0.014029          1.752912          4.415642
     41     41  H        0   1.505086          1.281869          3.516299
     42     42  H        0  -4.847713          2.731735         -0.752712
     43     43  H        0  -3.384042          3.705237         -1.130412
     44     44  H        0  -4.194122          3.884108          0.445425
     45     45  H        0  -3.569293          1.471587          1.005791
     46     46  H        0  -1.593306          3.704066          0.688424
     47     47  H        0   2.643446         -4.069614         -0.280045
     48     48  H        0   1.510555          2.744872          4.551412
 ---------------------------------------------------------------------------------------------------
                         Z-Matrix orientation:                         
 ---------------------------------------------------------------------
 Center     Atomic      Atomic             Coordinates (Angstroms)
 Number     Number       Type             X           Y           Z
 ---------------------------------------------------------------------
      1          6           0        3.482378   -3.539612   -0.731033
      2          1           0        3.456829   -3.629665   -1.825480
      3          1           0        4.440895   -3.907916   -0.337638
      4          6           0        1.620241   -1.142318    1.058701
      5          1           0        0.884107   -1.976912    1.096546
      6          8           0        1.350629   -0.285938    2.113331
      7          1           0        0.414034    0.159129    2.078475
      8          6           0        3.097279   -1.659484    1.107609
      9          1           0        3.265119   -2.477328    1.837870
     10          8           0        3.899848   -0.554412    1.487203
     11          1           0        4.847713   -0.749936    1.511226
     12          6           0        1.666199   -0.421578   -0.319177
     13          1           0        2.277929    0.498681   -0.229320
     14          6           0        3.422676   -2.028087   -0.384832
     15          1           0        4.343930   -1.519245   -0.735676
     16          8           0        2.342241   -1.380885   -1.135759
     17          7           0        0.418798   -0.109637   -0.991408
     18          6           0       -0.466295   -1.106129   -1.224420
     19          1           0       -0.154891   -2.102028   -0.911195
     20          6           0       -1.654884   -0.844119   -1.845805
     21          1           0       -2.346584   -1.663320   -2.028370
     22          6           0       -1.977008    0.478001   -2.231726
     23          1           0       -2.880067    0.677489   -2.812425
     24          1           0       -2.771958    1.299528   -0.630170
     25          6           0       -0.943201    1.454358   -2.130341
     26          6           0        0.206703    1.150503   -1.439529
     27          1           0        0.993966    1.885082   -1.274726
     28          6           0       -1.158839    2.861714   -2.644495
     29          8           0       -0.770785    3.827779   -2.073384
     30          7           0       -1.946742    2.976796   -3.759195
     31          1           0       -1.941248    3.907916   -4.148722
     32          1           0       -1.965089    2.214517   -4.415642
     33          6           0        0.906413    2.121123    3.892587
     34          6           0       -0.891774    2.037025    1.678028
     35          6           0       -1.767313    2.640165    0.854948
     36          6           0       -3.932666    3.174040   -0.347758
     37          6           0       -3.021705    2.046172    0.230276
     38          8           0       -0.845154    0.759706    1.960124
     39         16           0        0.317325    3.085840    2.448747
     40          1           0        0.014029    1.752912    4.415642
     41          1           0        1.505086    1.281869    3.516299
     42          1           0       -4.847713    2.731735   -0.752712
     43          1           0       -3.384042    3.705237   -1.130412
     44          1           0       -4.194122    3.884108    0.445425
     45          1           0       -3.569293    1.471587    1.005791
     46          1           0       -1.593306    3.704066    0.688424
     47          1           0        2.643446   -4.069614   -0.280045
     48          1           0        1.510555    2.744872    4.551412
 ---------------------------------------------------------------------
                    Distance matrix (angstroms):
                    1          2          3          4          5
     1  C    0.000000
     2  H    1.098443   0.000000
     3  H    1.099620   1.805404   0.000000
     4  C    3.523878   4.228291   4.189796   0.000000
     5  H    3.540210   4.229506   4.293764   1.113496   0.000000
     6  O    4.818833   5.579500   5.354973   1.385036   2.027533
     7  H    5.566754   6.233331   6.212413   2.046617   2.397462
     8  C    2.657778   3.551604   2.991570   1.565724   2.235847
     9  H    2.788352   3.845096   2.856899   2.257205   2.543461
    10  O    3.742495   4.541730   3.856004   2.392876   3.357203
    11  H    3.830686   4.621796   3.681934   3.282577   4.169844
    12  C    3.631841   3.970784   4.455765   1.555676   2.243882
    13  H    4.243845   4.580477   4.910016   2.187333   3.135159
    14  C    1.551813   2.154457   2.138400   2.473286   2.939631
    15  H    2.196400   2.535447   2.423548   3.283344   3.941684
    16  O    2.474634   2.602888   3.380419   2.322467   2.732140
    17  N    4.606305   4.723971   5.570602   2.590916   2.839504
    18  C    4.664471   4.703233   5.719870   3.093151   2.822894
    19  H    3.915205   4.026674   4.971061   2.820041   2.264110
    20  C    5.907610   5.821450   6.987127   4.387656   4.048101
    21  H    6.259421   6.130846   7.346200   5.053430   4.505642
    22  C    6.942491   6.823821   8.000833   5.137368   5.028914
    23  H    7.911816   7.725404   8.985933   6.208871   6.041101
    24  H    7.908487   8.032652   8.901029   5.301539   5.204174
    25  C    6.817884   6.730563   7.807449   4.846024   5.052273
    26  C    5.764476   5.793295   6.688060   3.673727   4.083047
    27  H    5.992921   6.064772   6.805754   3.873274   4.533211
    28  C    8.135060   8.007070   9.083310   6.121211   6.448358
    29  O    8.612186   8.575992   9.487645   6.342620   6.817739
    30  N    9.006036   8.751180   9.995411   7.273417   7.492073
    31  H    9.826596   9.557815  10.786258   8.081234   8.374168
    32  H    8.738492   8.382159   9.754534   7.354683   7.488005
    33  C    7.749669   8.501321   8.169252   4.380697   4.961072
    34  C    7.485696   7.955896   8.236662   4.099025   4.427591
    35  C    8.262217   8.589943   9.101730   5.081754   5.329709
    36  C   10.010139  10.152767  10.966801   7.172437   7.198584
    37  C    8.627177   8.855092   9.563687   5.692137   5.673711
    38  O    6.667383   7.218340   7.416787   3.241672   3.350401
    39  S    8.001573   8.557073   8.583730   4.637580   5.270783
    40  H    8.156501   8.931775   8.616020   4.715011   5.068039
    41  H    6.722811   7.514457   7.099697   3.453945   4.106151
    42  H   10.426920  10.515876  11.425213   7.753963   7.644925
    43  H    9.989748  10.053925  10.946152   7.303004   7.447366
    44  H   10.743571  10.961333  11.657288   7.710246   7.782283
    45  H    8.823533   9.132647   9.742021   5.810901   5.633219
    46  H    8.958141   9.252415   9.767634   5.826786   6.211091
    47  H    1.090000   1.800977   1.805627   3.377610   3.060993
    48  H    8.443165   9.224285   8.760668   5.226979   5.884197
                    6          7          8          9         10
     6  O    0.000000
     7  H    1.037550   0.000000
     8  C    2.439036   3.383747   0.000000
     9  H    2.922900   3.890692   1.109198   0.000000
    10  O    2.638681   3.606889   1.417531   2.055104   0.000000
    11  H    3.578746   4.561325   2.013505   2.365414   0.968119
    12  C    2.456640   2.766564   2.369836   3.381643   2.875734
    13  H    2.638849   2.985853   2.667656   3.755588   2.585745
    14  C    3.683651   4.461359   1.571346   2.273113   2.429800
    15  H    4.312511   5.116686   2.229687   2.950406   2.463596
    16  O    3.569145   4.052275   2.383359   3.300964   3.160559
    17  N    3.246351   3.081630   3.739273   4.659648   4.296400
    18  C    3.887738   3.644855   4.294603   5.018092   5.169187
    19  H    3.835692   3.791390   3.853313   4.403938   4.958663
    20  C    5.001943   4.548285   5.654248   6.359501   6.484437
    21  H    5.720162   5.273377   6.282517   6.863062   7.253058
    22  C    5.525965   4.939291   6.439595   7.264673   7.030914
    23  H    6.564301   5.919518   7.520423   8.327149   8.122292
    24  H    5.199637   4.334492   6.798793   7.536721   7.241089
    25  C    5.128259   4.608019   6.042004   6.993912   6.370001
    26  C    3.999343   3.660896   4.768581   5.766836   5.011169
    27  H    4.039736   3.815651   4.760609   5.820396   4.692924
    28  C    6.232339   5.664304   7.254933   8.256414   7.370968
    29  O    6.241126   5.665751   7.429044   8.446349   7.327769
    30  N    7.483626   6.898616   8.403751   9.393514   8.612593
    31  H    8.224244   7.640599   9.165791  10.184149   9.262529
    32  H    7.737813   7.215151   8.434557   9.406109   8.769723
    33  C    3.026057   2.717142   5.181601   5.561574   4.680279
    34  C    3.257915   2.322065   5.468281   6.138785   5.450835
    35  C    4.457260   3.522901   6.497313   7.244325   6.536191
    36  C    6.778024   5.819802   8.654546   9.408668   8.866607
    37  C    5.301126   4.333714   7.207189   7.910156   7.500054
    38  O    2.436864   1.400091   4.703408   5.233324   4.946272
    39  S    3.542472   2.951626   5.660822   6.325465   5.197161
    40  H    3.353214   2.857008   5.665154   5.925321   5.385081
    41  H    2.109548   2.125624   4.121703   4.477321   3.636489
    42  H    7.465922   6.505375   9.266418   9.983160   9.609152
    43  H    6.990598   6.107145   8.706118   9.552285   8.834681
    44  H    7.135506   6.146334   9.183378   9.901871   9.289678
    45  H    5.340521   4.328982   7.365946   7.936968   7.753999
    46  H    5.159190   4.304444   7.137575   7.945763   6.996244
    47  H    4.660025   5.330587   2.817849   2.721656   4.130176
    48  H    3.893022   3.742171   5.811697   6.141105   5.097389
                   11         12         13         14         15
    11  H    0.000000
    12  C    3.685136   0.000000
    13  H    3.345494   1.108677   0.000000
    14  C    2.694334   2.381259   2.778342   0.000000
    15  H    2.427798   2.923797   2.932027   1.109379   0.000000
    16  O    3.698921   1.429724   2.087711   1.466323   2.045964
    17  N    5.127226   1.450934   2.099332   3.615476   4.178404
    18  C    5.987429   2.415699   3.331126   4.083994   4.852608
    19  H    5.720343   2.547698   3.625914   3.616837   4.539806
    20  C    7.318627   3.679501   4.459053   5.414595   6.137911
    21  H    8.069753   4.534941   5.412666   6.009877   6.815775
    22  C    7.879996   4.211893   4.702611   6.232823   6.795691
    23  H    8.969397   5.300260   5.771423   7.275844   7.831006
    24  H    8.175896   4.770342   5.128684   7.036100   7.654573
    25  C    7.187114   3.688958   3.860425   5.851077   6.224240
    26  C    5.818728   2.420073   2.485851   4.643091   4.973893
    27  H    5.436563   2.585662   2.159524   4.690782   4.806484
    28  C    8.148172   4.916091   4.819582   7.071528   7.288132
    29  O    8.085322   5.203188   4.876282   7.397803   7.519338
    30  N    9.371793   6.036225   6.037295   8.078727   8.302326
    31  H    9.991026   6.813487   6.692239   8.841645   8.978109
    32  H    9.504211   6.075876   6.202628   7.954567   8.202856
    33  C    5.426574   4.978108   4.637185   6.468681   6.818330
    34  C    6.382529   4.071459   4.006432   6.276544   6.773893
    35  C    7.462041   4.747825   4.703783   7.089825   7.561619
    36  C    9.795328   6.654064   6.763362   9.009137   9.522576
    37  C    8.449071   5.326174   5.540044   7.649052   8.240016
    38  O    5.906713   3.591315   3.823016   5.611148   6.275951
    39  S    6.009704   4.667210   4.208255   6.620017   6.896443
    40  H    6.169634   5.465948   5.317331   6.997098   7.482723
    41  H    4.395646   4.199830   3.903887   5.463679   5.829629
    42  H   10.547451   7.249992   7.485669   9.549375  10.127064
    43  H    9.725668   6.572187   6.569010   8.930751   9.336627
    44  H   10.215923   7.312107   7.335110   9.677757  10.172982
    45  H    8.719898   5.722761   6.054919   7.941610   8.636949
    46  H    7.874126   5.353557   5.109130   7.692174   8.035037
    47  H    4.368948   3.776865   4.583175   2.187695   3.098972
    48  H    5.709031   5.811477   5.337568   7.127681   7.359620
                   16         17         18         19         20
    16  O    0.000000
    17  N    2.310096   0.000000
    18  C    2.823336   1.353026   0.000000
    19  H    2.608859   2.074892   1.089449   0.000000
    20  C    4.095032   2.360004   1.366570   2.169288   0.000000
    21  H    4.781381   3.337148   2.119501   2.498812   1.087597
    22  C    4.828303   2.761086   2.409645   3.423516   1.414461
    23  H    5.858379   3.849439   3.395489   4.332086   2.179614
    24  H    5.796143   3.506732   3.384731   4.301001   2.705706
    25  C    4.452182   2.366070   2.757576   3.841306   2.422901
    26  C    3.325766   1.354159   2.364653   3.314943   2.758457
    27  H    3.536057   2.095230   3.328999   4.165222   3.845917
    28  C    5.703814   3.748408   4.270832   5.352661   3.823241
    29  O    6.140053   4.253119   5.015666   6.073930   4.760258
    30  N    6.653358   4.773101   5.028627   6.092314   4.283181
    31  H    7.442960   5.628427   5.988963   7.056351   5.288410
    32  H    6.499049   4.775980   4.843240   5.847267   4.006937
    33  C    6.293642   5.391425   6.203486   6.483648   6.948528
    34  C    5.482551   3.667648   4.299378   4.937493   4.615271
    35  C    6.084423   3.968567   4.477849   5.311080   4.409869
    36  C    7.793763   5.489267   5.577105   6.513520   4.855722
    37  C    6.510199   4.239939   4.310831   5.170024   3.812098
    38  O    4.932151   3.326391   3.710282   4.112233   4.208683
    39  S    6.074587   4.696385   5.628394   6.198885   6.146329
    40  H    6.786701   5.733159   6.341539   6.577560   6.981086
    41  H    5.425195   4.841047   5.662446   5.814550   6.577035
    42  H    8.291912   5.988865   5.843674   6.738914   4.916883
    43  H    7.658916   5.388337   5.627728   6.648294   4.919189
    44  H    8.540746   6.268454   6.448840   7.347764   5.835546
    45  H    6.904279   4.732224   4.609452   5.301293   4.142349
    46  H    6.683779   4.627605   5.297839   6.191814   5.206928
    47  H    2.837646   4.597447   4.398247   3.478568   5.597416
    48  H    7.075132   6.329534   7.217920   7.490409   7.989070
                   21         22         23         24         25
    21  H    0.000000
    22  C    2.182474   0.000000
    23  H    2.525615   1.092026   0.000000
    24  H    3.303691   1.967697   2.271752   0.000000
    25  C    3.420496   1.425591   2.195498   2.370409   0.000000
    26  C    3.844946   2.418353   3.411266   3.090258   1.375438
    27  H    4.931370   3.423801   4.339462   3.865296   2.161068
    28  C    4.718716   2.553795   2.785977   3.016634   1.513772
    29  O    5.712910   3.563855   3.862587   3.532650   2.380357
    30  N    4.968531   2.928832   2.655990   3.644860   2.445011
    31  H    5.974853   3.929437   3.619770   4.458024   3.330152
    32  H    4.569707   2.790183   2.402071   3.977190   2.616238
    33  C    7.743496   6.965714   7.834455   5.887340   6.335716
    34  C    5.435661   4.346776   5.095666   3.067047   3.853027
    35  C    5.212395   3.774451   4.305804   2.238794   3.316210
    36  C    5.360985   3.826559   3.662692   2.222789   3.882242
    37  C    4.395179   3.100323   3.339369   1.166284   3.200459
    38  O    4.902391   4.351098   5.188916   3.273165   4.150188
    39  S    7.049504   5.828517   6.610855   4.713206   5.021823
    40  H    7.666057   7.055290   7.859852   5.781652   6.622334
    41  H    7.365654   6.768380   7.723185   5.957065   6.156980
    42  H    5.215310   3.937987   3.511976   2.524874   4.332986
    43  H    5.541124   3.688860   3.500060   2.532257   3.467567
    44  H    6.348781   4.866651   4.756336   3.139985   4.806947
    45  H    4.530871   3.742205   3.960353   1.828036   4.090474
    46  H    6.062774   4.368295   4.803319   2.984915   3.664596
    47  H    5.809242   6.770410   7.710845   7.633930   6.841191
    48  H    8.809268   7.956931   8.819168   6.875881   7.234097
                   26         27         28         29         30
    26  C    0.000000
    27  H    1.089289   0.000000
    28  C    2.498979   2.732150   0.000000
    29  O    2.919772   2.743405   1.187449   0.000000
    30  N    3.654248   4.001524   1.369888   2.224636   0.000000
    31  H    4.422302   4.578995   1.992336   2.383996   1.009330
    32  H    3.834848   4.327804   2.050821   3.084663   1.006145
    33  C    5.464719   5.173442   6.895446   6.427945   8.211117
    34  C    3.422242   3.506830   4.408587   4.158670   5.617786
    35  C    3.373494   3.567958   3.558851   3.313401   4.629885
    36  C    4.735086   5.176136   3.614783   3.660963   3.952303
    37  C    3.743407   4.291456   3.521319   3.680709   4.235267
    38  O    3.580052   3.887556   5.071425   5.068313   6.232143
    39  S    4.344705   3.970380   5.307580   4.710003   6.608815
    40  H    5.889232   5.775641   7.242278   6.857731   8.495321
    41  H    5.124772   4.855824   6.895490   6.550252   8.229259
    42  H    5.340331   5.925751   4.147713   4.423441   4.185048
    43  H    4.417655   4.743495   2.820551   2.780886   3.083336
    44  H    5.512977   5.819904   4.450374   4.250507   4.853119
    45  H    4.510081   5.118112   4.589916   4.781695   5.253895
    46  H    3.780067   3.722450   3.465064   2.884343   4.520526
    47  H    5.876371   6.258481   8.251746   8.788735   9.100891
    48  H    6.335094   5.911851   7.675962   7.089790   9.004048
                   31         32         33         34         35
    31  H    0.000000
    32  H    1.714473   0.000000
    33  C    8.715759   8.790956   0.000000
    34  C    6.209078   6.190018   2.853913   0.000000
    35  C    5.164704   5.291447   4.079885   1.344548   0.000000
    36  C    4.353349   4.619494   6.519650   3.826700   2.533826
    37  C    4.879458   4.767529   5.371057   2.575399   1.522020
    38  O    6.959214   6.634842   2.942084   1.308929   2.368105
    39  S    7.021650   7.286182   1.833678   1.776496   2.661679
    40  H    9.045192   9.062095   1.097960   2.897538   4.079085
    41  H    8.804879   8.707907   1.097428   3.113589   4.431292
    42  H    4.622102   4.689786   7.420352   4.694739   3.475891
    43  H    3.351557   3.876650   6.793227   4.108731   2.773057
    44  H    5.116854   5.602329   6.403632   3.979514   2.757627
    45  H    5.929185   5.702399   5.365392   2.817931   2.153012
    46  H    4.853927   5.329960   4.361303   2.061672   1.090823
    47  H    9.981337   8.822248   7.665074   7.322764   8.109509
    48  H    9.431859   9.631689   1.090000   3.811635   4.941582
                   36         37         38         39         40
    36  C    0.000000
    37  C    1.560788   0.000000
    38  O    4.548413   3.063453   0.000000
    39  S    5.088284   4.141455   2.645942   0.000000
    40  H    6.347124   5.178704   2.784640   2.395279   0.000000
    41  H    6.934002   5.645702   2.866699   2.409306   1.803871
    42  H    1.094044   2.184162   5.221959   6.087064   7.162856
    43  H    1.093483   2.176064   4.967245   5.185957   6.790962
    44  H    1.096219   2.190630   4.824084   5.000368   6.165481
    45  H    2.205103   1.109695   2.972955   4.449015   4.954435
    46  H    2.612892   2.235808   3.293359   2.670477   4.503630
    47  H    9.783678   8.352078   6.364827   8.003604   7.928752
    48  H    7.335851   6.300935   4.025546   2.441569   1.800558
                   41         42         43         44         45
    41  H    0.000000
    42  H    7.790033   0.000000
    43  H    7.167162   1.797970   0.000000
    44  H    6.977312   1.786247   1.780867   0.000000
    45  H    5.664624   2.512900   3.096268   2.554345   0.000000
    46  H    4.843960   3.689643   2.552430   2.618340   2.998201
    47  H    6.659314  10.129127   9.874313  10.513816   8.423562
    48  H    1.792167   8.280186   7.560589   7.120416   6.324361
                   46         47         48
    46  H    0.000000
    47  H    8.906071   0.000000
    48  H    5.047443   8.429925   0.000000
 Symmetry turned off by external request.
 Stoichiometry    C16H24N2O5S
 Framework group  C1[X(C16H24N2O5S)]
 Deg. of freedom   138
 Full point group                 C1      NOp   1
 Rotational constants (GHZ):           0.2918693           0.1713487           0.1277686
 Leave Link  202 at Wed Mar  8 15:19:44 2023, MaxMem=  2684354560 cpu:               0.1 elap:               0.0
 (Enter /opt/gaussian/g16/l301.exe)
 Standard basis: def2TZVP (5D, 7F)
 Ernie: Thresh=  0.10000D-02 Tol=  0.10000D-05 Strict=F.
   894 basis functions,  1434 primitive gaussians,  1014 cartesian basis functions
    95 alpha electrons       95 beta electrons
       nuclear repulsion energy      2444.4895632570 Hartrees.
 IExCor= 4336 DFT=T Ex+Corr=M062X ExCW=0 ScaHFX=  0.540000
 ScaDFX=  1.000000  1.000000  1.000000  1.000000 ScalE2=  1.000000  1.000000
 IRadAn=      5 IRanWt=     -1 IRanGd=            0 ICorTp=0 IEmpDi=131
 NAtoms=   48 NActive=   48 NUniq=   48 SFac= 1.00D+00 NAtFMM=   60 NAOKFM=F Big=F
 Integral buffers will be    131072 words long.
 Raffenetti 2 integral format.
 Two-electron integral symmetry is turned off.
 R6Disp:  Grimme-D3 Dispersion energy=       -0.0041881286 Hartrees.
 Nuclear repulsion after empirical dispersion term =     2444.4853751284 Hartrees.
 Leave Link  301 at Wed Mar  8 15:19:44 2023, MaxMem=  2684354560 cpu:               0.8 elap:               0.1
 (Enter /opt/gaussian/g16/l302.exe)
 NPDir=0 NMtPBC=     1 NCelOv=     1 NCel=       1 NClECP=     1 NCelD=      1
         NCelK=      1 NCelE2=     1 NClLst=     1 CellRange=     0.0.
 One-electron integrals computed using PRISM.
   1 Symmetry operations used in ECPInt.
 ECPInt:  NShTT=   65703 NPrTT=  200010 LenC2=   56180 LenP2D=  119017.
 LDataN:  DoStor=T MaxTD1= 6 Len=  172
 NBasis=   894 RedAO= T EigKep=  2.85D-05  NBF=   894
 NBsUse=   894 1.00D-06 EigRej= -1.00D+00 NBFU=   894
 Precomputing XC quadrature grid using
 IXCGrd= 4 IRadAn=           5 IRanWt=          -1 IRanGd=           0 AccXCQ= 0.00D+00.
 Generated NRdTot=       0 NPtTot=           0 NUsed=           0 NTot=          32
 NSgBfM=   998   997   997   997   998 MxSgAt=    48 MxSgA2=    48.
 Leave Link  302 at Wed Mar  8 15:19:47 2023, MaxMem=  2684354560 cpu:              36.4 elap:               2.3
 (Enter /opt/gaussian/g16/l303.exe)
 DipDrv:  MaxL=1.
 Leave Link  303 at Wed Mar  8 15:19:47 2023, MaxMem=  2684354560 cpu:               4.5 elap:               0.3
 (Enter /opt/gaussian/g16/l401.exe)
 ExpMin= 9.52D-02 ExpMax= 6.07D+04 ExpMxC= 2.07D+03 IAcc=3 IRadAn=         5 AccDes= 0.00D+00
 Harris functional with IExCor= 1009 and IRadAn=       5 diagonalized for initial guess.
 HarFok:  IExCor= 1009 AccDes= 0.00D+00 IRadAn=         5 IDoV= 1 UseB2=F ITyADJ=14
 ICtDFT=  3500011 ScaDFX=  1.000000  1.000000  1.000000  1.000000
 FoFCou: FMM=F IPFlag=           0 FMFlag=      100000 FMFlg1=           0
         NFxFlg=           0 DoJE=T BraDBF=F KetDBF=T FulRan=T
         wScrn=  0.000000 ICntrl=       500 IOpCl=  0 I1Cent=   200000004 NGrid=           0
         NMat0=    1 NMatS0=      1 NMatT0=    0 NMatD0=    1 NMtDS0=    0 NMtDT0=    0
 Symmetry not used in FoFCou.
 Harris En= -1507.20113084393    
 JPrj=0 DoOrth=F DoCkMO=F.
 Leave Link  401 at Wed Mar  8 15:19:57 2023, MaxMem=  2684354560 cpu:             155.5 elap:               9.8
 (Enter /opt/gaussian/g16/l502.exe)
 Two-electron integral symmetry not used.
 Closed shell SCF:
 Using DIIS extrapolation, IDIIS=  1040.
 NGot=  2684354560 LenX=  2682275214 LenY=  2681246004
 Requested convergence on RMS density matrix=1.00D-08 within 128 cycles.
 Requested convergence on MAX density matrix=1.00D-06.
 Requested convergence on             energy=1.00D-06.
 No special actions if energy rises.
 Fock matrices will be formed incrementally for  20 cycles.
 Integral accuracy reduced to 1.0D-05 until final iterations.

 Cycle   1  Pass 0  IDiag  1:
 FoFJK:  IHMeth= 1 ICntrl=       0 DoSepK=F KAlg= 0 I1Cent=           0 FoldK=F
 IRaf= 780000000 NMat=       1 IRICut=       1 DoRegI=T DoRafI=F ISym2E= 0 IDoP0=0 IntGTp=1.
 FoFCou: FMM=F IPFlag=           0 FMFlag=      100000 FMFlg1=           0
         NFxFlg=           0 DoJE=F BraDBF=F KetDBF=F FulRan=T
         wScrn=  0.000000 ICntrl=         0 IOpCl=  0 I1Cent=           0 NGrid=           0
         NMat0=    1 NMatS0=      1 NMatT0=    0 NMatD0=    1 NMtDS0=    0 NMtDT0=    0
 Symmetry not used in FoFCou.
 E= -1507.09438932216    
 DIIS: error= 1.43D-02 at cycle   1 NSaved=   1.
 NSaved= 1 IEnMin= 1 EnMin= -1507.09438932216     IErMin= 1 ErrMin= 1.43D-02
 ErrMax= 1.43D-02  0.00D+00 EMaxC= 1.00D-01 BMatC= 9.95D-01 BMatP= 9.95D-01
 IDIUse=3 WtCom= 8.57D-01 WtEn= 1.43D-01
 Coeff-Com:  0.100D+01
 Coeff-En:   0.100D+01
 Coeff:      0.100D+01
 Gap=     0.107 Goal=   None    Shift=    0.000
 GapD=    0.107 DampG=1.000 DampE=0.500 DampFc=0.5000 IDamp=-1.
 Damping current iteration by 5.00D-01
 RMSDP=4.18D-03 MaxDP=8.22D-01              OVMax= 8.24D-01

 Cycle   2  Pass 0  IDiag  1:
 RMSU=  2.09D-03    CP:  1.01D+00
 E= -1507.29283414861     Delta-E=       -0.198444826449 Rises=F Damp=T
 DIIS: error= 6.21D-03 at cycle   2 NSaved=   2.
 NSaved= 2 IEnMin= 2 EnMin= -1507.29283414861     IErMin= 2 ErrMin= 6.21D-03
 ErrMax= 6.21D-03  0.00D+00 EMaxC= 1.00D-01 BMatC= 1.46D-01 BMatP= 9.95D-01
 IDIUse=3 WtCom= 9.38D-01 WtEn= 6.21D-02
 Coeff-Com:  0.988D-01 0.901D+00
 Coeff-En:   0.325D+00 0.675D+00
 Coeff:      0.113D+00 0.887D+00
 Gap=     0.128 Goal=   None    Shift=    0.000
 RMSDP=1.54D-03 MaxDP=2.22D-01 DE=-1.98D-01 OVMax= 7.17D-01

 Cycle   3  Pass 0  IDiag  1:
 RMSU=  1.18D-03    CP:  9.95D-01  5.26D-01
 E= -1507.65433819467     Delta-E=       -0.361504046060 Rises=F Damp=F
 DIIS: error= 9.75D-03 at cycle   3 NSaved=   3.
 NSaved= 3 IEnMin= 3 EnMin= -1507.65433819467     IErMin= 2 ErrMin= 6.21D-03
 ErrMax= 9.75D-03  0.00D+00 EMaxC= 1.00D-01 BMatC= 1.74D-01 BMatP= 1.46D-01
 IDIUse=3 WtCom= 9.19D-02 WtEn= 9.08D-01
 Coeff-Com: -0.428D-01 0.545D+00 0.497D+00
 Coeff-En:   0.000D+00 0.379D-01 0.962D+00
 Coeff:     -0.394D-02 0.846D-01 0.919D+00
 Gap=    -0.005 Goal=   None    Shift=    0.000
 RMSDP=2.05D-03 MaxDP=2.02D-01 DE=-3.62D-01 OVMax= 8.98D-01

 Cycle   4  Pass 0  IDiag  1:
 RMSU=  1.29D-03    CP:  9.95D-01  1.11D+00  1.32D-01
 E= -1506.86593514431     Delta-E=        0.788403050358 Rises=F Damp=F
 DIIS: error= 1.87D-02 at cycle   4 NSaved=   4.
 NSaved= 4 IEnMin= 3 EnMin= -1507.65433819467     IErMin= 2 ErrMin= 6.21D-03
 ErrMax= 1.87D-02  0.00D+00 EMaxC= 1.00D-01 BMatC= 7.28D-01 BMatP= 1.46D-01
 IDIUse=2 WtCom= 0.00D+00 WtEn= 1.00D+00
 Coeff-En:   0.000D+00 0.000D+00 0.781D+00 0.219D+00
 Coeff:      0.000D+00 0.000D+00 0.781D+00 0.219D+00
 Gap=     0.195 Goal=   None    Shift=    0.000
 RMSDP=1.40D-03 MaxDP=1.47D-01 DE= 7.88D-01 OVMax= 7.07D-01

 Cycle   5  Pass 0  IDiag  1:
 RMSU=  5.83D-04    CP:  9.97D-01  7.44D-01  6.20D-01  3.44D-01
 E= -1507.80763635709     Delta-E=       -0.941701212783 Rises=F Damp=F
 DIIS: error= 4.74D-03 at cycle   5 NSaved=   5.
 NSaved= 5 IEnMin= 5 EnMin= -1507.80763635709     IErMin= 5 ErrMin= 4.74D-03
 ErrMax= 4.74D-03  0.00D+00 EMaxC= 1.00D-01 BMatC= 3.59D-02 BMatP= 1.46D-01
 IDIUse=3 WtCom= 9.53D-01 WtEn= 4.74D-02
 Coeff-Com:  0.718D-02 0.535D-02 0.304D+00 0.193D-02 0.682D+00
 Coeff-En:   0.000D+00 0.000D+00 0.167D+00 0.000D+00 0.833D+00
 Coeff:      0.684D-02 0.509D-02 0.297D+00 0.183D-02 0.689D+00
 Gap=     0.115 Goal=   None    Shift=    0.000
 RMSDP=2.91D-04 MaxDP=2.58D-02 DE=-9.42D-01 OVMax= 1.26D-01

 Cycle   6  Pass 0  IDiag  1:
 RMSU=  1.79D-04    CP:  9.96D-01  6.73D-01  7.23D-01  2.66D-01  8.79D-01
 E= -1507.84281810335     Delta-E=       -0.035181746253 Rises=F Damp=F
 DIIS: error= 6.19D-04 at cycle   6 NSaved=   6.
 NSaved= 6 IEnMin= 6 EnMin= -1507.84281810335     IErMin= 6 ErrMin= 6.19D-04
 ErrMax= 6.19D-04  0.00D+00 EMaxC= 1.00D-01 BMatC= 1.38D-03 BMatP= 3.59D-02
 IDIUse=3 WtCom= 9.94D-01 WtEn= 6.19D-03
 Coeff-Com: -0.265D-02 0.623D-02 0.463D-01-0.271D-01 0.288D+00 0.689D+00
 Coeff-En:   0.000D+00 0.000D+00 0.000D+00 0.000D+00 0.000D+00 0.100D+01
 Coeff:     -0.263D-02 0.619D-02 0.460D-01-0.269D-01 0.286D+00 0.691D+00
 Gap=     0.124 Goal=   None    Shift=    0.000
 RMSDP=8.06D-05 MaxDP=1.17D-02 DE=-3.52D-02 OVMax= 1.11D-02

 Cycle   7  Pass 0  IDiag  1:
 RMSU=  6.54D-05    CP:  9.97D-01  6.90D-01  7.15D-01  2.72D-01  9.25D-01
                    CP:  1.04D+00
 E= -1507.84399498142     Delta-E=       -0.001176878079 Rises=F Damp=F
 DIIS: error= 3.02D-04 at cycle   7 NSaved=   7.
 NSaved= 7 IEnMin= 7 EnMin= -1507.84399498142     IErMin= 7 ErrMin= 3.02D-04
 ErrMax= 3.02D-04  0.00D+00 EMaxC= 1.00D-01 BMatC= 2.04D-04 BMatP= 1.38D-03
 IDIUse=3 WtCom= 9.97D-01 WtEn= 3.02D-03
 Coeff-Com: -0.195D-02 0.291D-02-0.201D-01-0.254D-02-0.996D-02 0.302D+00
 Coeff-Com:  0.730D+00
 Coeff-En:   0.000D+00 0.000D+00 0.000D+00 0.000D+00 0.000D+00 0.000D+00
 Coeff-En:   0.100D+01
 Coeff:     -0.195D-02 0.290D-02-0.200D-01-0.253D-02-0.993D-02 0.301D+00
 Coeff:      0.731D+00
 Gap=     0.124 Goal=   None    Shift=    0.000
 RMSDP=3.79D-05 MaxDP=2.84D-03 DE=-1.18D-03 OVMax= 1.21D-02

 Cycle   8  Pass 0  IDiag  1:
 RMSU=  3.21D-05    CP:  9.97D-01  6.89D-01  7.20D-01  2.72D-01  9.28D-01
                    CP:  1.15D+00  1.06D+00
 E= -1507.84421460685     Delta-E=       -0.000219625423 Rises=F Damp=F
 DIIS: error= 1.56D-04 at cycle   8 NSaved=   8.
 NSaved= 8 IEnMin= 8 EnMin= -1507.84421460685     IErMin= 8 ErrMin= 1.56D-04
 ErrMax= 1.56D-04  0.00D+00 EMaxC= 1.00D-01 BMatC= 4.19D-05 BMatP= 2.04D-04
 IDIUse=3 WtCom= 9.98D-01 WtEn= 1.56D-03
 Coeff-Com: -0.907D-03 0.113D-02-0.187D-01 0.325D-02-0.354D-01 0.112D+00
 Coeff-Com:  0.351D+00 0.588D+00
 Coeff-En:   0.000D+00 0.000D+00 0.000D+00 0.000D+00 0.000D+00 0.000D+00
 Coeff-En:   0.000D+00 0.100D+01
 Coeff:     -0.906D-03 0.113D-02-0.187D-01 0.325D-02-0.354D-01 0.112D+00
 Coeff:      0.351D+00 0.588D+00
 Gap=     0.123 Goal=   None    Shift=    0.000
 RMSDP=1.51D-05 MaxDP=9.44D-04 DE=-2.20D-04 OVMax= 3.41D-03

 Cycle   9  Pass 0  IDiag  1:
 RMSU=  1.09D-05    CP:  9.97D-01  6.90D-01  7.19D-01  2.76D-01  9.31D-01
                    CP:  1.18D+00  1.15D+00  1.14D+00
 E= -1507.84424457805     Delta-E=       -0.000029971204 Rises=F Damp=F
 DIIS: error= 1.12D-04 at cycle   9 NSaved=   9.
 NSaved= 9 IEnMin= 9 EnMin= -1507.84424457805     IErMin= 9 ErrMin= 1.12D-04
 ErrMax= 1.12D-04  0.00D+00 EMaxC= 1.00D-01 BMatC= 1.78D-05 BMatP= 4.19D-05
 IDIUse=3 WtCom= 9.99D-01 WtEn= 1.12D-03
 Coeff-Com: -0.513D-03 0.758D-03-0.106D-01 0.249D-02-0.146D-01 0.176D-01
 Coeff-Com:  0.827D-02 0.161D+00 0.835D+00
 Coeff-En:   0.000D+00 0.000D+00 0.000D+00 0.000D+00 0.000D+00 0.000D+00
 Coeff-En:   0.000D+00 0.000D+00 0.100D+01
 Coeff:     -0.512D-03 0.757D-03-0.106D-01 0.249D-02-0.146D-01 0.176D-01
 Coeff:      0.826D-02 0.161D+00 0.836D+00
 Gap=     0.122 Goal=   None    Shift=    0.000
 RMSDP=1.70D-05 MaxDP=1.14D-03 DE=-3.00D-05 OVMax= 2.37D-03

 Cycle  10  Pass 0  IDiag  1:
 RMSU=  9.74D-06    CP:  9.97D-01  6.92D-01  7.17D-01  2.79D-01  9.35D-01
                    CP:  1.21D+00  1.19D+00  1.34D+00  1.70D+00
 E= -1507.84425620313     Delta-E=       -0.000011625081 Rises=F Damp=F
 DIIS: error= 5.54D-05 at cycle  10 NSaved=  10.
 NSaved=10 IEnMin=10 EnMin= -1507.84425620313     IErMin=10 ErrMin= 5.54D-05
 ErrMax= 5.54D-05  0.00D+00 EMaxC= 1.00D-01 BMatC= 5.28D-06 BMatP= 1.78D-05
 IDIUse=1 WtCom= 1.00D+00 WtEn= 0.00D+00
 Coeff-Com: -0.304D-03 0.609D-03-0.418D-02 0.118D-02-0.158D-02-0.782D-02
 Coeff-Com: -0.802D-01-0.747D-01 0.483D+00 0.684D+00
 Coeff:     -0.304D-03 0.609D-03-0.418D-02 0.118D-02-0.158D-02-0.782D-02
 Coeff:     -0.802D-01-0.747D-01 0.483D+00 0.684D+00
 Gap=     0.122 Goal=   None    Shift=    0.000
 RMSDP=1.74D-05 MaxDP=1.06D-03 DE=-1.16D-05 OVMax= 1.21D-03

 Cycle  11  Pass 0  IDiag  1:
 RMSU=  6.80D-06    CP:  9.97D-01  6.94D-01  7.15D-01  2.81D-01  9.38D-01
                    CP:  1.23D+00  1.22D+00  1.47D+00  2.55D+00  2.07D+00
 E= -1507.84425625739     Delta-E=       -0.000000054255 Rises=F Damp=F
 DIIS: error= 2.31D-05 at cycle  11 NSaved=  11.
 NSaved=11 IEnMin=11 EnMin= -1507.84425625739     IErMin=11 ErrMin= 2.31D-05
 ErrMax= 2.31D-05  0.00D+00 EMaxC= 1.00D-01 BMatC= 8.94D-07 BMatP= 5.28D-06
 IDIUse=1 WtCom= 1.00D+00 WtEn= 0.00D+00
 Coeff-Com: -0.165D-03 0.332D-03-0.173D-02 0.549D-03-0.685D-04-0.186D-02
 Coeff-Com: -0.336D-01-0.572D-01 0.130D+00 0.323D+00 0.641D+00
 Coeff:     -0.165D-03 0.332D-03-0.173D-02 0.549D-03-0.685D-04-0.186D-02
 Coeff:     -0.336D-01-0.572D-01 0.130D+00 0.323D+00 0.641D+00
 Gap=     0.122 Goal=   None    Shift=    0.000
 RMSDP=2.07D-05 MaxDP=1.30D-03 DE=-5.43D-08 OVMax= 3.78D-04

 Cycle  12  Pass 0  IDiag  1:
 RMSU=  8.47D-06    CP:  9.97D-01  6.95D-01  7.14D-01  2.82D-01  9.39D-01
                    CP:  1.24D+00  1.23D+00  1.55D+00  3.00D+00  3.00D+00
                    CP:  2.41D+00
 E= -1507.84424539861     Delta-E=        0.000010858780 Rises=F Damp=F
 DIIS: error= 4.00D-05 at cycle  12 NSaved=  12.
 NSaved=12 IEnMin=11 EnMin= -1507.84425625739     IErMin=11 ErrMin= 2.31D-05
 ErrMax= 4.00D-05  0.00D+00 EMaxC= 1.00D-01 BMatC= 7.27D-07 BMatP= 8.94D-07
 IDIUse=1 WtCom= 1.00D+00 WtEn= 0.00D+00
 Coeff-Com: -0.192D-03 0.401D-03-0.167D-02 0.594D-03 0.776D-03-0.379D-02
 Coeff-Com: -0.464D-01-0.879D-01 0.121D+00 0.445D+00 0.113D+01-0.555D+00
 Coeff:     -0.192D-03 0.401D-03-0.167D-02 0.594D-03 0.776D-03-0.379D-02
 Coeff:     -0.464D-01-0.879D-01 0.121D+00 0.445D+00 0.113D+01-0.555D+00
 Gap=     0.122 Goal=   None    Shift=    0.000
 RMSDP=2.02D-05 MaxDP=1.40D-03 DE= 1.09D-05 OVMax= 7.01D-05

 Cycle  13  Pass 0  IDiag  1:
 RMSU=  3.81D-06    CP:  9.97D-01  6.94D-01  7.15D-01  2.82D-01  9.39D-01
                    CP:  1.24D+00  1.23D+00  1.50D+00  2.69D+00  2.17D+00
                    CP:  9.25D-01 -1.39D-01
 E= -1507.84425847752     Delta-E=       -0.000013078913 Rises=F Damp=F
 DIIS: error= 1.87D-05 at cycle  13 NSaved=  13.
 NSaved=13 IEnMin=13 EnMin= -1507.84425847752     IErMin=13 ErrMin= 1.87D-05
 ErrMax= 1.87D-05  0.00D+00 EMaxC= 1.00D-01 BMatC= 3.93D-07 BMatP= 7.27D-07
 IDIUse=1 WtCom= 1.00D+00 WtEn= 0.00D+00
 Coeff-Com: -0.760D-04 0.155D-03-0.310D-03 0.201D-03 0.923D-03 0.118D-02
 Coeff-Com: -0.896D-02-0.493D-01-0.556D-01 0.117D+00 0.938D+00-0.119D+01
 Coeff-Com:  0.125D+01
 Coeff:     -0.760D-04 0.155D-03-0.310D-03 0.201D-03 0.923D-03 0.118D-02
 Coeff:     -0.896D-02-0.493D-01-0.556D-01 0.117D+00 0.938D+00-0.119D+01
 Coeff:      0.125D+01
 Gap=     0.122 Goal=   None    Shift=    0.000
 RMSDP=1.72D-05 MaxDP=9.58D-04 DE=-1.31D-05 OVMax= 1.90D-04

 Cycle  14  Pass 0  IDiag  1:
 RMSU=  8.75D-06    CP:  9.97D-01  6.94D-01  7.15D-01  2.82D-01  9.41D-01
                    CP:  1.24D+00  1.23D+00  1.44D+00  2.49D+00  1.51D+00
                    CP: -1.34D-01 -6.44D-01  3.00D+00
 E= -1507.84426998255     Delta-E=       -0.000011505028 Rises=F Damp=F
 DIIS: error= 1.37D-05 at cycle  14 NSaved=  14.
 NSaved=14 IEnMin=14 EnMin= -1507.84426998255     IErMin=14 ErrMin= 1.37D-05
 ErrMax= 1.37D-05  0.00D+00 EMaxC= 1.00D-01 BMatC= 1.89D-07 BMatP= 3.93D-07
 IDIUse=1 WtCom= 1.00D+00 WtEn= 0.00D+00
 Coeff-Com: -0.781D-04 0.159D-03-0.299D-03 0.205D-03 0.101D-02 0.123D-02
 Coeff-Com: -0.939D-02-0.521D-01-0.610D-01 0.121D+00 0.995D+00-0.127D+01
 Coeff-Com:  0.135D+01-0.675D-01
 Coeff:     -0.781D-04 0.159D-03-0.299D-03 0.205D-03 0.101D-02 0.123D-02
 Coeff:     -0.939D-02-0.521D-01-0.610D-01 0.121D+00 0.995D+00-0.127D+01
 Coeff:      0.135D+01-0.675D-01
 Gap=     0.122 Goal=   None    Shift=    0.000
 RMSDP=1.75D-06 MaxDP=1.71D-04 DE=-1.15D-05 OVMax= 7.63D-06

 Initial convergence to 1.0D-05 achieved.  Increase integral accuracy.
 Cycle  15  Pass 1  IDiag  1:
 E= -1507.84415790842     Delta-E=        0.000112074124 Rises=F Damp=F
 DIIS: error= 3.81D-04 at cycle   1 NSaved=   1.
 NSaved= 1 IEnMin= 1 EnMin= -1507.84415790842     IErMin= 1 ErrMin= 3.81D-04
 ErrMax= 3.81D-04  0.00D+00 EMaxC= 1.00D-01 BMatC= 8.16D-05 BMatP= 8.16D-05
 IDIUse=3 WtCom= 9.96D-01 WtEn= 3.81D-03
 Coeff-Com:  0.100D+01
 Coeff-En:   0.100D+01
 Coeff:      0.100D+01
 Gap=     0.122 Goal=   None    Shift=    0.000
 RMSDP=1.75D-06 MaxDP=1.71D-04 DE= 1.12D-04 OVMax= 8.80D-04

 Cycle  16  Pass 1  IDiag  1:
 RMSU=  4.37D-04    CP:  9.95D-01
 E= -1507.84420797420     Delta-E=       -0.000050065780 Rises=F Damp=F
 DIIS: error= 6.68D-06 at cycle   2 NSaved=   2.
 NSaved= 2 IEnMin= 2 EnMin= -1507.84420797420     IErMin= 2 ErrMin= 6.68D-06
 ErrMax= 6.68D-06  0.00D+00 EMaxC= 1.00D-01 BMatC= 8.95D-08 BMatP= 8.16D-05
 IDIUse=1 WtCom= 1.00D+00 WtEn= 0.00D+00
 Coeff-Com: -0.155D-01 0.102D+01
 Coeff:     -0.155D-01 0.102D+01
 Gap=     0.122 Goal=   None    Shift=    0.000
 RMSDP=1.55D-05 MaxDP=1.15D-03 DE=-5.01D-05 OVMax= 3.48D-04

 Cycle  17  Pass 1  IDiag  1:
 RMSU=  5.05D-06    CP:  9.95D-01  1.03D+00
 E= -1507.84420797022     Delta-E=        0.000000003981 Rises=F Damp=F
 DIIS: error= 7.26D-06 at cycle   3 NSaved=   3.
 NSaved= 3 IEnMin= 2 EnMin= -1507.84420797420     IErMin= 2 ErrMin= 6.68D-06
 ErrMax= 7.26D-06  0.00D+00 EMaxC= 1.00D-01 BMatC= 1.20D-07 BMatP= 8.95D-08
 IDIUse=1 WtCom= 1.00D+00 WtEn= 0.00D+00
 Coeff-Com: -0.961D-02 0.583D+00 0.426D+00
 Coeff:     -0.961D-02 0.583D+00 0.426D+00
 Gap=     0.122 Goal=   None    Shift=    0.000
 RMSDP=6.92D-07 MaxDP=9.98D-05 DE= 3.98D-09 OVMax= 2.30D-04

 Cycle  18  Pass 1  IDiag  1:
 RMSU=  6.52D-07    CP:  9.95D-01  1.03D+00  1.03D+00
 E= -1507.84420808784     Delta-E=       -0.000000117619 Rises=F Damp=F
 DIIS: error= 1.26D-06 at cycle   4 NSaved=   4.
 NSaved= 4 IEnMin= 4 EnMin= -1507.84420808784     IErMin= 4 ErrMin= 1.26D-06
 ErrMax= 1.26D-06  0.00D+00 EMaxC= 1.00D-01 BMatC= 2.86D-09 BMatP= 8.95D-08
 IDIUse=1 WtCom= 1.00D+00 WtEn= 0.00D+00
 Coeff-Com: -0.850D-03 0.410D-01 0.132D+00 0.828D+00
 Coeff:     -0.850D-03 0.410D-01 0.132D+00 0.828D+00
 Gap=     0.122 Goal=   None    Shift=    0.000
 RMSDP=3.31D-07 MaxDP=2.32D-05 DE=-1.18D-07 OVMax= 5.55D-05

 Cycle  19  Pass 1  IDiag  1:
 RMSU=  1.53D-07    CP:  9.95D-01  1.03D+00  1.06D+00  9.60D-01
 E= -1507.84420809082     Delta-E=       -0.000000002976 Rises=F Damp=F
 DIIS: error= 6.44D-07 at cycle   5 NSaved=   5.
 NSaved= 5 IEnMin= 5 EnMin= -1507.84420809082     IErMin= 5 ErrMin= 6.44D-07
 ErrMax= 6.44D-07  0.00D+00 EMaxC= 1.00D-01 BMatC= 8.88D-10 BMatP= 2.86D-09
 IDIUse=1 WtCom= 1.00D+00 WtEn= 0.00D+00
 Coeff-Com:  0.322D-03-0.256D-01 0.350D-01 0.460D+00 0.530D+00
 Coeff:      0.322D-03-0.256D-01 0.350D-01 0.460D+00 0.530D+00
 Gap=     0.122 Goal=   None    Shift=    0.000
 RMSDP=7.89D-08 MaxDP=4.39D-06 DE=-2.98D-09 OVMax= 1.01D-05

 Cycle  20  Pass 1  IDiag  1:
 RMSU=  5.58D-08    CP:  9.95D-01  1.03D+00  1.07D+00  1.00D+00  1.04D+00
 E= -1507.84420809172     Delta-E=       -0.000000000902 Rises=F Damp=F
 DIIS: error= 1.50D-07 at cycle   6 NSaved=   6.
 NSaved= 6 IEnMin= 6 EnMin= -1507.84420809172     IErMin= 6 ErrMin= 1.50D-07
 ErrMax= 1.50D-07  0.00D+00 EMaxC= 1.00D-01 BMatC= 4.92D-11 BMatP= 8.88D-10
 IDIUse=1 WtCom= 1.00D+00 WtEn= 0.00D+00
 Coeff-Com:  0.226D-03-0.151D-01-0.351D-02 0.106D+00 0.199D+00 0.714D+00
 Coeff:      0.226D-03-0.151D-01-0.351D-02 0.106D+00 0.199D+00 0.714D+00
 Gap=     0.122 Goal=   None    Shift=    0.000
 RMSDP=3.11D-08 MaxDP=2.47D-06 DE=-9.02D-10 OVMax= 9.40D-06

 Cycle  21  Pass 1  IDiag  1:
 RMSU=  2.02D-08    CP:  9.95D-01  1.03D+00  1.07D+00  1.01D+00  1.16D+00
                    CP:  1.08D+00
 E= -1507.84420809179     Delta-E=       -0.000000000069 Rises=F Damp=F
 DIIS: error= 1.04D-07 at cycle   7 NSaved=   7.
 NSaved= 7 IEnMin= 7 EnMin= -1507.84420809179     IErMin= 7 ErrMin= 1.04D-07
 ErrMax= 1.04D-07  0.00D+00 EMaxC= 1.00D-01 BMatC= 1.24D-11 BMatP= 4.92D-11
 IDIUse=1 WtCom= 1.00D+00 WtEn= 0.00D+00
 Coeff-Com:  0.269D-05 0.695D-03-0.115D-01-0.579D-01-0.608D-01 0.280D+00
 Coeff-Com:  0.850D+00
 Coeff:      0.269D-05 0.695D-03-0.115D-01-0.579D-01-0.608D-01 0.280D+00
 Coeff:      0.850D+00
 Gap=     0.122 Goal=   None    Shift=    0.000
 RMSDP=1.93D-08 MaxDP=1.04D-06 DE=-6.91D-11 OVMax= 7.55D-06

 Cycle  22  Pass 1  IDiag  1:
 RMSU=  9.17D-09    CP:  9.95D-01  1.03D+00  1.07D+00  1.02D+00  1.22D+00
                    CP:  1.25D+00  1.38D+00
 E= -1507.84420809184     Delta-E=       -0.000000000050 Rises=F Damp=F
 DIIS: error= 2.81D-08 at cycle   8 NSaved=   8.
 NSaved= 8 IEnMin= 8 EnMin= -1507.84420809184     IErMin= 8 ErrMin= 2.81D-08
 ErrMax= 2.81D-08  0.00D+00 EMaxC= 1.00D-01 BMatC= 3.50D-12 BMatP= 1.24D-11
 IDIUse=1 WtCom= 1.00D+00 WtEn= 0.00D+00
 Coeff-Com: -0.415D-04 0.325D-02-0.657D-02-0.499D-01-0.764D-01 0.163D-01
 Coeff-Com:  0.447D+00 0.667D+00
 Coeff:     -0.415D-04 0.325D-02-0.657D-02-0.499D-01-0.764D-01 0.163D-01
 Coeff:      0.447D+00 0.667D+00
 Gap=     0.122 Goal=   None    Shift=    0.000
 RMSDP=8.94D-09 MaxDP=6.77D-07 DE=-5.05D-11 OVMax= 3.21D-06

 SCF Done:  E(RM062X) =  -1507.84420809     A.U. after   22 cycles
            NFock= 22  Conv=0.89D-08     -V/T= 2.0043
 KE= 1.501442687163D+03 PE=-8.427538573859D+03 EE= 2.973766303476D+03
 Leave Link  502 at Wed Mar  8 15:41:20 2023, MaxMem=  2684354560 cpu:           20498.3 elap:            1283.6
 (Enter /opt/gaussian/g16/l601.exe)
 Copying SCF densities to generalized density rwf, IOpCl= 0 IROHF=0.

 **********************************************************************

            Population analysis using the SCF density.

 **********************************************************************

 Alpha  occ. eigenvalues --  -89.85339 -19.65230 -19.62834 -19.62099 -19.56734
 Alpha  occ. eigenvalues --  -19.54790 -14.87420 -14.79010 -10.67402 -10.65242
 Alpha  occ. eigenvalues --  -10.64481 -10.63850 -10.61685 -10.61402 -10.60787
 Alpha  occ. eigenvalues --  -10.60653 -10.60124 -10.59627 -10.57376 -10.55171
 Alpha  occ. eigenvalues --  -10.52564 -10.51711 -10.51026 -10.48424  -8.21226
 Alpha  occ. eigenvalues --   -6.13187  -6.12978  -6.12716  -1.20672  -1.20141
 Alpha  occ. eigenvalues --   -1.15519  -1.14052  -1.10356  -1.06689  -1.04173
 Alpha  occ. eigenvalues --   -0.97316  -0.93064  -0.88451  -0.86139  -0.85476
 Alpha  occ. eigenvalues --   -0.83166  -0.81001  -0.80339  -0.77660  -0.76145
 Alpha  occ. eigenvalues --   -0.72139  -0.70006  -0.68933  -0.68406  -0.66229
 Alpha  occ. eigenvalues --   -0.64685  -0.64452  -0.62517  -0.61710  -0.60713
 Alpha  occ. eigenvalues --   -0.59229  -0.57666  -0.56951  -0.55969  -0.55159
 Alpha  occ. eigenvalues --   -0.54418  -0.53961  -0.52677  -0.51551  -0.50589
 Alpha  occ. eigenvalues --   -0.49910  -0.49337  -0.48952  -0.48856  -0.48642
 Alpha  occ. eigenvalues --   -0.47941  -0.47310  -0.46676  -0.45662  -0.45151
 Alpha  occ. eigenvalues --   -0.44413  -0.43738  -0.42671  -0.42107  -0.41522
 Alpha  occ. eigenvalues --   -0.40252  -0.38982  -0.38225  -0.37875  -0.37307
 Alpha  occ. eigenvalues --   -0.36819  -0.36220  -0.35577  -0.35333  -0.34937
 Alpha  occ. eigenvalues --   -0.32864  -0.31247  -0.27731  -0.26254  -0.19908
 Alpha virt. eigenvalues --   -0.07725  -0.04071   0.03573   0.04249   0.04820
 Alpha virt. eigenvalues --    0.05554   0.06914   0.07209   0.08442   0.08822
 Alpha virt. eigenvalues --    0.09386   0.09528   0.10135   0.10657   0.11222
 Alpha virt. eigenvalues --    0.11536   0.12012   0.12634   0.13133   0.13635
 Alpha virt. eigenvalues --    0.14125   0.14416   0.14803   0.15020   0.15340
 Alpha virt. eigenvalues --    0.15600   0.15855   0.16724   0.17390   0.17547
 Alpha virt. eigenvalues --    0.17984   0.18075   0.18858   0.19145   0.19335
 Alpha virt. eigenvalues --    0.20157   0.20652   0.20952   0.21380   0.22131
 Alpha virt. eigenvalues --    0.22629   0.22890   0.23516   0.23787   0.23937
 Alpha virt. eigenvalues --    0.24555   0.24848   0.25821   0.25884   0.26104
 Alpha virt. eigenvalues --    0.27383   0.27526   0.27783   0.28399   0.28827
 Alpha virt. eigenvalues --    0.29487   0.29790   0.30185   0.30706   0.30818
 Alpha virt. eigenvalues --    0.31293   0.31721   0.32154   0.32642   0.33438
 Alpha virt. eigenvalues --    0.33464   0.34065   0.34549   0.35012   0.35164
 Alpha virt. eigenvalues --    0.35863   0.36516   0.37252   0.37962   0.38192
 Alpha virt. eigenvalues --    0.38754   0.39091   0.39177   0.39924   0.40336
 Alpha virt. eigenvalues --    0.40607   0.41063   0.41181   0.41771   0.42078
 Alpha virt. eigenvalues --    0.42235   0.42455   0.43310   0.43447   0.43627
 Alpha virt. eigenvalues --    0.44102   0.44759   0.45151   0.45353   0.45511
 Alpha virt. eigenvalues --    0.46116   0.46447   0.46898   0.46999   0.47151
 Alpha virt. eigenvalues --    0.47623   0.48102   0.48357   0.48905   0.49005
 Alpha virt. eigenvalues --    0.49335   0.49760   0.50164   0.50617   0.50709
 Alpha virt. eigenvalues --    0.51191   0.51624   0.52019   0.52466   0.52491
 Alpha virt. eigenvalues --    0.52601   0.52821   0.53659   0.53990   0.54095
 Alpha virt. eigenvalues --    0.54792   0.55287   0.55808   0.56292   0.56679
 Alpha virt. eigenvalues --    0.56899   0.57379   0.57950   0.58235   0.58503
 Alpha virt. eigenvalues --    0.59609   0.59831   0.60312   0.60757   0.61800
 Alpha virt. eigenvalues --    0.62087   0.62950   0.63315   0.64293   0.64630
 Alpha virt. eigenvalues --    0.65032   0.65744   0.66694   0.67145   0.67365
 Alpha virt. eigenvalues --    0.67724   0.68380   0.68630   0.69735   0.70392
 Alpha virt. eigenvalues --    0.71074   0.71770   0.72198   0.72971   0.73952
 Alpha virt. eigenvalues --    0.74008   0.74765   0.75316   0.76415   0.77091
 Alpha virt. eigenvalues --    0.77321   0.78134   0.79596   0.79996   0.80886
 Alpha virt. eigenvalues --    0.81785   0.82043   0.83008   0.84020   0.84750
 Alpha virt. eigenvalues --    0.84960   0.85901   0.86751   0.87257   0.88144
 Alpha virt. eigenvalues --    0.88420   0.88802   0.90459   0.90815   0.91305
 Alpha virt. eigenvalues --    0.91592   0.92129   0.92987   0.93477   0.93591
 Alpha virt. eigenvalues --    0.93869   0.94082   0.95220   0.95604   0.96179
 Alpha virt. eigenvalues --    0.96903   0.97644   0.98408   0.99318   1.00021
 Alpha virt. eigenvalues --    1.00728   1.01033   1.01672   1.02400   1.03234
 Alpha virt. eigenvalues --    1.03836   1.04925   1.05411   1.05576   1.06460
 Alpha virt. eigenvalues --    1.06896   1.08011   1.09181   1.09545   1.09843
 Alpha virt. eigenvalues --    1.10706   1.10948   1.11884   1.12582   1.13414
 Alpha virt. eigenvalues --    1.13603   1.14328   1.14885   1.15399   1.15995
 Alpha virt. eigenvalues --    1.16413   1.17241   1.17559   1.18021   1.19444
 Alpha virt. eigenvalues --    1.19786   1.21474   1.21652   1.21932   1.22772
 Alpha virt. eigenvalues --    1.23651   1.23976   1.24413   1.25369   1.26283
 Alpha virt. eigenvalues --    1.26937   1.27628   1.28578   1.29344   1.29427
 Alpha virt. eigenvalues --    1.31619   1.32483   1.32889   1.33641   1.33968
 Alpha virt. eigenvalues --    1.35070   1.35950   1.37280   1.37658   1.39286
 Alpha virt. eigenvalues --    1.39762   1.40594   1.42027   1.43297   1.43722
 Alpha virt. eigenvalues --    1.45215   1.45669   1.47321   1.47997   1.48713
 Alpha virt. eigenvalues --    1.50055   1.50377   1.51914   1.52012   1.52982
 Alpha virt. eigenvalues --    1.53789   1.54354   1.55462   1.55599   1.56365
 Alpha virt. eigenvalues --    1.56634   1.57191   1.57684   1.57705   1.58287
 Alpha virt. eigenvalues --    1.58771   1.59756   1.60487   1.60794   1.61037
 Alpha virt. eigenvalues --    1.61720   1.61893   1.62921   1.63161   1.63615
 Alpha virt. eigenvalues --    1.63908   1.64739   1.65149   1.65766   1.66457
 Alpha virt. eigenvalues --    1.66977   1.67363   1.67512   1.68296   1.68728
 Alpha virt. eigenvalues --    1.69227   1.70138   1.70491   1.70799   1.72112
 Alpha virt. eigenvalues --    1.72535   1.73061   1.73615   1.73870   1.74255
 Alpha virt. eigenvalues --    1.74949   1.75238   1.76111   1.76244   1.76856
 Alpha virt. eigenvalues --    1.77179   1.78911   1.79898   1.80239   1.80861
 Alpha virt. eigenvalues --    1.81347   1.81963   1.83113   1.83621   1.84494
 Alpha virt. eigenvalues --    1.85503   1.85916   1.86543   1.86988   1.87640
 Alpha virt. eigenvalues --    1.88304   1.89176   1.90519   1.90944   1.91116
 Alpha virt. eigenvalues --    1.91837   1.92281   1.92802   1.93580   1.93621
 Alpha virt. eigenvalues --    1.95373   1.95821   1.96321   1.97007   1.98249
 Alpha virt. eigenvalues --    1.98863   1.99157   1.99279   1.99838   2.00354
 Alpha virt. eigenvalues --    2.01688   2.02286   2.02650   2.03782   2.04265
 Alpha virt. eigenvalues --    2.05145   2.06427   2.07370   2.08420   2.08625
 Alpha virt. eigenvalues --    2.09153   2.10081   2.10633   2.11666   2.12378
 Alpha virt. eigenvalues --    2.12969   2.14169   2.14739   2.14969   2.15520
 Alpha virt. eigenvalues --    2.16202   2.16513   2.18179   2.18337   2.18776
 Alpha virt. eigenvalues --    2.19417   2.19641   2.19943   2.20459   2.21327
 Alpha virt. eigenvalues --    2.22665   2.24170   2.24699   2.25372   2.25870
 Alpha virt. eigenvalues --    2.26458   2.26884   2.26981   2.28478   2.29127
 Alpha virt. eigenvalues --    2.29537   2.30119   2.31687   2.32229   2.32643
 Alpha virt. eigenvalues --    2.32846   2.33466   2.34514   2.35010   2.35177
 Alpha virt. eigenvalues --    2.36551   2.37612   2.38139   2.38424   2.39254
 Alpha virt. eigenvalues --    2.39631   2.40548   2.40995   2.41986   2.43243
 Alpha virt. eigenvalues --    2.43880   2.44582   2.45818   2.46341   2.47311
 Alpha virt. eigenvalues --    2.47515   2.48190   2.48612   2.49775   2.50553
 Alpha virt. eigenvalues --    2.51004   2.52409   2.53357   2.53887   2.54968
 Alpha virt. eigenvalues --    2.55423   2.55695   2.56469   2.56825   2.57367
 Alpha virt. eigenvalues --    2.58564   2.58737   2.59283   2.60490   2.60708
 Alpha virt. eigenvalues --    2.61060   2.61517   2.62485   2.62765   2.63459
 Alpha virt. eigenvalues --    2.65066   2.65176   2.65707   2.66217   2.66570
 Alpha virt. eigenvalues --    2.67588   2.68664   2.69039   2.69930   2.70631
 Alpha virt. eigenvalues --    2.70932   2.71395   2.71805   2.72305   2.73380
 Alpha virt. eigenvalues --    2.73899   2.74905   2.75577   2.76135   2.76872
 Alpha virt. eigenvalues --    2.77251   2.77943   2.78310   2.79099   2.80282
 Alpha virt. eigenvalues --    2.80480   2.81292   2.82092   2.82484   2.83307
 Alpha virt. eigenvalues --    2.83788   2.84817   2.85396   2.86152   2.87117
 Alpha virt. eigenvalues --    2.88312   2.88878   2.89461   2.91330   2.92090
 Alpha virt. eigenvalues --    2.92425   2.92566   2.94458   2.94888   2.95705
 Alpha virt. eigenvalues --    2.97018   2.97727   2.98729   2.99389   3.00085
 Alpha virt. eigenvalues --    3.01023   3.01933   3.02467   3.02592   3.03262
 Alpha virt. eigenvalues --    3.03717   3.04869   3.05075   3.05400   3.06228
 Alpha virt. eigenvalues --    3.06911   3.07622   3.08428   3.09348   3.09730
 Alpha virt. eigenvalues --    3.09834   3.10610   3.11378   3.11692   3.12614
 Alpha virt. eigenvalues --    3.13060   3.13746   3.14076   3.14671   3.15145
 Alpha virt. eigenvalues --    3.15834   3.16871   3.17041   3.17845   3.18343
 Alpha virt. eigenvalues --    3.19015   3.19170   3.19942   3.20835   3.21140
 Alpha virt. eigenvalues --    3.21498   3.22469   3.22579   3.23548   3.24403
 Alpha virt. eigenvalues --    3.24769   3.26202   3.26666   3.26727   3.27399
 Alpha virt. eigenvalues --    3.27758   3.28418   3.29127   3.29646   3.30293
 Alpha virt. eigenvalues --    3.31518   3.32075   3.32190   3.33096   3.33629
 Alpha virt. eigenvalues --    3.34046   3.34479   3.35688   3.35872   3.36363
 Alpha virt. eigenvalues --    3.37177   3.37370   3.38042   3.38792   3.39436
 Alpha virt. eigenvalues --    3.39962   3.40541   3.41049   3.41424   3.41829
 Alpha virt. eigenvalues --    3.42595   3.42726   3.43228   3.43459   3.44853
 Alpha virt. eigenvalues --    3.45609   3.45828   3.46285   3.46815   3.47924
 Alpha virt. eigenvalues --    3.48284   3.48705   3.49043   3.50595   3.51519
 Alpha virt. eigenvalues --    3.51932   3.52466   3.53211   3.53870   3.55847
 Alpha virt. eigenvalues --    3.56016   3.56591   3.57517   3.57776   3.58197
 Alpha virt. eigenvalues --    3.58563   3.59727   3.60586   3.62792   3.63329
 Alpha virt. eigenvalues --    3.64275   3.66417   3.67023   3.67515   3.68783
 Alpha virt. eigenvalues --    3.69906   3.70270   3.70917   3.71328   3.72225
 Alpha virt. eigenvalues --    3.73038   3.74689   3.74922   3.76114   3.77058
 Alpha virt. eigenvalues --    3.78187   3.78437   3.79762   3.81444   3.81969
 Alpha virt. eigenvalues --    3.83033   3.83614   3.84412   3.85755   3.87035
 Alpha virt. eigenvalues --    3.88088   3.88910   3.89918   3.90856   3.91729
 Alpha virt. eigenvalues --    3.93502   3.93688   3.94745   3.95375   3.95692
 Alpha virt. eigenvalues --    3.98190   3.99529   4.01159   4.02875   4.03416
 Alpha virt. eigenvalues --    4.05498   4.06160   4.08534   4.09040   4.09323
 Alpha virt. eigenvalues --    4.10769   4.11464   4.12941   4.14314   4.15018
 Alpha virt. eigenvalues --    4.17997   4.19855   4.20762   4.21529   4.21787
 Alpha virt. eigenvalues --    4.22870   4.24169   4.26506   4.27003   4.28007
 Alpha virt. eigenvalues --    4.29691   4.31136   4.33109   4.34190   4.35375
 Alpha virt. eigenvalues --    4.35849   4.36878   4.38646   4.39394   4.41101
 Alpha virt. eigenvalues --    4.43742   4.44349   4.44744   4.45628   4.46840
 Alpha virt. eigenvalues --    4.47694   4.48242   4.49976   4.51238   4.54251
 Alpha virt. eigenvalues --    4.58381   4.58938   4.61800   4.63254   4.66288
 Alpha virt. eigenvalues --    4.69634   4.70603   4.72071   4.72636   4.73857
 Alpha virt. eigenvalues --    4.75118   4.76109   4.76944   4.78855   4.79777
 Alpha virt. eigenvalues --    4.80973   4.86200   4.86498   4.87271   4.89275
 Alpha virt. eigenvalues --    4.90923   4.92773   4.93993   4.94364   4.96920
 Alpha virt. eigenvalues --    4.98410   5.00287   5.02143   5.04368   5.05545
 Alpha virt. eigenvalues --    5.06053   5.09263   5.12217   5.14201   5.18572
 Alpha virt. eigenvalues --    5.19860   5.21506   5.25690   5.26430   5.27543
 Alpha virt. eigenvalues --    5.29309   5.31609   5.32598   5.33807   5.35162
 Alpha virt. eigenvalues --    5.36290   5.38993   5.39557   5.43390   5.44036
 Alpha virt. eigenvalues --    5.44712   5.50882   5.53312   5.55150   5.61187
 Alpha virt. eigenvalues --    5.66690   5.67008   5.70501   5.72821   5.76223
 Alpha virt. eigenvalues --    5.78567   5.80635   5.83338   5.83934   5.85823
 Alpha virt. eigenvalues --    5.86912   5.88059   5.90247   5.94598   5.96649
 Alpha virt. eigenvalues --    5.98089   5.99531   6.02238   6.15388   6.15951
 Alpha virt. eigenvalues --    6.21158   6.22028   6.28879   6.30386   6.41287
 Alpha virt. eigenvalues --    6.44779   6.50584   6.52604   6.56316   6.57574
 Alpha virt. eigenvalues --    6.61387   6.67723   6.72586   6.74289   6.77119
 Alpha virt. eigenvalues --    6.78978   6.82210   6.85054   6.85801   6.89178
 Alpha virt. eigenvalues --    6.92223   6.92698   6.99312   7.07871   7.10983
 Alpha virt. eigenvalues --    7.13169   7.16512   7.18783   7.22543   7.29153
 Alpha virt. eigenvalues --    7.33635   7.47481   9.06677   9.40793   9.58583
 Alpha virt. eigenvalues --   19.83748  22.31753  22.38591  22.44053  22.51011
 Alpha virt. eigenvalues --   22.55581  22.56434  22.62678  22.68625  22.74337
 Alpha virt. eigenvalues --   22.79352  22.83879  22.91503  23.00000  23.14639
 Alpha virt. eigenvalues --   23.18403  23.47560  32.11782  33.13946  44.15009
 Alpha virt. eigenvalues --   44.24535  44.27931  44.39783  44.50309
          Condensed to atoms (all electrons):
               1          2          3          4          5          6
     1  C    5.107959   0.416906   0.409536  -0.008982   0.001403  -0.000219
     2  H    0.416906   0.515837  -0.020472  -0.001166   0.000212  -0.000004
     3  H    0.409536  -0.020472   0.532670   0.001480  -0.000080  -0.000000
     4  C   -0.008982  -0.001166   0.001480   5.379561   0.482832   0.306072
     5  H    0.001403   0.000212  -0.000080   0.482832   0.568471  -0.042104
     6  O   -0.000219  -0.000004  -0.000000   0.306072  -0.042104   8.221681
     7  H   -0.000041  -0.000001   0.000002  -0.030783  -0.010136   0.250565
     8  C   -0.001214   0.011922  -0.007645  -0.038926  -0.069812  -0.050250
     9  H    0.013554  -0.000006  -0.001366  -0.095574   0.002370   0.004247
    10  O    0.009265  -0.000427   0.000155  -0.047040   0.001298  -0.008175
    11  H   -0.000929  -0.000093   0.000331   0.014830  -0.000609  -0.000382
    12  C   -0.003915   0.000550   0.000060  -0.037703  -0.088673  -0.055594
    13  H    0.000613   0.000018   0.000070  -0.084120   0.005608   0.009038
    14  C    0.169838  -0.048441  -0.037641   0.104050   0.009454   0.006264
    15  H   -0.058696  -0.005755  -0.003235  -0.007909  -0.000129   0.000048
    16  O   -0.028697   0.001331   0.004839  -0.055533   0.000334   0.007060
    17  N   -0.000341  -0.000082  -0.000031   0.019690  -0.009428  -0.001666
    18  C   -0.001432   0.000105   0.000020  -0.005714  -0.000037   0.003341
    19  H   -0.000383  -0.000077   0.000059  -0.011177  -0.000441   0.000650
    20  C    0.000090  -0.000015  -0.000000   0.004876   0.006284  -0.001013
    21  H    0.000006   0.000000  -0.000000  -0.000019   0.000110  -0.000010
    22  C   -0.000014   0.000001   0.000000   0.000960  -0.000476   0.000196
    23  H    0.000000   0.000000  -0.000000   0.000015  -0.000001   0.000001
    24  H    0.000000  -0.000000  -0.000000   0.000002  -0.000090  -0.000020
    25  C   -0.000075  -0.000006   0.000001  -0.008750  -0.000312  -0.000756
    26  C   -0.000450   0.000067  -0.000005   0.008446  -0.000928  -0.005588
    27  H   -0.000016   0.000001   0.000000   0.000159  -0.000134   0.000048
    28  C   -0.000000   0.000000  -0.000000   0.000040   0.000008  -0.000032
    29  O   -0.000000  -0.000000  -0.000000   0.000011  -0.000000  -0.000000
    30  N   -0.000000  -0.000000   0.000000   0.000001  -0.000000   0.000000
    31  H   -0.000000   0.000000  -0.000000  -0.000000   0.000000  -0.000000
    32  H    0.000000  -0.000000  -0.000000   0.000000   0.000000   0.000000
    33  C    0.000002  -0.000000  -0.000000   0.001046  -0.000576  -0.022670
    34  C    0.000001  -0.000000   0.000000  -0.000390   0.000172   0.016695
    35  C   -0.000000   0.000000  -0.000000  -0.001081   0.000608   0.003136
    36  C   -0.000000   0.000000   0.000000   0.000004   0.000001   0.000003
    37  C   -0.000000  -0.000000   0.000000   0.000286   0.000021   0.000073
    38  O   -0.000001   0.000000   0.000000   0.017963   0.000208  -0.112495
    39  S   -0.000000  -0.000000  -0.000000  -0.001309  -0.000005   0.001589
    40  H   -0.000000   0.000000  -0.000000   0.000116   0.000049   0.000137
    41  H   -0.000006   0.000000  -0.000000   0.000643   0.000597   0.010427
    42  H   -0.000000   0.000000   0.000000   0.000000  -0.000000  -0.000000
    43  H    0.000000   0.000000  -0.000000   0.000000   0.000000  -0.000000
    44  H    0.000000  -0.000000  -0.000000   0.000000  -0.000000  -0.000000
    45  H    0.000000  -0.000000  -0.000000  -0.000038   0.000013   0.000042
    46  H    0.000000  -0.000000  -0.000000  -0.000028  -0.000001   0.000046
    47  H    0.383843  -0.024815  -0.023035   0.001470  -0.000108   0.000002
    48  H    0.000000   0.000000  -0.000000  -0.000075   0.000004   0.000343
               7          8          9         10         11         12
     1  C   -0.000041  -0.001214   0.013554   0.009265  -0.000929  -0.003915
     2  H   -0.000001   0.011922  -0.000006  -0.000427  -0.000093   0.000550
     3  H    0.000002  -0.007645  -0.001366   0.000155   0.000331   0.000060
     4  C   -0.030783  -0.038926  -0.095574  -0.047040   0.014830  -0.037703
     5  H   -0.010136  -0.069812   0.002370   0.001298  -0.000609  -0.088673
     6  O    0.250565  -0.050250   0.004247  -0.008175  -0.000382  -0.055594
     7  H    0.298334   0.006349  -0.000071  -0.000580   0.000109   0.013525
     8  C    0.006349   5.379911   0.497068   0.297036  -0.039437   0.008738
     9  H   -0.000071   0.497068   0.573673  -0.057851  -0.006719   0.012607
    10  O   -0.000580   0.297036  -0.057851   8.016999   0.291787  -0.016937
    11  H    0.000109  -0.039437  -0.006719   0.291787   0.428074  -0.004135
    12  C    0.013525   0.008738   0.012607  -0.016937  -0.004135   5.658853
    13  H   -0.000413   0.018511   0.002616   0.017056  -0.001044   0.430913
    14  C   -0.000625   0.101577  -0.108975  -0.063779   0.001961  -0.074460
    15  H    0.000055  -0.024952   0.008029  -0.003088   0.002411  -0.001749
    16  O   -0.000265  -0.045886   0.004379   0.009099   0.000094   0.211606
    17  N    0.000743  -0.002112  -0.000569  -0.000215  -0.000016   0.182469
    18  C   -0.001565  -0.003075  -0.000223  -0.000264   0.000010  -0.095836
    19  H   -0.000029   0.000783   0.000068  -0.000002   0.000001   0.011222
    20  C   -0.000182  -0.001230   0.000036   0.000013  -0.000001   0.018337
    21  H    0.000002  -0.000008   0.000000   0.000000  -0.000000   0.000501
    22  C   -0.000161   0.000033  -0.000005  -0.000004   0.000000  -0.013734
    23  H   -0.000003   0.000000  -0.000000  -0.000000   0.000000   0.000007
    24  H   -0.000027   0.000015  -0.000000   0.000000   0.000000   0.001142
    25  C    0.001038  -0.000100   0.000004  -0.000038  -0.000001  -0.009173
    26  C   -0.000045  -0.003453  -0.000100  -0.000588  -0.000057  -0.065444
    27  H    0.000115  -0.000061  -0.000013  -0.000175   0.000007  -0.002284
    28  C    0.000066  -0.000003   0.000000   0.000000  -0.000000  -0.000456
    29  O    0.000006   0.000000   0.000000  -0.000000   0.000000   0.000409
    30  N    0.000000  -0.000000  -0.000000  -0.000000  -0.000000   0.000005
    31  H   -0.000000  -0.000000   0.000000  -0.000000  -0.000000  -0.000004
    32  H   -0.000000  -0.000000  -0.000000   0.000000  -0.000000  -0.000010
    33  C    0.000128   0.000977   0.000029  -0.000854   0.000065  -0.000424
    34  C   -0.014336   0.000017  -0.000024   0.000050   0.000000  -0.002602
    35  C    0.002131  -0.000325  -0.000002   0.000004  -0.000001  -0.000605
[...]
      3        1          -0.007190234   -0.003123528   -0.003421035
      4        6          -0.004450817    0.021050509    0.020372689
      5        1           0.010480421    0.001875731   -0.011931433
      6        8           0.018048369   -0.012827284   -0.005276224
      7        1          -0.003609953   -0.002718420   -0.004105895
      8        6           0.014662363    0.000526512   -0.005235252
      9        1          -0.007517899    0.003049391   -0.011040289
     10        8          -0.001650042    0.007906931    0.002332974
     11        1          -0.010035319   -0.006482240   -0.002010802
     12        6           0.030363426   -0.023205379    0.002282170
     13        1          -0.011224117   -0.005916015    0.002240940
     14        6          -0.018715909    0.001627395   -0.001377116
     15        1          -0.005626193   -0.006690447    0.009861474
     16        8           0.000466104   -0.003440124   -0.002057135
     17        7           0.002634888    0.007708124    0.005019844
     18        6          -0.004881686   -0.003563761   -0.001525189
     19        1          -0.001913359    0.007074576   -0.001738269
     20        6          -0.005596241    0.001510400    0.000297724
     21        1           0.002680452    0.004352548    0.002172292
     22        6           0.025810929    0.000592217   -0.011894293
     23        1           0.004400490    0.001094867    0.007767671
     24        1          -0.009735188    0.016490897    0.024341439
     25        6          -0.019804758   -0.007321957   -0.001454302
     26        6          -0.003599745    0.000913301    0.001049611
     27        1          -0.004988791   -0.003614679    0.001142693
     28        6          -0.015167612   -0.017882117   -0.005889347
     29        8           0.019550356    0.021745963    0.017215242
     30        7           0.003162910   -0.007213076   -0.003886691
     31        1          -0.002391863   -0.000609510   -0.000924773
     32        1          -0.001725116   -0.000207960   -0.001662779
     33        6          -0.010006630   -0.012481380   -0.012536052
     34        6           0.013746480   -0.056325574    0.022797408
     35        6          -0.026788302    0.014477322   -0.029973030
     36        6           0.010147506   -0.016016361    0.007054236
     37        6           0.011600704    0.002635607    0.001913259
     38        8          -0.011230978    0.027988294   -0.010245090
     39       16           0.014147242    0.013815615    0.007160512
     40        1           0.007535400    0.000864601   -0.000566408
     41        1          -0.003349524    0.005362307    0.006968030
     42        1           0.001533371    0.004053695   -0.001085140
     43        1          -0.003796575    0.000828627    0.000496945
     44        1           0.000737025   -0.002599282   -0.003744219
     45        1           0.005741418    0.001005641   -0.010643237
     46        1          -0.003933748   -0.003330726   -0.000607735
     47        1           0.001222142   -0.001198998   -0.000980566
     48        1          -0.003585197    0.004363179   -0.005123776
 -------------------------------------------------------------------
 Cartesian Forces:  Max     0.056325574 RMS     0.011304967
 Leave Link  716 at Wed Mar  8 15:47:03 2023, MaxMem=  2684354560 cpu:               0.9 elap:               0.1
 (Enter /opt/gaussian/g16/l103.exe)

 GradGradGradGradGradGradGradGradGradGradGradGradGradGradGradGradGradGrad
 Berny optimization.
 Search for a local minimum.
 Step number   1 out of a maximum of    2
 All quantities printed in internal units (Hartrees-Bohrs-Radians)
 Second derivative matrix not updated -- first step.
 ITU=  0
     Eigenvalues ---    0.00042   0.00062   0.00099   0.00135   0.00156
     Eigenvalues ---    0.00170   0.00189   0.00224   0.00446   0.00502
     Eigenvalues ---    0.00592   0.00665   0.00767   0.00920   0.00967
     Eigenvalues ---    0.01047   0.01203   0.01252   0.01400   0.01548
     Eigenvalues ---    0.01776   0.01917   0.02160   0.02392   0.02551
     Eigenvalues ---    0.02912   0.03092   0.03669   0.03743   0.03836
     Eigenvalues ---    0.04300   0.04494   0.04742   0.04818   0.04959
     Eigenvalues ---    0.05063   0.05107   0.05468   0.05692   0.05798
     Eigenvalues ---    0.06021   0.06352   0.06578   0.06842   0.06976
     Eigenvalues ---    0.07185   0.07532   0.07664   0.08088   0.08243
     Eigenvalues ---    0.08377   0.08636   0.08726   0.09416   0.10251
     Eigenvalues ---    0.10759   0.11002   0.11191   0.11848   0.12132
     Eigenvalues ---    0.12974   0.13075   0.13284   0.13369   0.13625
     Eigenvalues ---    0.13783   0.14063   0.15069   0.15564   0.15696
     Eigenvalues ---    0.17193   0.17606   0.18126   0.18670   0.19954
     Eigenvalues ---    0.20251   0.20391   0.21155   0.22238   0.25198
     Eigenvalues ---    0.25555   0.26101   0.27712   0.28631   0.31998
     Eigenvalues ---    0.32756   0.33139   0.33219   0.36413   0.36662
     Eigenvalues ---    0.36662   0.36662   0.36662   0.36662   0.39959
     Eigenvalues ---    0.42764   0.46836   0.46995   0.53198   0.55133
     Eigenvalues ---    0.58770   0.59255   0.66405   0.68500   0.71962
     Eigenvalues ---    0.76965   0.77464   0.77921   0.80763   0.85149
     Eigenvalues ---    0.87916   0.88983   0.90044   0.91034   0.92335
     Eigenvalues ---    0.92967   0.93203   0.94633   0.96111   0.99439
     Eigenvalues ---    1.01506   1.03148   1.04388   1.04914   1.10273
     Eigenvalues ---    1.13662   1.22442   1.24805   1.26038   1.29910
     Eigenvalues ---    1.30500   1.31362   1.41632   1.49479   1.71965
     Eigenvalues ---    1.75333   1.76681   2.52527
 Quadratic step=4.234D+00 exceeds max=3.000D-01 adjusted using Lamda=-1.012D-01.
 Angle between NR and scaled steps=  71.65 degrees.
 Angle between quadratic step and forces=  45.88 degrees.
 Linear search not attempted -- first point.
 Variable       Old X    -DE/DX   Delta X   Delta X   Delta X     New X
                                 (Linear)    (Quad)   (Total)
    X1        6.58074   0.00307   0.00000  -0.01441  -0.01441   6.56634
    Y1       -6.68890   0.02735   0.00000   0.05626   0.05626  -6.63263
    Z1       -1.38145   0.00168   0.00000   0.01196   0.01196  -1.36949
    X2        6.53246   0.00077   0.00000   0.00004   0.00004   6.53250
    Y2       -6.85907  -0.00350   0.00000  -0.00052  -0.00052  -6.85959
    Z2       -3.44966   0.00677   0.00000   0.02777   0.02777  -3.42189
    X3        8.39208  -0.00719   0.00000  -0.03592  -0.03592   8.35616
    Y3       -7.38489  -0.00312   0.00000   0.00667   0.00667  -7.37822
    Z3       -0.63804  -0.00342   0.00000  -0.00505  -0.00505  -0.64309
    X4        3.06181  -0.00445   0.00000   0.02775   0.02775   3.08957
    Y4       -2.15867   0.02105   0.00000   0.02662   0.02662  -2.13204
    Z4        2.00065   0.02037   0.00000   0.01809   0.01809   2.01874
    X5        1.67072   0.01048   0.00000   0.06317   0.06317   1.73389
    Y5       -3.73582   0.00188   0.00000   0.00798   0.00798  -3.72784
    Z5        2.07217  -0.01193   0.00000  -0.06000  -0.06000   2.01217
    X6        2.55232   0.01805   0.00000   0.04786   0.04786   2.60017
    Y6       -0.54034  -0.01283   0.00000  -0.01225  -0.01225  -0.55259
    Z6        3.99362  -0.00528   0.00000   0.01424   0.01424   4.00785
    X7        0.78241  -0.00361   0.00000   0.02236   0.02236   0.80477
    Y7        0.30071  -0.00272   0.00000  -0.03564  -0.03564   0.26507
    Z7        3.92775  -0.00411   0.00000  -0.01848  -0.01848   3.90927
    X8        5.85301   0.01466   0.00000   0.01000   0.01000   5.86301
    Y8       -3.13597   0.00053   0.00000   0.02521   0.02521  -3.11076
    Z8        2.09308  -0.00524   0.00000  -0.01710  -0.01710   2.07597
    X9        6.17018  -0.00752   0.00000  -0.03560  -0.03560   6.13458
    Y9       -4.68147   0.00305   0.00000   0.00649   0.00649  -4.67498
    Z9        3.47307  -0.01104   0.00000  -0.05572  -0.05572   3.41736
   X10        7.36965  -0.00165   0.00000  -0.01836  -0.01836   7.35128
   Y10       -1.04769   0.00791   0.00000   0.03135   0.03135  -1.01634
   Z10        2.81041   0.00233   0.00000   0.00328   0.00328   2.81369
   X11        9.16085  -0.01004   0.00000  -0.04100  -0.04100   9.11985
   Y11       -1.41717  -0.00648   0.00000  -0.03235  -0.03235  -1.44953
   Z11        2.85580  -0.00201   0.00000  -0.00896  -0.00896   2.84685
   X12        3.14866   0.03036   0.00000   0.03621   0.03621   3.18486
   Y12       -0.79667  -0.02321   0.00000  -0.03987  -0.03987  -0.83654
   Z12       -0.60316   0.00228   0.00000   0.00011   0.00011  -0.60305
   X13        4.30466  -0.01122   0.00000  -0.03072  -0.03072   4.27394
   Y13        0.94237  -0.00592   0.00000  -0.02298  -0.02298   0.91939
   Z13       -0.43335   0.00224   0.00000   0.01023   0.01023  -0.42312
   X14        6.46792  -0.01872   0.00000  -0.04773  -0.04773   6.42019
   Y14       -3.83253   0.00163   0.00000   0.01478   0.01478  -3.81775
   Z14       -0.72723  -0.00138   0.00000  -0.00096  -0.00096  -0.72818
   X15        8.20884  -0.00563   0.00000  -0.02807  -0.02807   8.18077
   Y15       -2.87096  -0.00669   0.00000  -0.02379  -0.02379  -2.89475
   Z15       -1.39023   0.00986   0.00000   0.04999   0.04999  -1.34024
   X16        4.42619   0.00047   0.00000  -0.01193  -0.01193   4.41427
   Y16       -2.60949  -0.00344   0.00000  -0.02135  -0.02135  -2.63084
   Z16       -2.14627  -0.00206   0.00000  -0.02674  -0.02674  -2.17302
   X17        0.79141   0.00263   0.00000   0.00593   0.00593   0.79734
   Y17       -0.20718   0.00771   0.00000   0.00085   0.00085  -0.20633
   Z17       -1.87349   0.00502   0.00000   0.02137   0.02137  -1.85212
   X18       -0.88117  -0.00488   0.00000  -0.00757  -0.00757  -0.88874
   Y18       -2.09028  -0.00356   0.00000   0.00693   0.00693  -2.08335
   Z18       -2.31382  -0.00153   0.00000   0.00446   0.00446  -2.30936
   X19       -0.29270  -0.00191   0.00000  -0.01077  -0.01077  -0.30348
   Y19       -3.97226   0.00707   0.00000   0.02110   0.02110  -3.95116
   Z19       -1.72191  -0.00174   0.00000   0.00001   0.00001  -1.72190
   X20       -3.12728  -0.00560   0.00000   0.00233   0.00233  -3.12495
   Y20       -1.59515   0.00151   0.00000   0.00318   0.00318  -1.59198
   Z20       -3.48807   0.00030   0.00000  -0.00587  -0.00587  -3.49393
   X21       -4.43440   0.00268   0.00000   0.00003   0.00003  -4.43437
   Y21       -3.14322   0.00435   0.00000   0.01591   0.01591  -3.12731
   Z21       -3.83306   0.00217   0.00000   0.01271   0.01271  -3.82035
   X22       -3.73600   0.02581   0.00000   0.04945   0.04945  -3.68656
   Y22        0.90329   0.00059   0.00000  -0.01503  -0.01503   0.88826
   Z22       -4.21735  -0.01189   0.00000  -0.05129  -0.05129  -4.26864
   X23       -5.44254   0.00440   0.00000   0.02487   0.02487  -5.41766
   Y23        1.28027   0.00109   0.00000   0.00560   0.00560   1.28587
   Z23       -5.31471   0.00777   0.00000   0.01877   0.01877  -5.29594
   X24       -5.23824  -0.00974   0.00000  -0.02742  -0.02742  -5.26567
   Y24        2.45575   0.01649   0.00000   0.04957   0.04957   2.50532
   Z24       -1.19085   0.02434   0.00000   0.08665   0.08665  -1.10420
   X25       -1.78239  -0.01980   0.00000  -0.02284  -0.02284  -1.80523
   Y25        2.74834  -0.00732   0.00000  -0.00615  -0.00615   2.74219
   Z25       -4.02576  -0.00145   0.00000   0.00372   0.00372  -4.02204
   X26        0.39061  -0.00360   0.00000  -0.02369  -0.02369   0.36692
   Y26        2.17413   0.00091   0.00000  -0.00235  -0.00235   2.17178
   Z26       -2.72032   0.00105   0.00000   0.01650   0.01650  -2.70382
   X27        1.87832  -0.00499   0.00000  -0.03250  -0.03250   1.84582
   Y27        3.56229  -0.00361   0.00000  -0.00655  -0.00655   3.55574
   Z27       -2.40888   0.00114   0.00000   0.01567   0.01567  -2.39321
   X28       -2.18989  -0.01517   0.00000  -0.02995  -0.02995  -2.21984
   Y28        5.40786  -0.01788   0.00000   0.00011   0.00011   5.40796
   Z28       -4.99737  -0.00589   0.00000   0.02796   0.02796  -4.96941
   X29       -1.45657   0.01955   0.00000   0.05585   0.05585  -1.40073
   Y29        7.23345   0.02175   0.00000   0.00068   0.00068   7.23413
   Z29       -3.91813   0.01722   0.00000   0.02288   0.02288  -3.89525
   X30       -3.67881   0.00316   0.00000   0.00548   0.00548  -3.67333
   Y30        5.62533  -0.00721   0.00000  -0.01609  -0.01609   5.60924
   Z30       -7.10385  -0.00389   0.00000  -0.00747  -0.00747  -7.11132
   X31       -3.66843  -0.00239   0.00000  -0.01241  -0.01241  -3.68084
   Y31        7.38489  -0.00061   0.00000  -0.01519  -0.01519   7.36970
   Z31       -7.83995  -0.00092   0.00000  -0.01012  -0.01012  -7.85007
   X32       -3.71348  -0.00173   0.00000  -0.00501  -0.00501  -3.71849
   Y32        4.18483  -0.00021   0.00000  -0.01390  -0.01390   4.17093
   Z32       -8.34435  -0.00166   0.00000  -0.00946  -0.00946  -8.35381
   X33        1.71287  -0.01001   0.00000  -0.02098  -0.02098   1.69189
   Y33        4.00834  -0.01248   0.00000  -0.01908  -0.01908   3.98926
   Z33        7.35592  -0.01254   0.00000  -0.02646  -0.02646   7.32946
   X34       -1.68521   0.01375   0.00000  -0.00002  -0.00002  -1.68523
   Y34        3.84942  -0.05633   0.00000  -0.03533  -0.03533   3.81409
   Z34        3.17101   0.02280   0.00000   0.00273   0.00273   3.17375
   X35       -3.33974  -0.02679   0.00000  -0.00947  -0.00947  -3.34920
   Y35        4.98919   0.01448   0.00000   0.00846   0.00846   4.99765
   Z35        1.61562  -0.02997   0.00000  -0.03227  -0.03227   1.58335
   X36       -7.43166   0.01015   0.00000   0.02498   0.02498  -7.40668
   Y36        5.99807  -0.01602   0.00000  -0.03004  -0.03004   5.96803
   Z36       -0.65717   0.00705   0.00000   0.01341   0.01341  -0.64376
   X37       -5.71020   0.01160   0.00000   0.01767   0.01767  -5.69253
   Y37        3.86670   0.00264   0.00000   0.02120   0.02120   3.88790
   Z37        0.43516   0.00191   0.00000   0.02390   0.02390   0.45906
   X38       -1.59711  -0.01123   0.00000  -0.06859  -0.06859  -1.66570
   Y38        1.43564   0.02799   0.00000   0.00365   0.00365   1.43929
   Z38        3.70410  -0.01025   0.00000  -0.01477  -0.01477   3.68932
   X39        0.59966   0.01415   0.00000   0.02692   0.02692   0.62658
   Y39        5.83139   0.01382   0.00000   0.00801   0.00801   5.83941
   Z39        4.62746   0.00716   0.00000  -0.00014  -0.00014   4.62733
   X40        0.02651   0.00754   0.00000   0.01362   0.01362   0.04013
   Y40        3.31252   0.00086   0.00000  -0.00919  -0.00919   3.30333
   Z40        8.34435  -0.00057   0.00000   0.00153   0.00153   8.34588
   X41        2.84420  -0.00335   0.00000  -0.00074  -0.00074   2.84346
   Y41        2.42238   0.00536   0.00000  -0.00021  -0.00021   2.42217
   Z41        6.64484   0.00697   0.00000   0.02691   0.02691   6.67175
   X42       -9.16085   0.00153   0.00000   0.01985   0.01985  -9.14100
   Y42        5.16223   0.00405   0.00000   0.00300   0.00300   5.16523
   Z42       -1.42242  -0.00109   0.00000  -0.00128  -0.00128  -1.42370
   X43       -6.39491  -0.00380   0.00000  -0.00597  -0.00597  -6.40089
   Y43        7.00188   0.00083   0.00000  -0.00676  -0.00676   6.99512
   Z43       -2.13617   0.00050   0.00000   0.00879   0.00879  -2.12738
   X44       -7.92574   0.00074   0.00000   0.01179   0.01179  -7.91395
   Y44        7.33990  -0.00260   0.00000  -0.01932  -0.01932   7.32058
   Z44        0.84173  -0.00374   0.00000  -0.01046  -0.01046   0.83128
   X45       -6.74499   0.00574   0.00000   0.02967   0.02967  -6.71532
   Y45        2.78090   0.00101   0.00000  -0.00114  -0.00114   2.77976
   Z45        1.90067  -0.01064   0.00000  -0.01996  -0.01996   1.88071
   X46       -3.01091  -0.00393   0.00000  -0.01821  -0.01821  -3.02912
   Y46        6.99967  -0.00333   0.00000   0.00095   0.00095   7.00062
   Z46        1.30093  -0.00061   0.00000  -0.01774  -0.01774   1.28320
   X47        4.99539   0.00122   0.00000   0.00218   0.00218   4.99757
   Y47       -7.69046  -0.00120   0.00000   0.01578   0.01578  -7.67468
   Z47       -0.52921  -0.00098   0.00000  -0.00286  -0.00286  -0.53206
   X48        2.85454  -0.00359   0.00000  -0.03447  -0.03447   2.82006
   Y48        5.18706   0.00436   0.00000   0.02034   0.02034   5.20740
   Z48        8.60092  -0.00512   0.00000  -0.04481  -0.04481   8.55611
         Item               Value     Threshold  Converged?
 Maximum Force            0.056326     0.000450     NO 
 RMS     Force            0.011305     0.000300     NO 
 Maximum Displacement     0.086649     0.001800     NO 
 RMS     Displacement     0.025024     0.001200     NO 
 Predicted change in Energy=-1.874421D-02
 GradGradGradGradGradGradGradGradGradGradGradGradGradGradGradGradGradGrad

 Leave Link  103 at Wed Mar  8 15:47:03 2023, MaxMem=  2684354560 cpu:               2.1 elap:               0.1
 (Enter /opt/gaussian/g16/l9999.exe)

 Test job not archived.
 1\1\GINC-JULIO-SYS\Force\RM062X\def2TZVP\C16H24N2O5S1\JVELAZQUEZ\08-Ma
 r-2023\0\\#P M062X/Def2TZVP scf=(direct,conver=8) EmpiricalDispersion=
 GD3 NoSymm Force pop=(NBORead) Charge Prop=(Field,Read)\\Gaussian run 
 using SANDER external interface, route from template gau_job.tpl\\0,1\
 C,3.4823779803,-3.5396115184,-0.7310326444\H,3.4568285852,-3.629664565
 2,-1.8254796239\H,4.4408954488,-3.9079164573,-0.3376383179\C,1.6202414
 789,-1.1423181099,1.0587009569\H,0.8841070522,-1.9769120743,1.09654623
 3\O,1.3506287034,-0.2859376919,2.1133313895\H,0.4140336724,0.159128815
 9,2.0784752674\C,3.0972790615,-1.6594843575,1.1076087196\H,3.265118683
 5,-2.4773279635,1.837869864\O,3.8998482611,-0.5544124891,1.487203368\H
 ,4.847712824,-0.7499362275,1.5112263679\C,1.6661989785,-0.4215777211,-
 0.3191774171\H,2.2779291121,0.4986806514,-0.2293195715\C,3.4226756465,
 -2.0280872837,-0.3848316036\H,4.3439304196,-1.5192454869,-0.7356762204
 \O,2.3422410277,-1.3808852498,-1.1357594713\N,0.4187982452,-0.10963654
 78,-0.9914079852\C,-0.4662948125,-1.106128636,-1.2244195198\H,-0.15489
 073,-2.1020283684,-0.9111952252\C,-1.6548841105,-0.8441193898,-1.84580
 46422\H,-2.3465836742,-1.6633198848,-2.0283702105\C,-1.9770082448,0.47
 80007751,-2.2317256059\H,-2.8800665475,0.6774885216,-2.8124248363\H,-2
 .7719584954,1.2995282646,-0.6301702867\C,-0.9432009624,1.4543577005,-2
 .1303406829\C,0.2067034425,1.1505026337,-1.4395291187\H,0.9939658704,1
 .8850822766,-1.2747258461\C,-1.1588392164,2.8617143392,-2.6444945632\O
 ,-0.770784807,3.827779216,-2.0733844163\N,-1.9467422482,2.9767960335,-
 3.7591950603\H,-1.9412482479,3.9079164573,-4.1487224407\H,-1.965088862
 1,2.2145169795,-4.4156419876\C,0.9064133743,2.1211232884,3.892586552\C
 ,-0.8917736683,2.0370250429,1.6780281729\C,-1.7673130159,2.6401652375,
 0.8549481124\C,-3.9326657141,3.1740396623,-0.347757963\C,-3.0217054397
 ,2.0461718007,0.2302759048\O,-0.8451542588,0.7597057423,1.9601244041\S
 ,0.3173245145,3.0858402573,2.4487471971\H,0.0140286766,1.7529119118,4.
 4156419876\H,1.5050856683,1.28186931,3.5162993078\H,-4.847712824,2.731
 7347993,-0.7527124393\H,-3.3840421178,3.7052371836,-1.1304117262\H,-4.
 1941218549,3.8841080539,0.4454250564\H,-3.5692929593,1.4715867395,1.00
 57908258\H,-1.5933060273,3.7040662202,0.6884242114\H,2.6434459207,-4.0
 6961406,-0.2800445012\H,1.5105549256,2.7448715248,4.5514121158\\Versio
 n=ES64L-G16RevA.03\HF=-1507.8442081\RMSD=8.942e-09\RMSF=1.130e-02\Dipo
 le=0.4989122,-2.4897584,-3.6076545\Quadrupole=8.8284488,-11.0738832,2.
 2454344,-4.7311181,10.9078163,-9.9754443\PG=C01 [X(C16H24N2O5S1)]\\@


 IF IT'S NOT TRUE, IT'S WELL INVENTED -- DANTE
 Job cpu time:       0 days  7 hours 15 minutes 17.6 seconds.
 Elapsed time:       0 days  0 hours 27 minutes 15.3 seconds.
 File lengths (MBytes):  RWF=    435 Int=      0 D2E=      0 Chk=     48 Scr=      1
 Normal termination of Gaussian 16 at Wed Mar  8 15:47:03 2023.
