 Entering Gaussian System, Link 0=g16
 Initial command:
 /opt/gaussian/g16/l1.exe "/opt/gaussian/scratch16/Gau-2710297.inp" -scrdir="/opt/gaussian/scratch16/"
 Entering Link 1 = /opt/gaussian/g16/l1.exe PID=   2710299.
  
 Copyright (c) 1988,1990,1992,1993,1995,1998,2003,2009,2016,
            Gaussian, Inc.  All Rights Reserved.
  
 This is part of the Gaussian(R) 16 program.  It is based on
 the Gaussian(R) 09 system (copyright 2009, Gaussian, Inc.),
 the Gaussian(R) 03 system (copyright 2003, Gaussian, Inc.),
 the Gaussian(R) 98 system (copyright 1998, Gaussian, Inc.),
 the Gaussian(R) 94 system (copyright 1995, Gaussian, Inc.),
 the Gaussian 92(TM) system (copyright 1992, Gaussian, Inc.),
 the Gaussian 90(TM) system (copyright 1990, Gaussian, Inc.),
 the Gaussian 88(TM) system (copyright 1988, Gaussian, Inc.),
 the Gaussian 86(TM) system (copyright 1986, Carnegie Mellon
 University), and the Gaussian 82(TM) system (copyright 1983,
 Carnegie Mellon University). Gaussian is a federally registered
 trademark of Gaussian, Inc.
  
 This software contains proprietary and confidential information,
 including trade secrets, belonging to Gaussian, Inc.
  
 This software is provided under written license and may be
 used, copied, transmitted, or stored only in accord with that
 written license.
  
 The following legend is applicable only to US Government
 contracts under FAR:
  
                    RESTRICTED RIGHTS LEGEND
  
 Use, reproduction and disclosure by the US Government is
 subject to restrictions as set forth in subparagraphs (a)
 and (c) of the Commercial Computer Software - Restricted
 Rights clause in FAR 52.227-19.
  
 Gaussian, Inc.
 340 Quinnipiac St., Bldg. 40, Wallingford CT 06492
  
  
 ---------------------------------------------------------------
 Warning -- This program may not be used in any manner that
 competes with the business of Gaussian, Inc. or will provide
 assistance to any competitor of Gaussian, Inc.  The licensee
 of this program is prohibited from giving any competitor of
 Gaussian, Inc. access to this program.  By using this program,
 the user acknowledges that Gaussian, Inc. is engaged in the
 business of creating and licensing software in the field of
 computational chemistry and represents and warrants to the
 licensee that it is not a competitor of Gaussian, Inc. and that
 it will not use this program in any manner prohibited above.
 ---------------------------------------------------------------
  

 Cite this work as:
 Gaussian 16, Revision A.03,
 M. J. Frisch, G. W. Trucks, H. B. Schlegel, G. E. Scuseria, 
 M. A. Robb, J. R. Cheeseman, G. Scalmani, V. Barone, 
 G. A. Petersson, H. Nakatsuji, X. Li, M. Caricato, A. V. Marenich, 
 J. Bloino, B. G. Janesko, R. Gomperts, B. Mennucci, H. P. Hratchian, 
 J. V. Ortiz, A. F. Izmaylov, J. L. Sonnenberg, D. Williams-Young, 
 F. Ding, F. Lipparini, F. Egidi, J. Goings, B. Peng, A. Petrone, 
 T. Henderson, D. Ranasinghe, V. G. Zakrzewski, J. Gao, N. Rega, 
 G. Zheng, W. Liang, M. Hada, M. Ehara, K. Toyota, R. Fukuda, 
 J. Hasegawa, M. Ishida, T. Nakajima, Y. Honda, O. Kitao, H. Nakai, 
 T. Vreven, K. Throssell, J. A. Montgomery, Jr., J. E. Peralta, 
 F. Ogliaro, M. J. Bearpark, J. J. Heyd, E. N. Brothers, K. N. Kudin, 
 V. N. Staroverov, T. A. Keith, R. Kobayashi, J. Normand, 
 K. Raghavachari, A. P. Rendell, J. C. Burant, S. S. Iyengar, 
 J. Tomasi, M. Cossi, J. M. Millam, M. Klene, C. Adamo, R. Cammi, 
 J. W. Ochterski, R. L. Martin, K. Morokuma, O. Farkas, 
 J. B. Foresman, and D. J. Fox, Gaussian, Inc., Wallingford CT, 2016.
 
 ******************************************
 Gaussian 16:  ES64L-G16RevA.03 25-Dec-2016
                 8-Mar-2023 
 ******************************************
 %chk=29.chk
 %NProcShared=16
 Will use up to   16 processors via shared memory.
 %mem=20GB
 ----------------------------------------------------------------------
 #P M062X/Def2TZVP scf=(direct,conver=8) EmpiricalDispersion=GD3 NoSymm
  Force pop=(NBORead) Charge Prop=(Field,Read)
 ----------------------------------------------------------------------
 1/10=7,18=10,28=-2,30=1,38=1,125=101/1,3;
 2/12=2,15=1,17=6,18=5,29=2,40=1/2;
 3/5=44,7=101,11=2,25=1,30=1,71=1,74=-55,124=31/1,2,3;
 4//1;
 5/5=2,6=8,38=5/2;
 6/7=2,8=2,9=2,10=2,14=2,15=1,28=1,40=2/1,2,7;
 7/7=1,16=-2,29=1,30=1/1,2,3,16;
 1/10=7,18=10,28=-2,30=1/3;
 99/12=1/99;
 Leave Link    1 at Wed Mar  8 15:17:56 2023, MaxMem=  2684354560 cpu:               1.0 elap:               0.1
 (Enter /opt/gaussian/g16/l101.exe)
 ----------------------------------------------------------------------
 Gaussian run using SANDER external interface, route from template gau_
 job.tpl
 ----------------------------------------------------------------------
 Symbolic Z-matrix:
 Charge =  0 Multiplicity = 1
 C                     3.48319  -3.54031  -0.72454 
 H                     3.45844  -3.63089  -1.81898 
 H                     4.44155  -3.90803  -0.33043 
 C                     1.61939  -1.14157   1.06595 
 H                     0.88435  -1.97732   1.10342 
 O                     1.35047  -0.28667   2.118 
 H                     0.40919   0.1635    2.08463 
 C                     3.09751  -1.65945   1.11368 
 H                     3.26509  -2.47708   1.84404 
 O                     3.90063  -0.55459   1.49226 
 H                     4.84831  -0.75062   1.51733 
 C                     1.66726  -0.42257  -0.31441 
 H                     2.27771   0.49878  -0.22318 
 C                     3.42351  -2.02928  -0.37828 
 H                     4.34392  -1.51955  -0.72985 
 O                     2.34271  -1.38151  -1.12974 
 N                     0.42105  -0.11346  -0.99835 
 C                    -0.45929  -1.11304  -1.22765 
 H                    -0.15855  -2.10337  -0.88898 
 C                    -1.63546  -0.85735  -1.87116 
 H                    -2.34072  -1.6757   -2.03571 
 C                    -1.93701   0.44772  -2.30425 
 H                    -2.85699   0.65599  -2.8525 
 H                    -2.80013   1.314    -0.55351 
 C                    -0.93842   1.43991  -2.14905 
 C                     0.20927   1.14207  -1.44422 
 H                     0.98652   1.88702  -1.2582 
 C                    -1.1563    2.8518   -2.65032 
 O                    -0.76772   3.81492  -2.06791 
 N                    -1.94454   2.9765   -3.76318 
 H                    -1.94057   3.90803  -4.14732 
 H                    -1.96536   2.21449  -4.41968 
 C                     0.90894   2.1211    3.89841 
 C                    -0.88932   2.04097   1.68542 
 C                    -1.76698   2.64753   0.8709 
 C                    -3.93208   3.17903  -0.33313 
 C                    -3.03616   2.06068   0.26586 
 O                    -0.84044   0.7579    1.96351 
 S                     0.33413   3.08649   2.45349 
 H                     0.01539   1.75381   4.41968 
 H                     1.50704   1.28163   3.52213 
 H                    -4.84831   2.74037  -0.74475 
 H                    -3.37859   3.70337  -1.12208 
 H                    -4.19829   3.90116   0.44864 
 H                    -3.58657   1.50921   1.05009 
 H                    -1.59324   3.71119   0.71189 
 H                     2.64423  -4.07049  -0.2738 
 H                     1.51269   2.7447    4.55772 
 
 ITRead=  0  0  0  0  0  0  0  0  0  0  0  0  0  0  0  0  0  0  0  0
 ITRead=  0  0  0  0  0  0  0  0  0  0  0  0  0  0  0  0  0  0  0  0
 ITRead=  0  0  0  0  0  0  0  0
 MicOpt= -1 -1 -1 -1 -1 -1 -1 -1 -1 -1 -1 -1 -1 -1 -1 -1 -1 -1 -1 -1
 MicOpt= -1 -1 -1 -1 -1 -1 -1 -1 -1 -1 -1 -1 -1 -1 -1 -1 -1 -1 -1 -1
 MicOpt= -1 -1 -1 -1 -1 -1 -1 -1
 NAtoms=     48 NQM=       48 NQMF=       0 NMMI=      0 NMMIF=      0
                NMic=       0 NMicF=      0.
                    Isotopes and Nuclear Properties:
 (Nuclear quadrupole moments (NQMom) in fm**2, nuclear magnetic moments (NMagM)
  in nuclear magnetons)

  Atom         1           2           3           4           5           6           7           8           9          10
 IAtWgt=          12           1           1          12           1          16           1          12           1          16
 AtmWgt=  12.0000000   1.0078250   1.0078250  12.0000000   1.0078250  15.9949146   1.0078250  12.0000000   1.0078250  15.9949146
 NucSpn=           0           1           1           0           1           0           1           0           1           0
 AtZEff=  -0.0000000  -0.0000000  -0.0000000  -0.0000000  -0.0000000  -0.0000000  -0.0000000  -0.0000000  -0.0000000  -0.0000000
 NQMom=    0.0000000   0.0000000   0.0000000   0.0000000   0.0000000   0.0000000   0.0000000   0.0000000   0.0000000   0.0000000
 NMagM=    0.0000000   2.7928460   2.7928460   0.0000000   2.7928460   0.0000000   2.7928460   0.0000000   2.7928460   0.0000000
 AtZNuc=   6.0000000   1.0000000   1.0000000   6.0000000   1.0000000   8.0000000   1.0000000   6.0000000   1.0000000   8.0000000

  Atom        11          12          13          14          15          16          17          18          19          20
 IAtWgt=           1          12           1          12           1          16          14          12           1          12
 AtmWgt=   1.0078250  12.0000000   1.0078250  12.0000000   1.0078250  15.9949146  14.0030740  12.0000000   1.0078250  12.0000000
 NucSpn=           1           0           1           0           1           0           2           0           1           0
 AtZEff=  -0.0000000  -0.0000000  -0.0000000  -0.0000000  -0.0000000  -0.0000000  -0.0000000  -0.0000000  -0.0000000  -0.0000000
 NQMom=    0.0000000   0.0000000   0.0000000   0.0000000   0.0000000   0.0000000   2.0440000   0.0000000   0.0000000   0.0000000
 NMagM=    2.7928460   0.0000000   2.7928460   0.0000000   2.7928460   0.0000000   0.4037610   0.0000000   2.7928460   0.0000000
 AtZNuc=   1.0000000   6.0000000   1.0000000   6.0000000   1.0000000   8.0000000   7.0000000   6.0000000   1.0000000   6.0000000

  Atom        21          22          23          24          25          26          27          28          29          30
 IAtWgt=           1          12           1           1          12          12           1          12          16          14
 AtmWgt=   1.0078250  12.0000000   1.0078250   1.0078250  12.0000000  12.0000000   1.0078250  12.0000000  15.9949146  14.0030740
 NucSpn=           1           0           1           1           0           0           1           0           0           2
 AtZEff=  -0.0000000  -0.0000000  -0.0000000  -0.0000000  -0.0000000  -0.0000000  -0.0000000  -0.0000000  -0.0000000  -0.0000000
 NQMom=    0.0000000   0.0000000   0.0000000   0.0000000   0.0000000   0.0000000   0.0000000   0.0000000   0.0000000   2.0440000
 NMagM=    2.7928460   0.0000000   2.7928460   2.7928460   0.0000000   0.0000000   2.7928460   0.0000000   0.0000000   0.4037610
 AtZNuc=   1.0000000   6.0000000   1.0000000   1.0000000   6.0000000   6.0000000   1.0000000   6.0000000   8.0000000   7.0000000

  Atom        31          32          33          34          35          36          37          38          39          40
 IAtWgt=           1           1          12          12          12          12          12          16          32           1
 AtmWgt=   1.0078250   1.0078250  12.0000000  12.0000000  12.0000000  12.0000000  12.0000000  15.9949146  31.9720718   1.0078250
 NucSpn=           1           1           0           0           0           0           0           0           0           1
 AtZEff=  -0.0000000  -0.0000000  -0.0000000  -0.0000000  -0.0000000  -0.0000000  -0.0000000  -0.0000000  -0.0000000  -0.0000000
 NQMom=    0.0000000   0.0000000   0.0000000   0.0000000   0.0000000   0.0000000   0.0000000   0.0000000   0.0000000   0.0000000
 NMagM=    2.7928460   2.7928460   0.0000000   0.0000000   0.0000000   0.0000000   0.0000000   0.0000000   0.0000000   2.7928460
 AtZNuc=   1.0000000   1.0000000   6.0000000   6.0000000   6.0000000   6.0000000   6.0000000   8.0000000  16.0000000   1.0000000

  Atom        41          42          43          44          45          46          47          48
 IAtWgt=           1           1           1           1           1           1           1           1
 AtmWgt=   1.0078250   1.0078250   1.0078250   1.0078250   1.0078250   1.0078250   1.0078250   1.0078250
 NucSpn=           1           1           1           1           1           1           1           1
 AtZEff=  -0.0000000  -0.0000000  -0.0000000  -0.0000000  -0.0000000  -0.0000000  -0.0000000  -0.0000000
 NQMom=    0.0000000   0.0000000   0.0000000   0.0000000   0.0000000   0.0000000   0.0000000   0.0000000
 NMagM=    2.7928460   2.7928460   2.7928460   2.7928460   2.7928460   2.7928460   2.7928460   2.7928460
 AtZNuc=   1.0000000   1.0000000   1.0000000   1.0000000   1.0000000   1.0000000   1.0000000   1.0000000
 Background charge distribution read from input stream:
 Leave Link  101 at Wed Mar  8 15:17:56 2023, MaxMem=  2684354560 cpu:               3.7 elap:               0.2
 (Enter /opt/gaussian/g16/l103.exe)

 GradGradGradGradGradGradGradGradGradGradGradGradGradGradGradGradGradGrad
 Berny optimization.
 Initialization pass.
 Trust Radius=3.00D-01 FncErr=1.00D-07 GrdErr=1.00D-07 EigMax=2.50D+02 EigMin=1.00D-04
 Number of steps in this run=      2 maximum allowed number of steps=      2.
 GradGradGradGradGradGradGradGradGradGradGradGradGradGradGradGradGradGrad

 Leave Link  103 at Wed Mar  8 15:17:57 2023, MaxMem=  2684354560 cpu:               0.4 elap:               0.0
 (Enter /opt/gaussian/g16/l202.exe)
 ---------------------------------------------------------------------------------------------------
                            Z-MATRIX (ANGSTROMS AND DEGREES)
   CD    Cent   Atom    N1       Length/X        N2       Alpha/Y        N3        Beta/Z          J
 ---------------------------------------------------------------------------------------------------
      1      1  C        0   3.483188         -3.540307         -0.724541
      2      2  H        0   3.458439         -3.630889         -1.818979
      3      3  H        0   4.441547         -3.908026         -0.330432
      4      4  C        0   1.619392         -1.141571          1.065951
      5      5  H        0   0.884350         -1.977323          1.103424
      6      6  O        0   1.350474         -0.286674          2.118003
      7      7  H        0   0.409188          0.163501          2.084631
      8      8  C        0   3.097512         -1.659452          1.113684
      9      9  H        0   3.265094         -2.477083          1.844045
     10     10  O        0   3.900628         -0.554587          1.492263
     11     11  H        0   4.848310         -0.750624          1.517332
     12     12  C        0   1.667256         -0.422569         -0.314414
     13     13  H        0   2.277714          0.498783         -0.223176
     14     14  C        0   3.423509         -2.029275         -0.378281
     15     15  H        0   4.343920         -1.519546         -0.729849
     16     16  O        0   2.342712         -1.381509         -1.129739
     17     17  N        0   0.421046         -0.113461         -0.998355
     18     18  C        0  -0.459295         -1.113039         -1.227649
     19     19  H        0  -0.158549         -2.103375         -0.888980
     20     20  C        0  -1.635465         -0.857351         -1.871155
     21     21  H        0  -2.340723         -1.675704         -2.035705
     22     22  C        0  -1.937013          0.447717         -2.304249
     23     23  H        0  -2.856986          0.655985         -2.852502
     24     24  H        0  -2.800128          1.313997         -0.553511
     25     25  C        0  -0.938424          1.439914         -2.149047
     26     26  C        0   0.209266          1.142070         -1.444223
     27     27  H        0   0.986521          1.887017         -1.258205
     28     28  C        0  -1.156305          2.851801         -2.650324
     29     29  O        0  -0.767721          3.814920         -2.067912
     30     30  N        0  -1.944545          2.976505         -3.763183
     31     31  H        0  -1.940572          3.908026         -4.147323
     32     32  H        0  -1.965356          2.214487         -4.419681
     33     33  C        0   0.908936          2.121097          3.898408
     34     34  C        0  -0.889315          2.040966          1.685422
     35     35  C        0  -1.766978          2.647533          0.870899
     36     36  C        0  -3.932085          3.179033         -0.333131
     37     37  C        0  -3.036160          2.060683          0.265857
     38     38  O        0  -0.840439          0.757903          1.963513
     39     39  S        0   0.334131          3.086492          2.453489
     40     40  H        0   0.015388          1.753810          4.419681
     41     41  H        0   1.507036          1.281627          3.522130
     42     42  H        0  -4.848310          2.740370         -0.744748
     43     43  H        0  -3.378595          3.703367         -1.122078
     44     44  H        0  -4.198286          3.901159          0.448642
     45     45  H        0  -3.586571          1.509211          1.050089
     46     46  H        0  -1.593240          3.711185          0.711886
     47     47  H        0   2.644234         -4.070486         -0.273801
     48     48  H        0   1.512692          2.744702          4.557722
 ---------------------------------------------------------------------------------------------------
                         Z-Matrix orientation:                         
 ---------------------------------------------------------------------
 Center     Atomic      Atomic             Coordinates (Angstroms)
 Number     Number       Type             X           Y           Z
 ---------------------------------------------------------------------
      1          6           0        3.483188   -3.540307   -0.724541
      2          1           0        3.458439   -3.630889   -1.818979
      3          1           0        4.441547   -3.908026   -0.330432
      4          6           0        1.619392   -1.141571    1.065951
      5          1           0        0.884350   -1.977323    1.103424
      6          8           0        1.350474   -0.286674    2.118003
      7          1           0        0.409188    0.163501    2.084631
      8          6           0        3.097512   -1.659452    1.113684
      9          1           0        3.265094   -2.477083    1.844045
     10          8           0        3.900628   -0.554587    1.492263
     11          1           0        4.848310   -0.750624    1.517332
     12          6           0        1.667256   -0.422569   -0.314414
     13          1           0        2.277714    0.498783   -0.223176
     14          6           0        3.423509   -2.029275   -0.378281
     15          1           0        4.343920   -1.519546   -0.729849
     16          8           0        2.342712   -1.381509   -1.129739
     17          7           0        0.421046   -0.113461   -0.998355
     18          6           0       -0.459295   -1.113039   -1.227649
     19          1           0       -0.158549   -2.103375   -0.888980
     20          6           0       -1.635465   -0.857351   -1.871155
     21          1           0       -2.340723   -1.675704   -2.035705
     22          6           0       -1.937013    0.447717   -2.304249
     23          1           0       -2.856986    0.655985   -2.852502
     24          1           0       -2.800128    1.313997   -0.553511
     25          6           0       -0.938424    1.439914   -2.149047
     26          6           0        0.209266    1.142070   -1.444223
     27          1           0        0.986521    1.887017   -1.258205
     28          6           0       -1.156305    2.851801   -2.650324
     29          8           0       -0.767721    3.814920   -2.067912
     30          7           0       -1.944545    2.976505   -3.763183
     31          1           0       -1.940572    3.908026   -4.147323
     32          1           0       -1.965356    2.214487   -4.419681
     33          6           0        0.908936    2.121097    3.898408
     34          6           0       -0.889315    2.040966    1.685422
     35          6           0       -1.766978    2.647533    0.870899
     36          6           0       -3.932085    3.179033   -0.333131
     37          6           0       -3.036160    2.060683    0.265857
     38          8           0       -0.840439    0.757903    1.963513
     39         16           0        0.334131    3.086492    2.453489
     40          1           0        0.015388    1.753810    4.419681
     41          1           0        1.507036    1.281627    3.522130
     42          1           0       -4.848310    2.740370   -0.744748
     43          1           0       -3.378595    3.703367   -1.122078
     44          1           0       -4.198286    3.901159    0.448642
     45          1           0       -3.586571    1.509211    1.050089
     46          1           0       -1.593240    3.711185    0.711886
     47          1           0        2.644234   -4.070486   -0.273801
     48          1           0        1.512692    2.744702    4.557722
 ---------------------------------------------------------------------
                    Distance matrix (angstroms):
                    1          2          3          4          5
     1  C    0.000000
     2  H    1.098458   0.000000
     3  H    1.099541   1.805291   0.000000
     4  C    3.526122   4.231031   4.191386   0.000000
     5  H    3.540951   4.230916   4.293857   1.113630   0.000000
     6  O    4.818159   5.579168   5.353855   1.382020   2.026064
     7  H    5.573071   6.239671   6.218503   2.050735   2.402431
     8  C    2.658089   3.552090   2.991319   1.566945   2.235896
     9  H    2.788484   3.845308   2.856570   2.257732   2.542876
    10  O    3.742059   4.541309   3.854915   2.393810   3.357574
    11  H    3.830390   4.621540   3.680880   3.283671   4.170022
    12  C    3.631267   3.970563   4.454813   1.557133   2.245098
    13  H    4.244853   4.582017   4.910564   2.187692   3.135670
    14  C    1.551346   2.154529   2.137381   2.475614   2.940319
    15  H    2.196443   2.535360   2.423613   3.284938   3.941963
    16  O    2.474930   2.603768   3.380427   2.324181   2.732916
    17  N    4.603798   4.719267   5.568597   2.598923   2.847122
    18  C    4.657029   4.694452   5.712723   3.095538   2.825998
    19  H    3.918426   4.034948   4.972889   2.812098   2.252376
    20  C    5.891824   5.800267   6.972125   4.393344   4.056097
    21  H    6.254105   6.123725   7.341008   5.058467   4.510676
    22  C    6.912191   6.780960   7.972106   5.150932   5.045110
    23  H    7.895245   7.702601   8.969929   6.214777   6.048244
    24  H    7.941888   8.076074   8.930910   5.308920   5.210911
    25  C    6.810468   6.719702   7.800763   4.852082   5.057527
    26  C    5.758573   5.786079   6.682530   3.674840   4.083731
    27  H    5.997832   6.072243   6.810323   3.869700   4.529994
    28  C    8.129734   8.000767   9.078166   6.120639   6.447893
    29  O    8.600827   8.565189   9.476244   6.331367   6.807112
    30  N    9.009021   8.753846   9.998136   7.278787   7.498461
    31  H    9.829053   9.560636  10.788456   8.083935   8.377819
    32  H    8.744047   8.387469   9.759895   7.362453   7.496451
    33  C    7.749189   8.501401   8.167788   4.378648   4.960805
    34  C    7.488479   7.959506   8.238463   4.099500   4.430717
    35  C    8.270371   8.599943   9.108476   5.085554   5.336001
    36  C   10.014440  10.158869  10.970147   7.172443   7.200676
    37  C    8.651813   8.883713   9.586300   5.706903   5.690115
    38  O    6.662882   7.214506   7.411644   3.234871   3.346059
    39  S    7.995680   8.552104   8.575801   4.631811   5.269500
    40  H    8.155755   8.931431   8.614572   4.712066   5.066953
    41  H    6.722384   7.514535   7.098316   3.452148   4.105927
    42  H   10.433655  10.523734  11.431284   7.757530   7.650866
    43  H    9.985636  10.050971  10.941418   7.296628   7.442835
    44  H   10.759034  10.977217  11.672063   7.723702   7.798620
    45  H    8.867268   9.180651   9.782790   5.841999   5.669911
    46  H    8.967586   9.264491   9.775350   5.830576   6.216983
    47  H    1.090000   1.801041   1.805529   3.379909   3.061907
    48  H    8.443134   9.224771   8.759625   5.225607   5.884260
                    6          7          8          9         10
     6  O    0.000000
     7  H    1.043930   0.000000
     8  C    2.438302   3.390130   0.000000
     9  H    2.922108   3.897020   1.109067   0.000000
    10  O    2.639434   3.613406   1.417407   2.055151   0.000000
    11  H    3.579233   4.567631   2.013503   2.365158   0.968070
    12  C    2.456719   2.771575   2.369594   3.381280   2.875667
    13  H    2.637771   2.988273   2.667815   3.755542   2.585762
    14  C    3.683146   4.467699   1.571306   2.272522   2.429256
    15  H    4.311723   5.122115   2.229736   2.950537   2.462810
    16  O    3.568056   4.056814   2.383259   3.300675   3.160031
    17  N    3.256612   3.095424   3.743563   4.664177   4.301774
    18  C    3.892496   3.654451   4.293167   5.016671   5.169015
    19  H    3.823545   3.781985   3.848333   4.396636   4.954390
    20  C    5.015465   4.568478   5.652761   6.359380   6.484795
    21  H    5.727794   5.284113   6.284371   6.864390   7.256578
    22  C    5.559066   4.984747   6.439633   7.268061   7.035351
    23  H    6.580064   5.940177   7.519836   8.327876   8.124519
    24  H    5.189087   4.310816   6.811982   7.543704   7.250995
    25  C    5.140805   4.622696   6.044854   6.996943   6.376017
    26  C    4.004138   3.667475   4.767954   5.766199   5.012758
    27  H    4.031895   3.805045   4.760208   5.819039   4.692390
    28  C    6.234654   5.665467   7.253559   8.255005   7.371368
    29  O    6.231509   5.653458   7.418310   8.435419   7.318532
    30  N    7.489582   6.902896   8.408226   9.398029   8.617097
    31  H    8.226834   7.640686   9.168277  10.186514   9.264959
    32  H    7.745441   7.221570   8.441456   9.412901   8.776595
    33  C    3.026906   2.715091   5.180453   5.560139   4.679640
    34  C    3.259093   2.317402   5.469439   6.139791   5.451400
    35  C    4.459075   3.518417   6.501717   7.247789   6.539222
    36  C    6.776770   5.812543   8.655601   9.409097   8.866982
    37  C    5.308774   4.333319   7.223582   7.923874   7.514169
    38  O    2.432099   1.389082   4.698220   5.228270   4.941904
    39  S    3.538891   2.947128   5.652905   6.317858   5.186647
    40  H    3.353171   2.852477   5.663874   5.924099   5.384567
    41  H    2.110842   2.126472   4.120700   4.476007   3.636114
    42  H    7.468819   6.502839   9.270830   9.987541   9.612745
    43  H    6.984457   6.095977   8.700484   9.546436   8.829045
    44  H    7.149367   6.154296   9.197355   9.916207   9.302431
    45  H    5.360975   4.341347   7.397393   7.966568   7.779005
    46  H    5.159990   4.298861   7.142012   7.948576   6.999170
    47  H    4.659590   5.337067   2.818451   2.722071   4.130261
    48  H    3.894584   3.741190   5.811164   6.140195   5.097507
                   11         12         13         14         15
    11  H    0.000000
    12  C    3.685379   0.000000
    13  H    3.346393   1.108996   0.000000
    14  C    2.694133   2.381178   2.779924   0.000000
    15  H    2.428059   2.922409   2.932503   1.109315   0.000000
    16  O    3.699056   1.428482   2.088439   1.467110   2.045434
    17  N    5.131795   1.454772   2.103084   3.615193   4.175897
    18  C    5.986395   2.415153   3.331389   4.078858   4.846022
    19  H    5.717421   2.547312   3.626279   3.619039   4.542952
    20  C    7.316596   3.677016   4.457343   5.403267   6.123245
    21  H    8.072301   4.538401   5.416975   6.008198   6.812790
    22  C    7.879156   4.208040   4.700787   6.211283   6.767494
    23  H    8.969146   5.298485   5.770894   7.264779   7.816115
    24  H    8.188385   4.798995   5.153463   7.066953   7.687489
    25  C    7.192154   3.691110   3.865004   5.847850   6.218978
    26  C    5.820122   2.418739   2.486615   4.639507   4.968893
    27  H    5.438214   2.586181   2.160014   4.695798   4.812064
    28  C    8.148756   4.914313   4.818738   7.068365   7.283500
    29  O    8.077002   5.192319   4.865644   7.387549   7.508383
    30  N    9.376471   6.040929   6.041377   8.082784   8.304239
    31  H    9.994011   6.816280   6.694462   8.844806   8.979561
    32  H    9.511365   6.083022   6.209505   7.961301   8.207609
    33  C    5.425400   4.979273   4.636045   6.468287   6.817196
    34  C    6.382912   4.074851   4.006389   6.279027   6.774772
    35  C    7.465077   4.756518   4.708892   7.097475   7.567696
    36  C    9.796006   6.657665   6.764424   9.012950   9.525035
    37  C    8.463716   5.350269   5.560211   7.672678   8.262872
    38  O    5.902253   3.587618   3.817281   5.606569   6.270451
    39  S    5.998138   4.663906   4.199797   6.613188   6.886772
    40  H    6.168708   5.465981   5.315011   6.996247   7.481224
    41  H    4.394698   4.201075   3.903090   5.463346   5.828705
    42  H   10.551231   7.255478   7.488456   9.555459  10.131347
    43  H    9.720416   6.567822   6.562867   8.926648   9.331126
    44  H   10.228493   7.326764   7.346161   9.692554  10.185390
    45  H    8.744849   5.761627   6.085393   7.981375   8.673767
    46  H    7.877186   5.363959   5.116460   7.701242   8.042949
    47  H    4.368935   3.776696   4.584225   2.187402   3.099066
    48  H    5.708557   5.813193   5.337265   7.127847   7.359217
                   16         17         18         19         20
    16  O    0.000000
    17  N    2.306081   0.000000
    18  C    2.816542   1.351566   0.000000
    19  H    2.614453   2.075487   1.088994   0.000000
    20  C    4.080482   2.354653   1.364864   2.167608   0.000000
    21  H    4.779319   3.338273   2.123516   2.501952   1.092780
    22  C    4.800165   2.753311   2.403888   3.416722   1.407730
    23  H    5.844327   3.843879   3.393895   4.330248   2.178381
    24  H    5.834946   3.551265   3.438672   4.332309   2.794169
    25  C    4.445815   2.363308   2.756104   3.840686   2.416716
    26  C    3.319480   1.349077   2.362075   3.313080   2.753723
    27  H    3.541048   2.095041   3.330414   4.167822   3.844746
    28  C    5.698790   3.742969   4.269635   5.352720   3.820276
    29  O    6.128444   4.241379   5.008587   6.065243   4.756239
    30  N    6.656417   4.773697   5.035799   6.103769   4.286461
    31  H    7.445235   5.627220   5.994146   7.066070   5.289882
    32  H    6.504949   4.777001   4.850745   5.862963   4.004997
    33  C    6.293347   5.404588   6.213546   6.473389   6.973736
    34  C    5.484931   3.682562   4.314933   4.933267   4.648250
    35  C    6.093052   3.988063   4.500649   5.315575   4.452008
    36  C    7.797833   5.498435   5.593059   6.515548   4.892073
    37  C    6.536714   4.275208   4.352391   5.191692   3.878620
    38  O    4.927245   3.335158   3.718765   4.097390   4.236248
    39  S    6.069345   4.707704   5.640599   6.192701   6.175415
    40  H    6.785479   5.745117   6.351101   6.564298   7.008431
    41  H    5.424991   4.853909   5.671092   5.804335   6.598339
    42  H    8.297523   5.997898   5.860495   6.743628   4.953257
    43  H    7.654370   5.387092   5.633048   6.643890   4.939612
    44  H    8.554678   6.288816   6.475507   7.359560   5.881576
    45  H    6.947252   4.784368   4.673772   5.344352   4.235694
    46  H    6.694687   4.648677   5.321726   6.199211   5.248372
    47  H    2.837982   4.596258   4.391834   3.479018   5.584944
    48  H    7.075434   6.342774   7.227822   7.480873   8.013498
                   21         22         23         24         25
    21  H    0.000000
    22  C    2.178076   0.000000
    23  H    2.523977   1.091012   0.000000
    24  H    3.368422   2.135532   2.391980   0.000000
    25  C    3.418532   1.416235   2.188669   2.455103   0.000000
    26  C    3.846057   2.414184   3.409022   3.143148   1.379377
    27  H    4.936400   3.422403   4.339328   3.894054   2.167698
    28  C    4.720054   2.551253   2.784744   3.076300   1.513993
    29  O    5.711596   3.572276   3.867748   3.560717   2.382515
    30  N    4.978372   2.919472   2.654562   3.714560   2.445164
    31  H    5.983068   3.920545   3.618307   4.514788   3.330013
    32  H    4.577973   2.756326   2.383272   4.056476   2.609661
    33  C    7.758201   7.026563   7.867878   5.850483   6.359911
    34  C    5.455915   4.421945   5.136405   3.031915   3.881602
    35  C    5.240984   3.866481   4.360974   2.207864   3.356326
    36  C    5.385133   3.914806   3.724088   2.192773   3.909487
    37  C    4.443131   3.227264   3.424827   1.133409   3.258468
    38  O    4.915999   4.417294   5.222150   3.238060   4.169879
    39  S    7.070093   5.895533   6.651626   4.691201   5.051134
    40  H    7.680159   7.122429   7.895593   5.731771   6.645034
    41  H    7.378387   6.819353   7.750616   5.929887   6.177992
    42  H    5.239873   4.020442   3.571085   2.503230   4.353211
    43  H    5.553945   3.751659   3.543018   2.523288   3.483148
    44  H    6.381530   4.961656   4.819521   3.106858   4.840704
    45  H    4.606294   3.885795   4.060850   1.796701   4.153548
    46  H    6.093157   4.457071   4.861703   2.967207   3.711118
    47  H    5.804230   6.747199   7.697575   7.662374   6.834946
    48  H    8.823950   8.016437   8.852584   6.839009   7.258871
                   26         27         28         29         30
    26  C    0.000000
    27  H    1.092553   0.000000
    28  C    2.498528   2.731392   0.000000
    29  O    2.913351   2.729432   1.190713   0.000000
    30  N    3.658091   4.006625   1.369427   2.227510   0.000000
    31  H    4.424824   4.582505   1.992911   2.389184   1.007627
    32  H    3.838282   4.337712   2.047281   3.086508   1.006028
    33  C    5.476471   5.162506   6.905436   6.424733   8.220345
    34  C    3.436506   3.493909   4.418986   4.153218   5.628148
    35  C    3.395843   3.562755   3.579617   3.316311   4.649137
    36  C    4.747055   5.168921   3.630622   3.664290   3.969457
    37  C    3.781668   4.305216   3.558629   3.697248   4.273584
    38  O    3.586381   3.871969   5.076581   5.059944   6.239896
    39  S    4.357582   3.954873   5.322160   4.710388   6.622045
    40  H    5.898914   5.761878   7.250063   6.852029   8.502681
    41  H    5.135012   4.846549   6.903479   6.545278   8.237828
    42  H    5.350037   5.919214   4.156265   4.422288   4.195064
    43  H    4.420041   4.729893   2.828299   2.779156   3.091968
    44  H    5.533717   5.818274   4.467482   4.255498   4.865574
    45  H    4.556837   5.136548   4.626208   4.794178   5.293089
    46  H    3.807649   3.723441   3.497701   2.901641   4.548562
    47  H    5.871090   6.261702   8.246819   8.777237   9.104546
    48  H    6.347495   5.902329   7.687064   7.088348   9.013528
                   31         32         33         34         35
    31  H    0.000000
    32  H    1.715479   0.000000
    33  C    8.720471   8.801187   0.000000
    34  C    6.213854   6.201634   2.852619   0.000000
    35  C    5.177020   5.311979   4.074735   1.342261   0.000000
    36  C    4.364128   4.636621   6.516183   3.824683   2.533746
    37  C    4.908070   4.808799   5.363102   2.573809   1.523579
    38  O    6.962463   6.643211   2.943200   1.313763   2.371283
    39  S    7.029930   7.299897   1.830350   1.783219   2.666821
    40  H    9.047651   9.070275   1.097750   2.894325   4.070555
    41  H    8.809341   8.717804   1.097277   3.113293   4.428758
    42  H    4.625568   4.700330   7.422148   4.697715   3.480451
    43  H    3.355875   3.884352   6.789093   4.103919   2.772012
    44  H    5.120568   5.615283   6.415078   3.992397   2.767876
    45  H    5.956234   5.748403   5.356950   2.821631   2.153789
    46  H    4.875582   5.358317   4.352378   2.057405   1.089415
    47  H    9.984051   8.828224   7.665135   7.326280   8.117938
    48  H    9.436958   9.642185   1.090000   3.809855   4.935417
                   36         37         38         39         40
    36  C    0.000000
    37  C    1.553118   0.000000
    38  O    4.549145   3.066017   0.000000
    39  S    5.096510   4.146912   2.653679   0.000000
    40  H    6.340585   5.163367   2.785144   2.396570   0.000000
    41  H    6.931611   5.643658   2.866045   2.403172   1.803766
    42  H    1.096048   2.183388   5.227608   6.099689   7.162414
    43  H    1.097140   2.177622   4.963756   5.191295   6.784614
    44  H    1.097041   2.184331   4.842523   5.022539   6.175379
    45  H    2.195674   1.105483   2.989991   4.453004   4.938429
    46  H    2.616379   2.237212   3.294716   2.671738   4.490740
    47  H    9.788106   8.375520   6.360964   7.999814   7.928559
    48  H    7.331759   6.291267   4.026725   2.435903   1.800790
                   41         42         43         44         45
    41  H    0.000000
    42  H    7.792599   0.000000
    43  H    7.162603   1.797166   0.000000
    44  H    6.989920   1.787217   1.782745   0.000000
    45  H    5.666358   2.515786   3.094493   2.541132   0.000000
    46  H    4.838589   3.695909   2.559488   2.625195   2.989388
    47  H    6.659387  10.136457   9.870504  10.530391   8.468095
    48  H    1.792504   8.281217   7.556710   7.130021   6.311293
                   46         47         48
    46  H    0.000000
    47  H    8.915278   0.000000
    48  H    5.036999   8.430350   0.000000
 Symmetry turned off by external request.
 Stoichiometry    C16H24N2O5S
 Framework group  C1[X(C16H24N2O5S)]
 Deg. of freedom   138
 Full point group                 C1      NOp   1
 Rotational constants (GHZ):           0.2900573           0.1715113           0.1274545
 Leave Link  202 at Wed Mar  8 15:17:57 2023, MaxMem=  2684354560 cpu:               0.1 elap:               0.0
 (Enter /opt/gaussian/g16/l301.exe)
 Standard basis: def2TZVP (5D, 7F)
 Ernie: Thresh=  0.10000D-02 Tol=  0.10000D-05 Strict=F.
   894 basis functions,  1434 primitive gaussians,  1014 cartesian basis functions
    95 alpha electrons       95 beta electrons
       nuclear repulsion energy      2441.9658153555 Hartrees.
 IExCor= 4336 DFT=T Ex+Corr=M062X ExCW=0 ScaHFX=  0.540000
 ScaDFX=  1.000000  1.000000  1.000000  1.000000 ScalE2=  1.000000  1.000000
 IRadAn=      5 IRanWt=     -1 IRanGd=            0 ICorTp=0 IEmpDi=131
 NAtoms=   48 NActive=   48 NUniq=   48 SFac= 1.00D+00 NAtFMM=   60 NAOKFM=F Big=F
 Integral buffers will be    131072 words long.
 Raffenetti 2 integral format.
 Two-electron integral symmetry is turned off.
 R6Disp:  Grimme-D3 Dispersion energy=       -0.0041947042 Hartrees.
 Nuclear repulsion after empirical dispersion term =     2441.9616206513 Hartrees.
 Leave Link  301 at Wed Mar  8 15:17:57 2023, MaxMem=  2684354560 cpu:               0.9 elap:               0.1
 (Enter /opt/gaussian/g16/l302.exe)
 NPDir=0 NMtPBC=     1 NCelOv=     1 NCel=       1 NClECP=     1 NCelD=      1
         NCelK=      1 NCelE2=     1 NClLst=     1 CellRange=     0.0.
 One-electron integrals computed using PRISM.
   1 Symmetry operations used in ECPInt.
 ECPInt:  NShTT=   65703 NPrTT=  200010 LenC2=   56167 LenP2D=  118899.
 LDataN:  DoStor=T MaxTD1= 6 Len=  172
 NBasis=   894 RedAO= T EigKep=  2.41D-05  NBF=   894
 NBsUse=   894 1.00D-06 EigRej= -1.00D+00 NBFU=   894
 Precomputing XC quadrature grid using
 IXCGrd= 4 IRadAn=           5 IRanWt=          -1 IRanGd=           0 AccXCQ= 0.00D+00.
 Generated NRdTot=       0 NPtTot=           0 NUsed=           0 NTot=          32
 NSgBfM=   997   997   997   997   997 MxSgAt=    48 MxSgA2=    48.
 Leave Link  302 at Wed Mar  8 15:17:59 2023, MaxMem=  2684354560 cpu:              36.1 elap:               2.3
 (Enter /opt/gaussian/g16/l303.exe)
 DipDrv:  MaxL=1.
 Leave Link  303 at Wed Mar  8 15:17:59 2023, MaxMem=  2684354560 cpu:               5.1 elap:               0.4
 (Enter /opt/gaussian/g16/l401.exe)
 ExpMin= 9.52D-02 ExpMax= 6.07D+04 ExpMxC= 2.07D+03 IAcc=3 IRadAn=         5 AccDes= 0.00D+00
 Harris functional with IExCor= 1009 and IRadAn=       5 diagonalized for initial guess.
 HarFok:  IExCor= 1009 AccDes= 0.00D+00 IRadAn=         5 IDoV= 1 UseB2=F ITyADJ=14
 ICtDFT=  3500011 ScaDFX=  1.000000  1.000000  1.000000  1.000000
 FoFCou: FMM=F IPFlag=           0 FMFlag=      100000 FMFlg1=           0
         NFxFlg=           0 DoJE=T BraDBF=F KetDBF=T FulRan=T
         wScrn=  0.000000 ICntrl=       500 IOpCl=  0 I1Cent=   200000004 NGrid=           0
         NMat0=    1 NMatS0=      1 NMatT0=    0 NMatD0=    1 NMtDS0=    0 NMtDT0=    0
 Symmetry not used in FoFCou.
 Harris En= -1507.21057885365    
 JPrj=0 DoOrth=F DoCkMO=F.
 Leave Link  401 at Wed Mar  8 15:18:08 2023, MaxMem=  2684354560 cpu:             142.1 elap:               9.0
 (Enter /opt/gaussian/g16/l502.exe)
 Two-electron integral symmetry not used.
 Closed shell SCF:
 Using DIIS extrapolation, IDIIS=  1040.
 NGot=  2684354560 LenX=  2682275214 LenY=  2681246004
 Requested convergence on RMS density matrix=1.00D-08 within 128 cycles.
 Requested convergence on MAX density matrix=1.00D-06.
 Requested convergence on             energy=1.00D-06.
 No special actions if energy rises.
 Fock matrices will be formed incrementally for  20 cycles.
 Integral accuracy reduced to 1.0D-05 until final iterations.

 Cycle   1  Pass 0  IDiag  1:
 FoFJK:  IHMeth= 1 ICntrl=       0 DoSepK=F KAlg= 0 I1Cent=           0 FoldK=F
 IRaf= 780000000 NMat=       1 IRICut=       1 DoRegI=T DoRafI=F ISym2E= 0 IDoP0=0 IntGTp=1.
 FoFCou: FMM=F IPFlag=           0 FMFlag=      100000 FMFlg1=           0
         NFxFlg=           0 DoJE=F BraDBF=F KetDBF=F FulRan=T
         wScrn=  0.000000 ICntrl=         0 IOpCl=  0 I1Cent=           0 NGrid=           0
         NMat0=    1 NMatS0=      1 NMatT0=    0 NMatD0=    1 NMtDS0=    0 NMtDT0=    0
 Symmetry not used in FoFCou.
 E= -1507.09736773833    
 DIIS: error= 1.46D-02 at cycle   1 NSaved=   1.
 NSaved= 1 IEnMin= 1 EnMin= -1507.09736773833     IErMin= 1 ErrMin= 1.46D-02
 ErrMax= 1.46D-02  0.00D+00 EMaxC= 1.00D-01 BMatC= 9.98D-01 BMatP= 9.98D-01
 IDIUse=3 WtCom= 8.54D-01 WtEn= 1.46D-01
 Coeff-Com:  0.100D+01
 Coeff-En:   0.100D+01
 Coeff:      0.100D+01
 Gap=     0.101 Goal=   None    Shift=    0.000
 GapD=    0.101 DampG=1.000 DampE=0.500 DampFc=0.5000 IDamp=-1.
 Damping current iteration by 5.00D-01
 RMSDP=4.24D-03 MaxDP=8.44D-01              OVMax= 8.47D-01

 Cycle   2  Pass 0  IDiag  1:
 RMSU=  2.12D-03    CP:  1.01D+00
 E= -1507.28050107138     Delta-E=       -0.183133333051 Rises=F Damp=T
 DIIS: error= 6.44D-03 at cycle   2 NSaved=   2.
 NSaved= 2 IEnMin= 2 EnMin= -1507.28050107138     IErMin= 2 ErrMin= 6.44D-03
 ErrMax= 6.44D-03  0.00D+00 EMaxC= 1.00D-01 BMatC= 1.51D-01 BMatP= 9.98D-01
 IDIUse=3 WtCom= 9.36D-01 WtEn= 6.44D-02
 Coeff-Com:  0.105D+00 0.895D+00
 Coeff-En:   0.344D+00 0.656D+00
 Coeff:      0.120D+00 0.880D+00
 Gap=     0.120 Goal=   None    Shift=    0.000
 RMSDP=1.56D-03 MaxDP=2.28D-01 DE=-1.83D-01 OVMax= 7.38D-01

 Cycle   3  Pass 0  IDiag  1:
 RMSU=  1.19D-03    CP:  9.95D-01  5.26D-01
 E= -1507.64850627779     Delta-E=       -0.368005206405 Rises=F Damp=F
 DIIS: error= 1.06D-02 at cycle   3 NSaved=   3.
 NSaved= 3 IEnMin= 3 EnMin= -1507.64850627779     IErMin= 2 ErrMin= 6.44D-03
 ErrMax= 1.06D-02  0.00D+00 EMaxC= 1.00D-01 BMatC= 1.85D-01 BMatP= 1.51D-01
 IDIUse=2 WtCom= 0.00D+00 WtEn= 1.00D+00
 Coeff-En:   0.000D+00 0.654D-01 0.935D+00
 Coeff:      0.000D+00 0.654D-01 0.935D+00
 Gap=    -0.021 Goal=   None    Shift=    0.000
 RMSDP=2.10D-03 MaxDP=2.10D-01 DE=-3.68D-01 OVMax= 8.51D-01

 Cycle   4  Pass 0  IDiag  1:
 RMSU=  1.34D-03    CP:  9.96D-01  1.12D+00  1.33D-01
 E= -1506.74051526685     Delta-E=        0.907991010939 Rises=F Damp=F
 DIIS: error= 2.11D-02 at cycle   4 NSaved=   4.
 NSaved= 4 IEnMin= 3 EnMin= -1507.64850627779     IErMin= 2 ErrMin= 6.44D-03
 ErrMax= 2.11D-02  0.00D+00 EMaxC= 1.00D-01 BMatC= 8.15D-01 BMatP= 1.51D-01
 IDIUse=2 WtCom= 0.00D+00 WtEn= 1.00D+00
 Coeff-En:   0.000D+00 0.000D+00 0.790D+00 0.210D+00
 Coeff:      0.000D+00 0.000D+00 0.790D+00 0.210D+00
 Gap=     0.191 Goal=   None    Shift=    0.000
 RMSDP=1.49D-03 MaxDP=1.43D-01 DE= 9.08D-01 OVMax= 7.65D-01

 Cycle   5  Pass 0  IDiag  1:
 RMSU=  6.32D-04    CP:  9.98D-01  7.44D-01  6.23D-01  3.10D-01
 E= -1507.81109668247     Delta-E=       -1.070581415620 Rises=F Damp=F
 DIIS: error= 4.34D-03 at cycle   5 NSaved=   5.
 NSaved= 5 IEnMin= 5 EnMin= -1507.81109668247     IErMin= 5 ErrMin= 4.34D-03
 ErrMax= 4.34D-03  0.00D+00 EMaxC= 1.00D-01 BMatC= 3.70D-02 BMatP= 1.51D-01
 IDIUse=3 WtCom= 9.57D-01 WtEn= 4.34D-02
 Coeff-Com:  0.559D-02 0.127D-01 0.309D+00 0.761D-02 0.666D+00
 Coeff-En:   0.000D+00 0.000D+00 0.157D+00 0.000D+00 0.843D+00
 Coeff:      0.535D-02 0.121D-01 0.302D+00 0.728D-02 0.673D+00
 Gap=     0.110 Goal=   None    Shift=    0.000
 RMSDP=3.03D-04 MaxDP=2.36D-02 DE=-1.07D+00 OVMax= 1.35D-01

 Cycle   6  Pass 0  IDiag  1:
 RMSU=  2.00D-04    CP:  9.97D-01  6.77D-01  7.29D-01  2.37D-01  8.75D-01
 E= -1507.84711774594     Delta-E=       -0.036021063469 Rises=F Damp=F
 DIIS: error= 7.08D-04 at cycle   6 NSaved=   6.
 NSaved= 6 IEnMin= 6 EnMin= -1507.84711774594     IErMin= 6 ErrMin= 7.08D-04
 ErrMax= 7.08D-04  0.00D+00 EMaxC= 1.00D-01 BMatC= 1.61D-03 BMatP= 3.70D-02
 IDIUse=3 WtCom= 9.93D-01 WtEn= 7.08D-03
 Coeff-Com: -0.395D-02 0.809D-02 0.409D-01-0.178D-01 0.262D+00 0.711D+00
 Coeff-En:   0.000D+00 0.000D+00 0.000D+00 0.000D+00 0.000D+00 0.100D+01
 Coeff:     -0.392D-02 0.803D-02 0.406D-01-0.177D-01 0.260D+00 0.713D+00
 Gap=     0.118 Goal=   None    Shift=    0.000
 RMSDP=9.07D-05 MaxDP=1.41D-02 DE=-3.60D-02 OVMax= 1.01D-02

 Cycle   7  Pass 0  IDiag  1:
 RMSU=  6.78D-05    CP:  9.98D-01  6.98D-01  7.18D-01  2.47D-01  9.25D-01
                    CP:  1.09D+00
 E= -1507.84842314846     Delta-E=       -0.001305402528 Rises=F Damp=F
 DIIS: error= 3.27D-04 at cycle   7 NSaved=   7.
 NSaved= 7 IEnMin= 7 EnMin= -1507.84842314846     IErMin= 7 ErrMin= 3.27D-04
 ErrMax= 3.27D-04  0.00D+00 EMaxC= 1.00D-01 BMatC= 2.71D-04 BMatP= 1.61D-03
 IDIUse=3 WtCom= 9.97D-01 WtEn= 3.27D-03
 Coeff-Com: -0.258D-02 0.323D-02-0.259D-01-0.174D-03-0.102D-01 0.340D+00
 Coeff-Com:  0.696D+00
 Coeff-En:   0.000D+00 0.000D+00 0.000D+00 0.000D+00 0.000D+00 0.000D+00
 Coeff-En:   0.100D+01
 Coeff:     -0.257D-02 0.322D-02-0.258D-01-0.173D-03-0.102D-01 0.339D+00
 Coeff:      0.697D+00
 Gap=     0.118 Goal=   None    Shift=    0.000
 RMSDP=4.45D-05 MaxDP=3.93D-03 DE=-1.31D-03 OVMax= 1.25D-02

 Cycle   8  Pass 0  IDiag  1:
 RMSU=  3.50D-05    CP:  9.98D-01  6.99D-01  7.21D-01  2.51D-01  9.31D-01
                    CP:  1.22D+00  1.05D+00
 E= -1507.84869819326     Delta-E=       -0.000275044791 Rises=F Damp=F
 DIIS: error= 1.79D-04 at cycle   8 NSaved=   8.
 NSaved= 8 IEnMin= 8 EnMin= -1507.84869819326     IErMin= 8 ErrMin= 1.79D-04
 ErrMax= 1.79D-04  0.00D+00 EMaxC= 1.00D-01 BMatC= 5.22D-05 BMatP= 2.71D-04
 IDIUse=3 WtCom= 9.98D-01 WtEn= 1.79D-03
 Coeff-Com: -0.129D-02 0.169D-02-0.215D-01 0.355D-02-0.319D-01 0.131D+00
 Coeff-Com:  0.336D+00 0.582D+00
 Coeff-En:   0.000D+00 0.000D+00 0.000D+00 0.000D+00 0.000D+00 0.000D+00
 Coeff-En:   0.000D+00 0.100D+01
 Coeff:     -0.129D-02 0.169D-02-0.214D-01 0.354D-02-0.318D-01 0.131D+00
 Coeff:      0.335D+00 0.583D+00
 Gap=     0.117 Goal=   None    Shift=    0.000
 RMSDP=1.69D-05 MaxDP=1.35D-03 DE=-2.75D-04 OVMax= 3.82D-03

 Cycle   9  Pass 0  IDiag  1:
 RMSU=  1.18D-05    CP:  9.98D-01  7.00D-01  7.20D-01  2.55D-01  9.34D-01
                    CP:  1.25D+00  1.13D+00  1.12D+00
 E= -1507.84874087075     Delta-E=       -0.000042677491 Rises=F Damp=F
 DIIS: error= 1.14D-04 at cycle   9 NSaved=   9.
 NSaved= 9 IEnMin= 9 EnMin= -1507.84874087075     IErMin= 9 ErrMin= 1.14D-04
 ErrMax= 1.14D-04  0.00D+00 EMaxC= 1.00D-01 BMatC= 2.25D-05 BMatP= 5.22D-05
 IDIUse=3 WtCom= 9.99D-01 WtEn= 1.14D-03
 Coeff-Com: -0.595D-03 0.104D-02-0.106D-01 0.227D-02-0.125D-01 0.516D-02
 Coeff-Com: -0.185D-01 0.162D+00 0.872D+00
 Coeff-En:   0.000D+00 0.000D+00 0.000D+00 0.000D+00 0.000D+00 0.000D+00
 Coeff-En:   0.000D+00 0.000D+00 0.100D+01
 Coeff:     -0.594D-03 0.104D-02-0.106D-01 0.227D-02-0.125D-01 0.516D-02
 Coeff:     -0.185D-01 0.162D+00 0.872D+00
 Gap=     0.116 Goal=   None    Shift=    0.000
 RMSDP=2.06D-05 MaxDP=1.43D-03 DE=-4.27D-05 OVMax= 3.56D-03

 Cycle  10  Pass 0  IDiag  1:
 RMSU=  1.07D-05    CP:  9.98D-01  7.03D-01  7.17D-01  2.59D-01  9.38D-01
                    CP:  1.29D+00  1.18D+00  1.37D+00  1.74D+00
 E= -1507.84875594929     Delta-E=       -0.000015078542 Rises=F Damp=F
 DIIS: error= 6.49D-05 at cycle  10 NSaved=  10.
 NSaved=10 IEnMin=10 EnMin= -1507.84875594929     IErMin=10 ErrMin= 6.49D-05
 ErrMax= 6.49D-05  0.00D+00 EMaxC= 1.00D-01 BMatC= 6.00D-06 BMatP= 2.25D-05
 IDIUse=1 WtCom= 1.00D+00 WtEn= 0.00D+00
 Coeff-Com: -0.243D-03 0.620D-03-0.292D-02 0.898D-03-0.652D-04-0.248D-01
 Coeff-Com: -0.103D+00-0.922D-01 0.510D+00 0.712D+00
 Coeff:     -0.243D-03 0.620D-03-0.292D-02 0.898D-03-0.652D-04-0.248D-01
 Coeff:     -0.103D+00-0.922D-01 0.510D+00 0.712D+00
 Gap=     0.116 Goal=   None    Shift=    0.000
 RMSDP=2.00D-05 MaxDP=1.13D-03 DE=-1.51D-05 OVMax= 1.86D-03

 Cycle  11  Pass 0  IDiag  1:
 RMSU=  7.42D-06    CP:  9.98D-01  7.05D-01  7.15D-01  2.62D-01  9.40D-01
                    CP:  1.31D+00  1.21D+00  1.52D+00  2.66D+00  2.11D+00
 E= -1507.84875506473     Delta-E=        0.000000884563 Rises=F Damp=F
 DIIS: error= 2.81D-05 at cycle  11 NSaved=  11.
 NSaved=11 IEnMin=10 EnMin= -1507.84875594929     IErMin=11 ErrMin= 2.81D-05
 ErrMax= 2.81D-05  0.00D+00 EMaxC= 1.00D-01 BMatC= 7.38D-07 BMatP= 6.00D-06
 IDIUse=1 WtCom= 1.00D+00 WtEn= 0.00D+00
 Coeff-Com: -0.124D-03 0.299D-03-0.110D-02 0.439D-03 0.700D-03-0.965D-02
 Coeff-Com: -0.450D-01-0.647D-01 0.172D+00 0.345D+00 0.602D+00
 Coeff:     -0.124D-03 0.299D-03-0.110D-02 0.439D-03 0.700D-03-0.965D-02
 Coeff:     -0.450D-01-0.647D-01 0.172D+00 0.345D+00 0.602D+00
 Gap=     0.116 Goal=   None    Shift=    0.000
 RMSDP=2.06D-05 MaxDP=1.44D-03 DE= 8.85D-07 OVMax= 4.10D-04

 Cycle  12  Pass 0  IDiag  1:
 RMSU=  8.33D-06    CP:  9.98D-01  7.06D-01  7.14D-01  2.62D-01  9.39D-01
                    CP:  1.32D+00  1.22D+00  1.59D+00  3.00D+00  3.00D+00
                    CP:  2.36D+00
 E= -1507.84874464068     Delta-E=        0.000010424047 Rises=F Damp=F
 DIIS: error= 4.77D-05 at cycle  12 NSaved=  12.
 NSaved=12 IEnMin=10 EnMin= -1507.84875594929     IErMin=11 ErrMin= 2.81D-05
 ErrMax= 4.77D-05  0.00D+00 EMaxC= 1.00D-01 BMatC= 7.57D-07 BMatP= 7.38D-07
 IDIUse=1 WtCom= 1.00D+00 WtEn= 0.00D+00
 Coeff-Com: -0.135D-03 0.336D-03-0.816D-03 0.463D-03 0.173D-02-0.131D-01
 Coeff-Com: -0.590D-01-0.989D-01 0.170D+00 0.470D+00 0.117D+01-0.641D+00
 Coeff:     -0.135D-03 0.336D-03-0.816D-03 0.463D-03 0.173D-02-0.131D-01
 Coeff:     -0.590D-01-0.989D-01 0.170D+00 0.470D+00 0.117D+01-0.641D+00
 Gap=     0.116 Goal=   None    Shift=    0.000
 RMSDP=2.37D-05 MaxDP=1.64D-03 DE= 1.04D-05 OVMax= 1.05D-04

 Problem detected with inexpensive integrals.
 Switching to full accuracy and repeating last cycle.
 Cycle  13  Pass 1  IDiag  1:
 E= -1507.84865415319     Delta-E=        0.000090487486 Rises=F Damp=F
 DIIS: error= 3.53D-04 at cycle   1 NSaved=   1.
 NSaved= 1 IEnMin= 1 EnMin= -1507.84865415319     IErMin= 1 ErrMin= 3.53D-04
 ErrMax= 3.53D-04  0.00D+00 EMaxC= 1.00D-01 BMatC= 8.04D-05 BMatP= 8.04D-05
 IDIUse=3 WtCom= 9.96D-01 WtEn= 3.53D-03
 Coeff-Com:  0.100D+01
 Coeff-En:   0.100D+01
 Coeff:      0.100D+01
 Gap=     0.115 Goal=   None    Shift=    0.000
 RMSDP=4.51D-04 MaxDP=3.54D-02 DE= 9.05D-05 OVMax= 8.57D-04

 Cycle  14  Pass 1  IDiag  1:
 RMSU=  4.50D-04    CP:  9.94D-01
 E= -1507.84870388351     Delta-E=       -0.000049730320 Rises=F Damp=F
 DIIS: error= 9.98D-06 at cycle   2 NSaved=   2.
 NSaved= 2 IEnMin= 2 EnMin= -1507.84870388351     IErMin= 2 ErrMin= 9.98D-06
 ErrMax= 9.98D-06  0.00D+00 EMaxC= 1.00D-01 BMatC= 2.22D-07 BMatP= 8.04D-05
 IDIUse=1 WtCom= 1.00D+00 WtEn= 0.00D+00
 Coeff-Com: -0.127D-01 0.101D+01
 Coeff:     -0.127D-01 0.101D+01
 Gap=     0.116 Goal=   None    Shift=    0.000
 RMSDP=1.60D-05 MaxDP=1.05D-03 DE=-4.97D-05 OVMax= 8.65D-04

 Cycle  15  Pass 1  IDiag  1:
 RMSU=  5.79D-06    CP:  9.94D-01  1.03D+00
 E= -1507.84870360705     Delta-E=        0.000000276461 Rises=F Damp=F
 DIIS: error= 1.79D-05 at cycle   3 NSaved=   3.
 NSaved= 3 IEnMin= 2 EnMin= -1507.84870388351     IErMin= 2 ErrMin= 9.98D-06
 ErrMax= 1.79D-05  0.00D+00 EMaxC= 1.00D-01 BMatC= 5.33D-07 BMatP= 2.22D-07
 IDIUse=1 WtCom= 1.00D+00 WtEn= 0.00D+00
 Coeff-Com: -0.104D-01 0.628D+00 0.382D+00
 Coeff:     -0.104D-01 0.628D+00 0.382D+00
 Gap=     0.116 Goal=   None    Shift=    0.000
 RMSDP=1.28D-06 MaxDP=1.38D-04 DE= 2.76D-07 OVMax= 4.57D-04

 Cycle  16  Pass 1  IDiag  1:
 RMSU=  1.24D-06    CP:  9.94D-01  1.03D+00  9.87D-01
 E= -1507.84870416822     Delta-E=       -0.000000561166 Rises=F Damp=F
 DIIS: error= 9.61D-07 at cycle   4 NSaved=   4.
 NSaved= 4 IEnMin= 4 EnMin= -1507.84870416822     IErMin= 4 ErrMin= 9.61D-07
 ErrMax= 9.61D-07  0.00D+00 EMaxC= 1.00D-01 BMatC= 1.52D-09 BMatP= 2.22D-07
 IDIUse=1 WtCom= 1.00D+00 WtEn= 0.00D+00
 Coeff-Com: -0.133D-02 0.689D-01 0.421D-01 0.890D+00
 Coeff:     -0.133D-02 0.689D-01 0.421D-01 0.890D+00
 Gap=     0.116 Goal=   None    Shift=    0.000
 RMSDP=3.95D-07 MaxDP=4.18D-05 DE=-5.61D-07 OVMax= 5.89D-05

 Cycle  17  Pass 1  IDiag  1:
 RMSU=  1.95D-07    CP:  9.94D-01  1.03D+00  1.03D+00  1.08D+00
 E= -1507.84870417063     Delta-E=       -0.000000002409 Rises=F Damp=F
 DIIS: error= 8.20D-07 at cycle   5 NSaved=   5.
 NSaved= 5 IEnMin= 5 EnMin= -1507.84870417063     IErMin= 5 ErrMin= 8.20D-07
 ErrMax= 8.20D-07  0.00D+00 EMaxC= 1.00D-01 BMatC= 1.45D-09 BMatP= 1.52D-09
 IDIUse=1 WtCom= 1.00D+00 WtEn= 0.00D+00
 Coeff-Com:  0.429D-03-0.321D-01-0.274D-01 0.495D+00 0.564D+00
 Coeff:      0.429D-03-0.321D-01-0.274D-01 0.495D+00 0.564D+00
 Gap=     0.116 Goal=   None    Shift=    0.000
 RMSDP=1.08D-07 MaxDP=1.06D-05 DE=-2.41D-09 OVMax= 2.90D-05

 Cycle  18  Pass 1  IDiag  1:
 RMSU=  7.53D-08    CP:  9.94D-01  1.03D+00  1.04D+00  1.11D+00  1.10D+00
 E= -1507.84870417221     Delta-E=       -0.000000001582 Rises=F Damp=F
 DIIS: error= 2.76D-07 at cycle   6 NSaved=   6.
 NSaved= 6 IEnMin= 6 EnMin= -1507.84870417221     IErMin= 6 ErrMin= 2.76D-07
 ErrMax= 2.76D-07  0.00D+00 EMaxC= 1.00D-01 BMatC= 1.76D-10 BMatP= 1.45D-09
 IDIUse=1 WtCom= 1.00D+00 WtEn= 0.00D+00
 Coeff-Com:  0.320D-03-0.202D-01-0.231D-01 0.810D-01 0.233D+00 0.729D+00
 Coeff:      0.320D-03-0.202D-01-0.231D-01 0.810D-01 0.233D+00 0.729D+00
 Gap=     0.116 Goal=   None    Shift=    0.000
 RMSDP=5.69D-08 MaxDP=4.47D-06 DE=-1.58D-09 OVMax= 2.16D-05

 Cycle  19  Pass 1  IDiag  1:
 RMSU=  3.18D-08    CP:  9.94D-01  1.03D+00  1.04D+00  1.12D+00  1.31D+00
                    CP:  1.13D+00
 E= -1507.84870417258     Delta-E=       -0.000000000368 Rises=F Damp=F
 DIIS: error= 1.64D-07 at cycle   7 NSaved=   7.
 NSaved= 7 IEnMin= 7 EnMin= -1507.84870417258     IErMin= 7 ErrMin= 1.64D-07
 ErrMax= 1.64D-07  0.00D+00 EMaxC= 1.00D-01 BMatC= 4.71D-11 BMatP= 1.76D-10
 IDIUse=1 WtCom= 1.00D+00 WtEn= 0.00D+00
 Coeff-Com: -0.383D-04 0.416D-02-0.518D-02-0.144D+00-0.991D-01 0.283D+00
 Coeff-Com:  0.962D+00
 Coeff:     -0.383D-04 0.416D-02-0.518D-02-0.144D+00-0.991D-01 0.283D+00
 Coeff:      0.962D+00
 Gap=     0.116 Goal=   None    Shift=    0.000
 RMSDP=5.00D-08 MaxDP=3.74D-06 DE=-3.68D-10 OVMax= 2.03D-05

 Cycle  20  Pass 1  IDiag  1:
 RMSU=  1.68D-08    CP:  9.94D-01  1.03D+00  1.04D+00  1.14D+00  1.46D+00
                    CP:  1.39D+00  1.71D+00
 E= -1507.84870417275     Delta-E=       -0.000000000172 Rises=F Damp=F
 DIIS: error= 3.92D-08 at cycle   8 NSaved=   8.
 NSaved= 8 IEnMin= 8 EnMin= -1507.84870417275     IErMin= 8 ErrMin= 3.92D-08
 ErrMax= 3.92D-08  0.00D+00 EMaxC= 1.00D-01 BMatC= 5.60D-12 BMatP= 4.71D-11
 IDIUse=1 WtCom= 1.00D+00 WtEn= 0.00D+00
 Coeff-Com: -0.633D-04 0.476D-02-0.192D-03-0.722D-01-0.698D-01 0.178D-01
 Coeff-Com:  0.397D+00 0.723D+00
 Coeff:     -0.633D-04 0.476D-02-0.192D-03-0.722D-01-0.698D-01 0.178D-01
 Coeff:      0.397D+00 0.723D+00
 Gap=     0.116 Goal=   None    Shift=    0.000
 RMSDP=1.38D-08 MaxDP=1.03D-06 DE=-1.72D-10 OVMax= 5.71D-06

 Cycle  21  Pass 1  IDiag  1:
 RMSU=  4.52D-09    CP:  9.94D-01  1.03D+00  1.04D+00  1.14D+00  1.49D+00
                    CP:  1.45D+00  1.95D+00  1.24D+00
 E= -1507.84870417279     Delta-E=       -0.000000000035 Rises=F Damp=F
 DIIS: error= 1.93D-08 at cycle   9 NSaved=   9.
 NSaved= 9 IEnMin= 9 EnMin= -1507.84870417279     IErMin= 9 ErrMin= 1.93D-08
 ErrMax= 1.93D-08  0.00D+00 EMaxC= 1.00D-01 BMatC= 6.16D-13 BMatP= 5.60D-12
 IDIUse=1 WtCom= 1.00D+00 WtEn= 0.00D+00
 Coeff-Com: -0.163D-04 0.103D-02 0.320D-03-0.271D-02-0.619D-02-0.389D-01
 Coeff-Com: -0.142D-01 0.238D+00 0.823D+00
 Coeff:     -0.163D-04 0.103D-02 0.320D-03-0.271D-02-0.619D-02-0.389D-01
 Coeff:     -0.142D-01 0.238D+00 0.823D+00
 Gap=     0.116 Goal=   None    Shift=    0.000
 RMSDP=5.14D-09 MaxDP=3.73D-07 DE=-3.46D-11 OVMax= 1.85D-06

 SCF Done:  E(RM062X) =  -1507.84870417     A.U. after   21 cycles
            NFock= 21  Conv=0.51D-08     -V/T= 2.0042
 KE= 1.501479994877D+03 PE=-8.422495066789D+03 EE= 2.971204747088D+03
 Leave Link  502 at Wed Mar  8 15:40:31 2023, MaxMem=  2684354560 cpu:           21369.9 elap:            1343.0
 (Enter /opt/gaussian/g16/l601.exe)
 Copying SCF densities to generalized density rwf, IOpCl= 0 IROHF=0.

 **********************************************************************

            Population analysis using the SCF density.

 **********************************************************************

 Alpha  occ. eigenvalues --  -89.84874 -19.65436 -19.62868 -19.62288 -19.56541
 Alpha  occ. eigenvalues --  -19.54309 -14.88112 -14.79230 -10.67664 -10.65478
 Alpha  occ. eigenvalues --  -10.65003 -10.64381 -10.61949 -10.61520 -10.61143
 Alpha  occ. eigenvalues --  -10.60848 -10.60204 -10.60169 -10.56812 -10.55277
 Alpha  occ. eigenvalues --  -10.51820 -10.51360 -10.50783 -10.47826  -8.20759
 Alpha  occ. eigenvalues --   -6.12723  -6.12515  -6.12246  -1.20711  -1.20423
 Alpha  occ. eigenvalues --   -1.15778  -1.14361  -1.10180  -1.06110  -1.04424
 Alpha  occ. eigenvalues --   -0.97850  -0.93608  -0.88638  -0.86091  -0.85324
 Alpha  occ. eigenvalues --   -0.82831  -0.81258  -0.80821  -0.77339  -0.76470
 Alpha  occ. eigenvalues --   -0.72370  -0.69661  -0.69115  -0.68522  -0.66530
 Alpha  occ. eigenvalues --   -0.64809  -0.64361  -0.62861  -0.62014  -0.60921
 Alpha  occ. eigenvalues --   -0.59359  -0.57930  -0.57227  -0.55892  -0.55505
 Alpha  occ. eigenvalues --   -0.54478  -0.54107  -0.52745  -0.51661  -0.50811
 Alpha  occ. eigenvalues --   -0.49928  -0.49359  -0.49172  -0.48801  -0.48465
 Alpha  occ. eigenvalues --   -0.48188  -0.47069  -0.46844  -0.45697  -0.45049
 Alpha  occ. eigenvalues --   -0.44220  -0.43563  -0.42367  -0.41704  -0.41365
 Alpha  occ. eigenvalues --   -0.40187  -0.38874  -0.38335  -0.37977  -0.37353
 Alpha  occ. eigenvalues --   -0.36850  -0.36503  -0.35724  -0.35383  -0.35065
 Alpha  occ. eigenvalues --   -0.32596  -0.31178  -0.27353  -0.25850  -0.19527
 Alpha virt. eigenvalues --   -0.07969  -0.04571   0.03385   0.04106   0.04703
 Alpha virt. eigenvalues --    0.05440   0.06737   0.07111   0.08319   0.08760
 Alpha virt. eigenvalues --    0.09347   0.09624   0.10258   0.10651   0.11182
 Alpha virt. eigenvalues --    0.11435   0.12032   0.12595   0.13074   0.13547
 Alpha virt. eigenvalues --    0.14133   0.14421   0.14836   0.15145   0.15329
 Alpha virt. eigenvalues --    0.15648   0.15872   0.16573   0.17127   0.17740
 Alpha virt. eigenvalues --    0.17994   0.18178   0.18820   0.19097   0.19358
 Alpha virt. eigenvalues --    0.20126   0.20565   0.20819   0.21359   0.21931
 Alpha virt. eigenvalues --    0.22579   0.22760   0.23551   0.23666   0.23921
 Alpha virt. eigenvalues --    0.24411   0.25149   0.25638   0.25722   0.26039
 Alpha virt. eigenvalues --    0.27270   0.27603   0.27702   0.28413   0.28925
 Alpha virt. eigenvalues --    0.29377   0.29641   0.30106   0.30737   0.30826
 Alpha virt. eigenvalues --    0.31230   0.31639   0.32021   0.32705   0.33412
 Alpha virt. eigenvalues --    0.33607   0.34049   0.34458   0.34962   0.35105
 Alpha virt. eigenvalues --    0.35893   0.36568   0.37221   0.37844   0.38093
 Alpha virt. eigenvalues --    0.38694   0.39055   0.39152   0.39773   0.40335
 Alpha virt. eigenvalues --    0.40654   0.40949   0.41195   0.41766   0.41987
 Alpha virt. eigenvalues --    0.42126   0.42490   0.43225   0.43318   0.43562
 Alpha virt. eigenvalues --    0.43975   0.44764   0.45175   0.45332   0.45434
 Alpha virt. eigenvalues --    0.45952   0.46527   0.46917   0.47009   0.47263
 Alpha virt. eigenvalues --    0.47525   0.47997   0.48315   0.48827   0.49031
 Alpha virt. eigenvalues --    0.49304   0.49739   0.50160   0.50603   0.50812
 Alpha virt. eigenvalues --    0.51222   0.51727   0.52150   0.52502   0.52635
 Alpha virt. eigenvalues --    0.52690   0.52824   0.53692   0.54040   0.54467
 Alpha virt. eigenvalues --    0.54859   0.55297   0.55665   0.56245   0.56675
 Alpha virt. eigenvalues --    0.56850   0.57597   0.57951   0.58157   0.58789
 Alpha virt. eigenvalues --    0.59362   0.59855   0.60176   0.60863   0.61706
 Alpha virt. eigenvalues --    0.61869   0.62735   0.63361   0.64359   0.64589
 Alpha virt. eigenvalues --    0.65063   0.65997   0.66626   0.66934   0.67261
 Alpha virt. eigenvalues --    0.67707   0.68465   0.68577   0.69704   0.70371
 Alpha virt. eigenvalues --    0.70935   0.71844   0.72085   0.72658   0.73851
 Alpha virt. eigenvalues --    0.74090   0.74750   0.75376   0.75829   0.76530
 Alpha virt. eigenvalues --    0.77289   0.77803   0.79542   0.79982   0.80948
 Alpha virt. eigenvalues --    0.81527   0.81915   0.82832   0.84077   0.84319
 Alpha virt. eigenvalues --    0.84858   0.85570   0.86377   0.87144   0.87983
 Alpha virt. eigenvalues --    0.88234   0.88633   0.90133   0.90540   0.90734
 Alpha virt. eigenvalues --    0.91343   0.91936   0.92888   0.93180   0.93459
 Alpha virt. eigenvalues --    0.93710   0.94083   0.95150   0.95335   0.96115
 Alpha virt. eigenvalues --    0.96536   0.97460   0.98107   0.99198   0.99833
 Alpha virt. eigenvalues --    1.00652   1.00858   1.01676   1.02403   1.03346
 Alpha virt. eigenvalues --    1.03705   1.04885   1.05335   1.05450   1.06291
 Alpha virt. eigenvalues --    1.06781   1.08200   1.09241   1.09347   1.09867
 Alpha virt. eigenvalues --    1.10536   1.11013   1.11862   1.12580   1.13511
 Alpha virt. eigenvalues --    1.13646   1.14060   1.15062   1.15373   1.15894
 Alpha virt. eigenvalues --    1.16317   1.17064   1.17277   1.18253   1.19561
 Alpha virt. eigenvalues --    1.19700   1.21267   1.21673   1.21778   1.22707
 Alpha virt. eigenvalues --    1.23511   1.23776   1.24422   1.25190   1.25988
 Alpha virt. eigenvalues --    1.27076   1.27611   1.28346   1.29018   1.29453
 Alpha virt. eigenvalues --    1.31424   1.32453   1.32607   1.33529   1.33953
 Alpha virt. eigenvalues --    1.34628   1.35931   1.37458   1.37651   1.38941
 Alpha virt. eigenvalues --    1.39455   1.40521   1.41868   1.43154   1.43521
 Alpha virt. eigenvalues --    1.45377   1.46048   1.46760   1.48070   1.48799
 Alpha virt. eigenvalues --    1.50001   1.50401   1.51438   1.51879   1.52804
 Alpha virt. eigenvalues --    1.53657   1.54272   1.55517   1.55696   1.56449
 Alpha virt. eigenvalues --    1.56636   1.56834   1.57709   1.58044   1.58508
 Alpha virt. eigenvalues --    1.58887   1.59921   1.60679   1.60846   1.61118
 Alpha virt. eigenvalues --    1.61830   1.61926   1.62950   1.63153   1.63622
 Alpha virt. eigenvalues --    1.63824   1.64698   1.65021   1.65931   1.66397
 Alpha virt. eigenvalues --    1.66992   1.67198   1.67633   1.68137   1.68918
 Alpha virt. eigenvalues --    1.69273   1.70184   1.70850   1.70923   1.71909
 Alpha virt. eigenvalues --    1.72648   1.73145   1.73712   1.73939   1.74290
 Alpha virt. eigenvalues --    1.74445   1.75075   1.75928   1.76354   1.76597
 Alpha virt. eigenvalues --    1.77004   1.78632   1.79604   1.80125   1.80801
 Alpha virt. eigenvalues --    1.81356   1.82133   1.82947   1.83245   1.84571
 Alpha virt. eigenvalues --    1.85304   1.86103   1.86377   1.86744   1.87796
 Alpha virt. eigenvalues --    1.88835   1.89447   1.90347   1.90752   1.90895
 Alpha virt. eigenvalues --    1.91976   1.92215   1.92793   1.93511   1.93657
 Alpha virt. eigenvalues --    1.95195   1.95620   1.96174   1.96991   1.98154
 Alpha virt. eigenvalues --    1.98694   1.99037   1.99144   1.99885   2.00461
 Alpha virt. eigenvalues --    2.01531   2.02037   2.02604   2.03611   2.04100
 Alpha virt. eigenvalues --    2.05024   2.06967   2.07239   2.08440   2.08683
 Alpha virt. eigenvalues --    2.08877   2.10043   2.10476   2.11083   2.12284
 Alpha virt. eigenvalues --    2.12410   2.14185   2.14668   2.15031   2.15276
 Alpha virt. eigenvalues --    2.15739   2.15927   2.17907   2.18234   2.18683
 Alpha virt. eigenvalues --    2.19464   2.19532   2.20104   2.20431   2.21246
 Alpha virt. eigenvalues --    2.22363   2.23676   2.24679   2.25193   2.25532
 Alpha virt. eigenvalues --    2.25851   2.26818   2.27228   2.28345   2.28551
 Alpha virt. eigenvalues --    2.29474   2.29847   2.31673   2.32313   2.32790
 Alpha virt. eigenvalues --    2.33278   2.33544   2.34142   2.34882   2.35202
 Alpha virt. eigenvalues --    2.36052   2.37573   2.38069   2.38550   2.39105
 Alpha virt. eigenvalues --    2.39733   2.40540   2.41323   2.41801   2.42894
 Alpha virt. eigenvalues --    2.43965   2.44648   2.45868   2.46306   2.47068
 Alpha virt. eigenvalues --    2.47204   2.47965   2.48663   2.50018   2.50362
 Alpha virt. eigenvalues --    2.50674   2.51959   2.53579   2.54268   2.55148
 Alpha virt. eigenvalues --    2.55387   2.56075   2.56588   2.56940   2.57442
 Alpha virt. eigenvalues --    2.58413   2.58951   2.59249   2.60403   2.60768
 Alpha virt. eigenvalues --    2.61180   2.61385   2.62571   2.62931   2.63499
 Alpha virt. eigenvalues --    2.64271   2.65226   2.65734   2.66199   2.66503
 Alpha virt. eigenvalues --    2.67441   2.68222   2.68825   2.69554   2.70347
 Alpha virt. eigenvalues --    2.70887   2.71216   2.71771   2.72105   2.73409
 Alpha virt. eigenvalues --    2.73652   2.74515   2.75559   2.76064   2.76633
 Alpha virt. eigenvalues --    2.77049   2.77387   2.78531   2.79204   2.79428
 Alpha virt. eigenvalues --    2.80542   2.81309   2.81868   2.82639   2.82899
 Alpha virt. eigenvalues --    2.83660   2.84759   2.85129   2.85977   2.86974
 Alpha virt. eigenvalues --    2.88134   2.88724   2.89348   2.90725   2.92120
 Alpha virt. eigenvalues --    2.92215   2.92646   2.94279   2.94967   2.95347
 Alpha virt. eigenvalues --    2.96438   2.98214   2.98477   2.99553   3.00030
 Alpha virt. eigenvalues --    3.00801   3.01633   3.01881   3.02681   3.03062
 Alpha virt. eigenvalues --    3.03416   3.04627   3.04941   3.05537   3.05622
 Alpha virt. eigenvalues --    3.06667   3.07316   3.08544   3.09031   3.09330
 Alpha virt. eigenvalues --    3.09781   3.10293   3.10990   3.11635   3.12632
 Alpha virt. eigenvalues --    3.12696   3.13850   3.14178   3.14467   3.15550
 Alpha virt. eigenvalues --    3.15973   3.16825   3.17091   3.17595   3.18141
 Alpha virt. eigenvalues --    3.18796   3.19174   3.19562   3.20408   3.20693
 Alpha virt. eigenvalues --    3.21197   3.22384   3.22762   3.23151   3.24111
 Alpha virt. eigenvalues --    3.24465   3.26051   3.26340   3.26751   3.27407
 Alpha virt. eigenvalues --    3.27595   3.28029   3.28925   3.29366   3.30089
 Alpha virt. eigenvalues --    3.30660   3.31235   3.32005   3.32742   3.33101
 Alpha virt. eigenvalues --    3.33875   3.33972   3.35497   3.35810   3.36240
 Alpha virt. eigenvalues --    3.36728   3.36994   3.38144   3.38472   3.39630
 Alpha virt. eigenvalues --    3.40075   3.40252   3.40639   3.41665   3.41846
 Alpha virt. eigenvalues --    3.42449   3.42832   3.43192   3.43550   3.45091
 Alpha virt. eigenvalues --    3.45470   3.45771   3.46520   3.46855   3.47860
 Alpha virt. eigenvalues --    3.48192   3.48748   3.49020   3.49965   3.51345
 Alpha virt. eigenvalues --    3.51804   3.51990   3.53113   3.53817   3.54803
 Alpha virt. eigenvalues --    3.55989   3.56389   3.57450   3.57908   3.58317
 Alpha virt. eigenvalues --    3.58573   3.59847   3.60766   3.62870   3.63466
 Alpha virt. eigenvalues --    3.64223   3.66480   3.66762   3.67860   3.68825
 Alpha virt. eigenvalues --    3.69582   3.70287   3.70446   3.71369   3.72149
 Alpha virt. eigenvalues --    3.73092   3.74174   3.74745   3.76020   3.77031
 Alpha virt. eigenvalues --    3.78102   3.78365   3.79509   3.81669   3.82125
 Alpha virt. eigenvalues --    3.83098   3.84256   3.84419   3.85267   3.86621
 Alpha virt. eigenvalues --    3.88227   3.89015   3.90248   3.90892   3.91580
 Alpha virt. eigenvalues --    3.93485   3.93514   3.94467   3.95101   3.95895
 Alpha virt. eigenvalues --    3.97827   3.99481   4.00815   4.02702   4.03632
 Alpha virt. eigenvalues --    4.05628   4.05970   4.08475   4.09052   4.09389
 Alpha virt. eigenvalues --    4.10944   4.11547   4.13416   4.14138   4.14796
 Alpha virt. eigenvalues --    4.17860   4.19622   4.20366   4.21271   4.22750
 Alpha virt. eigenvalues --    4.22981   4.23832   4.26665   4.27621   4.28218
 Alpha virt. eigenvalues --    4.29654   4.31279   4.32554   4.34022   4.35584
 Alpha virt. eigenvalues --    4.36302   4.36715   4.38691   4.39587   4.41201
 Alpha virt. eigenvalues --    4.43962   4.44500   4.45065   4.45733   4.46848
 Alpha virt. eigenvalues --    4.48098   4.49511   4.50463   4.51174   4.54623
 Alpha virt. eigenvalues --    4.58552   4.59017   4.61212   4.62508   4.65924
 Alpha virt. eigenvalues --    4.69497   4.70598   4.72029   4.72212   4.74241
 Alpha virt. eigenvalues --    4.75287   4.75947   4.77302   4.78849   4.79713
 Alpha virt. eigenvalues --    4.80804   4.86674   4.87034   4.87634   4.88963
 Alpha virt. eigenvalues --    4.91220   4.92675   4.94459   4.94848   4.97146
 Alpha virt. eigenvalues --    4.98372   4.99853   5.02459   5.04124   5.05215
 Alpha virt. eigenvalues --    5.06751   5.09117   5.12059   5.14550   5.18193
 Alpha virt. eigenvalues --    5.19760   5.21893   5.25486   5.27283   5.27855
 Alpha virt. eigenvalues --    5.29310   5.31659   5.32434   5.33938   5.35356
 Alpha virt. eigenvalues --    5.36535   5.39062   5.39541   5.43454   5.44069
 Alpha virt. eigenvalues --    5.44424   5.50865   5.53287   5.55089   5.61267
 Alpha virt. eigenvalues --    5.66575   5.67027   5.70368   5.72584   5.76149
 Alpha virt. eigenvalues --    5.78569   5.80610   5.83130   5.83953   5.85840
 Alpha virt. eigenvalues --    5.86967   5.88058   5.90011   5.94960   5.96730
 Alpha virt. eigenvalues --    5.98262   5.99685   6.02552   6.15236   6.15552
 Alpha virt. eigenvalues --    6.20840   6.21109   6.28278   6.30352   6.40356
 Alpha virt. eigenvalues --    6.44471   6.51033   6.52785   6.56504   6.57286
 Alpha virt. eigenvalues --    6.61592   6.67682   6.72550   6.74367   6.76654
 Alpha virt. eigenvalues --    6.78943   6.82675   6.84755   6.85787   6.89155
 Alpha virt. eigenvalues --    6.92326   6.92708   6.99280   7.07851   7.10378
 Alpha virt. eigenvalues --    7.13542   7.16658   7.18806   7.22335   7.29584
 Alpha virt. eigenvalues --    7.33872   7.48292   9.07183   9.41063   9.58722
 Alpha virt. eigenvalues --   19.81915  22.32168  22.38502  22.44494  22.50780
 Alpha virt. eigenvalues --   22.55611  22.58107  22.62614  22.68154  22.75219
 Alpha virt. eigenvalues --   22.79994  22.85394  22.90892  22.99975  23.14947
 Alpha virt. eigenvalues --   23.19192  23.47369  32.11636  33.13261  44.14282
 Alpha virt. eigenvalues --   44.24567  44.28315  44.40470  44.50349
          Condensed to atoms (all electrons):
               1          2          3          4          5          6
     1  C    5.107566   0.416980   0.409745  -0.009137   0.001455  -0.000221
     2  H    0.416980   0.516185  -0.020433  -0.001178   0.000212  -0.000004
     3  H    0.409745  -0.020433   0.531779   0.001485  -0.000083   0.000000
     4  C   -0.009137  -0.001178   0.001485   5.385604   0.484993   0.311960
     5  H    0.001455   0.000212  -0.000083   0.484993   0.572940  -0.042729
     6  O   -0.000221  -0.000004   0.000000   0.311960  -0.042729   8.226359
     7  H   -0.000042  -0.000001   0.000002  -0.030957  -0.010056   0.246530
     8  C   -0.000381   0.011904  -0.007656  -0.046573  -0.071699  -0.051056
     9  H    0.013749  -0.000005  -0.001389  -0.095566   0.002343   0.004270
    10  O    0.009252  -0.000428   0.000158  -0.048109   0.001286  -0.008024
    11  H   -0.000942  -0.000093   0.000334   0.015017  -0.000608  -0.000394
    12  C   -0.003942   0.000587   0.000038  -0.049483  -0.091903  -0.057925
    13  H    0.000638   0.000018   0.000068  -0.082555   0.005679   0.009028
    14  C    0.168375  -0.048522  -0.037638   0.106666   0.009850   0.006314
    15  H   -0.058352  -0.005814  -0.003251  -0.007706  -0.000136   0.000044
    16  O   -0.028295   0.001297   0.004820  -0.053789   0.000424   0.007079
    17  N   -0.000318  -0.000083  -0.000031   0.018606  -0.009028  -0.001531
    18  C   -0.001548   0.000102   0.000025  -0.004837  -0.000747   0.003347
    19  H   -0.000333  -0.000069   0.000055  -0.010090   0.000013   0.000589
    20  C    0.000103  -0.000021  -0.000000   0.004097   0.007016  -0.000961
    21  H    0.000006  -0.000000  -0.000000  -0.000030   0.000128  -0.000009
    22  C   -0.000015   0.000002   0.000000   0.001468  -0.000680   0.000174
    23  H    0.000000   0.000000  -0.000000   0.000018  -0.000003   0.000001
    24  H    0.000000  -0.000000  -0.000000   0.000029  -0.000077  -0.000024
    25  C   -0.000074  -0.000007   0.000001  -0.009586  -0.000153  -0.000723
    26  C   -0.000462   0.000070  -0.000005   0.008456  -0.001213  -0.005438
    27  H   -0.000017   0.000001  -0.000000   0.000232  -0.000148   0.000045
    28  C   -0.000000   0.000000  -0.000000   0.000017   0.000010  -0.000032
    29  O   -0.000000  -0.000000  -0.000000   0.000013  -0.000000  -0.000000
    30  N   -0.000000  -0.000000   0.000000   0.000001  -0.000000   0.000000
    31  H   -0.000000   0.000000  -0.000000  -0.000000   0.000000  -0.000000
    32  H    0.000000  -0.000000  -0.000000   0.000000   0.000000   0.000000
    33  C    0.000002  -0.000000  -0.000000   0.000970  -0.000584  -0.022622
    34  C    0.000001  -0.000000   0.000000  -0.000580   0.000180   0.017172
    35  C   -0.000000   0.000000  -0.000000  -0.001001   0.000598   0.002908
    36  C   -0.000000   0.000000   0.000000   0.000004   0.000001   0.000003
    37  C   -0.000000  -0.000000   0.000000   0.000305   0.000018   0.000094
    38  O   -0.000001   0.000000   0.000000   0.018700   0.000231  -0.116000
    39  S   -0.000000  -0.000000  -0.000000  -0.001289  -0.000001   0.001553
    40  H   -0.000000   0.000000  -0.000000   0.000118   0.000051   0.000124
    41  H   -0.000006   0.000000  -0.000000   0.000598   0.000594   0.010352
    42  H   -0.000000   0.000000   0.000000   0.000000  -0.000000  -0.000000
    43  H    0.000000   0.000000  -0.000000   0.000000   0.000000  -0.000000
    44  H    0.000000  -0.000000  -0.000000   0.000000  -0.000000  -0.000000
    45  H    0.000000  -0.000000  -0.000000  -0.000039   0.000012   0.000040
    46  H    0.000000  -0.000000  -0.000000  -0.000027  -0.000001   0.000042
    47  H    0.383809  -0.024992  -0.022878   0.001597  -0.000104   0.000002
    48  H    0.000000   0.000000  -0.000000  -0.000077   0.000004   0.000337
               7          8          9         10         11         12
     1  C   -0.000042  -0.000381   0.013749   0.009252  -0.000942  -0.003942
     2  H   -0.000001   0.011904  -0.000005  -0.000428  -0.000093   0.000587
     3  H    0.000002  -0.007656  -0.001389   0.000158   0.000334   0.000038
     4  C   -0.030957  -0.046573  -0.095566  -0.048109   0.015017  -0.049483
     5  H   -0.010056  -0.071699   0.002343   0.001286  -0.000608  -0.091903
     6  O    0.246530  -0.051056   0.004270  -0.008024  -0.000394  -0.057925
     7  H    0.297247   0.006146  -0.000064  -0.000569   0.000106   0.013987
     8  C    0.006146   5.387551   0.497569   0.297965  -0.039427   0.013624
     9  H   -0.000064   0.497569   0.572934  -0.057831  -0.006718   0.012539
    10  O   -0.000569   0.297965  -0.057831   8.015781   0.291729  -0.015971
    11  H    0.000106  -0.039427  -0.006718   0.291729   0.428031  -0.004278
    12  C    0.013987   0.013624   0.012539  -0.015971  -0.004278   5.672866
    13  H   -0.000381   0.018201   0.002608   0.016880  -0.001034   0.429014
    14  C   -0.000611   0.097150  -0.109403  -0.064108   0.001993  -0.075584
    15  H    0.000054  -0.024994   0.007984  -0.003006   0.002387  -0.001803
    16  O   -0.000268  -0.045838   0.004368   0.009034   0.000096   0.208096
    17  N    0.000624  -0.002083  -0.000550  -0.000197  -0.000016   0.184627
    18  C   -0.001723  -0.002962  -0.000211  -0.000262   0.000010  -0.094322
    19  H   -0.000065   0.000648   0.000061  -0.000000   0.000001   0.010258
    20  C   -0.000085  -0.001286   0.000043   0.000015  -0.000001   0.016727
    21  H    0.000004  -0.000009   0.000000   0.000000  -0.000000   0.000435
    22  C   -0.000199   0.000022  -0.000006  -0.000005   0.000000  -0.012430
    23  H   -0.000004   0.000000  -0.000000  -0.000000   0.000000   0.000026
    24  H   -0.000065   0.000013  -0.000000   0.000000   0.000000   0.000903
    25  C    0.001074  -0.000059   0.000006  -0.000035  -0.000001  -0.008143
    26  C   -0.000081  -0.003390  -0.000106  -0.000585  -0.000058  -0.064817
    27  H    0.000131  -0.000076  -0.000013  -0.000177   0.000007  -0.002869
    28  C    0.000067  -0.000002   0.000000   0.000000  -0.000000  -0.000378
    29  O    0.000006   0.000000   0.000000  -0.000000   0.000000   0.000397
    30  N    0.000000   0.000000  -0.000000  -0.000000  -0.000000   0.000006
    31  H   -0.000000  -0.000000   0.000000  -0.000000  -0.000000  -0.000004
    32  H   -0.000000  -0.000000  -0.000000   0.000000  -0.000000  -0.000010
    33  C    0.000137   0.000994   0.000030  -0.000847   0.000064  -0.000393
    34  C   -0.015099   0.000033  -0.000024   0.000051   0.000000  -0.002824
    35  C    0.002367  -0.000327  -0.000002   0.000004  -0.000001  -0.000501
    36  C   -0.000019   0.000000  -0.000000  -0.000000  -0.000000  -0.000004
    37  C   -0.000482   0.000014  -0.000000   0.000000   0.000000  -0.000874
    38  O    0.109099  -0.000674  -0.000001  -0.000004  -0.000000   0.005760
    39  S    0.000489   0.000246  -0.000001   0.000000  -0.000003   0.000291
    40  H   -0.000307  -0.000059   0.000000   0.000017  -0.000001   0.000040
    41  H   -0.011922  -0.001374  -0.000014   0.002628  -0.000189  -0.000119
    42  H   -0.000001   0.000000  -0.000000  -0.000000   0.000000  -0.000000
    43  H    0.000001   0.000000   0.000000   0.000000   0.000000   0.000002
    44  H    0.000000   0.000000  -0.000000  -0.000000   0.000000   0.000001
    45  H    0.000023  -0.000001   0.000000  -0.000000  -0.000000  -0.000068
    46  H   -0.000179  -0.000001  -0.000000   0.000000   0.000000   0.000175
    47  H    0.000009  -0.010900   0.000302   0.000196   0.000099  -0.001346
    48  H    0.000952  -0.000031   0.000003   0.000001  -0.000003   0.000015
              13         14         15         16         17         18
     1  C    0.000638   0.168375  -0.058352  -0.028295  -0.000318  -0.001548
     2  H    0.000018  -0.048522  -0.005814   0.001297  -0.000083   0.000102
[...]
      4        6          -0.004620882    0.020884494    0.020073542
      5        1           0.010362519    0.001699130   -0.012010530
      6        8           0.017665353   -0.012447138   -0.004930381
      7        1          -0.003954966   -0.002267462   -0.004292901
      8        6           0.014781059    0.000592553   -0.005512890
      9        1          -0.007593324    0.003032731   -0.010954790
     10        8          -0.001832400    0.007875503    0.002224306
     11        1          -0.009980388   -0.006490225   -0.001957483
     12        6           0.030579310   -0.023089521    0.002376840
     13        1          -0.011511163   -0.005963168    0.002024130
     14        6          -0.018725331    0.001886577   -0.001243033
     15        1          -0.005595876   -0.006757192    0.009871406
     16        8           0.000508250   -0.003489411   -0.002261455
     17        7           0.004052878    0.005667976    0.006097538
     18        6          -0.002479422   -0.003397152   -0.000163105
     19        1          -0.001603594    0.007008057   -0.001597638
     20        6          -0.010647573   -0.002594544   -0.003086012
     21        1           0.005476032    0.006458874    0.002046762
     22        6           0.021102687    0.002840191   -0.004927225
     23        1           0.004840951    0.000301071    0.005747617
     24        1          -0.007035627    0.010101883    0.015939428
     25        6          -0.016579234   -0.006275292   -0.003752610
     26        6          -0.003446658    0.003970381    0.002070220
     27        1          -0.006555168   -0.005044841    0.000671512
     28        6          -0.014246065   -0.011784779   -0.003505709
     29        8           0.017668175    0.015738234    0.014257233
     30        7           0.003774410   -0.009289212   -0.002685621
     31        1          -0.002408358    0.000688552   -0.001463957
     32        1          -0.001920496    0.000276715   -0.002244341
     33        6          -0.009125647   -0.012525506   -0.012154094
     34        6           0.013851845   -0.054460102    0.020751981
     35        6          -0.023527912    0.015297360   -0.024336476
     36        6           0.007868764   -0.011589911    0.005457428
     37        6           0.011616262    0.003051160    0.001629200
     38        8          -0.010819191    0.027847399   -0.009570000
     39       16           0.012648406    0.012907780    0.005462841
     40        1           0.007347159    0.000970555   -0.000571880
     41        1          -0.003238785    0.005132129    0.007446417
     42        1           0.002436782    0.004019195   -0.000139615
     43        1          -0.004232603   -0.000351880    0.002267319
     44        1           0.000729323   -0.002523161   -0.004210152
     45        1           0.004239462    0.000879893   -0.007806140
     46        1          -0.004307924   -0.002243210   -0.000242244
     47        1           0.001233814   -0.001199908   -0.000965189
     48        1          -0.003438859    0.004047372   -0.004825662
 -------------------------------------------------------------------
 Cartesian Forces:  Max     0.054460102 RMS     0.010474095
 Leave Link  716 at Wed Mar  8 15:46:21 2023, MaxMem=  2684354560 cpu:               0.8 elap:               0.1
 (Enter /opt/gaussian/g16/l103.exe)

 GradGradGradGradGradGradGradGradGradGradGradGradGradGradGradGradGradGrad
 Berny optimization.
 Search for a local minimum.
 Step number   1 out of a maximum of    2
 All quantities printed in internal units (Hartrees-Bohrs-Radians)
 Second derivative matrix not updated -- first step.
 ITU=  0
     Eigenvalues ---    0.00041   0.00062   0.00099   0.00133   0.00157
     Eigenvalues ---    0.00167   0.00190   0.00223   0.00442   0.00513
     Eigenvalues ---    0.00589   0.00686   0.00778   0.00913   0.00965
     Eigenvalues ---    0.01048   0.01202   0.01250   0.01400   0.01547
     Eigenvalues ---    0.01780   0.01917   0.02192   0.02390   0.02556
     Eigenvalues ---    0.02909   0.03088   0.03671   0.03747   0.03872
     Eigenvalues ---    0.04311   0.04511   0.04768   0.04939   0.05006
     Eigenvalues ---    0.05070   0.05132   0.05472   0.05696   0.05800
     Eigenvalues ---    0.06022   0.06389   0.06638   0.06863   0.06967
     Eigenvalues ---    0.07201   0.07544   0.07694   0.08137   0.08356
     Eigenvalues ---    0.08407   0.08675   0.08780   0.09437   0.10261
     Eigenvalues ---    0.10792   0.11008   0.11198   0.11852   0.12170
     Eigenvalues ---    0.13009   0.13093   0.13220   0.13386   0.13562
     Eigenvalues ---    0.13812   0.14068   0.15085   0.15594   0.15927
     Eigenvalues ---    0.17482   0.17737   0.18143   0.18660   0.20082
     Eigenvalues ---    0.20314   0.20427   0.21150   0.22263   0.25326
     Eigenvalues ---    0.25582   0.26102   0.27796   0.28704   0.32444
     Eigenvalues ---    0.32838   0.33273   0.33376   0.36335   0.36732
     Eigenvalues ---    0.36732   0.36732   0.36732   0.36732   0.39933
     Eigenvalues ---    0.42659   0.46858   0.47382   0.53202   0.55932
     Eigenvalues ---    0.58841   0.59175   0.66340   0.69567   0.71959
     Eigenvalues ---    0.77290   0.77391   0.79816   0.80200   0.85020
     Eigenvalues ---    0.87871   0.89043   0.90215   0.91051   0.92374
     Eigenvalues ---    0.92976   0.93581   0.94985   0.96105   0.99417
     Eigenvalues ---    1.01438   1.03511   1.04790   1.05031   1.10490
     Eigenvalues ---    1.13723   1.22640   1.25483   1.26165   1.29234
     Eigenvalues ---    1.31164   1.32052   1.42327   1.50816   1.72332
     Eigenvalues ---    1.74363   1.78298   2.49373
 Quadratic step=3.753D+00 exceeds max=3.000D-01 adjusted using Lamda=-8.699D-02.
 Angle between NR and scaled steps=  69.87 degrees.
 Angle between quadratic step and forces=  47.71 degrees.
 Linear search not attempted -- first point.
 Variable       Old X    -DE/DX   Delta X   Delta X   Delta X     New X
                                 (Linear)    (Quad)   (Total)
    X1        6.58227   0.00303   0.00000  -0.01577  -0.01577   6.56651
    Y1       -6.69021   0.02726   0.00000   0.05888   0.05888  -6.63133
    Z1       -1.36918   0.00165   0.00000   0.01303   0.01303  -1.35616
    X2        6.53550   0.00078   0.00000  -0.00025  -0.00025   6.53525
    Y2       -6.86139  -0.00348   0.00000  -0.00003  -0.00003  -6.86141
    Z2       -3.43737   0.00677   0.00000   0.02971   0.02971  -3.40767
    X3        8.39331  -0.00716   0.00000  -0.03859  -0.03859   8.35472
    Y3       -7.38510  -0.00317   0.00000   0.00759   0.00759  -7.37751
    Z3       -0.62443  -0.00342   0.00000  -0.00418  -0.00418  -0.62860
    X4        3.06021  -0.00462   0.00000   0.03029   0.03029   3.09050
    Y4       -2.15726   0.02088   0.00000   0.02742   0.02742  -2.12984
    Z4        2.01436   0.02007   0.00000   0.01695   0.01695   2.03130
    X5        1.67118   0.01036   0.00000   0.06907   0.06907   1.74025
    Y5       -3.73660   0.00170   0.00000   0.00674   0.00674  -3.72986
    Z5        2.08517  -0.01201   0.00000  -0.06678  -0.06678   2.01839
    X6        2.55203   0.01767   0.00000   0.04930   0.04930   2.60133
    Y6       -0.54174  -0.01245   0.00000  -0.01236  -0.01236  -0.55410
    Z6        4.00245  -0.00493   0.00000   0.01481   0.01481   4.01726
    X7        0.77325  -0.00395   0.00000   0.02326   0.02326   0.79652
    Y7        0.30897  -0.00227   0.00000  -0.03601  -0.03601   0.27296
    Z7        3.93938  -0.00429   0.00000  -0.02230  -0.02230   3.91708
    X8        5.85345   0.01478   0.00000   0.01001   0.01001   5.86346
    Y8       -3.13591   0.00059   0.00000   0.02752   0.02752  -3.10839
    Z8        2.10456  -0.00551   0.00000  -0.01933  -0.01933   2.08523
    X9        6.17013  -0.00759   0.00000  -0.03906  -0.03906   6.13107
    Y9       -4.68101   0.00303   0.00000   0.00679   0.00679  -4.67422
    Z9        3.48474  -0.01095   0.00000  -0.06060  -0.06060   3.42414
   X10        7.37112  -0.00183   0.00000  -0.02011  -0.02011   7.35101
   Y10       -1.04802   0.00788   0.00000   0.03349   0.03349  -1.01452
   Z10        2.81997   0.00222   0.00000   0.00297   0.00297   2.82294
   X11        9.16198  -0.00998   0.00000  -0.04408  -0.04408   9.11790
   Y11       -1.41847  -0.00649   0.00000  -0.03518  -0.03518  -1.45365
   Z11        2.86734  -0.00196   0.00000  -0.00938  -0.00938   2.85796
   X12        3.15066   0.03058   0.00000   0.03928   0.03928   3.18994
   Y12       -0.79854  -0.02309   0.00000  -0.04149  -0.04149  -0.84003
   Z12       -0.59416   0.00238   0.00000  -0.00035  -0.00035  -0.59451
   X13        4.30426  -0.01151   0.00000  -0.03244  -0.03244   4.27182
   Y13        0.94256  -0.00596   0.00000  -0.02364  -0.02364   0.91893
   Z13       -0.42174   0.00202   0.00000   0.00975   0.00975  -0.41199
   X14        6.46949  -0.01873   0.00000  -0.04923  -0.04923   6.42026
   Y14       -3.83477   0.00189   0.00000   0.01638   0.01638  -3.81839
   Z14       -0.71485  -0.00124   0.00000  -0.00130  -0.00130  -0.71615
   X15        8.20882  -0.00560   0.00000  -0.02817  -0.02817   8.18065
   Y15       -2.87153  -0.00676   0.00000  -0.02522  -0.02522  -2.89675
   Z15       -1.37921   0.00987   0.00000   0.05382   0.05382  -1.32539
   X16        4.42708   0.00051   0.00000  -0.01100  -0.01100   4.41609
   Y16       -2.61067  -0.00349   0.00000  -0.02171  -0.02171  -2.63238
   Z16       -2.13490  -0.00226   0.00000  -0.03000  -0.03000  -2.16490
   X17        0.79566   0.00405   0.00000   0.00782   0.00782   0.80348
   Y17       -0.21441   0.00567   0.00000   0.00011   0.00011  -0.21430
   Z17       -1.88662   0.00610   0.00000   0.02533   0.02533  -1.86129
   X18       -0.86794  -0.00248   0.00000  -0.00598  -0.00598  -0.87392
   Y18       -2.10334  -0.00340   0.00000   0.00736   0.00736  -2.09598
   Z18       -2.31992  -0.00016   0.00000   0.00501   0.00501  -2.31491
   X19       -0.29961  -0.00160   0.00000  -0.00819  -0.00819  -0.30781
   Y19       -3.97480   0.00701   0.00000   0.02210   0.02210  -3.95270
   Z19       -1.67993  -0.00160   0.00000   0.00042   0.00042  -1.67951
   X20       -3.09058  -0.01065   0.00000  -0.00115  -0.00115  -3.09173
   Y20       -1.62016  -0.00259   0.00000   0.00145   0.00145  -1.61871
   Z20       -3.53597  -0.00309   0.00000  -0.00866  -0.00866  -3.54463
   X21       -4.42333   0.00548   0.00000   0.00778   0.00778  -4.41554
   Y21       -3.16662   0.00646   0.00000   0.01811   0.01811  -3.14851
   Z21       -3.84693   0.00205   0.00000   0.00568   0.00568  -3.84125
   X22       -3.66042   0.02110   0.00000   0.03899   0.03899  -3.62143
   Y22        0.84606   0.00284   0.00000  -0.00906  -0.00906   0.83700
   Z22       -4.35440  -0.00493   0.00000  -0.03071  -0.03071  -4.38511
   X23       -5.39892   0.00484   0.00000   0.02979   0.02979  -5.36914
   Y23        1.23963   0.00030   0.00000   0.00261   0.00261   1.24224
   Z23       -5.39045   0.00575   0.00000   0.01331   0.01331  -5.37714
   X24       -5.29147  -0.00704   0.00000  -0.01668  -0.01668  -5.30816
   Y24        2.48309   0.01010   0.00000   0.02769   0.02769   2.51079
   Z24       -1.04598   0.01594   0.00000   0.06019   0.06019  -0.98579
   X25       -1.77336  -0.01658   0.00000  -0.02200  -0.02200  -1.79537
   Y25        2.72104  -0.00628   0.00000  -0.00482  -0.00482   2.71622
   Z25       -4.06111  -0.00375   0.00000   0.00501   0.00501  -4.05610
   X26        0.39546  -0.00345   0.00000  -0.02623  -0.02623   0.36923
   Y26        2.15820   0.00397   0.00000   0.00012   0.00012   2.15832
   Z26       -2.72919   0.00207   0.00000   0.02309   0.02309  -2.70610
   X27        1.86425  -0.00656   0.00000  -0.03898  -0.03898   1.82527
   Y27        3.56595  -0.00504   0.00000  -0.00802  -0.00802   3.55792
   Z27       -2.37766   0.00067   0.00000   0.01845   0.01845  -2.35921
   X28       -2.18510  -0.01425   0.00000  -0.03046  -0.03046  -2.21556
   Y28        5.38912  -0.01178   0.00000   0.00069   0.00069   5.38981
   Z28       -5.00839  -0.00351   0.00000   0.02892   0.02892  -4.97947
   X29       -1.45078   0.01767   0.00000   0.06264   0.06264  -1.38814
   Y29        7.20915   0.01574   0.00000  -0.00565  -0.00565   7.20350
   Z29       -3.90779   0.01426   0.00000   0.02013   0.02013  -3.88766
   X30       -3.67466   0.00377   0.00000   0.00788   0.00788  -3.66677
   Y30        5.62478  -0.00929   0.00000  -0.01876  -0.01876   5.60602
   Z30       -7.11139  -0.00269   0.00000  -0.00819  -0.00819  -7.11958
   X31       -3.66715  -0.00241   0.00000  -0.01279  -0.01279  -3.67994
   Y31        7.38510   0.00069   0.00000  -0.01547  -0.01547   7.36963
   Z31       -7.83730  -0.00146   0.00000  -0.01189  -0.01189  -7.84920
   X32       -3.71399  -0.00192   0.00000  -0.00519  -0.00519  -3.71918
   Y32        4.18477   0.00028   0.00000  -0.01399  -0.01399   4.17078
   Z32       -8.35199  -0.00224   0.00000  -0.01327  -0.01327  -8.36526
   X33        1.71764  -0.00913   0.00000  -0.02122  -0.02122   1.69642
   Y33        4.00829  -0.01253   0.00000  -0.02024  -0.02024   3.98805
   Z33        7.36692  -0.01215   0.00000  -0.02737  -0.02737   7.33955
   X34       -1.68056   0.01385   0.00000   0.00114   0.00114  -1.67942
   Y34        3.85687  -0.05446   0.00000  -0.03517  -0.03517   3.82169
   Z34        3.18499   0.02075   0.00000   0.00008   0.00008   3.18507
   X35       -3.33910  -0.02353   0.00000  -0.00847  -0.00847  -3.34758
   Y35        5.00311   0.01530   0.00000   0.01270   0.01270   5.01581
   Z35        1.64576  -0.02434   0.00000  -0.02422  -0.02422   1.62155
   X36       -7.43056   0.00787   0.00000   0.02242   0.02242  -7.40814
   Y36        6.00750  -0.01159   0.00000  -0.02464  -0.02464   5.98286
   Z36       -0.62953   0.00546   0.00000   0.01382   0.01382  -0.61570
   X37       -5.73751   0.01162   0.00000   0.02163   0.02163  -5.71588
   Y37        3.89413   0.00305   0.00000   0.01717   0.01717   3.91130
   Z37        0.50240   0.00163   0.00000   0.01684   0.01684   0.51923
   X38       -1.58820  -0.01082   0.00000  -0.07263  -0.07263  -1.66082
   Y38        1.43223   0.02785   0.00000   0.00421   0.00421   1.43644
   Z38        3.71050  -0.00957   0.00000  -0.01629  -0.01629   3.69422
   X39        0.63142   0.01265   0.00000   0.02564   0.02564   0.65706
   Y39        5.83262   0.01291   0.00000   0.00428   0.00428   5.83691
   Z39        4.63642   0.00546   0.00000  -0.00518  -0.00518   4.63124
   X40        0.02908   0.00735   0.00000   0.01335   0.01335   0.04243
   Y40        3.31422   0.00097   0.00000  -0.00923  -0.00923   3.30499
   Z40        8.35199  -0.00057   0.00000   0.00144   0.00144   8.35343
   X41        2.84789  -0.00324   0.00000   0.00124   0.00124   2.84912
   Y41        2.42192   0.00513   0.00000  -0.00245  -0.00245   2.41947
   Z41        6.65586   0.00745   0.00000   0.03346   0.03346   6.68932
   X42       -9.16198   0.00244   0.00000   0.02119   0.02119  -9.14078
   Y42        5.17855   0.00402   0.00000   0.00401   0.00401   5.18256
   Z42       -1.40737  -0.00014   0.00000   0.00357   0.00357  -1.40380
   X43       -6.38462  -0.00423   0.00000  -0.00768  -0.00768  -6.39229
   Y43        6.99835  -0.00035   0.00000  -0.00676  -0.00676   6.99159
   Z43       -2.12042   0.00227   0.00000   0.01401   0.01401  -2.10641
   X44       -7.93361   0.00073   0.00000   0.01107   0.01107  -7.92254
   Y44        7.37212  -0.00252   0.00000  -0.01675  -0.01675   7.35538
   Z44        0.84781  -0.00421   0.00000  -0.01003  -0.01003   0.83778
   X45       -6.77764   0.00424   0.00000   0.02902   0.02902  -6.74861
   Y45        2.85200   0.00088   0.00000   0.00266   0.00266   2.85465
   Z45        1.98438  -0.00781   0.00000  -0.01378  -0.01378   1.97060
   X46       -3.01079  -0.00431   0.00000  -0.02368  -0.02368  -3.03446
   Y46        7.01312  -0.00224   0.00000   0.00795   0.00795   7.02108
   Z46        1.34527  -0.00024   0.00000  -0.00969  -0.00969   1.33558
   X47        4.99688   0.00123   0.00000   0.00120   0.00120   4.99808
   Y47       -7.69210  -0.00120   0.00000   0.01819   0.01819  -7.67392
   Z47       -0.51741  -0.00097   0.00000  -0.00229  -0.00229  -0.51970
   X48        2.85857  -0.00344   0.00000  -0.03751  -0.03751   2.82107
   Y48        5.18674   0.00405   0.00000   0.02232   0.02232   5.20905
   Z48        8.61285  -0.00483   0.00000  -0.04702  -0.04702   8.56583
         Item               Value     Threshold  Converged?
 Maximum Force            0.054460     0.000450     NO 
 RMS     Force            0.010474     0.000300     NO 
 Maximum Displacement     0.072625     0.001800     NO 
 RMS     Displacement     0.025001     0.001200     NO 
 Predicted change in Energy=-1.660138D-02
 GradGradGradGradGradGradGradGradGradGradGradGradGradGradGradGradGradGrad

 Leave Link  103 at Wed Mar  8 15:46:22 2023, MaxMem=  2684354560 cpu:               1.4 elap:               0.1
 (Enter /opt/gaussian/g16/l9999.exe)

 Test job not archived.
 1\1\GINC-JULIO-SYS\Force\RM062X\def2TZVP\C16H24N2O5S1\JVELAZQUEZ\08-Ma
 r-2023\0\\#P M062X/Def2TZVP scf=(direct,conver=8) EmpiricalDispersion=
 GD3 NoSymm Force pop=(NBORead) Charge Prop=(Field,Read)\\Gaussian run 
 using SANDER external interface, route from template gau_job.tpl\\0,1\
 C,3.4831880709,-3.5403071458,-0.7245412958\H,3.4584394843,-3.630888865
 4,-1.8189787102\H,4.441547098,-3.9080262255,-0.3304321821\C,1.61939222
 11,-1.1415711206,1.0659514259\H,0.8843501992,-1.9773226739,1.103423541
 4\O,1.3504736459,-0.2866742139,2.1180029068\H,0.409187756,0.1635010672
 ,2.0846306651\C,3.0975118877,-1.6594519367,1.1136843546\H,3.265093616,
 -2.4770828567,1.8440446065\O,3.9006277576,-0.5545868295,1.4922632505\H
 ,4.8483097149,-0.7506240412,1.5173320481\C,1.6672561269,-0.4225692688,
 -0.3144139424\H,2.2777144922,0.4987825638,-0.223175889\C,3.4235091885,
 -2.0292751336,-0.3782808339\H,4.3439202414,-1.5195460014,-0.729848578\
 O,2.3427123395,-1.3815086381,-1.1297386953\N,0.4210459282,-0.113461336
 7,-0.9983545627\C,-0.4592948283,-1.113039239,-1.2276485842\H,-0.158549
 1968,-2.10337455,-0.8889796379\C,-1.6354647812,-0.857350964,-1.8711554
 705\H,-2.3407230471,-1.6757043489,-2.0357051151\C,-1.9370126776,0.4477
 165848,-2.3042494872\H,-2.8569863788,0.6559854285,-2.8525015233\H,-2.8
 001277924,1.3139970406,-0.5535109251\C,-0.9384240499,1.4399136072,-2.1
 490472667\C,0.2092661992,1.1420704943,-1.4442229928\H,0.9865208008,1.8
 870170974,-1.2582048629\C,-1.1563047245,2.8518009714,-2.6503240199\O,-
 0.7677205323,3.8149196385,-2.0679123217\N,-1.9445445882,2.9765047626,-
 3.7631834602\H,-1.9405722151,3.9080262255,-4.1473231394\H,-1.965356408
 1,2.2144873872,-4.4196810866\C,0.908936319,2.1210966845,3.8984082705\C
 ,-0.8893152654,2.0409657182,1.6854222899\C,-1.7669780094,2.6475333288,
 0.8708991655\C,-3.9320847442,3.1790326251,-0.3331312896\C,-3.036159820
 4,2.0606827913,0.2658573911\O,-0.8404387383,0.7579034063,1.9635133516\
 S,0.3341308087,3.0864917701,2.4534890783\H,0.0153875818,1.7538102446,4
 .4196810866\H,1.5070364362,1.2816274026,3.522130144\H,-4.8483097149,2.
 7403695437,-0.7447481047\H,-3.3785947064,3.7033673073,-1.1220783598\H,
 -4.1982857253,3.9011593579,0.4486421541\H,-3.5865709046,1.5092107866,1
 .0500891512\H,-1.5932403586,3.7111852506,0.7118861369\H,2.6442341832,-
 4.0704862073,-0.2738013076\H,1.512692308,2.7447021094,4.5577222927\\Ve
 rsion=ES64L-G16RevA.03\HF=-1507.8487042\RMSD=5.145e-09\RMSF=1.047e-02\
 Dipole=0.5331356,-2.6384398,-3.8492271\Quadrupole=8.8097047,-11.266735
 7,2.457031,-4.4661078,11.2113003,-10.6691576\PG=C01 [X(C16H24N2O5S1)]\
 \@


 IT'S WHAT A FELLER THINKS HE KNOWS THAT HURTS HIM...
                    ------
           KIN HUBBARD
 Job cpu time:       0 days  7 hours 31 minutes 58.2 seconds.
 Elapsed time:       0 days  0 hours 28 minutes 23.7 seconds.
 File lengths (MBytes):  RWF=    435 Int=      0 D2E=      0 Chk=     48 Scr=      1
 Normal termination of Gaussian 16 at Wed Mar  8 15:46:22 2023.
