 Entering Gaussian System, Link 0=g16
 Initial command:
 /opt/gaussian/g16/l1.exe "/opt/gaussian/scratch16/Gau-2711164.inp" -scrdir="/opt/gaussian/scratch16/"
 Entering Link 1 = /opt/gaussian/g16/l1.exe PID=   2711166.
  
 Copyright (c) 1988,1990,1992,1993,1995,1998,2003,2009,2016,
            Gaussian, Inc.  All Rights Reserved.
  
 This is part of the Gaussian(R) 16 program.  It is based on
 the Gaussian(R) 09 system (copyright 2009, Gaussian, Inc.),
 the Gaussian(R) 03 system (copyright 2003, Gaussian, Inc.),
 the Gaussian(R) 98 system (copyright 1998, Gaussian, Inc.),
 the Gaussian(R) 94 system (copyright 1995, Gaussian, Inc.),
 the Gaussian 92(TM) system (copyright 1992, Gaussian, Inc.),
 the Gaussian 90(TM) system (copyright 1990, Gaussian, Inc.),
 the Gaussian 88(TM) system (copyright 1988, Gaussian, Inc.),
 the Gaussian 86(TM) system (copyright 1986, Carnegie Mellon
 University), and the Gaussian 82(TM) system (copyright 1983,
 Carnegie Mellon University). Gaussian is a federally registered
 trademark of Gaussian, Inc.
  
 This software contains proprietary and confidential information,
 including trade secrets, belonging to Gaussian, Inc.
  
 This software is provided under written license and may be
 used, copied, transmitted, or stored only in accord with that
 written license.
  
 The following legend is applicable only to US Government
 contracts under FAR:
  
                    RESTRICTED RIGHTS LEGEND
  
 Use, reproduction and disclosure by the US Government is
 subject to restrictions as set forth in subparagraphs (a)
 and (c) of the Commercial Computer Software - Restricted
 Rights clause in FAR 52.227-19.
  
 Gaussian, Inc.
 340 Quinnipiac St., Bldg. 40, Wallingford CT 06492
  
  
 ---------------------------------------------------------------
 Warning -- This program may not be used in any manner that
 competes with the business of Gaussian, Inc. or will provide
 assistance to any competitor of Gaussian, Inc.  The licensee
 of this program is prohibited from giving any competitor of
 Gaussian, Inc. access to this program.  By using this program,
 the user acknowledges that Gaussian, Inc. is engaged in the
 business of creating and licensing software in the field of
 computational chemistry and represents and warrants to the
 licensee that it is not a competitor of Gaussian, Inc. and that
 it will not use this program in any manner prohibited above.
 ---------------------------------------------------------------
  

 Cite this work as:
 Gaussian 16, Revision A.03,
 M. J. Frisch, G. W. Trucks, H. B. Schlegel, G. E. Scuseria, 
 M. A. Robb, J. R. Cheeseman, G. Scalmani, V. Barone, 
 G. A. Petersson, H. Nakatsuji, X. Li, M. Caricato, A. V. Marenich, 
 J. Bloino, B. G. Janesko, R. Gomperts, B. Mennucci, H. P. Hratchian, 
 J. V. Ortiz, A. F. Izmaylov, J. L. Sonnenberg, D. Williams-Young, 
 F. Ding, F. Lipparini, F. Egidi, J. Goings, B. Peng, A. Petrone, 
 T. Henderson, D. Ranasinghe, V. G. Zakrzewski, J. Gao, N. Rega, 
 G. Zheng, W. Liang, M. Hada, M. Ehara, K. Toyota, R. Fukuda, 
 J. Hasegawa, M. Ishida, T. Nakajima, Y. Honda, O. Kitao, H. Nakai, 
 T. Vreven, K. Throssell, J. A. Montgomery, Jr., J. E. Peralta, 
 F. Ogliaro, M. J. Bearpark, J. J. Heyd, E. N. Brothers, K. N. Kudin, 
 V. N. Staroverov, T. A. Keith, R. Kobayashi, J. Normand, 
 K. Raghavachari, A. P. Rendell, J. C. Burant, S. S. Iyengar, 
 J. Tomasi, M. Cossi, J. M. Millam, M. Klene, C. Adamo, R. Cammi, 
 J. W. Ochterski, R. L. Martin, K. Morokuma, O. Farkas, 
 J. B. Foresman, and D. J. Fox, Gaussian, Inc., Wallingford CT, 2016.
 
 ******************************************
 Gaussian 16:  ES64L-G16RevA.03 25-Dec-2016
                 8-Mar-2023 
 ******************************************
 %chk=30.chk
 %NProcShared=16
 Will use up to   16 processors via shared memory.
 %mem=20GB
 ----------------------------------------------------------------------
 #P M062X/Def2TZVP scf=(direct,conver=8) EmpiricalDispersion=GD3 NoSymm
  Force pop=(NBORead) Charge Prop=(Field,Read)
 ----------------------------------------------------------------------
 1/10=7,18=10,28=-2,30=1,38=1,125=101/1,3;
 2/12=2,15=1,17=6,18=5,29=2,40=1/2;
 3/5=44,7=101,11=2,25=1,30=1,71=1,74=-55,124=31/1,2,3;
 4//1;
 5/5=2,6=8,38=5/2;
 6/7=2,8=2,9=2,10=2,14=2,15=1,28=1,40=2/1,2,7;
 7/7=1,16=-2,29=1,30=1/1,2,3,16;
 1/10=7,18=10,28=-2,30=1/3;
 99/12=1/99;
 Leave Link    1 at Wed Mar  8 15:19:49 2023, MaxMem=  2684354560 cpu:               1.0 elap:               0.1
 (Enter /opt/gaussian/g16/l101.exe)
 ----------------------------------------------------------------------
 Gaussian run using SANDER external interface, route from template gau_
 job.tpl
 ----------------------------------------------------------------------
 Symbolic Z-matrix:
 Charge =  0 Multiplicity = 1
 C                     3.48233  -3.54072  -0.72455 
 H                     3.45843  -3.63189  -1.81898 
 H                     4.44069  -3.90816  -0.32999 
 C                     1.61835  -1.1414    1.06667 
 H                     0.88363  -1.97741   1.10271 
 O                     1.34953  -0.28668   2.11843 
 H                     0.40686   0.16386   2.08419 
 C                     3.09654  -1.6597    1.11364 
 H                     3.26416  -2.47757   1.84387 
 O                     3.89983  -0.55489   1.49163 
 H                     4.8475   -0.75073   1.51717 
 C                     1.66562  -0.42231  -0.31365 
 H                     2.27661   0.49855  -0.22362 
 C                     3.42185  -2.02958  -0.37848 
 H                     4.34245  -1.5201   -0.73012 
 O                     2.34033  -1.38175  -1.12912 
 N                     0.4207   -0.11469  -1.00249 
 C                    -0.4574   -1.11524  -1.23349 
 H                    -0.16121  -2.10286  -0.8818 
 C                    -1.63069  -0.86379  -1.88724 
 H                    -2.34289  -1.67733  -2.0336 
 C                    -1.91909   0.43408  -2.34515 
 H                    -2.85639   0.65088  -2.86175 
 H                    -2.81634   1.32238  -0.52415 
 C                    -0.93501   1.43448  -2.1641 
 C                     0.20918   1.13992  -1.45005 
 H                     0.98265   1.88661  -1.25464 
 C                    -1.15601   2.84986  -2.65534 
 O                    -0.76787   3.8109   -2.0703 
 N                    -1.9467    2.97617  -3.76464 
 H                    -1.93894   3.90771  -4.14871 
 H                    -1.96426   2.21283  -4.41945 
 C                     0.90815   2.12123   3.89756 
 C                    -0.88937   2.04136   1.6853 
 C                    -1.7663    2.6512    0.87654 
 C                    -3.93475   3.18436  -0.33222 
 C                    -3.04101   2.06635   0.27612 
 O                    -0.8404    0.75708   1.96173 
 S                     0.33535   3.08742   2.45248 
 H                     0.01481   1.75325   4.41945 
 H                     1.50645   1.28208   3.52056 
 H                    -4.8475    2.74045  -0.74726 
 H                    -3.37872   3.70189  -1.12219 
 H                    -4.1984    3.90816   0.44691 
 H                    -3.59232   1.51631   1.064 
 H                    -1.59226   3.71273   0.71164 
 H                     2.64339  -4.07106  -0.27399 
 H                     1.51201   2.7446    4.557 
 
 ITRead=  0  0  0  0  0  0  0  0  0  0  0  0  0  0  0  0  0  0  0  0
 ITRead=  0  0  0  0  0  0  0  0  0  0  0  0  0  0  0  0  0  0  0  0
 ITRead=  0  0  0  0  0  0  0  0
 MicOpt= -1 -1 -1 -1 -1 -1 -1 -1 -1 -1 -1 -1 -1 -1 -1 -1 -1 -1 -1 -1
 MicOpt= -1 -1 -1 -1 -1 -1 -1 -1 -1 -1 -1 -1 -1 -1 -1 -1 -1 -1 -1 -1
 MicOpt= -1 -1 -1 -1 -1 -1 -1 -1
 NAtoms=     48 NQM=       48 NQMF=       0 NMMI=      0 NMMIF=      0
                NMic=       0 NMicF=      0.
                    Isotopes and Nuclear Properties:
 (Nuclear quadrupole moments (NQMom) in fm**2, nuclear magnetic moments (NMagM)
  in nuclear magnetons)

  Atom         1           2           3           4           5           6           7           8           9          10
 IAtWgt=          12           1           1          12           1          16           1          12           1          16
 AtmWgt=  12.0000000   1.0078250   1.0078250  12.0000000   1.0078250  15.9949146   1.0078250  12.0000000   1.0078250  15.9949146
 NucSpn=           0           1           1           0           1           0           1           0           1           0
 AtZEff=  -0.0000000  -0.0000000  -0.0000000  -0.0000000  -0.0000000  -0.0000000  -0.0000000  -0.0000000  -0.0000000  -0.0000000
 NQMom=    0.0000000   0.0000000   0.0000000   0.0000000   0.0000000   0.0000000   0.0000000   0.0000000   0.0000000   0.0000000
 NMagM=    0.0000000   2.7928460   2.7928460   0.0000000   2.7928460   0.0000000   2.7928460   0.0000000   2.7928460   0.0000000
 AtZNuc=   6.0000000   1.0000000   1.0000000   6.0000000   1.0000000   8.0000000   1.0000000   6.0000000   1.0000000   8.0000000

  Atom        11          12          13          14          15          16          17          18          19          20
 IAtWgt=           1          12           1          12           1          16          14          12           1          12
 AtmWgt=   1.0078250  12.0000000   1.0078250  12.0000000   1.0078250  15.9949146  14.0030740  12.0000000   1.0078250  12.0000000
 NucSpn=           1           0           1           0           1           0           2           0           1           0
 AtZEff=  -0.0000000  -0.0000000  -0.0000000  -0.0000000  -0.0000000  -0.0000000  -0.0000000  -0.0000000  -0.0000000  -0.0000000
 NQMom=    0.0000000   0.0000000   0.0000000   0.0000000   0.0000000   0.0000000   2.0440000   0.0000000   0.0000000   0.0000000
 NMagM=    2.7928460   0.0000000   2.7928460   0.0000000   2.7928460   0.0000000   0.4037610   0.0000000   2.7928460   0.0000000
 AtZNuc=   1.0000000   6.0000000   1.0000000   6.0000000   1.0000000   8.0000000   7.0000000   6.0000000   1.0000000   6.0000000

  Atom        21          22          23          24          25          26          27          28          29          30
 IAtWgt=           1          12           1           1          12          12           1          12          16          14
 AtmWgt=   1.0078250  12.0000000   1.0078250   1.0078250  12.0000000  12.0000000   1.0078250  12.0000000  15.9949146  14.0030740
 NucSpn=           1           0           1           1           0           0           1           0           0           2
 AtZEff=  -0.0000000  -0.0000000  -0.0000000  -0.0000000  -0.0000000  -0.0000000  -0.0000000  -0.0000000  -0.0000000  -0.0000000
 NQMom=    0.0000000   0.0000000   0.0000000   0.0000000   0.0000000   0.0000000   0.0000000   0.0000000   0.0000000   2.0440000
 NMagM=    2.7928460   0.0000000   2.7928460   2.7928460   0.0000000   0.0000000   2.7928460   0.0000000   0.0000000   0.4037610
 AtZNuc=   1.0000000   6.0000000   1.0000000   1.0000000   6.0000000   6.0000000   1.0000000   6.0000000   8.0000000   7.0000000

  Atom        31          32          33          34          35          36          37          38          39          40
 IAtWgt=           1           1          12          12          12          12          12          16          32           1
 AtmWgt=   1.0078250   1.0078250  12.0000000  12.0000000  12.0000000  12.0000000  12.0000000  15.9949146  31.9720718   1.0078250
 NucSpn=           1           1           0           0           0           0           0           0           0           1
 AtZEff=  -0.0000000  -0.0000000  -0.0000000  -0.0000000  -0.0000000  -0.0000000  -0.0000000  -0.0000000  -0.0000000  -0.0000000
 NQMom=    0.0000000   0.0000000   0.0000000   0.0000000   0.0000000   0.0000000   0.0000000   0.0000000   0.0000000   0.0000000
 NMagM=    2.7928460   2.7928460   0.0000000   0.0000000   0.0000000   0.0000000   0.0000000   0.0000000   0.0000000   2.7928460
 AtZNuc=   1.0000000   1.0000000   6.0000000   6.0000000   6.0000000   6.0000000   6.0000000   8.0000000  16.0000000   1.0000000

  Atom        41          42          43          44          45          46          47          48
 IAtWgt=           1           1           1           1           1           1           1           1
 AtmWgt=   1.0078250   1.0078250   1.0078250   1.0078250   1.0078250   1.0078250   1.0078250   1.0078250
 NucSpn=           1           1           1           1           1           1           1           1
 AtZEff=  -0.0000000  -0.0000000  -0.0000000  -0.0000000  -0.0000000  -0.0000000  -0.0000000  -0.0000000
 NQMom=    0.0000000   0.0000000   0.0000000   0.0000000   0.0000000   0.0000000   0.0000000   0.0000000
 NMagM=    2.7928460   2.7928460   2.7928460   2.7928460   2.7928460   2.7928460   2.7928460   2.7928460
 AtZNuc=   1.0000000   1.0000000   1.0000000   1.0000000   1.0000000   1.0000000   1.0000000   1.0000000
 Background charge distribution read from input stream:
 Leave Link  101 at Wed Mar  8 15:19:49 2023, MaxMem=  2684354560 cpu:               3.9 elap:               0.2
 (Enter /opt/gaussian/g16/l103.exe)

 GradGradGradGradGradGradGradGradGradGradGradGradGradGradGradGradGradGrad
 Berny optimization.
 Initialization pass.
 Trust Radius=3.00D-01 FncErr=1.00D-07 GrdErr=1.00D-07 EigMax=2.50D+02 EigMin=1.00D-04
 Number of steps in this run=      2 maximum allowed number of steps=      2.
 GradGradGradGradGradGradGradGradGradGradGradGradGradGradGradGradGradGrad

 Leave Link  103 at Wed Mar  8 15:19:49 2023, MaxMem=  2684354560 cpu:               0.4 elap:               0.0
 (Enter /opt/gaussian/g16/l202.exe)
 ---------------------------------------------------------------------------------------------------
                            Z-MATRIX (ANGSTROMS AND DEGREES)
   CD    Cent   Atom    N1       Length/X        N2       Alpha/Y        N3        Beta/Z          J
 ---------------------------------------------------------------------------------------------------
      1      1  C        0   3.482335         -3.540720         -0.724550
      2      2  H        0   3.458432         -3.631894         -1.818978
      3      3  H        0   4.440686         -3.908157         -0.329994
      4      4  C        0   1.618348         -1.141405          1.066671
      5      5  H        0   0.883632         -1.977409          1.102713
      6      6  O        0   1.349531         -0.286679          2.118425
      7      7  H        0   0.406858          0.163862          2.084189
      8      8  C        0   3.096540         -1.659699          1.113639
      9      9  H        0   3.264163         -2.477572          1.843873
     10     10  O        0   3.899830         -0.554888          1.491634
     11     11  H        0   4.847501         -0.750731          1.517167
     12     12  C        0   1.665619         -0.422314         -0.313648
     13     13  H        0   2.276615          0.498550         -0.223615
     14     14  C        0   3.421852         -2.029579         -0.378481
     15     15  H        0   4.342452         -1.520100         -0.730115
     16     16  O        0   2.340327         -1.381750         -1.129116
     17     17  N        0   0.420703         -0.114690         -1.002487
     18     18  C        0  -0.457399         -1.115238         -1.233486
     19     19  H        0  -0.161208         -2.102859         -0.881799
     20     20  C        0  -1.630686         -0.863792         -1.887238
     21     21  H        0  -2.342889         -1.677325         -2.033601
     22     22  C        0  -1.919089          0.434082         -2.345151
     23     23  H        0  -2.856388          0.650875         -2.861750
     24     24  H        0  -2.816343          1.322377         -0.524151
     25     25  C        0  -0.935015          1.434481         -2.164098
     26     26  C        0   0.209184          1.139919         -1.450054
     27     27  H        0   0.982649          1.886610         -1.254641
     28     28  C        0  -1.156006          2.849859         -2.655344
     29     29  O        0  -0.767866          3.810901         -2.070296
     30     30  N        0  -1.946702          2.976170         -3.764644
     31     31  H        0  -1.938937          3.907709         -4.148711
     32     32  H        0  -1.964259          2.212825         -4.419447
     33     33  C        0   0.908153          2.121227          3.897565
     34     34  C        0  -0.889367          2.041356          1.685305
     35     35  C        0  -1.766296          2.651195          0.876538
     36     36  C        0  -3.934753          3.184361         -0.332224
     37     37  C        0  -3.041011          2.066351          0.276122
     38     38  O        0  -0.840398          0.757084          1.961733
     39     39  S        0   0.335353          3.087417          2.452483
     40     40  H        0   0.014808          1.753246          4.419447
     41     41  H        0   1.506448          1.282078          3.520561
     42     42  H        0  -4.847501          2.740454         -0.747259
     43     43  H        0  -3.378722          3.701893         -1.122189
     44     44  H        0  -4.198397          3.908157          0.446911
     45     45  H        0  -3.592318          1.516312          1.064000
     46     46  H        0  -1.592264          3.712727          0.711641
     47     47  H        0   2.643390         -4.071063         -0.273986
     48     48  H        0   1.512011          2.744601          4.557004
 ---------------------------------------------------------------------------------------------------
                         Z-Matrix orientation:                         
 ---------------------------------------------------------------------
 Center     Atomic      Atomic             Coordinates (Angstroms)
 Number     Number       Type             X           Y           Z
 ---------------------------------------------------------------------
      1          6           0        3.482335   -3.540720   -0.724550
      2          1           0        3.458432   -3.631894   -1.818978
      3          1           0        4.440686   -3.908157   -0.329994
      4          6           0        1.618348   -1.141405    1.066671
      5          1           0        0.883632   -1.977409    1.102713
      6          8           0        1.349531   -0.286679    2.118425
      7          1           0        0.406858    0.163862    2.084189
      8          6           0        3.096540   -1.659699    1.113639
      9          1           0        3.264163   -2.477572    1.843873
     10          8           0        3.899830   -0.554888    1.491634
     11          1           0        4.847501   -0.750731    1.517167
     12          6           0        1.665619   -0.422314   -0.313648
     13          1           0        2.276615    0.498550   -0.223615
     14          6           0        3.421852   -2.029579   -0.378481
     15          1           0        4.342452   -1.520100   -0.730115
     16          8           0        2.340327   -1.381750   -1.129116
     17          7           0        0.420703   -0.114690   -1.002487
     18          6           0       -0.457399   -1.115238   -1.233486
     19          1           0       -0.161208   -2.102859   -0.881799
     20          6           0       -1.630686   -0.863792   -1.887238
     21          1           0       -2.342889   -1.677325   -2.033601
     22          6           0       -1.919089    0.434082   -2.345151
     23          1           0       -2.856388    0.650875   -2.861750
     24          1           0       -2.816343    1.322377   -0.524151
     25          6           0       -0.935015    1.434481   -2.164098
     26          6           0        0.209184    1.139919   -1.450054
     27          1           0        0.982649    1.886610   -1.254641
     28          6           0       -1.156006    2.849859   -2.655344
     29          8           0       -0.767866    3.810901   -2.070296
     30          7           0       -1.946702    2.976170   -3.764644
     31          1           0       -1.938937    3.907709   -4.148711
     32          1           0       -1.964259    2.212825   -4.419447
     33          6           0        0.908153    2.121227    3.897565
     34          6           0       -0.889367    2.041356    1.685305
     35          6           0       -1.766296    2.651195    0.876538
     36          6           0       -3.934753    3.184361   -0.332224
     37          6           0       -3.041011    2.066351    0.276122
     38          8           0       -0.840398    0.757084    1.961733
     39         16           0        0.335353    3.087417    2.452483
     40          1           0        0.014808    1.753246    4.419447
     41          1           0        1.506448    1.282078    3.520561
     42          1           0       -4.847501    2.740454   -0.747259
     43          1           0       -3.378722    3.701893   -1.122189
     44          1           0       -4.198397    3.908157    0.446911
     45          1           0       -3.592318    1.516312    1.064000
     46          1           0       -1.592264    3.712727    0.711641
     47          1           0        2.643390   -4.071063   -0.273986
     48          1           0        1.512011    2.744601    4.557004
 ---------------------------------------------------------------------
                    Distance matrix (angstroms):
                    1          2          3          4          5
     1  C    0.000000
     2  H    1.098479   0.000000
     3  H    1.099601   1.805053   0.000000
     4  C    3.526987   4.232661   4.191799   0.000000
     5  H    3.540634   4.231217   4.293375   1.113557   0.000000
     6  O    4.818728   5.580419   5.353979   1.381668   2.026647
     7  H    5.574182   6.241361   6.219436   2.051042   2.403258
     8  C    2.658198   3.552571   2.991048   1.567127   2.235626
     9  H    2.788312   3.845345   2.855955   2.257896   2.542914
    10  O    3.741787   4.541250   3.854253   2.393691   3.357421
    11  H    3.830537   4.621739   3.680602   3.283748   4.169984
    12  C    3.632320   3.972606   4.455599   1.557114   2.244081
    13  H    4.245044   4.582842   4.910558   2.188060   3.135270
    14  C    1.551442   2.154945   2.137622   2.475872   2.939255
    15  H    2.196073   2.535111   2.423337   3.285208   3.941044
    16  O    2.475683   2.605613   3.381247   2.323897   2.730903
    17  N    4.603099   4.718600   5.568025   2.601905   2.848840
    18  C    4.654405   4.691492   5.710336   3.098408   2.828344
    19  H    3.920150   4.039560   4.974035   2.808514   2.246267
    20  C    5.887340   5.793632   6.968122   4.399871   4.062234
    21  H    6.254525   6.125498   7.341375   5.058685   4.509651
    22  C    6.899331   6.762156   7.960065   5.161021   5.055521
    23  H    7.894080   7.701068   8.968939   6.218362   6.050834
    24  H    7.960101   8.099023   8.947661   5.316711   5.217766
    25  C    6.807195   6.714882   7.797812   4.857233   5.061672
    26  C    5.757452   5.784801   6.681558   3.677510   4.085245
    27  H    5.998778   6.074691   6.811190   3.868007   4.527423
    28  C    8.129063   8.000354   9.077499   6.122142   6.448692
    29  O    8.597765   8.562707   9.473200   6.329290   6.804407
    30  N    9.010354   8.756005   9.999476   7.280495   7.499327
    31  H    9.828233   9.560590  10.787491   8.083813   8.377289
    32  H    8.741907   8.386225   9.757734   7.360939   7.494184
    33  C    7.749065   8.501835   8.167283   4.377569   4.960909
    34  C    7.488575   7.960473   8.238179   4.098940   4.430960
    35  C    8.273538   8.604697   9.110842   5.086824   5.338281
    36  C   10.019673  10.165184  10.975054   7.176775   7.205536
    37  C    8.659944   8.893942   9.593639   5.711768   5.695443
    38  O    6.661325   7.213657   7.409881   3.232774   3.344794
    39  S    7.995576   8.552669   8.575196   4.631359   5.270194
    40  H    8.155399   8.931754   8.613772   4.710781   5.066889
    41  H    6.721941   7.514522   7.097539   3.450706   4.105867
    42  H   10.432633  10.523494  11.430160   7.756699   7.650262
    43  H    9.984371  10.050703  10.939999   7.295160   7.441258
    44  H   10.763444  10.982425  11.676133   7.727658   7.803651
    45  H    8.878243   9.193947   9.792714   5.849317   5.678179
    46  H    8.968093   9.265907   9.775447   5.830666   6.217768
    47  H    1.090000   1.801156   1.805533   3.380971   3.061933
    48  H    8.442882   9.225042   8.758942   5.224440   5.884247
                    6          7          8          9         10
     6  O    0.000000
     7  H    1.045367   0.000000
     8  C    2.438610   3.391421   0.000000
     9  H    2.922534   3.898605   1.109170   0.000000
    10  O    2.639854   3.615049   1.417308   2.055446   0.000000
    11  H    3.579476   4.569169   2.013683   2.365518   0.968033
    12  C    2.456275   2.770867   2.369768   3.381468   2.875468
    13  H    2.638413   2.988974   2.668064   3.755937   2.585854
    14  C    3.683307   4.468346   1.571324   2.272536   2.429095
    15  H    4.311970   5.122981   2.229621   2.950402   2.462462
    16  O    3.567545   4.056174   2.383078   3.300449   3.159759
    17  N    3.260735   3.099250   3.745016   4.665860   4.303340
    18  C    3.897027   3.659235   4.293707   5.017581   5.169692
    19  H    3.818663   3.775952   3.845918   4.393503   4.951912
    20  C    5.025942   4.580381   5.655563   6.362784   6.488359
    21  H    5.727756   5.282734   6.284331   6.863981   7.256631
    22  C    5.579147   5.010199   6.442334   7.272671   7.039801
    23  H    6.585660   5.945441   7.521956   8.330139   8.127257
    24  H    5.189101   4.305184   6.821826   7.551139   7.259097
    25  C    5.149908   4.632821   6.047391   7.000078   6.379474
    26  C    4.008693   3.671871   4.769403   5.767937   5.014655
    27  H    4.029313   3.800945   4.759579   5.818263   4.691789
    28  C    6.237344   5.667477   7.254343   8.256051   7.372327
    29  O    6.230483   5.651603   7.416100   8.433438   7.316751
    30  N    7.491452   6.903417   8.409710   9.399569   8.618513
    31  H    8.227024   7.639908   9.167573  10.186027   9.263880
    32  H    7.744192   7.219261   8.439382   9.410920   8.774318
    33  C    3.026246   2.714941   5.180221   5.560341   4.679768
    34  C    3.258835   2.316094   5.469192   6.139843   5.451092
    35  C    4.458898   3.516795   6.502861   7.248828   6.539289
    36  C    6.780669   5.814813   8.659938   9.413676   8.870690
    37  C    5.311092   4.333171   7.228721   7.928449   7.518220
    38  O    2.431005   1.386562   4.696763   5.227266   4.940852
    39  S    3.539022   2.947528   5.652589   6.318025   5.186050
    40  H    3.352236   2.851890   5.663359   5.923826   5.384512
    41  H    2.109884   2.126658   4.120160   4.476138   3.635831
    42  H    7.468527   6.501093   9.269956   9.987035   9.611853
    43  H    6.983314   6.093368   8.699116   9.545221   8.827773
    44  H    7.153329   6.157011   9.201176   9.920627   9.305455
    45  H    5.365115   4.343191   7.404751   7.973120   7.784923
    46  H    5.160276   4.298234   7.142090   7.949002   6.998859
    47  H    4.660393   5.338319   2.818780   2.722113   4.130320
    48  H    3.893806   3.741175   5.810797   6.140213   5.097529
                   11         12         13         14         15
    11  H    0.000000
    12  C    3.685663   0.000000
    13  H    3.346712   1.108789   0.000000
    14  C    2.694699   2.381566   2.779745   0.000000
    15  H    2.428431   2.923014   2.932435   1.109377   0.000000
    16  O    3.699583   1.428543   2.087946   1.467253   2.046178
    17  N    5.133200   1.455661   2.104071   3.614288   4.174863
    18  C    5.986729   2.415254   3.331514   4.076229   4.843126
    19  H    5.715807   2.546434   3.625399   3.618981   4.543739
    20  C    7.319130   3.679228   4.459890   5.400328   6.119481
    21  H    8.072685   4.538880   5.417591   6.007974   6.813044
    22  C    7.880864   4.208391   4.702021   6.201860   6.755298
    23  H    8.971584   5.300294   5.773273   7.264142   7.815389
    24  H    8.197515   4.814171   5.167904   7.083212   7.705221
    25  C    7.194745   3.692581   3.867299   5.845548   6.215908
    26  C    5.821765   2.419338   2.487926   4.638450   4.967687
    27  H    5.438342   2.585159   2.159646   4.696158   4.813426
    28  C    8.149613   4.914492   4.819216   7.067517   7.282588
    29  O    8.075316   5.189198   4.863205   7.384252   7.505398
    30  N    9.378087   6.042180   6.042673   8.083625   8.305316
    31  H    9.992947   6.815398   6.693252   8.843307   8.977960
    32  H    9.509266   6.080918   6.207154   7.958492   8.204907
    33  C    5.425211   4.977717   4.635720   6.467800   6.816825
    34  C    6.382451   4.073504   4.005954   6.278402   6.774227
    35  C    7.464973   4.758261   4.710557   7.099408   7.569534
    36  C    9.799653   6.661278   6.768048   9.017037   9.529029
    37  C    8.467867   5.356646   5.566407   7.679436   8.269865
    38  O    5.901130   3.584475   3.815541   5.604361   6.268456
    39  S    5.997139   4.662542   4.199075   6.612448   6.885854
    40  H    6.168311   5.464470   5.314891   6.995558   7.480728
    41  H    4.394148   4.198982   3.902042   5.462451   5.827810
    42  H   10.550311   7.253404   7.486880   9.553607  10.129553
    43  H    9.719198   6.565684   6.561378   8.924723   9.329494
    44  H   10.231273   7.329264   7.348524   9.695678  10.188104
    45  H    8.750737   5.770796   6.094109   7.990787   8.683272
    46  H    7.876669   5.363170   5.116040   7.700896   8.042512
    47  H    4.369317   3.777694   4.584585   2.187368   3.098754
    48  H    5.708192   5.811729   5.337011   7.127362   7.358852
                   16         17         18         19         20
    16  O    0.000000
    17  N    2.303570   0.000000
    18  C    2.812330   1.351118   0.000000
    19  H    2.615118   2.075091   1.089408   0.000000
    20  C    4.075779   2.356297   1.366462   2.169230   0.000000
    21  H    4.778909   3.338033   2.123958   2.503489   1.091096
    22  C    4.787339   2.752911   2.402649   3.415789   1.406178
    23  H    5.842897   3.844772   3.394929   4.332119   2.178586
    24  H    5.854018   3.573853   3.465506   4.348551   2.836040
    25  C    4.441871   2.363735   2.755943   3.841334   2.417162
    26  C    3.317166   1.348740   2.361560   3.312961   2.755197
    27  H    3.541359   2.093936   3.329456   4.166928   3.846351
    28  C    5.697388   3.742525   4.269862   5.353924   3.821847
    29  O    6.124566   4.238298   5.006344   6.062435   4.757176
    30  N    6.657034   4.773629   5.036309   6.106990   4.286004
    31  H    7.443685   5.625507   5.993621   7.068237   5.289282
    32  H    6.502055   4.772943   4.847368   5.864391   3.998616
    33  C    6.292018   5.408090   6.218289   6.467516   6.987130
    34  C    5.483570   3.686331   4.320881   4.928971   4.663958
    35  C    6.095215   3.995475   4.511255   5.316868   4.473476
    36  C    7.801349   5.504815   5.602751   6.518925   4.910636
    37  C    6.543921   4.286635   4.367662   5.197727   3.905750
    38  O    4.923918   3.337209   3.723130   4.089774   4.250456
    39  S    6.068049   4.711431   5.645983   6.188940   6.189551
    40  H    6.784010   5.749026   6.356637   6.557724   7.023590
    41  H    5.423176   4.856724   5.674926   5.798246   6.609892
    42  H    8.294773   5.997580   5.863085   6.740707   4.963673
    43  H    7.651863   5.386675   5.634826   6.641185   4.948375
    44  H    8.556979   6.294452   6.484850   7.361839   5.900245
    45  H    6.957356   4.799465   4.693741   5.353228   4.268806
    46  H    6.693830   4.651816   5.327352   6.197420   5.263096
    47  H    2.838220   4.596079   4.390038   3.479803   5.581836
    48  H    7.074238   6.346214   7.232337   7.475166   8.026538
                   21         22         23         24         25
    21  H    0.000000
    22  C    2.175938   0.000000
    23  H    2.523891   1.091973   0.000000
    24  H    3.391284   2.215891   2.432466   0.000000
    25  C    3.417964   1.414914   2.189163   2.498277   0.000000
    26  C    3.845837   2.414321   3.410246   3.169290   1.380513
    27  H    4.936357   3.423322   4.341434   3.909516   2.170016
    28  C    4.721297   2.552351   2.787370   3.103531   1.514415
    29  O    5.709874   3.578235   3.869636   3.574853   2.384137
    30  N    4.980812   2.911690   2.655135   3.740602   2.441734
    31  H    5.985773   3.913989   3.620077   4.537755   3.326170
    32  H    4.579180   2.732888   2.379496   4.085619   2.598416
    33  C    7.757384   7.057709   7.875407   5.836231   6.372804
    34  C    5.456334   4.459622   5.145708   3.018585   3.897214
    35  C    5.247614   3.913849   4.377714   2.197791   3.378888
    36  C    5.391170   3.959649   3.738974   2.180520   3.926356
    37  C    4.453909   3.285435   3.447303   1.115532   3.284685
    38  O    4.913911   4.451646   5.228909   3.225451   4.182140
    39  S    7.071117   5.927899   6.660707   4.680694   5.065456
    40  H    7.679153   7.158208   7.904101   5.713162   6.659342
    41  H    7.377275   6.845435   7.756717   5.920122   6.188644
    42  H    5.238753   4.055639   3.577980   2.487233   4.361255
    43  H    5.553343   3.782163   3.550721   2.517145   3.492626
    44  H    6.386976   5.006002   4.833023   3.088575   4.856552
    45  H    4.621204   3.948826   4.086819   1.778193   4.181934
    46  H    6.095281   4.494475   4.872584   2.956235   3.727231
    47  H    5.804240   6.738120   7.696803   7.678571   6.832900
    48  H    8.823251   8.046781   8.860277   6.824624   7.271696
                   26         27         28         29         30
    26  C    0.000000
    27  H    1.092695   0.000000
    28  C    2.498072   2.731971   0.000000
    29  O    2.910923   2.726260   1.190183   0.000000
    30  N    3.657457   4.008536   1.368102   2.226487   0.000000
    31  H    4.422425   4.582156   1.990521   2.387590   1.007637
    32  H    3.833051   4.336667   2.042338   3.082809   1.005868
    33  C    5.481655   5.158083   6.908854   6.424904   8.221348
    34  C    3.442365   3.488793   4.423348   4.153383   5.629723
    35  C    3.405805   3.561350   3.589723   3.320484   4.656042
    36  C    4.754104   5.168739   3.637337   3.666418   3.972052
    37  C    3.794961   4.308757   3.572201   3.703555   4.284049
    38  O    3.590052   3.865798   5.079047   5.058490   6.240164
    39  S    4.363308   3.950152   5.326395   4.711268   6.623656
    40  H    5.904659   5.757585   7.254380   6.852977   8.504259
    41  H    5.139078   4.841734   6.905680   6.544092   8.238229
    42  H    5.350299   5.914148   4.156909   4.420374   4.192232
    43  H    4.420891   4.725924   2.831430   2.779813   3.091913
    44  H    5.539710   5.815941   4.472150   4.256094   4.865791
    45  H    4.573134   5.142328   4.641926   4.802757   5.306132
    46  H    3.812805   3.719025   3.503063   2.903178   4.550304
    47  H    5.870504   6.262077   8.246540   8.774323   9.105885
    48  H    6.352724   5.898440   7.690732   7.089142   9.014774
                   31         32         33         34         35
    31  H    0.000000
    32  H    1.716558   0.000000
    33  C    8.720091   8.799535   0.000000
    34  C    6.214548   6.201031   2.851587   0.000000
    35  C    5.182833   5.317783   4.069416   1.339781   0.000000
    36  C    4.367160   4.640272   6.517293   3.827697   2.539208
    37  C    4.917755   4.819670   5.358521   2.572157   1.525595
    38  O    6.962094   6.640912   2.943766   1.314597   2.371201
    39  S    7.030010   7.299078   1.830268   1.784025   2.662859
    40  H    9.048324   9.069397   1.098106   2.894145   4.065815
    41  H    8.808085   8.715265   1.097388   3.112009   4.424500
    42  H    4.625160   4.698557   7.421953   4.698184   3.484036
    43  H    3.357853   3.884577   6.787763   4.103205   2.774670
    44  H    5.121026   5.616668   6.416928   3.996028   2.771217
    45  H    5.968652   5.762282   5.352499   2.822699   2.158114
    46  H    4.876600   5.358745   4.351444   2.058049   1.088268
    47  H    9.983587   8.826241   7.665334   7.326722   8.121440
    48  H    9.436702   9.640742   1.090000   3.808914   4.929691
                   36         37         38         39         40
    36  C    0.000000
    37  C    1.555252   0.000000
    38  O    4.552906   3.065642   0.000000
    39  S    5.098804   4.144750   2.655876   0.000000
    40  H    6.342358   5.157829   2.786409   2.398272   0.000000
    41  H    6.933204   5.640998   2.865877   2.402396   1.804158
    42  H    1.096548   2.182918   5.227741   6.100878   7.163203
    43  H    1.095927   2.178146   4.962415   5.191359   6.784025
    44  H    1.095646   2.181962   4.847690   5.025019   6.178654
    45  H    2.202065   1.107806   2.992560   4.452286   4.932192
    46  H    2.618412   2.235866   3.296037   2.671563   4.491110
    47  H    9.793699   8.383489   6.359734   8.000281   7.928451
    48  H    7.332474   6.286174   4.027342   2.435376   1.800923
                   41         42         43         44         45
    41  H    0.000000
    42  H    7.791908   0.000000
    43  H    7.160693   1.795063   0.000000
    44  H    6.992058   1.791901   1.782270   0.000000
    45  H    5.664537   2.520847   3.098679   2.543433   0.000000
    46  H    4.837366   3.697333   2.560172   2.626824   2.991423
    47  H    6.659380  10.135788   9.869353  10.535544   8.478975
    48  H    1.792545   8.281221   7.555720   7.131303   6.305866
                   46         47         48
    46  H    0.000000
    47  H    8.916255   0.000000
    48  H    5.035932   8.430407   0.000000
 Symmetry turned off by external request.
 Stoichiometry    C16H24N2O5S
 Framework group  C1[X(C16H24N2O5S)]
 Deg. of freedom   138
 Full point group                 C1      NOp   1
 Rotational constants (GHZ):           0.2892779           0.1715550           0.1272946
 Leave Link  202 at Wed Mar  8 15:19:49 2023, MaxMem=  2684354560 cpu:               0.1 elap:               0.0
 (Enter /opt/gaussian/g16/l301.exe)
 Standard basis: def2TZVP (5D, 7F)
 Ernie: Thresh=  0.10000D-02 Tol=  0.10000D-05 Strict=F.
   894 basis functions,  1434 primitive gaussians,  1014 cartesian basis functions
    95 alpha electrons       95 beta electrons
       nuclear repulsion energy      2440.8031364302 Hartrees.
 IExCor= 4336 DFT=T Ex+Corr=M062X ExCW=0 ScaHFX=  0.540000
 ScaDFX=  1.000000  1.000000  1.000000  1.000000 ScalE2=  1.000000  1.000000
 IRadAn=      5 IRanWt=     -1 IRanGd=            0 ICorTp=0 IEmpDi=131
 NAtoms=   48 NActive=   48 NUniq=   48 SFac= 1.00D+00 NAtFMM=   60 NAOKFM=F Big=F
 Integral buffers will be    131072 words long.
 Raffenetti 2 integral format.
 Two-electron integral symmetry is turned off.
 R6Disp:  Grimme-D3 Dispersion energy=       -0.0041981483 Hartrees.
 Nuclear repulsion after empirical dispersion term =     2440.7989382819 Hartrees.
 Leave Link  301 at Wed Mar  8 15:19:49 2023, MaxMem=  2684354560 cpu:               0.9 elap:               0.1
 (Enter /opt/gaussian/g16/l302.exe)
 NPDir=0 NMtPBC=     1 NCelOv=     1 NCel=       1 NClECP=     1 NCelD=      1
         NCelK=      1 NCelE2=     1 NClLst=     1 CellRange=     0.0.
 One-electron integrals computed using PRISM.
   1 Symmetry operations used in ECPInt.
 ECPInt:  NShTT=   65703 NPrTT=  200010 LenC2=   56159 LenP2D=  118863.
 LDataN:  DoStor=T MaxTD1= 6 Len=  172
 NBasis=   894 RedAO= T EigKep=  2.34D-05  NBF=   894
 NBsUse=   894 1.00D-06 EigRej= -1.00D+00 NBFU=   894
 Precomputing XC quadrature grid using
 IXCGrd= 4 IRadAn=           5 IRanWt=          -1 IRanGd=           0 AccXCQ= 0.00D+00.
 Generated NRdTot=       0 NPtTot=           0 NUsed=           0 NTot=          32
 NSgBfM=  1001  1001  1001  1001  1001 MxSgAt=    48 MxSgA2=    48.
 Leave Link  302 at Wed Mar  8 15:19:52 2023, MaxMem=  2684354560 cpu:              38.5 elap:               2.4
 (Enter /opt/gaussian/g16/l303.exe)
 DipDrv:  MaxL=1.
 Leave Link  303 at Wed Mar  8 15:19:52 2023, MaxMem=  2684354560 cpu:               4.7 elap:               0.3
 (Enter /opt/gaussian/g16/l401.exe)
 ExpMin= 9.52D-02 ExpMax= 6.07D+04 ExpMxC= 2.07D+03 IAcc=3 IRadAn=         5 AccDes= 0.00D+00
 Harris functional with IExCor= 1009 and IRadAn=       5 diagonalized for initial guess.
 HarFok:  IExCor= 1009 AccDes= 0.00D+00 IRadAn=         5 IDoV= 1 UseB2=F ITyADJ=14
 ICtDFT=  3500011 ScaDFX=  1.000000  1.000000  1.000000  1.000000
 FoFCou: FMM=F IPFlag=           0 FMFlag=      100000 FMFlg1=           0
         NFxFlg=           0 DoJE=T BraDBF=F KetDBF=T FulRan=T
         wScrn=  0.000000 ICntrl=       500 IOpCl=  0 I1Cent=   200000004 NGrid=           0
         NMat0=    1 NMatS0=      1 NMatT0=    0 NMatD0=    1 NMtDS0=    0 NMtDT0=    0
 Symmetry not used in FoFCou.
 Harris En= -1507.21336564936    
 JPrj=0 DoOrth=F DoCkMO=F.
 Leave Link  401 at Wed Mar  8 15:20:01 2023, MaxMem=  2684354560 cpu:             137.4 elap:               8.7
 (Enter /opt/gaussian/g16/l502.exe)
 Two-electron integral symmetry not used.
 Closed shell SCF:
 Using DIIS extrapolation, IDIIS=  1040.
 NGot=  2684354560 LenX=  2682275214 LenY=  2681246004
 Requested convergence on RMS density matrix=1.00D-08 within 128 cycles.
 Requested convergence on MAX density matrix=1.00D-06.
 Requested convergence on             energy=1.00D-06.
 No special actions if energy rises.
 Fock matrices will be formed incrementally for  20 cycles.
 Integral accuracy reduced to 1.0D-05 until final iterations.

 Cycle   1  Pass 0  IDiag  1:
 FoFJK:  IHMeth= 1 ICntrl=       0 DoSepK=F KAlg= 0 I1Cent=           0 FoldK=F
 IRaf= 780000000 NMat=       1 IRICut=       1 DoRegI=T DoRafI=F ISym2E= 0 IDoP0=0 IntGTp=1.
 FoFCou: FMM=F IPFlag=           0 FMFlag=      100000 FMFlg1=           0
         NFxFlg=           0 DoJE=F BraDBF=F KetDBF=F FulRan=T
         wScrn=  0.000000 ICntrl=         0 IOpCl=  0 I1Cent=           0 NGrid=           0
         NMat0=    1 NMatS0=      1 NMatT0=    0 NMatD0=    1 NMtDS0=    0 NMtDT0=    0
 Symmetry not used in FoFCou.
 E= -1507.09848433769    
 DIIS: error= 1.49D-02 at cycle   1 NSaved=   1.
 NSaved= 1 IEnMin= 1 EnMin= -1507.09848433769     IErMin= 1 ErrMin= 1.49D-02
 ErrMax= 1.49D-02  0.00D+00 EMaxC= 1.00D-01 BMatC= 9.98D-01 BMatP= 9.98D-01
 IDIUse=3 WtCom= 8.51D-01 WtEn= 1.49D-01
 Coeff-Com:  0.100D+01
 Coeff-En:   0.100D+01
 Coeff:      0.100D+01
 Gap=     0.099 Goal=   None    Shift=    0.000
 GapD=    0.099 DampG=0.500 DampE=0.500 DampFc=0.2500 IDamp=-1.
 Damping current iteration by 2.50D-01
 RMSDP=4.26D-03 MaxDP=8.84D-01              OVMax= 8.42D-01

 Cycle   2  Pass 0  IDiag  1:
 RMSU=  1.07D-03    CP:  1.01D+00
 E= -1507.33519302088     Delta-E=       -0.236708683188 Rises=F Damp=T
 DIIS: error= 9.13D-03 at cycle   2 NSaved=   2.
 NSaved= 2 IEnMin= 2 EnMin= -1507.33519302088     IErMin= 2 ErrMin= 9.13D-03
 ErrMax= 9.13D-03  0.00D+00 EMaxC= 1.00D-01 BMatC= 3.02D-01 BMatP= 9.98D-01
 IDIUse=3 WtCom= 9.09D-01 WtEn= 9.13D-02
 Coeff-Com: -0.783D+00 0.178D+01
 Coeff-En:   0.000D+00 0.100D+01
 Coeff:     -0.712D+00 0.171D+01
 Gap=     0.123 Goal=   None    Shift=    0.000
 RMSDP=1.22D-03 MaxDP=5.08D-02 DE=-2.37D-01 OVMax= 7.61D-01

 Cycle   3  Pass 0  IDiag  1:
 RMSU=  1.22D-03    CP:  9.96D-01  1.11D+00
 E= -1507.66148836885     Delta-E=       -0.326295347975 Rises=F Damp=F
 DIIS: error= 1.05D-02 at cycle   3 NSaved=   3.
 NSaved= 3 IEnMin= 3 EnMin= -1507.66148836885     IErMin= 2 ErrMin= 9.13D-03
 ErrMax= 1.05D-02  0.00D+00 EMaxC= 1.00D-01 BMatC= 1.73D-01 BMatP= 3.02D-01
 IDIUse=3 WtCom= 8.95D-01 WtEn= 1.05D-01
 Coeff-Com: -0.558D+00 0.107D+01 0.490D+00
 Coeff-En:   0.000D+00 0.000D+00 0.100D+01
 Coeff:     -0.499D+00 0.956D+00 0.544D+00
 Gap=     0.090 Goal=   None    Shift=    0.000
 RMSDP=7.72D-04 MaxDP=4.10D-02 DE=-3.26D-01 OVMax= 2.20D-01

 Cycle   4  Pass 0  IDiag  1:
 RMSU=  6.53D-04    CP:  9.98D-01  1.33D+00  7.21D-01
 E= -1507.84249071181     Delta-E=       -0.181002342963 Rises=F Damp=F
 DIIS: error= 1.61D-03 at cycle   4 NSaved=   4.
 NSaved= 4 IEnMin= 4 EnMin= -1507.84249071181     IErMin= 4 ErrMin= 1.61D-03
 ErrMax= 1.61D-03  0.00D+00 EMaxC= 1.00D-01 BMatC= 8.05D-03 BMatP= 1.73D-01
 IDIUse=3 WtCom= 9.84D-01 WtEn= 1.61D-02
 Coeff-Com: -0.189D+00 0.297D+00 0.183D+00 0.709D+00
 Coeff-En:   0.000D+00 0.000D+00 0.000D+00 0.100D+01
 Coeff:     -0.186D+00 0.292D+00 0.180D+00 0.714D+00
 Gap=     0.106 Goal=   None    Shift=    0.000
 RMSDP=2.14D-04 MaxDP=2.20D-02 DE=-1.81D-01 OVMax= 2.01D-02

 Cycle   5  Pass 0  IDiag  1:
 RMSU=  1.93D-04    CP:  9.99D-01  1.41D+00  7.43D-01  1.01D+00
 E= -1507.84801825936     Delta-E=       -0.005527547544 Rises=F Damp=F
 DIIS: error= 8.43D-04 at cycle   5 NSaved=   5.
 NSaved= 5 IEnMin= 5 EnMin= -1507.84801825936     IErMin= 5 ErrMin= 8.43D-04
 ErrMax= 8.43D-04  0.00D+00 EMaxC= 1.00D-01 BMatC= 1.74D-03 BMatP= 8.05D-03
 IDIUse=3 WtCom= 9.92D-01 WtEn= 8.43D-03
 Coeff-Com: -0.610D-01 0.838D-01 0.210D-01 0.317D+00 0.640D+00
 Coeff-En:   0.000D+00 0.000D+00 0.000D+00 0.582D-01 0.942D+00
 Coeff:     -0.605D-01 0.831D-01 0.208D-01 0.314D+00 0.642D+00
 Gap=     0.111 Goal=   None    Shift=    0.000
 RMSDP=8.91D-05 MaxDP=8.62D-03 DE=-5.53D-03 OVMax= 9.46D-03

 Cycle   6  Pass 0  IDiag  1:
 RMSU=  7.19D-05    CP:  9.99D-01  1.43D+00  7.20D-01  1.07D+00  9.87D-01
 E= -1507.84961577703     Delta-E=       -0.001597517677 Rises=F Damp=F
 DIIS: error= 1.88D-04 at cycle   6 NSaved=   6.
 NSaved= 6 IEnMin= 6 EnMin= -1507.84961577703     IErMin= 6 ErrMin= 1.88D-04
 ErrMax= 1.88D-04  0.00D+00 EMaxC= 1.00D-01 BMatC= 1.38D-04 BMatP= 1.74D-03
 IDIUse=3 WtCom= 9.98D-01 WtEn= 1.88D-03
 Coeff-Com: -0.666D-02 0.716D-02-0.197D-01 0.240D-01 0.243D+00 0.753D+00
 Coeff-En:   0.000D+00 0.000D+00 0.000D+00 0.000D+00 0.000D+00 0.100D+01
 Coeff:     -0.665D-02 0.714D-02-0.197D-01 0.239D-01 0.242D+00 0.753D+00
 Gap=     0.113 Goal=   None    Shift=    0.000
 RMSDP=4.28D-05 MaxDP=4.28D-03 DE=-1.60D-03 OVMax= 3.16D-03

 Cycle   7  Pass 0  IDiag  1:
 RMSU=  2.96D-05    CP:  1.00D+00  1.44D+00  7.21D-01  1.09D+00  1.12D+00
                    CP:  1.03D+00
 E= -1507.84976961630     Delta-E=       -0.000153839268 Rises=F Damp=F
 DIIS: error= 7.65D-05 at cycle   7 NSaved=   7.
 NSaved= 7 IEnMin= 7 EnMin= -1507.84976961630     IErMin= 7 ErrMin= 7.65D-05
 ErrMax= 7.65D-05  0.00D+00 EMaxC= 1.00D-01 BMatC= 1.14D-05 BMatP= 1.38D-04
 IDIUse=1 WtCom= 1.00D+00 WtEn= 0.00D+00
 Coeff-Com:  0.128D-02-0.200D-02-0.941D-02-0.197D-01 0.300D-01 0.268D+00
 Coeff-Com:  0.732D+00
 Coeff:      0.128D-02-0.200D-02-0.941D-02-0.197D-01 0.300D-01 0.268D+00
 Coeff:      0.732D+00
 Gap=     0.113 Goal=   None    Shift=    0.000
 RMSDP=1.71D-05 MaxDP=1.84D-03 DE=-1.54D-04 OVMax= 1.56D-03

 Cycle   8  Pass 0  IDiag  1:
 RMSU=  1.36D-05    CP:  1.00D+00  1.44D+00  7.19D-01  1.10D+00  1.14D+00
                    CP:  1.11D+00  1.18D+00
 E= -1507.84978281396     Delta-E=       -0.000013197656 Rises=F Damp=F
 DIIS: error= 2.97D-05 at cycle   8 NSaved=   8.
 NSaved= 8 IEnMin= 8 EnMin= -1507.84978281396     IErMin= 8 ErrMin= 2.97D-05
 ErrMax= 2.97D-05  0.00D+00 EMaxC= 1.00D-01 BMatC= 2.97D-06 BMatP= 1.14D-05
 IDIUse=1 WtCom= 1.00D+00 WtEn= 0.00D+00
 Coeff-Com:  0.120D-02-0.160D-02-0.310D-02-0.122D-01-0.115D-01 0.401D-01
 Coeff-Com:  0.359D+00 0.629D+00
 Coeff:      0.120D-02-0.160D-02-0.310D-02-0.122D-01-0.115D-01 0.401D-01
 Coeff:      0.359D+00 0.629D+00
 Gap=     0.113 Goal=   None    Shift=    0.000
 RMSDP=1.64D-05 MaxDP=1.61D-03 DE=-1.32D-05 OVMax= 1.23D-03

 Cycle   9  Pass 0  IDiag  1:
 RMSU=  8.92D-06    CP:  9.99D-01  1.44D+00  7.20D-01  1.10D+00  1.16D+00
                    CP:  1.16D+00  1.45D+00  1.73D+00
 E= -1507.84978697273     Delta-E=       -0.000004158776 Rises=F Damp=F
 DIIS: error= 2.24D-05 at cycle   9 NSaved=   9.
 NSaved= 9 IEnMin= 9 EnMin= -1507.84978697273     IErMin= 9 ErrMin= 2.24D-05
 ErrMax= 2.24D-05  0.00D+00 EMaxC= 1.00D-01 BMatC= 7.30D-07 BMatP= 2.97D-06
 IDIUse=1 WtCom= 1.00D+00 WtEn= 0.00D+00
 Coeff-Com:  0.351D-03-0.441D-03-0.962D-03-0.420D-02-0.936D-02-0.135D-01
 Coeff-Com:  0.974D-01 0.314D+00 0.617D+00
 Coeff:      0.351D-03-0.441D-03-0.962D-03-0.420D-02-0.936D-02-0.135D-01
 Coeff:      0.974D-01 0.314D+00 0.617D+00
 Gap=     0.113 Goal=   None    Shift=    0.000
 RMSDP=2.35D-05 MaxDP=2.66D-03 DE=-4.16D-06 OVMax= 5.53D-04

 Cycle  10  Pass 0  IDiag  1:
 RMSU=  6.33D-06    CP:  9.99D-01  1.43D+00  7.20D-01  1.11D+00  1.17D+00
                    CP:  1.21D+00  1.72D+00  2.98D+00  2.28D+00
 E= -1507.84979056983     Delta-E=       -0.000003597097 Rises=F Damp=F
 DIIS: error= 3.68D-05 at cycle  10 NSaved=  10.
 NSaved=10 IEnMin=10 EnMin= -1507.84979056983     IErMin= 9 ErrMin= 2.24D-05
 ErrMax= 3.68D-05  0.00D+00 EMaxC= 1.00D-01 BMatC= 7.72D-07 BMatP= 7.30D-07
 IDIUse=1 WtCom= 1.00D+00 WtEn= 0.00D+00
 Coeff-Com:  0.401D-03-0.491D-03-0.974D-03-0.476D-02-0.113D-01-0.180D-01
 Coeff-Com:  0.111D+00 0.379D+00 0.770D+00-0.224D+00
 Coeff:      0.401D-03-0.491D-03-0.974D-03-0.476D-02-0.113D-01-0.180D-01
 Coeff:      0.111D+00 0.379D+00 0.770D+00-0.224D+00
 Gap=     0.113 Goal=   None    Shift=    0.000
 RMSDP=1.15D-05 MaxDP=1.23D-03 DE=-3.60D-06 OVMax= 9.29D-05

 Cycle  11  Pass 0  IDiag  1:
 RMSU=  1.36D-06    CP:  9.99D-01  1.44D+00  7.20D-01  1.11D+00  1.16D+00
                    CP:  1.18D+00  1.60D+00  2.38D+00  1.63D+00  4.53D-01
 E= -1507.84978140536     Delta-E=        0.000009164471 Rises=F Damp=F
 DIIS: error= 2.87D-05 at cycle  11 NSaved=  11.
 NSaved=11 IEnMin=10 EnMin= -1507.84979056983     IErMin= 9 ErrMin= 2.24D-05
 ErrMax= 2.87D-05  0.00D+00 EMaxC= 1.00D-01 BMatC= 5.79D-07 BMatP= 7.30D-07
 IDIUse=1 WtCom= 1.00D+00 WtEn= 0.00D+00
 Coeff-Com:  0.232D-04-0.218D-04-0.367D-03-0.100D-02-0.717D-02-0.304D-01
 Coeff-Com: -0.641D-02 0.150D+00 0.754D+00-0.224D+01 0.238D+01
 Coeff:      0.232D-04-0.218D-04-0.367D-03-0.100D-02-0.717D-02-0.304D-01
 Coeff:     -0.641D-02 0.150D+00 0.754D+00-0.224D+01 0.238D+01
 Gap=     0.113 Goal=   None    Shift=    0.000
 RMSDP=2.93D-05 MaxDP=3.44D-03 DE= 9.16D-06 OVMax= 2.72D-04

 Cycle  12  Pass 0  IDiag  1:
 RMSU=  1.47D-05    CP:  9.99D-01  1.43D+00  7.18D-01  1.10D+00  1.15D+00
                    CP:  1.11D+00  1.25D+00  1.41D+00  1.42D-01 -9.30D-01
                    CP:  3.00D+00
 E= -1507.84975517991     Delta-E=        0.000026225448 Rises=F Damp=F
 DIIS: error= 1.49D-05 at cycle  12 NSaved=  12.
 NSaved=12 IEnMin=10 EnMin= -1507.84979056983     IErMin=12 ErrMin= 1.49D-05
 ErrMax= 1.49D-05  0.00D+00 EMaxC= 1.00D-01 BMatC= 1.93D-07 BMatP= 5.79D-07
 IDIUse=1 WtCom= 1.00D+00 WtEn= 0.00D+00
 Coeff-Com:  0.289D-04-0.383D-04-0.415D-03-0.824D-03-0.430D-02-0.175D-01
 Coeff-Com: -0.629D-02 0.738D-01 0.438D+00-0.146D+01 0.148D+01 0.494D+00
 Coeff:      0.289D-04-0.383D-04-0.415D-03-0.824D-03-0.430D-02-0.175D-01
 Coeff:     -0.629D-02 0.738D-01 0.438D+00-0.146D+01 0.148D+01 0.494D+00
 Gap=     0.113 Goal=   None    Shift=    0.000
 RMSDP=8.52D-06 MaxDP=9.31D-04 DE= 2.62D-05 OVMax= 1.67D-04

 Initial convergence to 1.0D-05 achieved.  Increase integral accuracy.
 Cycle  13  Pass 1  IDiag  1:
 E= -1507.84963022962     Delta-E=        0.000124950292 Rises=F Damp=F
 DIIS: error= 2.92D-04 at cycle   1 NSaved=   1.
 NSaved= 1 IEnMin= 1 EnMin= -1507.84963022962     IErMin= 1 ErrMin= 2.92D-04
 ErrMax= 2.92D-04  0.00D+00 EMaxC= 1.00D-01 BMatC= 8.21D-05 BMatP= 8.21D-05
 IDIUse=3 WtCom= 9.97D-01 WtEn= 2.92D-03
 Coeff-Com:  0.100D+01
 Coeff-En:   0.100D+01
 Coeff:      0.100D+01
 Gap=     0.113 Goal=   None    Shift=    0.000
 RMSDP=8.52D-06 MaxDP=9.31D-04 DE= 1.25D-04 OVMax= 7.52D-04

 Cycle  14  Pass 1  IDiag  1:
 RMSU=  4.68D-04    CP:  9.94D-01
 E= -1507.84968294850     Delta-E=       -0.000052718878 Rises=F Damp=F
 DIIS: error= 6.41D-06 at cycle   2 NSaved=   2.
 NSaved= 2 IEnMin= 2 EnMin= -1507.84968294850     IErMin= 2 ErrMin= 6.41D-06
 ErrMax= 6.41D-06  0.00D+00 EMaxC= 1.00D-01 BMatC= 7.57D-08 BMatP= 8.21D-05
 IDIUse=1 WtCom= 1.00D+00 WtEn= 0.00D+00
 Coeff-Com: -0.165D-01 0.102D+01
 Coeff:     -0.165D-01 0.102D+01
 Gap=     0.113 Goal=   None    Shift=    0.000
 RMSDP=1.71D-05 MaxDP=1.06D-03 DE=-5.27D-05 OVMax= 3.59D-04

 Cycle  15  Pass 1  IDiag  1:
 RMSU=  5.78D-06    CP:  9.93D-01  1.03D+00
 E= -1507.84968299659     Delta-E=       -0.000000048094 Rises=F Damp=F
 DIIS: error= 5.51D-06 at cycle   3 NSaved=   3.
 NSaved= 3 IEnMin= 3 EnMin= -1507.84968299659     IErMin= 3 ErrMin= 5.51D-06
 ErrMax= 5.51D-06  0.00D+00 EMaxC= 1.00D-01 BMatC= 7.74D-08 BMatP= 7.57D-08
 IDIUse=1 WtCom= 1.00D+00 WtEn= 0.00D+00
 Coeff-Com: -0.970D-02 0.563D+00 0.446D+00
 Coeff:     -0.970D-02 0.563D+00 0.446D+00
 Gap=     0.113 Goal=   None    Shift=    0.000
 RMSDP=6.01D-07 MaxDP=7.81D-05 DE=-4.81D-08 OVMax= 1.37D-04

 Cycle  16  Pass 1  IDiag  1:
 RMSU=  5.20D-07    CP:  9.93D-01  1.03D+00  1.03D+00
 E= -1507.84968306565     Delta-E=       -0.000000069059 Rises=F Damp=F
 DIIS: error= 1.35D-06 at cycle   4 NSaved=   4.
 NSaved= 4 IEnMin= 4 EnMin= -1507.84968306565     IErMin= 4 ErrMin= 1.35D-06
 ErrMax= 1.35D-06  0.00D+00 EMaxC= 1.00D-01 BMatC= 1.97D-09 BMatP= 7.57D-08
 IDIUse=1 WtCom= 1.00D+00 WtEn= 0.00D+00
 Coeff-Com: -0.849D-04-0.610D-02 0.113D+00 0.893D+00
 Coeff:     -0.849D-04-0.610D-02 0.113D+00 0.893D+00
 Gap=     0.113 Goal=   None    Shift=    0.000
 RMSDP=4.05D-07 MaxDP=2.49D-05 DE=-6.91D-08 OVMax= 8.83D-05

 Cycle  17  Pass 1  IDiag  1:
 RMSU=  2.05D-07    CP:  9.93D-01  1.04D+00  1.07D+00  9.61D-01
 E= -1507.84968306974     Delta-E=       -0.000000004091 Rises=F Damp=F
 DIIS: error= 5.99D-07 at cycle   5 NSaved=   5.
 NSaved= 5 IEnMin= 5 EnMin= -1507.84968306974     IErMin= 5 ErrMin= 5.99D-07
 ErrMax= 5.99D-07  0.00D+00 EMaxC= 1.00D-01 BMatC= 5.96D-10 BMatP= 1.97D-09
 IDIUse=1 WtCom= 1.00D+00 WtEn= 0.00D+00
 Coeff-Com:  0.553D-03-0.370D-01 0.242D-02 0.408D+00 0.626D+00
 Coeff:      0.553D-03-0.370D-01 0.242D-02 0.408D+00 0.626D+00
 Gap=     0.113 Goal=   None    Shift=    0.000
 RMSDP=7.99D-08 MaxDP=7.50D-06 DE=-4.09D-09 OVMax= 2.24D-05

 Cycle  18  Pass 1  IDiag  1:
 RMSU=  4.67D-08    CP:  9.93D-01  1.04D+00  1.08D+00  1.02D+00  1.19D+00
 E= -1507.84968307069     Delta-E=       -0.000000000946 Rises=F Damp=F
 DIIS: error= 2.51D-07 at cycle   6 NSaved=   6.
 NSaved= 6 IEnMin= 6 EnMin= -1507.84968307069     IErMin= 6 ErrMin= 2.51D-07
 ErrMax= 2.51D-07  0.00D+00 EMaxC= 1.00D-01 BMatC= 1.10D-10 BMatP= 5.96D-10
 IDIUse=1 WtCom= 1.00D+00 WtEn= 0.00D+00
 Coeff-Com:  0.203D-03-0.113D-01-0.371D-01-0.669D-03 0.182D+00 0.867D+00
 Coeff:      0.203D-03-0.113D-01-0.371D-01-0.669D-03 0.182D+00 0.867D+00
 Gap=     0.113 Goal=   None    Shift=    0.000
 RMSDP=6.18D-08 MaxDP=4.24D-06 DE=-9.46D-10 OVMax= 2.49D-05

 Cycle  19  Pass 1  IDiag  1:
 RMSU=  3.56D-08    CP:  9.93D-01  1.04D+00  1.08D+00  1.06D+00  1.37D+00
                    CP:  1.44D+00
 E= -1507.84968307101     Delta-E=       -0.000000000319 Rises=F Damp=F
 DIIS: error= 1.60D-07 at cycle   7 NSaved=   7.
 NSaved= 7 IEnMin= 7 EnMin= -1507.84968307101     IErMin= 7 ErrMin= 1.60D-07
 ErrMax= 1.60D-07  0.00D+00 EMaxC= 1.00D-01 BMatC= 4.56D-11 BMatP= 1.10D-10
 IDIUse=1 WtCom= 1.00D+00 WtEn= 0.00D+00
 Coeff-Com: -0.771D-04 0.642D-02-0.291D-01-0.126D+00-0.124D+00 0.534D+00
 Coeff-Com:  0.738D+00
 Coeff:     -0.771D-04 0.642D-02-0.291D-01-0.126D+00-0.124D+00 0.534D+00
 Coeff:      0.738D+00
 Gap=     0.113 Goal=   None    Shift=    0.000
 RMSDP=3.81D-08 MaxDP=2.52D-06 DE=-3.19D-10 OVMax= 1.57D-05

 Cycle  20  Pass 1  IDiag  1:
 RMSU=  1.33D-08    CP:  9.93D-01  1.04D+00  1.08D+00  1.08D+00  1.48D+00
                    CP:  1.88D+00  1.35D+00
 E= -1507.84968307111     Delta-E=       -0.000000000098 Rises=F Damp=F
 DIIS: error= 3.92D-08 at cycle   8 NSaved=   8.
 NSaved= 8 IEnMin= 8 EnMin= -1507.84968307111     IErMin= 8 ErrMin= 3.92D-08
 ErrMax= 3.92D-08  0.00D+00 EMaxC= 1.00D-01 BMatC= 3.63D-12 BMatP= 4.56D-11
 IDIUse=1 WtCom= 1.00D+00 WtEn= 0.00D+00
 Coeff-Com: -0.597D-04 0.424D-02-0.885D-02-0.502D-01-0.815D-01 0.111D+00
 Coeff-Com:  0.298D+00 0.727D+00
 Coeff:     -0.597D-04 0.424D-02-0.885D-02-0.502D-01-0.815D-01 0.111D+00
 Coeff:      0.298D+00 0.727D+00
 Gap=     0.113 Goal=   None    Shift=    0.000
 RMSDP=1.20D-08 MaxDP=1.06D-06 DE=-9.82D-11 OVMax= 4.76D-06

 Cycle  21  Pass 1  IDiag  1:
 RMSU=  3.99D-09    CP:  9.93D-01  1.04D+00  1.08D+00  1.09D+00  1.50D+00
                    CP:  2.01D+00  1.54D+00  1.18D+00
 E= -1507.84968307112     Delta-E=       -0.000000000012 Rises=F Damp=F
 DIIS: error= 1.81D-08 at cycle   9 NSaved=   9.
 NSaved= 9 IEnMin= 9 EnMin= -1507.84968307112     IErMin= 9 ErrMin= 1.81D-08
 ErrMax= 1.81D-08  0.00D+00 EMaxC= 1.00D-01 BMatC= 3.70D-13 BMatP= 3.63D-12
 IDIUse=1 WtCom= 1.00D+00 WtEn= 0.00D+00
 Coeff-Com: -0.419D-05 0.114D-03 0.219D-02 0.855D-02-0.272D-02-0.661D-01
 Coeff-Com: -0.488D-01 0.214D+00 0.892D+00
 Coeff:     -0.419D-05 0.114D-03 0.219D-02 0.855D-02-0.272D-02-0.661D-01
 Coeff:     -0.488D-01 0.214D+00 0.892D+00
 Gap=     0.113 Goal=   None    Shift=    0.000
 RMSDP=5.36D-09 MaxDP=4.81D-07 DE=-1.23D-11 OVMax= 2.03D-06

 SCF Done:  E(RM062X) =  -1507.84968307     A.U. after   21 cycles
            NFock= 21  Conv=0.54D-08     -V/T= 2.0042
 KE= 1.501500671750D+03 PE=-8.420167108451D+03 EE= 2.970017815348D+03
 Leave Link  502 at Wed Mar  8 15:42:14 2023, MaxMem=  2684354560 cpu:           21225.9 elap:            1332.9
 (Enter /opt/gaussian/g16/l601.exe)
 Copying SCF densities to generalized density rwf, IOpCl= 0 IROHF=0.

 **********************************************************************

            Population analysis using the SCF density.

 **********************************************************************

 Alpha  occ. eigenvalues --  -89.84698 -19.65512 -19.62889 -19.62363 -19.56496
 Alpha  occ. eigenvalues --  -19.54136 -14.88365 -14.79284 -10.67721 -10.65570
 Alpha  occ. eigenvalues --  -10.65185 -10.64620 -10.62096 -10.61567 -10.61331
 Alpha  occ. eigenvalues --  -10.60883 -10.60377 -10.60244 -10.56578 -10.55320
 Alpha  occ. eigenvalues --  -10.51550 -10.51239 -10.50694 -10.47595  -8.20584
 Alpha  occ. eigenvalues --   -6.12548  -6.12340  -6.12069  -1.20823  -1.20534
 Alpha  occ. eigenvalues --   -1.15874  -1.14441  -1.10131  -1.05936  -1.04556
 Alpha  occ. eigenvalues --   -0.98009  -0.93776  -0.88702  -0.86105  -0.85231
 Alpha  occ. eigenvalues --   -0.82692  -0.81368  -0.80969  -0.77241  -0.76583
 Alpha  occ. eigenvalues --   -0.72450  -0.69574  -0.69154  -0.68568  -0.66642
 Alpha  occ. eigenvalues --   -0.64917  -0.64304  -0.62997  -0.62102  -0.60992
 Alpha  occ. eigenvalues --   -0.59409  -0.58005  -0.57339  -0.55899  -0.55639
 Alpha  occ. eigenvalues --   -0.54509  -0.54183  -0.52796  -0.51717  -0.50877
 Alpha  occ. eigenvalues --   -0.49944  -0.49435  -0.49271  -0.48752  -0.48369
 Alpha  occ. eigenvalues --   -0.48274  -0.47014  -0.46881  -0.45718  -0.45026
 Alpha  occ. eigenvalues --   -0.44139  -0.43485  -0.42307  -0.41606  -0.41328
 Alpha  occ. eigenvalues --   -0.40182  -0.38851  -0.38291  -0.38050  -0.37416
 Alpha  occ. eigenvalues --   -0.36944  -0.36521  -0.35791  -0.35365  -0.35092
 Alpha  occ. eigenvalues --   -0.32519  -0.31171  -0.27218  -0.25724  -0.19385
 Alpha virt. eigenvalues --   -0.08096  -0.04774   0.03338   0.04062   0.04672
 Alpha virt. eigenvalues --    0.05403   0.06663   0.07077   0.08264   0.08716
 Alpha virt. eigenvalues --    0.09275   0.09674   0.10265   0.10698   0.11202
 Alpha virt. eigenvalues --    0.11388   0.12036   0.12571   0.13051   0.13501
 Alpha virt. eigenvalues --    0.14111   0.14437   0.14863   0.15136   0.15394
 Alpha virt. eigenvalues --    0.15676   0.15896   0.16507   0.17003   0.17811
 Alpha virt. eigenvalues --    0.18022   0.18209   0.18811   0.19076   0.19368
 Alpha virt. eigenvalues --    0.20120   0.20500   0.20814   0.21353   0.21824
 Alpha virt. eigenvalues --    0.22559   0.22713   0.23535   0.23628   0.23909
 Alpha virt. eigenvalues --    0.24335   0.25222   0.25563   0.25636   0.26026
 Alpha virt. eigenvalues --    0.27227   0.27561   0.27744   0.28398   0.28908
 Alpha virt. eigenvalues --    0.29335   0.29531   0.30090   0.30743   0.30770
 Alpha virt. eigenvalues --    0.31236   0.31625   0.31983   0.32728   0.33458
 Alpha virt. eigenvalues --    0.33629   0.34037   0.34435   0.34924   0.35110
 Alpha virt. eigenvalues --    0.35902   0.36591   0.37218   0.37808   0.38065
 Alpha virt. eigenvalues --    0.38598   0.39010   0.39175   0.39687   0.40301
 Alpha virt. eigenvalues --    0.40668   0.40963   0.41143   0.41748   0.41913
 Alpha virt. eigenvalues --    0.42131   0.42481   0.43167   0.43302   0.43514
 Alpha virt. eigenvalues --    0.43908   0.44762   0.45115   0.45240   0.45443
 Alpha virt. eigenvalues --    0.45988   0.46509   0.46896   0.47017   0.47312
 Alpha virt. eigenvalues --    0.47478   0.47954   0.48276   0.48806   0.49012
 Alpha virt. eigenvalues --    0.49308   0.49739   0.50150   0.50596   0.50851
 Alpha virt. eigenvalues --    0.51250   0.51788   0.52236   0.52512   0.52670
 Alpha virt. eigenvalues --    0.52752   0.52794   0.53738   0.54069   0.54662
 Alpha virt. eigenvalues --    0.54882   0.55284   0.55611   0.56182   0.56716
 Alpha virt. eigenvalues --    0.56831   0.57646   0.58002   0.58157   0.58900
 Alpha virt. eigenvalues --    0.59250   0.59882   0.60091   0.60912   0.61644
 Alpha virt. eigenvalues --    0.61830   0.62492   0.63338   0.64320   0.64501
 Alpha virt. eigenvalues --    0.65128   0.65973   0.66656   0.66702   0.67251
 Alpha virt. eigenvalues --    0.67626   0.68395   0.68674   0.69558   0.70367
 Alpha virt. eigenvalues --    0.70791   0.71660   0.72171   0.72518   0.73805
 Alpha virt. eigenvalues --    0.74152   0.74727   0.75459   0.75499   0.76307
 Alpha virt. eigenvalues --    0.77277   0.77738   0.79502   0.80019   0.80936
 Alpha virt. eigenvalues --    0.81221   0.81887   0.82793   0.83835   0.84288
 Alpha virt. eigenvalues --    0.84804   0.85257   0.86336   0.86990   0.87899
 Alpha virt. eigenvalues --    0.88257   0.88610   0.89464   0.90232   0.90718
 Alpha virt. eigenvalues --    0.91332   0.91936   0.92789   0.93062   0.93465
 Alpha virt. eigenvalues --    0.93696   0.94084   0.95094   0.95280   0.96135
 Alpha virt. eigenvalues --    0.96379   0.97384   0.97936   0.99148   0.99737
 Alpha virt. eigenvalues --    1.00647   1.00779   1.01680   1.02397   1.03363
 Alpha virt. eigenvalues --    1.03703   1.04842   1.05268   1.05423   1.06250
 Alpha virt. eigenvalues --    1.06691   1.08282   1.09135   1.09276   1.09886
 Alpha virt. eigenvalues --    1.10436   1.11046   1.11791   1.12621   1.13458
 Alpha virt. eigenvalues --    1.13720   1.13901   1.15093   1.15408   1.15800
 Alpha virt. eigenvalues --    1.16246   1.17009   1.17047   1.18294   1.19584
 Alpha virt. eigenvalues --    1.19753   1.21050   1.21453   1.21762   1.22655
 Alpha virt. eigenvalues --    1.23359   1.23771   1.24370   1.25119   1.25890
 Alpha virt. eigenvalues --    1.27147   1.27615   1.28204   1.28886   1.29494
 Alpha virt. eigenvalues --    1.31386   1.32289   1.32477   1.33351   1.33971
 Alpha virt. eigenvalues --    1.34431   1.35923   1.37423   1.37650   1.38805
 Alpha virt. eigenvalues --    1.39264   1.40438   1.41841   1.43102   1.43396
 Alpha virt. eigenvalues --    1.45256   1.46082   1.46311   1.48101   1.48743
 Alpha virt. eigenvalues --    1.49997   1.50512   1.51174   1.51856   1.52793
 Alpha virt. eigenvalues --    1.53570   1.54230   1.55481   1.55710   1.56316
 Alpha virt. eigenvalues --    1.56490   1.56779   1.57699   1.58001   1.58621
 Alpha virt. eigenvalues --    1.58937   1.59992   1.60567   1.60817   1.61104
 Alpha virt. eigenvalues --    1.61792   1.61964   1.62907   1.63164   1.63598
 Alpha virt. eigenvalues --    1.63758   1.64568   1.65100   1.66107   1.66330
 Alpha virt. eigenvalues --    1.66939   1.67129   1.67656   1.68112   1.68798
 Alpha virt. eigenvalues --    1.69442   1.70078   1.70871   1.71096   1.71795
 Alpha virt. eigenvalues --    1.72749   1.73076   1.73578   1.73791   1.74272
 Alpha virt. eigenvalues --    1.74480   1.75030   1.75863   1.76204   1.76630
 Alpha virt. eigenvalues --    1.76979   1.78547   1.79556   1.80038   1.80736
 Alpha virt. eigenvalues --    1.81336   1.82173   1.82863   1.83088   1.84620
 Alpha virt. eigenvalues --    1.85243   1.86179   1.86352   1.86568   1.87842
 Alpha virt. eigenvalues --    1.89027   1.89556   1.90287   1.90614   1.90871
 Alpha virt. eigenvalues --    1.92048   1.92324   1.92754   1.93460   1.93742
 Alpha virt. eigenvalues --    1.95091   1.95287   1.96305   1.97008   1.98057
 Alpha virt. eigenvalues --    1.98669   1.98901   1.99245   2.00064   2.00458
 Alpha virt. eigenvalues --    2.01389   2.01901   2.02631   2.03426   2.03972
 Alpha virt. eigenvalues --    2.04957   2.07008   2.07156   2.08393   2.08482
 Alpha virt. eigenvalues --    2.08960   2.09856   2.10237   2.10965   2.11916
 Alpha virt. eigenvalues --    2.12444   2.13950   2.14452   2.14973   2.15305
 Alpha virt. eigenvalues --    2.15552   2.15811   2.17834   2.18131   2.18668
 Alpha virt. eigenvalues --    2.19343   2.19502   2.20136   2.20458   2.21490
 Alpha virt. eigenvalues --    2.22295   2.23520   2.24622   2.25139   2.25239
 Alpha virt. eigenvalues --    2.25822   2.26636   2.27337   2.28297   2.28579
 Alpha virt. eigenvalues --    2.29459   2.29807   2.31643   2.32300   2.32791
 Alpha virt. eigenvalues --    2.33421   2.33569   2.33843   2.34825   2.35217
 Alpha virt. eigenvalues --    2.35849   2.37506   2.38035   2.38679   2.38949
 Alpha virt. eigenvalues --    2.39844   2.40441   2.41374   2.41646   2.42909
 Alpha virt. eigenvalues --    2.43995   2.44721   2.45747   2.46087   2.46831
 Alpha virt. eigenvalues --    2.47179   2.47993   2.48722   2.49886   2.50357
 Alpha virt. eigenvalues --    2.50573   2.51835   2.53515   2.54210   2.54895
 Alpha virt. eigenvalues --    2.55321   2.56142   2.56770   2.57025   2.57713
 Alpha virt. eigenvalues --    2.58357   2.58889   2.59374   2.60502   2.60786
 Alpha virt. eigenvalues --    2.61260   2.61361   2.62569   2.63074   2.63444
 Alpha virt. eigenvalues --    2.63925   2.65207   2.65787   2.66135   2.66498
 Alpha virt. eigenvalues --    2.67481   2.67978   2.68766   2.69513   2.70056
 Alpha virt. eigenvalues --    2.70809   2.71152   2.71825   2.72066   2.73176
 Alpha virt. eigenvalues --    2.73538   2.74525   2.75279   2.75944   2.76428
 Alpha virt. eigenvalues --    2.77032   2.77235   2.78730   2.79094   2.79414
 Alpha virt. eigenvalues --    2.80620   2.81289   2.81828   2.82580   2.82785
 Alpha virt. eigenvalues --    2.83747   2.84613   2.85053   2.85999   2.86948
 Alpha virt. eigenvalues --    2.88134   2.88586   2.89331   2.90266   2.92136
 Alpha virt. eigenvalues --    2.92254   2.92604   2.94167   2.94993   2.95350
 Alpha virt. eigenvalues --    2.96194   2.98202   2.98419   2.99442   2.99890
 Alpha virt. eigenvalues --    3.00717   3.01270   3.01787   3.02584   3.02776
 Alpha virt. eigenvalues --    3.03248   3.04387   3.04844   3.05297   3.05619
 Alpha virt. eigenvalues --    3.06585   3.07117   3.08556   3.08722   3.09368
 Alpha virt. eigenvalues --    3.09720   3.10145   3.10758   3.11618   3.12310
 Alpha virt. eigenvalues --    3.12574   3.13850   3.13967   3.14595   3.15668
 Alpha virt. eigenvalues --    3.16309   3.16845   3.17128   3.17311   3.18138
 Alpha virt. eigenvalues --    3.18677   3.19276   3.19336   3.20189   3.20487
 Alpha virt. eigenvalues --    3.21136   3.22471   3.22657   3.23186   3.24025
 Alpha virt. eigenvalues --    3.24355   3.25810   3.26175   3.26742   3.27238
 Alpha virt. eigenvalues --    3.27669   3.28044   3.28914   3.29265   3.30060
 Alpha virt. eigenvalues --    3.30404   3.30899   3.31884   3.32532   3.32871
 Alpha virt. eigenvalues --    3.33712   3.33874   3.35236   3.35894   3.36118
 Alpha virt. eigenvalues --    3.36592   3.36967   3.38142   3.38243   3.39675
 Alpha virt. eigenvalues --    3.39921   3.40296   3.40655   3.41560   3.41968
 Alpha virt. eigenvalues --    3.42408   3.42770   3.43318   3.43547   3.45005
 Alpha virt. eigenvalues --    3.45423   3.45936   3.46278   3.47005   3.47590
 Alpha virt. eigenvalues --    3.48195   3.48719   3.49110   3.50227   3.51193
 Alpha virt. eigenvalues --    3.51660   3.51860   3.53016   3.53739   3.54425
 Alpha virt. eigenvalues --    3.55872   3.56290   3.57294   3.57956   3.58201
 Alpha virt. eigenvalues --    3.58698   3.59847   3.60956   3.62743   3.63472
 Alpha virt. eigenvalues --    3.64215   3.66234   3.66546   3.68103   3.68740
 Alpha virt. eigenvalues --    3.69070   3.70159   3.70346   3.71354   3.72088
 Alpha virt. eigenvalues --    3.73012   3.73752   3.74686   3.75912   3.77138
 Alpha virt. eigenvalues --    3.77989   3.78413   3.79361   3.81686   3.81948
 Alpha virt. eigenvalues --    3.83191   3.84029   3.84679   3.84987   3.86674
 Alpha virt. eigenvalues --    3.88346   3.88994   3.90075   3.91125   3.91524
 Alpha virt. eigenvalues --    3.93336   3.93432   3.94223   3.94950   3.96127
 Alpha virt. eigenvalues --    3.97778   3.99406   4.00633   4.02515   4.03658
 Alpha virt. eigenvalues --    4.05643   4.05879   4.08379   4.08961   4.09437
 Alpha virt. eigenvalues --    4.10955   4.11681   4.13253   4.14026   4.14725
 Alpha virt. eigenvalues --    4.17614   4.18910   4.20220   4.21254   4.22861
 Alpha virt. eigenvalues --    4.23089   4.24215   4.26792   4.27808   4.28326
 Alpha virt. eigenvalues --    4.29540   4.31188   4.32154   4.33932   4.35574
 Alpha virt. eigenvalues --    4.36422   4.36829   4.38628   4.39741   4.41316
 Alpha virt. eigenvalues --    4.44027   4.44599   4.45085   4.45670   4.46884
 Alpha virt. eigenvalues --    4.48159   4.49477   4.50746   4.51883   4.54637
 Alpha virt. eigenvalues --    4.58690   4.59054   4.60902   4.62277   4.65802
 Alpha virt. eigenvalues --    4.69441   4.70758   4.71847   4.72143   4.74374
 Alpha virt. eigenvalues --    4.75685   4.75944   4.77465   4.78903   4.79588
 Alpha virt. eigenvalues --    4.80762   4.86620   4.87102   4.87365   4.89070
 Alpha virt. eigenvalues --    4.91173   4.92642   4.94612   4.95180   4.97204
 Alpha virt. eigenvalues --    4.98412   4.99610   5.02468   5.03903   5.04925
 Alpha virt. eigenvalues --    5.06887   5.09053   5.11903   5.14715   5.18006
 Alpha virt. eigenvalues --    5.19448   5.22050   5.25537   5.27750   5.28097
 Alpha virt. eigenvalues --    5.29298   5.31630   5.32388   5.34028   5.35500
 Alpha virt. eigenvalues --    5.36642   5.39131   5.39631   5.43412   5.44110
 Alpha virt. eigenvalues --    5.44287   5.50897   5.53280   5.55104   5.61326
 Alpha virt. eigenvalues --    5.66584   5.67166   5.70279   5.72532   5.76143
 Alpha virt. eigenvalues --    5.78544   5.80594   5.83177   5.83918   5.85786
 Alpha virt. eigenvalues --    5.86981   5.88010   5.89999   5.95001   5.96788
 Alpha virt. eigenvalues --    5.98310   5.99752   6.02597   6.15202   6.15583
 Alpha virt. eigenvalues --    6.20811   6.21114   6.28378   6.30341   6.40609
 Alpha virt. eigenvalues --    6.44339   6.51126   6.52849   6.56570   6.57280
 Alpha virt. eigenvalues --    6.61646   6.67652   6.72535   6.74418   6.77154
 Alpha virt. eigenvalues --    6.78938   6.82844   6.84642   6.85769   6.89099
 Alpha virt. eigenvalues --    6.92322   6.92733   6.99255   7.07973   7.10439
 Alpha virt. eigenvalues --    7.13710   7.16702   7.18807   7.22295   7.29678
 Alpha virt. eigenvalues --    7.33930   7.48500   9.07363   9.41201   9.58783
 Alpha virt. eigenvalues --   19.81636  22.32254  22.38434  22.44585  22.50971
 Alpha virt. eigenvalues --   22.55638  22.58815  22.62577  22.67603  22.75292
 Alpha virt. eigenvalues --   22.80002  22.85468  22.90649  22.99552  23.15699
 Alpha virt. eigenvalues --   23.19181  23.47851  32.11734  33.12785  44.14241
 Alpha virt. eigenvalues --   44.24568  44.28500  44.40637  44.50348
          Condensed to atoms (all electrons):
               1          2          3          4          5          6
     1  C    5.107201   0.416964   0.409856  -0.009351   0.001489  -0.000222
     2  H    0.416964   0.516258  -0.020449  -0.001186   0.000212  -0.000004
     3  H    0.409856  -0.020449   0.531411   0.001506  -0.000085   0.000000
     4  C   -0.009351  -0.001186   0.001506   5.384933   0.485292   0.314232
     5  H    0.001489   0.000212  -0.000085   0.485292   0.574676  -0.042815
     6  O   -0.000222  -0.000004   0.000000   0.314232  -0.042815   8.227084
     7  H   -0.000042  -0.000001   0.000002  -0.030974  -0.010073   0.245399
     8  C   -0.000007   0.011898  -0.007705  -0.048035  -0.072113  -0.051291
     9  H    0.013767  -0.000005  -0.001391  -0.095554   0.002365   0.004241
    10  O    0.009234  -0.000428   0.000161  -0.048772   0.001278  -0.007932
    11  H   -0.000948  -0.000093   0.000334   0.015112  -0.000608  -0.000396
    12  C   -0.003772   0.000590   0.000020  -0.052950  -0.092737  -0.058856
    13  H    0.000659   0.000018   0.000067  -0.081411   0.005729   0.008974
    14  C    0.168238  -0.048488  -0.037585   0.107167   0.009862   0.006330
    15  H   -0.058317  -0.005831  -0.003258  -0.007504  -0.000137   0.000042
    16  O   -0.028156   0.001283   0.004804  -0.052869   0.000382   0.007076
    17  N   -0.000306  -0.000084  -0.000031   0.018015  -0.008847  -0.001392
    18  C   -0.001599   0.000102   0.000028  -0.004409  -0.001089   0.003211
    19  H   -0.000310  -0.000064   0.000052  -0.009694   0.000217   0.000553
    20  C    0.000102  -0.000025  -0.000000   0.003790   0.007235  -0.000847
    21  H    0.000006  -0.000000  -0.000000  -0.000030   0.000139  -0.000009
    22  C   -0.000015   0.000003  -0.000000   0.001600  -0.000771   0.000122
    23  H    0.000000   0.000000  -0.000000   0.000020  -0.000004   0.000000
    24  H    0.000000  -0.000000   0.000000   0.000039  -0.000073  -0.000023
    25  C   -0.000073  -0.000008   0.000001  -0.009843  -0.000069  -0.000652
    26  C   -0.000462   0.000072  -0.000006   0.008472  -0.001333  -0.005475
    27  H   -0.000017   0.000001  -0.000000   0.000280  -0.000158   0.000028
    28  C   -0.000000   0.000000  -0.000000   0.000001   0.000011  -0.000031
    29  O   -0.000000  -0.000000  -0.000000   0.000013  -0.000000  -0.000000
    30  N   -0.000000  -0.000000   0.000000   0.000001  -0.000000   0.000000
    31  H   -0.000000   0.000000  -0.000000  -0.000000   0.000000  -0.000000
    32  H    0.000000  -0.000000  -0.000000   0.000000   0.000000   0.000000
    33  C    0.000002  -0.000000  -0.000000   0.000977  -0.000587  -0.022709
    34  C    0.000001  -0.000000   0.000000  -0.000616   0.000183   0.017344
    35  C   -0.000000   0.000000  -0.000000  -0.000997   0.000605   0.002873
    36  C   -0.000000   0.000000   0.000000   0.000003   0.000001   0.000003
    37  C   -0.000000  -0.000000   0.000000   0.000324   0.000015   0.000098
    38  O   -0.000000   0.000000   0.000000   0.018916   0.000220  -0.116893
    39  S   -0.000000  -0.000000  -0.000000  -0.001315   0.000000   0.001542
    40  H   -0.000000   0.000000  -0.000000   0.000113   0.000051   0.000124
    41  H   -0.000006   0.000000  -0.000000   0.000611   0.000592   0.010307
    42  H   -0.000000   0.000000   0.000000   0.000000  -0.000000  -0.000000
    43  H    0.000000   0.000000  -0.000000   0.000000   0.000000  -0.000000
    44  H    0.000000  -0.000000  -0.000000   0.000000  -0.000000  -0.000000
    45  H    0.000000  -0.000000  -0.000000  -0.000040   0.000012   0.000040
    46  H    0.000000  -0.000000  -0.000000  -0.000028  -0.000001   0.000041
    47  H    0.383731  -0.025016  -0.022832   0.001656  -0.000109   0.000002
    48  H    0.000000   0.000000  -0.000000  -0.000078   0.000004   0.000337
               7          8          9         10         11         12
     1  C   -0.000042  -0.000007   0.013767   0.009234  -0.000948  -0.003772
     2  H   -0.000001   0.011898  -0.000005  -0.000428  -0.000093   0.000590
     3  H    0.000002  -0.007705  -0.001391   0.000161   0.000334   0.000020
     4  C   -0.030974  -0.048035  -0.095554  -0.048772   0.015112  -0.052950
     5  H   -0.010073  -0.072113   0.002365   0.001278  -0.000608  -0.092737
     6  O    0.245399  -0.051291   0.004241  -0.007932  -0.000396  -0.058856
     7  H    0.297020   0.006053  -0.000061  -0.000561   0.000105   0.014143
     8  C    0.006053   5.389702   0.497691   0.298473  -0.039387   0.014466
     9  H   -0.000061   0.497691   0.572619  -0.057803  -0.006705   0.012535
    10  O   -0.000561   0.298473  -0.057803   8.015432   0.291734  -0.015513
    11  H    0.000105  -0.039387  -0.006705   0.291734   0.427897  -0.004333
    12  C    0.014143   0.014466   0.012535  -0.015513  -0.004333   5.678534
    13  H   -0.000383   0.018004   0.002612   0.016880  -0.001034   0.427998
    14  C   -0.000605   0.095683  -0.109548  -0.064382   0.001973  -0.075431
    15  H    0.000054  -0.025194   0.007980  -0.002944   0.002385  -0.001896
    16  O   -0.000273  -0.045886   0.004367   0.009001   0.000097   0.205852
    17  N    0.000563  -0.002070  -0.000544  -0.000193  -0.000016   0.184989
    18  C   -0.001724  -0.002894  -0.000205  -0.000262   0.000010  -0.091408
    19  H   -0.000075   0.000571   0.000059   0.000000   0.000000   0.010306
    20  C   -0.000086  -0.001274   0.000044   0.000015  -0.000001   0.013734
    21  H    0.000004  -0.000009   0.000000   0.000000  -0.000000   0.000375
    22  C   -0.000179   0.000012  -0.000007  -0.000004   0.000000  -0.010470
    23  H   -0.000004   0.000000  -0.000000  -0.000000   0.000000   0.000044
    24  H   -0.000080   0.000012  -0.000000   0.000000   0.000000   0.000834
    25  C    0.001069  -0.000040   0.000007  -0.000034  -0.000001  -0.008396
    26  C   -0.000085  -0.003381  -0.000106  -0.000575  -0.000058  -0.064430
    27  H    0.000140  -0.000086  -0.000014  -0.000179   0.000007  -0.003041
    28  C    0.000067  -0.000002   0.000000   0.000000  -0.000000  -0.000334
    29  O    0.000006   0.000000   0.000000  -0.000000   0.000000   0.000391
    30  N    0.000000   0.000000  -0.000000  -0.000000  -0.000000   0.000005
    31  H   -0.000000  -0.000000   0.000000  -0.000000  -0.000000  -0.000004
    32  H   -0.000000  -0.000000  -0.000000   0.000000  -0.000000  -0.000010
    33  C    0.000143   0.001001   0.000031  -0.000846   0.000064  -0.000399
    34  C   -0.015351   0.000044  -0.000024   0.000051   0.000000  -0.003012
    35  C    0.002415  -0.000330  -0.000002   0.000005  -0.000001  -0.000497
    36  C   -0.000019   0.000000  -0.000000   0.000000  -0.000000  -0.000003
    37  C   -0.000493   0.000014  -0.000000   0.000000   0.000000  -0.000886
    38  O    0.110609  -0.000660  -0.000001  -0.000004  -0.000000   0.006152
    39  S    0.000543   0.000238  -0.000001   0.000001  -0.000003   0.000307
    40  H   -0.000250  -0.000060   0.000000   0.000017  -0.000001   0.000041
    41  H   -0.012003  -0.001356  -0.000015   0.002621  -0.000188  -0.000128
    42  H   -0.000001   0.000000  -0.000000  -0.000000   0.000000  -0.000000
    43  H    0.000001   0.000000   0.000000   0.000000   0.000000   0.000002
    44  H    0.000000   0.000000  -0.000000  -0.000000   0.000000   0.000001
    45  H    0.000029  -0.000001   0.000000  -0.000000  -0.000000  -0.000069
    46  H   -0.000180  -0.000001  -0.000000   0.000000   0.000000   0.000183
    47  H    0.000009  -0.010993   0.000298   0.000196   0.000099  -0.001375
    48  H    0.000959  -0.000031   0.000003   0.000001  -0.000003   0.000014
              13         14         15         16         17         18
     1  C    0.000659   0.168238  -0.058317  -0.028156  -0.000306  -0.001599
     2  H    0.000018  -0.048488  -0.005831   0.001283  -0.000084   0.000102
     3  H    0.000067  -0.037585  -0.003258   0.004804  -0.000031   0.000028
     4  C   -0.081411   0.107167  -0.007504  -0.052869   0.018015  -0.004409
     5  H    0.005729   0.009862  -0.000137   0.000382  -0.008847  -0.001089
[...]
      8        6           0.014797788    0.000624969   -0.005609421
      9        1          -0.007628121    0.003113389   -0.010969975
     10        8          -0.001886602    0.007884398    0.002214106
     11        1          -0.009946270   -0.006523734   -0.001944457
     12        6           0.030950496   -0.023414836    0.002017888
     13        1          -0.011617607   -0.005775680    0.002098688
     14        6          -0.018543726    0.001832248   -0.001115026
     15        1          -0.005707776   -0.006692741    0.009824018
     16        8           0.000729174   -0.003588535   -0.002364452
     17        7           0.003536748    0.005502448    0.005228046
     18        6          -0.002672524   -0.003416694    0.000267580
     19        1          -0.001754664    0.007245229   -0.001655595
     20        6          -0.008710771   -0.001630852   -0.003427612
     21        1           0.005185956    0.005469973    0.001142046
     22        6           0.017503822    0.004606103    0.000873811
     23        1           0.006399244   -0.000340375    0.003989698
     24        1          -0.004282441    0.004906228    0.009246383
     25        6          -0.015442911   -0.006601331   -0.004618210
     26        6          -0.003427568    0.003593013    0.002450550
     27        1          -0.006830124   -0.004902386    0.000653140
     28        6          -0.014412952   -0.012464476   -0.003518830
     29        8           0.018121575    0.015813546    0.014957425
     30        7           0.003548535   -0.009139714   -0.003390578
     31        1          -0.002676729    0.000655699   -0.001694205
     32        1          -0.002171102    0.000485314   -0.002799653
     33        6          -0.008992298   -0.012513440   -0.012073121
     34        6           0.014582143   -0.053510916    0.020885774
     35        6          -0.024840141    0.015020842   -0.025004478
     36        6           0.008455441   -0.013548416    0.006396350
     37        6           0.009041586    0.005789918    0.005693874
     38        8          -0.010670066    0.027125512   -0.009239700
     39       16           0.013042518    0.012557494    0.005687898
     40        1           0.007464080    0.001109273   -0.000763159
     41        1          -0.003285202    0.005162495    0.007603869
     42        1           0.002324666    0.004568742    0.000447676
     43        1          -0.003675242    0.000120536    0.001863837
     44        1          -0.000067520   -0.001801281   -0.004071581
     45        1           0.004460685    0.002687819   -0.008027906
     46        1          -0.004114725   -0.001469170    0.000438425
     47        1           0.001239172   -0.001222378   -0.000976433
     48        1          -0.003398015    0.003987237   -0.004753319
 -------------------------------------------------------------------
 Cartesian Forces:  Max     0.053510916 RMS     0.010355498
 Leave Link  716 at Wed Mar  8 15:47:08 2023, MaxMem=  2684354560 cpu:               0.5 elap:               0.0
 (Enter /opt/gaussian/g16/l103.exe)

 GradGradGradGradGradGradGradGradGradGradGradGradGradGradGradGradGradGrad
 Berny optimization.
 Search for a local minimum.
 Step number   1 out of a maximum of    2
 All quantities printed in internal units (Hartrees-Bohrs-Radians)
 Second derivative matrix not updated -- first step.
 ITU=  0
     Eigenvalues ---    0.00028   0.00058   0.00072   0.00100   0.00134
     Eigenvalues ---    0.00161   0.00173   0.00218   0.00244   0.00448
     Eigenvalues ---    0.00520   0.00587   0.00786   0.00860   0.00963
     Eigenvalues ---    0.01020   0.01141   0.01203   0.01253   0.01415
     Eigenvalues ---    0.01558   0.01917   0.02126   0.02247   0.02558
     Eigenvalues ---    0.02777   0.02994   0.03149   0.03676   0.03771
     Eigenvalues ---    0.03925   0.04431   0.04764   0.04852   0.04996
     Eigenvalues ---    0.05055   0.05160   0.05410   0.05545   0.05702
     Eigenvalues ---    0.05800   0.06081   0.06395   0.06780   0.06914
     Eigenvalues ---    0.07108   0.07481   0.07576   0.07723   0.08156
     Eigenvalues ---    0.08405   0.08535   0.08728   0.08804   0.10074
     Eigenvalues ---    0.10726   0.10898   0.11083   0.11453   0.11873
     Eigenvalues ---    0.12582   0.13005   0.13089   0.13280   0.13595
     Eigenvalues ---    0.13633   0.14008   0.14976   0.15187   0.15674
     Eigenvalues ---    0.16717   0.17580   0.17852   0.18176   0.18735
     Eigenvalues ---    0.20306   0.20428   0.20612   0.21232   0.22265
     Eigenvalues ---    0.25503   0.25575   0.26114   0.27866   0.28709
     Eigenvalues ---    0.32514   0.32801   0.33280   0.33441   0.36340
     Eigenvalues ---    0.36769   0.36769   0.36769   0.36769   0.39979
     Eigenvalues ---    0.42724   0.46829   0.47362   0.53229   0.56163
     Eigenvalues ---    0.58825   0.59154   0.66310   0.70160   0.72072
     Eigenvalues ---    0.77295   0.77360   0.79637   0.81327   0.84980
     Eigenvalues ---    0.87866   0.88925   0.90316   0.91052   0.92311
     Eigenvalues ---    0.92925   0.93386   0.95671   0.96088   0.99401
     Eigenvalues ---    1.01400   1.03490   1.04979   1.05086   1.10488
     Eigenvalues ---    1.13669   1.22692   1.25639   1.26255   1.29232
     Eigenvalues ---    1.31211   1.32069   1.42495   1.50899   1.72081
     Eigenvalues ---    1.74954   1.78435   2.50087
 Quadratic step=5.633D+00 exceeds max=3.000D-01 adjusted using Lamda=-8.286D-02.
 Angle between NR and scaled steps=  73.49 degrees.
 Angle between quadratic step and forces=  48.80 degrees.
 Linear search not attempted -- first point.
 Variable       Old X    -DE/DX   Delta X   Delta X   Delta X     New X
                                 (Linear)    (Quad)   (Total)
    X1        6.58066   0.00294   0.00000  -0.01531  -0.01531   6.56535
    Y1       -6.69099   0.02726   0.00000   0.06032   0.06032  -6.63067
    Z1       -1.36920   0.00162   0.00000   0.01324   0.01324  -1.35596
    X2        6.53549   0.00074   0.00000   0.00119   0.00119   6.53668
    Y2       -6.86329  -0.00345   0.00000   0.00161   0.00161  -6.86168
    Z2       -3.43737   0.00678   0.00000   0.03015   0.03015  -3.40722
    X3        8.39168  -0.00719   0.00000  -0.03853  -0.03853   8.35315
    Y3       -7.38535  -0.00311   0.00000   0.00924   0.00924  -7.37610
    Z3       -0.62360  -0.00341   0.00000  -0.00358  -0.00358  -0.62717
    X4        3.05823  -0.00490   0.00000   0.02973   0.02973   3.08796
    Y4       -2.15694   0.02110   0.00000   0.02711   0.02711  -2.12984
    Z4        2.01572   0.02025   0.00000   0.01564   0.01564   2.03136
    X5        1.66982   0.01029   0.00000   0.07025   0.07025   1.74007
    Y5       -3.73676   0.00164   0.00000   0.00529   0.00529  -3.73147
    Z5        2.08383  -0.01185   0.00000  -0.06879  -0.06879   2.01503
    X6        2.55024   0.01770   0.00000   0.04809   0.04809   2.59833
    Y6       -0.54175  -0.01279   0.00000  -0.01406  -0.01406  -0.55581
    Z6        4.00324  -0.00512   0.00000   0.01393   0.01393   4.01717
    X7        0.76885  -0.00421   0.00000   0.02182   0.02182   0.79067
    Y7        0.30965  -0.00195   0.00000  -0.03701  -0.03701   0.27264
    Z7        3.93855  -0.00423   0.00000  -0.02273  -0.02273   3.91582
    X8        5.85161   0.01480   0.00000   0.00908   0.00908   5.86070
    Y8       -3.13638   0.00062   0.00000   0.02833   0.02833  -3.10805
    Z8        2.10447  -0.00561   0.00000  -0.01996  -0.01996   2.08451
    X9        6.16837  -0.00763   0.00000  -0.04101  -0.04101   6.12737
    Y9       -4.68193   0.00311   0.00000   0.00708   0.00708  -4.67485
    Z9        3.48442  -0.01097   0.00000  -0.06212  -0.06212   3.42229
   X10        7.36961  -0.00189   0.00000  -0.02190  -0.02190   7.34772
   Y10       -1.04859   0.00788   0.00000   0.03429   0.03429  -1.01430
   Z10        2.81878   0.00221   0.00000   0.00369   0.00369   2.82246
   X11        9.16045  -0.00995   0.00000  -0.04623  -0.04623   9.11422
   Y11       -1.41868  -0.00652   0.00000  -0.03606  -0.03606  -1.45473
   Z11        2.86703  -0.00194   0.00000  -0.00765  -0.00765   2.85938
   X12        3.14756   0.03095   0.00000   0.04031   0.04031   3.18787
   Y12       -0.79806  -0.02341   0.00000  -0.04296  -0.04296  -0.84102
   Z12       -0.59271   0.00202   0.00000  -0.00236  -0.00236  -0.59507
   X13        4.30218  -0.01162   0.00000  -0.03421  -0.03421   4.26797
   Y13        0.94212  -0.00578   0.00000  -0.02343  -0.02343   0.91869
   Z13       -0.42257   0.00210   0.00000   0.01066   0.01066  -0.41191
   X14        6.46636  -0.01854   0.00000  -0.04889  -0.04889   6.41748
   Y14       -3.83535   0.00183   0.00000   0.01701   0.01701  -3.81834
   Z14       -0.71522  -0.00112   0.00000  -0.00092  -0.00092  -0.71615
   X15        8.20604  -0.00571   0.00000  -0.02810  -0.02810   8.17794
   Y15       -2.87257  -0.00669   0.00000  -0.02418  -0.02418  -2.89676
   Z15       -1.37972   0.00982   0.00000   0.05599   0.05599  -1.32372
   X16        4.42258   0.00073   0.00000  -0.00898  -0.00898   4.41360
   Y16       -2.61113  -0.00359   0.00000  -0.02221  -0.02221  -2.63334
   Z16       -2.13372  -0.00236   0.00000  -0.03201  -0.03201  -2.16573
   X17        0.79501   0.00354   0.00000   0.00800   0.00800   0.80301
   Y17       -0.21673   0.00550   0.00000  -0.00084  -0.00084  -0.21758
   Z17       -1.89443   0.00523   0.00000   0.02407   0.02407  -1.87035
   X18       -0.86436  -0.00267   0.00000  -0.00585  -0.00585  -0.87021
   Y18       -2.10749  -0.00342   0.00000   0.00751   0.00751  -2.09999
   Z18       -2.33095   0.00027   0.00000   0.00548   0.00548  -2.32547
   X19       -0.30464  -0.00175   0.00000  -0.00804  -0.00804  -0.31268
   Y19       -3.97383   0.00725   0.00000   0.02228   0.02228  -3.95154
   Z19       -1.66636  -0.00166   0.00000  -0.00155  -0.00155  -1.66791
   X20       -3.08155  -0.00871   0.00000   0.00026   0.00026  -3.08129
   Y20       -1.63233  -0.00163   0.00000   0.00368   0.00368  -1.62865
   Z20       -3.56636  -0.00343   0.00000  -0.00719  -0.00719  -3.57356
   X21       -4.42742   0.00519   0.00000   0.01251   0.01251  -4.41491
   Y21       -3.16969   0.00547   0.00000   0.01581   0.01581  -3.15388
   Z21       -3.84295   0.00114   0.00000  -0.00395  -0.00395  -3.84690
   X22       -3.62655   0.01750   0.00000   0.03028   0.03028  -3.59627
   Y22        0.82030   0.00461   0.00000  -0.00319  -0.00319   0.81711
   Z22       -4.43169   0.00087   0.00000  -0.01048  -0.01048  -4.44217
   X23       -5.39779   0.00640   0.00000   0.03736   0.03736  -5.36043
   Y23        1.22998  -0.00034   0.00000  -0.00007  -0.00007   1.22991
   Z23       -5.40792   0.00399   0.00000   0.00612   0.00612  -5.40180
   X24       -5.32212  -0.00428   0.00000  -0.00695  -0.00695  -5.32907
   Y24        2.49893   0.00491   0.00000   0.01342   0.01342   2.51235
   Z24       -0.99050   0.00925   0.00000   0.04178   0.04178  -0.94872
   X25       -1.76692  -0.01544   0.00000  -0.02323  -0.02323  -1.79015
   Y25        2.71078  -0.00660   0.00000  -0.00489  -0.00489   2.70588
   Z25       -4.08955  -0.00462   0.00000   0.00869   0.00869  -4.08086
   X26        0.39530  -0.00343   0.00000  -0.02717  -0.02717   0.36813
   Y26        2.15413   0.00359   0.00000  -0.00057  -0.00057   2.15356
   Z26       -2.74020   0.00245   0.00000   0.02492   0.02492  -2.71528
   X27        1.85694  -0.00683   0.00000  -0.04171  -0.04171   1.81523
   Y27        3.56518  -0.00490   0.00000  -0.00739  -0.00739   3.55779
   Z27       -2.37093   0.00065   0.00000   0.02021   0.02021  -2.35071
   X28       -2.18453  -0.01441   0.00000  -0.03000  -0.03000  -2.21453
   Y28        5.38545  -0.01246   0.00000  -0.00103  -0.00103   5.38442
   Z28       -5.01787  -0.00352   0.00000   0.02836   0.02836  -4.98951
   X29       -1.45106   0.01812   0.00000   0.06636   0.06636  -1.38470
   Y29        7.20156   0.01581   0.00000  -0.00866  -0.00866   7.19289
   Z29       -3.91229   0.01496   0.00000   0.02076   0.02076  -3.89153
   X30       -3.67873   0.00355   0.00000   0.00907   0.00907  -3.66966
   Y30        5.62415  -0.00914   0.00000  -0.01902  -0.01902   5.60513
   Z30       -7.11415  -0.00339   0.00000  -0.01146  -0.01146  -7.12561
   X31       -3.66406  -0.00268   0.00000  -0.01469  -0.01469  -3.67875
   Y31        7.38450   0.00066   0.00000  -0.01527  -0.01527   7.36923
   Z31       -7.83993  -0.00169   0.00000  -0.01394  -0.01394  -7.85386
   X32       -3.71191  -0.00217   0.00000  -0.00629  -0.00629  -3.71820
   Y32        4.18163   0.00049   0.00000  -0.01261  -0.01261   4.16902
   Z32       -8.35154  -0.00280   0.00000  -0.01863  -0.01863  -8.37018
   X33        1.71616  -0.00899   0.00000  -0.02103  -0.02103   1.69513
   Y33        4.00854  -0.01251   0.00000  -0.02009  -0.02009   3.98845
   Z33        7.36533  -0.01207   0.00000  -0.02764  -0.02764   7.33769
   X34       -1.68066   0.01458   0.00000   0.00105   0.00105  -1.67961
   Y34        3.85760  -0.05351   0.00000  -0.03337  -0.03337   3.82424
   Z34        3.18476   0.02089   0.00000  -0.00128  -0.00128   3.18349
   X35       -3.33782  -0.02484   0.00000  -0.01105  -0.01105  -3.34886
   Y35        5.01003   0.01502   0.00000   0.01356   0.01356   5.02359
   Z35        1.65642  -0.02500   0.00000  -0.02540  -0.02540   1.63102
   X36       -7.43561   0.00846   0.00000   0.02349   0.02349  -7.41211
   Y36        6.01757  -0.01355   0.00000  -0.02677  -0.02677   5.99080
   Z36       -0.62781   0.00640   0.00000   0.01642   0.01642  -0.61139
   X37       -5.74668   0.00904   0.00000   0.02081   0.02081  -5.72587
   Y37        3.90484   0.00579   0.00000   0.01555   0.01555   3.92039
   Z37        0.52180   0.00569   0.00000   0.01479   0.01479   0.53658
   X38       -1.58812  -0.01067   0.00000  -0.07430  -0.07430  -1.66242
   Y38        1.43068   0.02713   0.00000   0.00511   0.00511   1.43579
   Z38        3.70714  -0.00924   0.00000  -0.01681  -0.01681   3.69033
   X39        0.63373   0.01304   0.00000   0.02914   0.02914   0.66286
   Y39        5.83437   0.01256   0.00000   0.00325   0.00325   5.83763
   Z39        4.63452   0.00569   0.00000  -0.00725  -0.00725   4.62727
   X40        0.02798   0.00746   0.00000   0.01331   0.01331   0.04129
   Y40        3.31316   0.00111   0.00000  -0.00812  -0.00812   3.30504
   Z40        8.35154  -0.00076   0.00000   0.00050   0.00050   8.35204
   X41        2.84678  -0.00329   0.00000   0.00141   0.00141   2.84818
   Y41        2.42278   0.00516   0.00000  -0.00324  -0.00324   2.41954
   Z41        6.65290   0.00760   0.00000   0.03640   0.03640   6.68930
   X42       -9.16045   0.00232   0.00000   0.01996   0.01996  -9.14049
   Y42        5.17871   0.00457   0.00000   0.00656   0.00656   5.18527
   Z42       -1.41212   0.00045   0.00000   0.00828   0.00828  -1.40383
   X43       -6.38486  -0.00368   0.00000  -0.00620  -0.00620  -6.39106
   Y43        6.99556   0.00012   0.00000  -0.00652  -0.00652   6.98905
   Z43       -2.12063   0.00186   0.00000   0.01555   0.01555  -2.10508
   X44       -7.93382  -0.00007   0.00000   0.00829   0.00829  -7.92553
   Y44        7.38535  -0.00180   0.00000  -0.01551  -0.01551   7.36983
   Z44        0.84454  -0.00407   0.00000  -0.00932  -0.00932   0.83522
   X45       -6.78850   0.00446   0.00000   0.02829   0.02829  -6.76021
   Y45        2.86542   0.00269   0.00000   0.01142   0.01142   2.87684
   Z45        2.01067  -0.00803   0.00000  -0.01256  -0.01256   1.99811
   X46       -3.00894  -0.00411   0.00000  -0.02641  -0.02641  -3.03536
   Y46        7.01604  -0.00147   0.00000   0.01142   0.01142   7.02745
   Z46        1.34481   0.00044   0.00000  -0.00457  -0.00457   1.34024
   X47        4.99528   0.00124   0.00000   0.00186   0.00186   4.99714
   Y47       -7.69319  -0.00122   0.00000   0.01900   0.01900  -7.67419
   Z47       -0.51776  -0.00098   0.00000  -0.00294  -0.00294  -0.52070
   X48        2.85729  -0.00340   0.00000  -0.03841  -0.03841   2.81888
   Y48        5.18654   0.00399   0.00000   0.02303   0.02303   5.20958
   Z48        8.61149  -0.00475   0.00000  -0.04721  -0.04721   8.56428
         Item               Value     Threshold  Converged?
 Maximum Force            0.053511     0.000450     NO 
 RMS     Force            0.010355     0.000300     NO 
 Maximum Displacement     0.074300     0.001800     NO 
 RMS     Displacement     0.025049     0.001200     NO 
 Predicted change in Energy=-1.604638D-02
 GradGradGradGradGradGradGradGradGradGradGradGradGradGradGradGradGradGrad

 Leave Link  103 at Wed Mar  8 15:47:08 2023, MaxMem=  2684354560 cpu:               1.0 elap:               0.1
 (Enter /opt/gaussian/g16/l9999.exe)

 Test job not archived.
 1\1\GINC-JULIO-SYS\Force\RM062X\def2TZVP\C16H24N2O5S1\JVELAZQUEZ\08-Ma
 r-2023\0\\#P M062X/Def2TZVP scf=(direct,conver=8) EmpiricalDispersion=
 GD3 NoSymm Force pop=(NBORead) Charge Prop=(Field,Read)\\Gaussian run 
 using SANDER external interface, route from template gau_job.tpl\\0,1\
 C,3.4823349065,-3.5407203118,-0.7245501444\H,3.4584321922,-3.631894490
 3,-1.8189778124\H,4.4406864645,-3.9081566127,-0.3299936709\C,1.6183481
 225,-1.1414047555,1.0666707517\H,0.8836320295,-1.9774086898,1.10271311
 79\O,1.349531255,-0.2866793659,2.1184254459\H,0.4068578835,0.163862278
 1,2.084188959\C,3.0965401954,-1.6596988179,1.1136385681\H,3.2641631918
 ,-2.4775722181,1.8438732809\O,3.8998300509,-0.554887875,1.4916338405\H
 ,4.8475012135,-0.7507314335,1.5171666703\C,1.6656193387,-0.4223144955,
 -0.313647582\H,2.2766149578,0.4985498752,-0.2236154357\C,3.4218522348,
 -2.029578515,-0.3784807033\H,4.3424517318,-1.5201003493,-0.7301151028\
 O,2.340327346,-1.3817504463,-1.1291155639\N,0.4207026826,-0.1146899713
 ,-1.0024866428\C,-0.457399487,-1.1152376812,-1.2334857823\H,-0.1612080
 416,-2.1028594624,-0.8817989895\C,-1.6306858461,-0.8637924176,-1.88723
 83032\H,-2.3428888663,-1.6773252059,-2.0336013748\C,-1.9190886438,0.43
 40815016,-2.3451508456\H,-2.8563881957,0.6508750032,-2.8617500262\H,-2
 .8163426035,1.322376533,-0.5241506493\C,-0.9350148412,1.4344810114,-2.
 1640977782\C,0.2091837204,1.1399186137,-1.4500538194\H,0.9826494243,1.
 8866099044,-1.2546411775\C,-1.1560060248,2.8498585043,-2.6553441577\O,
 -0.7678658583,3.8109005936,-2.0702962957\N,-1.946702192,2.976170235,-3
 .7646442312\H,-1.9389370479,3.9077092164,-4.1487111592\H,-1.9642591356
 ,2.2128253575,-4.419447087\C,0.9081525319,2.1212274984,3.8975645292\C,
 -0.8893671319,2.0413557912,1.685304642\C,-1.7662961549,2.6511950416,0.
 8765378216\C,-3.9347534686,3.1843611845,-0.3322239203\C,-3.0410108561,
 2.066351034,0.2761222969\O,-0.8403976799,0.7570840382,1.9617329722\S,0
 .3353529134,3.0874166302,2.4524827281\H,0.0148076766,1.7532461969,4.41
 9447087\H,1.5064484985,1.282078105,3.5205614745\H,-4.8475012135,2.7404
 539302,-0.747259279\H,-3.3787221216,3.7018933243,-1.1221888844\H,-4.19
 83967189,3.9081566127,0.4469112789\H,-3.5923177316,1.5163123588,1.0640
 000196\H,-1.5922640089,3.7127269211,0.7116409288\H,2.6433899209,-4.071
 0627863,-0.2739858638\H,1.5120108238,2.7446012032,4.5570039786\\Versio
 n=ES64L-G16RevA.03\HF=-1507.8496831\RMSD=5.358e-09\RMSF=1.036e-02\Dipo
 le=0.5518304,-2.6933902,-3.9312038\Quadrupole=8.817258,-11.299587,2.48
 2329,-4.3113755,11.2888307,-10.9380741\PG=C01 [X(C16H24N2O5S1)]\\@


      TO SUSPECT YOUR OWN MORTALITY IS TO KNOW THE BEGINNING OF TERROR.
      TO LEARN IRREFUTABLY THAT YOU ARE MORTAL IS TO KNOW THE END
      OF TERROR.

                                                  -- JESSICA
                                                     CHILDREN OF DUNE
                                                     BY FRANK HERBERT
 Job cpu time:       0 days  7 hours 14 minutes 11.4 seconds.
 Elapsed time:       0 days  0 hours 27 minutes 15.4 seconds.
 File lengths (MBytes):  RWF=    435 Int=      0 D2E=      0 Chk=     48 Scr=      1
 Normal termination of Gaussian 16 at Wed Mar  8 15:47:08 2023.
